<event>
 6    1  0.1375310E-005  0.1344327E+04  0.7818608E-02  0.9102101E-01
          4   -1    0    0  502    0 -0.00000000000E+00  0.00000000000E+00  0.27193231927E+04  0.27193231927E+04  0.00000000000E+00 0.  1.
         21   -1    0    0  501  502  0.00000000000E+00 -0.00000000000E+00 -0.63799634438E+03  0.63799634438E+03  0.00000000000E+00 0.  1.
    9000010    2    1    2  501    0 -0.82464069374E+03 -0.33274512387E+03  0.31644332765E+03  0.13810691876E+04  0.10081984576E+04 0.  0.
        -13    1    3    3    0    0 -0.75299321779E+03  0.20918821470E+03  0.29066306287E+03  0.83381264232E+03  0.10566000000E+00 0.  1.
          4    1    3    3  501    0 -0.71647475953E+02 -0.54193333858E+03  0.25780264783E+02  0.54725654525E+03  0.00000000000E+00 0.  1.
         13    1    1    2    0    0  0.82464069374E+03  0.33274512387E+03  0.17648835207E+04  0.19762503495E+04  0.10566000000E+00 0. -1.
<mgrwt>
<rscale>  1 0.12123660E+04</rscale>
<asrwt>0</asrwt>
<pdfrwt beam="2">  1       21 0.98153285E-01 0.13443272E+04</pdfrwt>
<pdfrwt beam="1">  1        4 0.41835741E+00 0.13443272E+04</pdfrwt>
<totfact> 0.15490741E-01</totfact>
</mgrwt>
</event>
<event>
 6    1  0.1375310E-005  0.1023913E+04  0.7818608E-02  0.9683810E-01
         21   -1    0    0  501  502  0.00000000000E+00  0.00000000000E+00  0.22257799240E+04  0.22257799240E+04  0.00000000000E+00 0.  1.
          4   -1    0    0  502    0 -0.00000000000E+00 -0.00000000000E+00 -0.52363751556E+03  0.52363751556E+03  0.00000000000E+00 0.  1.
    9000010    2    1    2  501    0 -0.22366247631E+03 -0.11212155738E+03  0.20671820176E+04  0.23068679233E+04  0.99287560873E+03 0.  0.
        -13    1    3    3    0    0 -0.43501242495E+03 -0.25701765011E+03  0.47264592196E+03  0.69187286479E+03  0.10566000000E+00 0.  1.
          4    1    3    3  501    0  0.21134994864E+03  0.14489609272E+03  0.15945360957E+04  0.16149950585E+04  0.00000000000E+00 0.  1.
         13    1    1    2    0    0  0.22366247631E+03  0.11212155738E+03 -0.36503960919E+03  0.44254951630E+03  0.10566000000E+00 0. -1.
<mgrwt>
<rscale>  1 0.71988943E+03</rscale>
<asrwt>0</asrwt>
<pdfrwt beam="1">  1       21 0.34242768E+00 0.10239131E+04</pdfrwt>
<pdfrwt beam="2">  1        4 0.80559619E-01 0.10239131E+04</pdfrwt>
<totfact> 0.76956111E-01</totfact>
</mgrwt>
</event>
<event>
 6    1  0.1375310E-005  0.9744539E+03  0.7818608E-02  0.1024969E+00
         21   -1    0    0  501  502  0.00000000000E+00  0.00000000000E+00  0.11855654090E+04  0.11855654090E+04  0.00000000000E+00 0.  1.
          4   -1    0    0  502    0 -0.00000000000E+00 -0.00000000000E+00 -0.23444243289E+03  0.23444243289E+03  0.00000000000E+00 0.  1.
    9000010    2    1    2  501    0 -0.17504582972E+02 -0.44820548731E+02  0.96345971269E+03  0.13703339227E+04  0.97326520015E+03 0.  0.
        -13    1    3    3    0    0 -0.34989557080E+03  0.30212313377E+03  0.29972325235E+03  0.55094404216E+03  0.10566000000E+00 0.  1.
          4    1    3    3  501    0  0.33239098783E+03 -0.34694368250E+03  0.66373646034E+03  0.81938988058E+03  0.00000000000E+00 0.  1.
         13    1    1    2    0    0  0.17504582972E+02  0.44820548731E+02 -0.12336736553E+02  0.49673919177E+02  0.10566000000E+00 0. -1.
<mgrwt>
<rscale>  1 0.45935343E+03</rscale>
<asrwt>0</asrwt>
<pdfrwt beam="1">  1       21 0.18239468E+00 0.97445392E+03</pdfrwt>
<pdfrwt beam="2">  1        4 0.36068067E-01 0.97445392E+03</pdfrwt>
<totfact> 0.46560753E+01</totfact>
</mgrwt>
</event>
<event>
 6    1  0.1375310E-005  0.9970383E+03  0.7818608E-02  0.9934449E-01
         21   -1    0    0  501  502  0.00000000000E+00  0.00000000000E+00  0.31507937664E+03  0.31507937664E+03  0.00000000000E+00 0.  1.
          4   -1    0    0  502    0 -0.00000000000E+00 -0.00000000000E+00 -0.11433316755E+04  0.11433316755E+04  0.00000000000E+00 0.  1.
    9000010    2    1    2  501    0  0.10844753151E+03  0.49331962902E+02 -0.51274192276E+03  0.11211554840E+04  0.98989435309E+03 0.  0.
        -13    1    3    3    0    0 -0.15161879877E+03  0.43905114395E+03 -0.57766213061E+02  0.46807169715E+03  0.10566000000E+00 0.  1.
          4    1    3    3  501    0  0.26006633028E+03 -0.38971918104E+03 -0.45497570970E+03  0.65308378684E+03  0.00000000000E+00 0.  1.
         13    1    1    2    0    0 -0.10844753151E+03 -0.49331962902E+02 -0.31551037614E+03  0.33725556818E+03  0.10566000000E+00 0. -1.
<mgrwt>
<rscale>  1 0.58620426E+03</rscale>
<asrwt>0</asrwt>
<pdfrwt beam="1">  1       21 0.48473751E-01 0.99703828E+03</pdfrwt>
<pdfrwt beam="2">  1        4 0.17589718E+00 0.99703828E+03</pdfrwt>
<totfact> 0.30891316E+01</totfact>
</mgrwt>
</event>
<event>
 6    1  0.1375310E-005  0.1014384E+04  0.7818608E-02  0.9806439E-01
         21   -1    0    0  501  502  0.00000000000E+00  0.00000000000E+00  0.18855850067E+04  0.18855850067E+04  0.00000000000E+00 0.  1.
          4   -1    0    0  502    0 -0.00000000000E+00 -0.00000000000E+00 -0.22580889318E+03  0.22580889318E+03  0.00000000000E+00 0.  1.
    9000010    2    1    2  501    0 -0.31030387908E+02  0.16837551677E+03  0.16537610432E+04  0.19400772578E+04  0.99983047492E+03 0.  0.
        -13    1    3    3    0    0  0.40853748038E+03  0.31761730619E+03  0.62494905242E+03  0.81138459152E+03  0.10566000000E+00 0.  1.
          4    1    3    3  501    0 -0.43956786829E+03 -0.14924178941E+03  0.10288119907E+04  0.11286926662E+04  0.00000000000E+00 0.  1.
         13    1    1    2    0    0  0.31030387908E+02 -0.16837551677E+03  0.60150703342E+01  0.17131664209E+03  0.10566000000E+00 0. -1.
<mgrwt>
<rscale>  1 0.65018149E+03</rscale>
<asrwt>0</asrwt>
<pdfrwt beam="1">  1       21 0.29008999E+00 0.10143836E+04</pdfrwt>
<pdfrwt beam="2">  1        4 0.34739831E-01 0.10143836E+04</pdfrwt>
<totfact> 0.98741960E+00</totfact>
</mgrwt>
</event>
<event>
 6    1  0.1375310E-005  0.1174545E+04  0.7818608E-02  0.9366048E-01
          4   -1    0    0  502    0 -0.00000000000E+00  0.00000000000E+00  0.43596938652E+03  0.43596938652E+03  0.00000000000E+00 0.  1.
         21   -1    0    0  501  502  0.00000000000E+00 -0.00000000000E+00 -0.16176473556E+04  0.16176473556E+04  0.00000000000E+00 0. -1.
    9000010    2    1    2  501    0  0.23509110617E+03 -0.44247316260E+03 -0.76246157504E+03  0.14003229919E+04  0.10623118659E+04 0.  0.
        -13    1    3    3    0    0  0.27724546393E+03 -0.18458421751E+03  0.20974512716E+03  0.39361073430E+03  0.10566000000E+00 0.  1.
          4    1    3    3  501    0 -0.42154357761E+02 -0.25788894509E+03 -0.97220670220E+03  0.10067122576E+04  0.00000000000E+00 0.  1.
         13    1    1    2    0    0 -0.23509110617E+03  0.44247316260E+03 -0.41921639399E+03  0.65329375014E+03  0.10566000000E+00 0. -1.
<mgrwt>
<rscale>  1 0.94923229E+03</rscale>
<asrwt>0</asrwt>
<pdfrwt beam="2">  1       21 0.24886882E+00 0.11745454E+04</pdfrwt>
<pdfrwt beam="1">  1        4 0.67072213E-01 0.11745454E+04</pdfrwt>
<totfact> 0.43859921E+00</totfact>
</mgrwt>
</event>
<event>
 6    1  0.1375310E-005  0.1024162E+04  0.7818608E-02  0.9934346E-01
         21   -1    0    0  501  502  0.00000000000E+00  0.00000000000E+00  0.22137649637E+04  0.22137649637E+04  0.00000000000E+00 0.  1.
          4   -1    0    0  502    0 -0.00000000000E+00 -0.00000000000E+00 -0.14838667978E+03  0.14838667978E+03  0.00000000000E+00 0.  1.
    9000010    2    1    2  501    0  0.70826063200E+02  0.84111201652E+02  0.19510836876E+04  0.22035505987E+04  0.10182419456E+04 0.  0.
        -13    1    3    3    0    0 -0.37304550835E+03 -0.13631838954E+03  0.35641054616E+03  0.53364233641E+03  0.10566000000E+00 0.  1.
          4    1    3    3  501    0  0.44387157155E+03  0.22042959119E+03  0.15946731414E+04  0.16699082623E+04  0.00000000000E+00 0.  1.
         13    1    1    2    0    0 -0.70826063200E+02 -0.84111201652E+02  0.11429459638E+03  0.15860104476E+03  0.10566000000E+00 0. -1.
<mgrwt>
<rscale>  1 0.58625211E+03</rscale>
<asrwt>0</asrwt>
<pdfrwt beam="1">  1       21 0.34057920E+00 0.10241619E+04</pdfrwt>
<pdfrwt beam="2">  1        4 0.22828722E-01 0.10241619E+04</pdfrwt>
<totfact> 0.10790228E+01</totfact>
</mgrwt>
</event>
<event>
 6    1  0.1375310E-005  0.9616323E+03  0.7818608E-02  0.9809357E-01
         21   -1    0    0  501  502  0.00000000000E+00  0.00000000000E+00  0.13543541226E+04  0.13543541226E+04  0.00000000000E+00 0.  1.
          4   -1    0    0  502    0 -0.00000000000E+00 -0.00000000000E+00 -0.27073489636E+03  0.27073489636E+03  0.00000000000E+00 0.  1.
    9000010    2    1    2  501    0 -0.19250309074E+03 -0.50619122231E+02  0.68859827659E+03  0.11827528376E+04  0.94080654385E+03 0.  0.
        -13    1    3    3    0    0 -0.39307629558E+03 -0.15665221370E+03  0.81843713499E+03  0.92135131481E+03  0.10566000000E+00 0.  1.
          4    1    3    3  501    0  0.20057320484E+03  0.10603309147E+03 -0.12983885840E+03  0.26140152283E+03  0.00000000000E+00 0.  1.
         13    1    1    2    0    0  0.19250309074E+03  0.50619122231E+02  0.39502094970E+03  0.44233618136E+03  0.10566000000E+00 0. -1.
<mgrwt>
<rscale>  1 0.64862816E+03</rscale>
<asrwt>0</asrwt>
<pdfrwt beam="1">  1       21 0.20836217E+00 0.96163230E+03</pdfrwt>
<pdfrwt beam="2">  1        4 0.41651523E-01 0.96163230E+03</pdfrwt>
<totfact> 0.22981045E+01</totfact>
</mgrwt>
</event>
<event>
 6    1  0.1375310E-005  0.8370613E+03  0.7818608E-02  0.1000410E+00
         21   -1    0    0  501  502  0.00000000000E+00  0.00000000000E+00  0.20028519346E+04  0.20028519346E+04  0.00000000000E+00 0.  1.
          4   -1    0    0  502    0 -0.00000000000E+00 -0.00000000000E+00 -0.12455332074E+03  0.12455332074E+03  0.00000000000E+00 0.  1.
    9000010    2    1    2  501    0  0.88146847919E+01 -0.16118914321E+03  0.15971113636E+04  0.18031739808E+04  0.82134770866E+03 0.  0.
        -13    1    3    3    0    0  0.31724669706E+03 -0.22685544093E+03  0.37505576637E+03  0.54108751319E+03  0.10566000000E+00 0.  1.
          4    1    3    3  501    0 -0.30843201227E+03  0.65666297726E+02  0.12220555973E+04  0.12620864676E+04  0.00000000000E+00 0.  1.
         13    1    1    2    0    0 -0.88146847919E+01  0.16118914321E+03  0.28118725017E+03  0.32423127452E+03  0.10566000000E+00 0. -1.
<mgrwt>
<rscale>  1 0.55470750E+03</rscale>
<asrwt>0</asrwt>
<pdfrwt beam="1">  1       21 0.30813104E+00 0.83706135E+03</pdfrwt>
<pdfrwt beam="2">  1        4 0.19162051E-01 0.83706135E+03</pdfrwt>
<totfact> 0.24672399E+01</totfact>
</mgrwt>
</event>
<event>
 6    1  0.1375310E-005  0.1239097E+04  0.7818608E-02  0.9251948E-01
         21   -1    0    0  501  502  0.00000000000E+00  0.00000000000E+00  0.20576771398E+04  0.20576771398E+04  0.00000000000E+00 0. -1.
          4   -1    0    0  502    0 -0.00000000000E+00 -0.00000000000E+00 -0.48494151374E+03  0.48494151374E+03  0.00000000000E+00 0.  1.
    9000010    2    1    2  501    0  0.61410524905E+03 -0.20358866153E+03  0.14068382022E+04  0.18747147934E+04  0.10567820160E+04 0.  0.
        -13    1    3    3    0    0 -0.12606437234E+03 -0.14446360413E+03  0.10192290622E+04  0.10371064802E+04  0.10566000000E+00 0.  1.
          4    1    3    3  501    0  0.74016962139E+03 -0.59125057400E+02  0.38760914001E+03  0.83760831315E+03  0.00000000000E+00 0.  1.
         13    1    1    2    0    0 -0.61410524905E+03  0.20358866153E+03  0.16589742381E+03  0.66790386015E+03  0.10566000000E+00 0. -1.
<mgrwt>
<rscale>  1 0.10532962E+04</rscale>
<asrwt>0</asrwt>
<pdfrwt beam="1">  1       21 0.31656571E+00 0.12390972E+04</pdfrwt>
<pdfrwt beam="2">  1        4 0.74606388E-01 0.12390972E+04</pdfrwt>
<totfact> 0.12808716E+00</totfact>
</mgrwt>
</event>
<event>
 6    1  0.1375310E-005  0.1060764E+04  0.7818608E-02  0.9613487E-01
         21   -1    0    0  501  502  0.00000000000E+00  0.00000000000E+00  0.61685256793E+03  0.61685256793E+03  0.00000000000E+00 0.  1.
          4   -1    0    0  502    0 -0.00000000000E+00 -0.00000000000E+00 -0.93709132218E+03  0.93709132218E+03  0.00000000000E+00 0.  1.
    9000010    2    1    2  501    0  0.16664453962E+03 -0.23192854473E+03  0.78292487035E+02  0.10636496786E+04  0.10215966292E+04 0.  0.
        -13    1    3    3    0    0  0.35925355173E+03  0.22791941431E+03  0.29737732369E+03  0.51907962555E+03  0.10566000000E+00 0.  1.
          4    1    3    3  501    0 -0.19260901211E+03 -0.45984795904E+03 -0.21908483665E+03  0.54457005301E+03  0.00000000000E+00 0.  1.
         13    1    1    2    0    0 -0.16664453962E+03  0.23192854473E+03 -0.39853124128E+03  0.49029421156E+03  0.10566000000E+00 0. -1.
<mgrwt>
<rscale>  1 0.76409906E+03</rscale>
<asrwt>0</asrwt>
<pdfrwt beam="1">  1       21 0.94900395E-01 0.10607643E+04</pdfrwt>
<pdfrwt beam="2">  1        4 0.14416790E+00 0.10607643E+04</pdfrwt>
<totfact> 0.11424979E+01</totfact>
</mgrwt>
</event>
<event>
 6    1  0.1375310E-005  0.1005539E+04  0.7818608E-02  0.9828900E-01
          4   -1    0    0  502    0 -0.00000000000E+00  0.00000000000E+00  0.40162474670E+03  0.40162474670E+03  0.00000000000E+00 0.  1.
         21   -1    0    0  501  502  0.00000000000E+00 -0.00000000000E+00 -0.10043645865E+04  0.10043645865E+04  0.00000000000E+00 0.  1.
    9000010    2    1    2  501    0 -0.58499938733E+02 -0.15247634417E+03 -0.69126339770E+03  0.12202268240E+04  0.99218805610E+03 0.  0.
        -13    1    3    3    0    0  0.26969316606E+03 -0.29767323146E+03  0.41985876790E+02  0.40386455844E+03  0.10566000000E+00 0.  1.
          4    1    3    3  501    0 -0.32819310479E+03  0.14519688730E+03 -0.73324927449E+03  0.81636226557E+03  0.00000000000E+00 0.  1.
         13    1    1    2    0    0  0.58499938733E+02  0.15247634417E+03  0.88523557890E+02  0.18576250921E+03  0.10566000000E+00 0. -1.
<mgrwt>
<rscale>  1 0.63834381E+03</rscale>
<asrwt>0</asrwt>
<pdfrwt beam="2">  1       21 0.15451763E+00 0.10055389E+04</pdfrwt>
<pdfrwt beam="1">  1        4 0.61788423E-01 0.10055389E+04</pdfrwt>
<totfact> 0.24393225E+01</totfact>
</mgrwt>
</event>
<event>
 6    1  0.1375310E-005  0.1117585E+04  0.7818608E-02  0.9399523E-01
          4   -1    0    0  502    0 -0.00000000000E+00  0.00000000000E+00  0.12608015226E+04  0.12608015226E+04  0.00000000000E+00 0.  1.
         21   -1    0    0  501  502  0.00000000000E+00 -0.00000000000E+00 -0.58245958130E+03  0.58245958130E+03  0.00000000000E+00 0. -1.
    9000010    2    1    2  501    0  0.47487929639E+03  0.20133318364E+03  0.19126844667E+03  0.11338345768E+04  0.99143927293E+03 0.  0.
        -13    1    3    3    0    0  0.62355462067E+03  0.45756169596E+03  0.28322752045E+03  0.82365096374E+03  0.10566000000E+00 0.  1.
          4    1    3    3  501    0 -0.14867532427E+03 -0.25622851231E+03 -0.91959073777E+02  0.31018361308E+03  0.00000000000E+00 0.  1.
         13    1    1    2    0    0 -0.47487929639E+03 -0.20133318364E+03  0.48707349460E+03  0.70942652705E+03  0.10566000000E+00 0. -1.
<mgrwt>
<rscale>  1 0.92114929E+03</rscale>
<asrwt>0</asrwt>
<pdfrwt beam="2">  1       21 0.89609167E-01 0.11175854E+04</pdfrwt>
<pdfrwt beam="1">  1        4 0.19396946E+00 0.11175854E+04</pdfrwt>
<totfact> 0.56651991E+00</totfact>
</mgrwt>
</event>
<event>
 6    1  0.1375310E-005  0.1010789E+04  0.7818608E-02  0.1010918E+00
         21   -1    0    0  501  502  0.00000000000E+00  0.00000000000E+00  0.93809757633E+03  0.93809757633E+03  0.00000000000E+00 0.  1.
          4   -1    0    0  502    0 -0.00000000000E+00 -0.00000000000E+00 -0.38214984716E+03  0.38214984716E+03  0.00000000000E+00 0.  1.
    9000010    2    1    2  501    0 -0.33561109113E+02  0.56926674653E+02  0.65260613634E+03  0.12031583413E+04  0.10086269036E+04 0.  0.
        -13    1    3    3    0    0  0.28560000000E+03 -0.25981934016E+03  0.64702228626E+03  0.75346619008E+03  0.10566000000E+00 0.  1.
          4    1    3    3  501    0 -0.31916110911E+03  0.31674601481E+03  0.55838500761E+01  0.44969215120E+03  0.00000000000E+00 0.  1.
         13    1    1    2    0    0  0.33561109113E+02 -0.56926674653E+02 -0.96658407165E+02  0.11708908220E+03  0.10566000000E+00 0. -1.
<mgrwt>
<rscale>  1 0.51111483E+03</rscale>
<asrwt>0</asrwt>
<pdfrwt beam="1">  1       21 0.14432270E+00 0.10107894E+04</pdfrwt>
<pdfrwt beam="2">  1        4 0.58792285E-01 0.10107894E+04</pdfrwt>
<totfact> 0.32851556E+01</totfact>
</mgrwt>
</event>
<event>
 6    1  0.1375310E-005  0.1024017E+04  0.7818608E-02  0.9877196E-01
          4   -1    0    0  502    0 -0.00000000000E+00  0.00000000000E+00  0.36483736587E+03  0.36483736587E+03  0.00000000000E+00 0.  1.
         21   -1    0    0  501  502  0.00000000000E+00 -0.00000000000E+00 -0.13666572811E+04  0.13666572811E+04  0.00000000000E+00 0.  1.
    9000010    2    1    2  501    0  0.11904511662E+03  0.57443851113E+02 -0.11453510118E+04  0.15363723195E+04  0.10154503573E+04 0.  0.
        -13    1    3    3    0    0  0.27934928033E+03 -0.40093015990E+03 -0.81087121438E+03  0.94672760127E+03  0.10566000000E+00 0.  1.
          4    1    3    3  501    0 -0.16030416370E+03  0.45837401102E+03 -0.33447979744E+03  0.58964471826E+03  0.00000000000E+00 0.  1.
         13    1    1    2    0    0 -0.11904511662E+03 -0.57443851113E+02  0.14353109658E+03  0.19512232745E+03  0.10566000000E+00 0. -1.
<mgrwt>
<rscale>  1 0.61379284E+03</rscale>
<asrwt>0</asrwt>
<pdfrwt beam="2">  1       21 0.21025497E+00 0.10240171E+04</pdfrwt>
<pdfrwt beam="1">  1        4 0.56128824E-01 0.10240171E+04</pdfrwt>
<totfact> 0.11829628E+01</totfact>
</mgrwt>
</event>
<event>
 6    1  0.1375310E-005  0.1113588E+04  0.7818608E-02  0.9415005E-01
         21   -1    0    0  501  502  0.00000000000E+00  0.00000000000E+00  0.12796539904E+04  0.12796539904E+04  0.00000000000E+00 0.  1.
          4   -1    0    0  502    0 -0.00000000000E+00 -0.00000000000E+00 -0.78908719162E+03  0.78908719162E+03  0.00000000000E+00 0.  1.
    9000010    2    1    2  501    0  0.37397536330E+03  0.32175505391E+03  0.89669830857E+03  0.14297367208E+04  0.99834630617E+03 0.  0.
        -13    1    3    3    0    0 -0.33455158543E+03  0.17129578732E+03  0.41477899950E+03  0.55973979638E+03  0.10566000000E+00 0.  1.
          4    1    3    3  501    0  0.70852694873E+03  0.15045926659E+03  0.48191930908E+03  0.86999692439E+03  0.00000000000E+00 0.  1.
         13    1    1    2    0    0 -0.37397536330E+03 -0.32175505391E+03 -0.40613150980E+03  0.63900446124E+03  0.10566000000E+00 0. -1.
<mgrwt>
<rscale>  1 0.90851064E+03</rscale>
<asrwt>0</asrwt>
<pdfrwt beam="1">  1       21 0.19686984E+00 0.11135884E+04</pdfrwt>
<pdfrwt beam="2">  1        4 0.12139803E+00 0.11135884E+04</pdfrwt>
<totfact> 0.24038329E+00</totfact>
</mgrwt>
</event>
<event>
 6    1  0.1375310E-005  0.1014251E+04  0.7818608E-02  0.9826573E-01
         21   -1    0    0  501  502  0.00000000000E+00  0.00000000000E+00  0.31174608409E+04  0.31174608409E+04  0.00000000000E+00 0.  1.
          4   -1    0    0  502    0 -0.00000000000E+00 -0.00000000000E+00 -0.12549709651E+03  0.12549709651E+03  0.00000000000E+00 0.  1.
    9000010    2    1    2  501    0 -0.84895711740E+02 -0.13603836640E+03  0.28624652639E+04  0.30368424682E+04  0.10014944189E+04 0.  0.
        -13    1    3    3    0    0  0.12108544928E+03  0.48315790160E+02  0.27250004799E+04  0.27281172497E+04  0.10566000000E+00 0.  1.
          4    1    3    3  501    0 -0.20598116102E+03 -0.18435415655E+03  0.13746478399E+03  0.30872521855E+03  0.00000000000E+00 0.  1.
         13    1    1    2    0    0  0.84895711740E+02  0.13603836640E+03  0.12949848054E+03  0.20611546917E+03  0.10566000000E+00 0. -1.
<mgrwt>
<rscale>  1 0.63955761E+03</rscale>
<asrwt>0</asrwt>
<pdfrwt beam="1">  1       21 0.47960930E+00 0.10142509E+04</pdfrwt>
<pdfrwt beam="2">  1        4 0.19307248E-01 0.10142509E+04</pdfrwt>
<totfact> 0.17668729E+00</totfact>
</mgrwt>
</event>
<event>
 6    1  0.1375310E-005  0.7713221E+03  0.7818608E-02  0.1045904E+00
         21   -1    0    0  501  502  0.00000000000E+00  0.00000000000E+00  0.24392340031E+04  0.24392340031E+04  0.00000000000E+00 0.  1.
          4   -1    0    0  502    0 -0.00000000000E+00 -0.00000000000E+00 -0.18449547910E+03  0.18449547910E+03  0.00000000000E+00 0.  1.
    9000010    2    1    2  501    0  0.51116391740E+02  0.11861027598E+02  0.23725388408E+04  0.24947702045E+04  0.76953508885E+03 0.  0.
        -13    1    3    3    0    0  0.60076280377E+02  0.16263369924E+03  0.69503846284E+02  0.18678778173E+03  0.10566000000E+00 0.  1.
          4    1    3    3  501    0 -0.89598886371E+01 -0.15077267164E+03  0.23030349945E+04  0.23079824228E+04  0.00000000000E+00 0.  1.
         13    1    1    2    0    0 -0.51116391740E+02 -0.11861027598E+02 -0.11780031681E+03  0.12895927762E+03  0.10566000000E+00 0. -1.
<mgrwt>
<rscale>  1 0.39392547E+03</rscale>
<asrwt>0</asrwt>
<pdfrwt beam="1">  1       21 0.37526675E+00 0.77132213E+03</pdfrwt>
<pdfrwt beam="2">  1        4 0.28383922E-01 0.77132213E+03</pdfrwt>
<totfact> 0.45327314E+00</totfact>
</mgrwt>
</event>
<event>
 6    1  0.1375310E-005  0.1045673E+04  0.7818608E-02  0.9563382E-01
         21   -1    0    0  501  502  0.00000000000E+00  0.00000000000E+00  0.18520213721E+04  0.18520213721E+04  0.00000000000E+00 0.  1.
          4   -1    0    0  502    0 -0.00000000000E+00 -0.00000000000E+00 -0.33743599720E+03  0.33743599720E+03  0.00000000000E+00 0.  1.
    9000010    2    1    2  501    0  0.42149463253E+02  0.35158293709E+03  0.15082760429E+04  0.18353006840E+04  0.98389269739E+03 0.  0.
        -13    1    3    3    0    0 -0.19768518929E+03 -0.13550716409E+03  0.79978658376E+01  0.23980325812E+03  0.10566000000E+00 0.  1.
          4    1    3    3  501    0  0.23983465254E+03  0.48709010118E+03  0.15002781771E+04  0.15954974259E+04  0.00000000000E+00 0.  1.
         13    1    1    2    0    0 -0.42149463253E+02 -0.35158293709E+03  0.63093319374E+01  0.35415668530E+03  0.10566000000E+00 0. -1.
<mgrwt>
<rscale>  1 0.79767971E+03</rscale>
<asrwt>0</asrwt>
<pdfrwt beam="1">  1       21 0.28492636E+00 0.10456730E+04</pdfrwt>
<pdfrwt beam="2">  1        4 0.51913231E-01 0.10456730E+04</pdfrwt>
<totfact> 0.46255196E+00</totfact>
</mgrwt>
</event>
<event>
 6    1  0.1375310E-005  0.9998576E+03  0.7818608E-02  0.9861339E-01
          4   -1    0    0  502    0 -0.00000000000E+00  0.00000000000E+00  0.37307804698E+03  0.37307804698E+03  0.00000000000E+00 0.  1.
         21   -1    0    0  501  502  0.00000000000E+00 -0.00000000000E+00 -0.90779698831E+03  0.90779698831E+03  0.00000000000E+00 0.  1.
    9000010    2    1    2  501    0  0.13858209969E+03 -0.56015026899E+02 -0.52927001062E+03  0.11313010282E+04  0.98862156088E+03 0.  0.
        -13    1    3    3    0    0  0.42442319117E+03 -0.25807213630E+03 -0.59505180191E+03  0.77512768681E+03  0.10566000000E+00 0.  1.
          4    1    3    3  501    0 -0.28584109148E+03  0.20205710940E+03  0.65781791291E+02  0.35617334137E+03  0.00000000000E+00 0.  1.
         13    1    1    2    0    0 -0.13858209969E+03  0.56015026899E+02 -0.54489307145E+01  0.14957400711E+03  0.10566000000E+00 0. -1.
<mgrwt>
<rscale>  1 0.62172104E+03</rscale>
<asrwt>0</asrwt>
<pdfrwt beam="2">  1       21 0.13966107E+00 0.99985763E+03</pdfrwt>
<pdfrwt beam="1">  1        4 0.57396623E-01 0.99985763E+03</pdfrwt>
<totfact> 0.37904214E+01</totfact>
</mgrwt>
</event>
<event>
 6    1  0.1375310E-005  0.1082726E+04  0.7818608E-02  0.9481110E-01
          4   -1    0    0  502    0 -0.00000000000E+00  0.00000000000E+00  0.19473545180E+03  0.19473545180E+03  0.00000000000E+00 0.  1.
         21   -1    0    0  501  502  0.00000000000E+00 -0.00000000000E+00 -0.30215505371E+04  0.30215505371E+04  0.00000000000E+00 0. -1.
    9000010    2    1    2  501    0 -0.42347730926E+03 -0.33494994896E+02 -0.22785022615E+04  0.25226708867E+04  0.99591209481E+03 0.  0.
        -13    1    3    3    0    0 -0.32274803504E+03 -0.48998593297E+03 -0.15472920647E+04  0.16548006688E+04  0.10566000000E+00 0.  1.
          4    1    3    3  501    0 -0.10072927422E+03  0.45649093808E+03 -0.73121019678E+03  0.86787021789E+03  0.00000000000E+00 0.  1.
         13    1    1    2    0    0  0.42347730926E+03  0.33494994896E+02 -0.54831282381E+03  0.69361510225E+03  0.10566000000E+00 0. -1.
<mgrwt>
<rscale>  1 0.85690971E+03</rscale>
<asrwt>0</asrwt>
<pdfrwt beam="2">  1       21 0.46485395E+00 0.10827261E+04</pdfrwt>
<pdfrwt beam="1">  1        4 0.29959299E-01 0.10827261E+04</pdfrwt>
<totfact> 0.95653846E-01</totfact>
</mgrwt>
</event>
<event>
 6    1  0.1375310E-005  0.1030199E+04  0.7818608E-02  0.9663254E-01
          4   -1    0    0  502    0 -0.00000000000E+00  0.00000000000E+00  0.49771008525E+03  0.49771008525E+03  0.00000000000E+00 0.  1.
         21   -1    0    0  501  502  0.00000000000E+00 -0.00000000000E+00 -0.17271213475E+04  0.17271213475E+04  0.00000000000E+00 0.  1.
    9000010    2    1    2  501    0  0.26255068401E+03 -0.19492438073E+02 -0.15177634369E+04  0.18343704173E+04  0.99599004038E+03 0.  0.
        -13    1    3    3    0    0  0.50676119032E+02  0.48216705036E+03 -0.75118336533E+03  0.89405234355E+03  0.10566000000E+00 0.  1.
          4    1    3    3  501    0  0.21187456498E+03 -0.50165948844E+03 -0.76658007157E+03  0.94031807372E+03  0.00000000000E+00 0.  1.
         13    1    1    2    0    0 -0.26255068401E+03  0.19492438073E+02  0.28835217466E+03  0.39046101548E+03  0.10566000000E+00 0. -1.
<mgrwt>
<rscale>  1 0.73247430E+03</rscale>
<asrwt>0</asrwt>
<pdfrwt beam="2">  1       21 0.26571097E+00 0.10301985E+04</pdfrwt>
<pdfrwt beam="1">  1        4 0.76570785E-01 0.10301985E+04</pdfrwt>
<totfact> 0.26021115E+00</totfact>
</mgrwt>
</event>
<event>
 6    1  0.1375310E-005  0.1002611E+04  0.7818608E-02  0.9827212E-01
          4   -1    0    0  502    0 -0.00000000000E+00  0.00000000000E+00  0.20089505794E+03  0.20089505794E+03  0.00000000000E+00 0.  1.
         21   -1    0    0  501  502  0.00000000000E+00 -0.00000000000E+00 -0.17045017978E+04  0.17045017978E+04  0.00000000000E+00 0.  1.
    9000010    2    1    2  501    0  0.84991443657E+02 -0.14219473326E+03 -0.13281140873E+04  0.16640660248E+04  0.98883053077E+03 0.  0.
        -13    1    3    3    0    0 -0.22117822330E+03 -0.48292250255E+03 -0.84688507308E+03  0.99967409094E+03  0.10566000000E+00 0.  1.
          4    1    3    3  501    0  0.30616966696E+03  0.34072776930E+03 -0.48122901419E+03  0.66439193390E+03  0.00000000000E+00 0.  1.
         13    1    1    2    0    0 -0.84991443657E+02  0.14219473326E+03 -0.17549265260E+03  0.24133083090E+03  0.10566000000E+00 0. -1.
<mgrwt>
<rscale>  1 0.63922401E+03</rscale>
<asrwt>0</asrwt>
<pdfrwt beam="2">  1       21 0.26223104E+00 0.10026109E+04</pdfrwt>
<pdfrwt beam="1">  1        4 0.30906933E-01 0.10026109E+04</pdfrwt>
<totfact> 0.18622919E+01</totfact>
</mgrwt>
</event>
<event>
 6    1  0.1375310E-005  0.1010845E+04  0.7818608E-02  0.9894558E-01
         21   -1    0    0  501  502  0.00000000000E+00  0.00000000000E+00  0.57620648366E+03  0.57620648366E+03  0.00000000000E+00 0.  1.
          4   -1    0    0  502    0 -0.00000000000E+00 -0.00000000000E+00 -0.61546714930E+03  0.61546714930E+03  0.00000000000E+00 0.  1.
    9000010    2    1    2  501    0  0.69585278924E+02 -0.10972477996E+03  0.81717383431E+02  0.10141424022E+04  0.10024596963E+04 0.  0.
        -13    1    3    3    0    0 -0.38352849688E+03 -0.17138866602E+03  0.29121251016E+03  0.51114862808E+03  0.10566000000E+00 0.  1.
          4    1    3    3  501    0  0.45311377580E+03  0.61663886056E+02 -0.20949512673E+03  0.50299377410E+03  0.00000000000E+00 0.  1.
         13    1    1    2    0    0 -0.69585278924E+02  0.10972477996E+03 -0.12097804907E+03  0.17753123078E+03  0.10566000000E+00 0. -1.
<mgrwt>
<rscale>  1 0.60525753E+03</rscale>
<asrwt>0</asrwt>
<pdfrwt beam="1">  1       21 0.88647152E-01 0.10108447E+04</pdfrwt>
<pdfrwt beam="2">  1        4 0.94687253E-01 0.10108447E+04</pdfrwt>
<totfact> 0.38846576E+01</totfact>
</mgrwt>
</event>
<event>
 6    1  0.1375310E-005  0.1032108E+04  0.7818608E-02  0.9785134E-01
         21   -1    0    0  501  502  0.00000000000E+00  0.00000000000E+00  0.88967458278E+03  0.88967458278E+03  0.00000000000E+00 0.  1.
          4   -1    0    0  502    0 -0.00000000000E+00 -0.00000000000E+00 -0.94780187853E+03  0.94780187853E+03  0.00000000000E+00 0.  1.
    9000010    2    1    2  501    0  0.13054581475E+03  0.11553972184E+03  0.57452863029E+03  0.11812408565E+04  0.10172783184E+04 0.  0.
        -13    1    3    3    0    0 -0.35998883363E+03 -0.22430005302E+03  0.32531524116E+03  0.53453951343E+03  0.10566000000E+00 0.  1.
          4    1    3    3  501    0  0.49053464837E+03  0.33983977487E+03  0.24921338913E+03  0.64670134310E+03  0.00000000000E+00 0.  1.
         13    1    1    2    0    0 -0.13054581475E+03 -0.11553972184E+03 -0.63265592604E+03  0.65623560478E+03  0.10566000000E+00 0. -1.
<mgrwt>
<rscale>  1 0.66166494E+03</rscale>
<asrwt>0</asrwt>
<pdfrwt beam="1">  1       21 0.13687301E+00 0.10321079E+04</pdfrwt>
<pdfrwt beam="2">  1        4 0.14581567E+00 0.10321079E+04</pdfrwt>
<totfact> 0.43450765E+00</totfact>
</mgrwt>
</event>
<event>
 6    1  0.1375310E-005  0.1016723E+04  0.7818608E-02  0.9653676E-01
          4   -1    0    0  502    0 -0.00000000000E+00  0.00000000000E+00  0.65023587569E+03  0.65023587569E+03  0.00000000000E+00 0.  1.
         21   -1    0    0  501  502  0.00000000000E+00 -0.00000000000E+00 -0.85416446817E+03  0.85416446817E+03  0.00000000000E+00 0.  1.
    9000010    2    1    2  501    0 -0.22821710224E+03 -0.16718183249E+03 -0.46630788017E+03  0.11185561880E+04  0.97657160293E+03 0.  0.
        -13    1    3    3    0    0 -0.27390963803E+03 -0.25026561637E+03 -0.74059844608E+03  0.82833896325E+03  0.10566000000E+00 0.  1.
          4    1    3    3  501    0  0.45692535796E+02  0.83083783884E+02  0.27429056591E+03  0.29021722471E+03  0.00000000000E+00 0.  1.
         13    1    1    2    0    0  0.22821710224E+03  0.16718183249E+03  0.26237928769E+03  0.38584415590E+03  0.10566000000E+00 0. -1.
<mgrwt>
<rscale>  1 0.73843179E+03</rscale>
<asrwt>0</asrwt>
<pdfrwt beam="2">  1       21 0.13140992E+00 0.10167226E+04</pdfrwt>
<pdfrwt beam="1">  1        4 0.10003629E+00 0.10167226E+04</pdfrwt>
<totfact> 0.12579899E+01</totfact>
</mgrwt>
</event>
<event>
 6    1  0.1375310E-005  0.1032090E+04  0.7818608E-02  0.9642621E-01
          4   -1    0    0  502    0 -0.00000000000E+00  0.00000000000E+00  0.69027119994E+03  0.69027119994E+03  0.00000000000E+00 0.  1.
         21   -1    0    0  501  502  0.00000000000E+00 -0.00000000000E+00 -0.76582417139E+03  0.76582417139E+03  0.00000000000E+00 0.  1.
    9000010    2    1    2  501    0 -0.27300062196E+03  0.65634856187E+02 -0.32340344745E+03  0.10815728172E+04  0.99316297512E+03 0.  0.
        -13    1    3    3    0    0  0.84837441662E+02  0.23189270571E+03 -0.56660228053E+03  0.61806939249E+03  0.10566000000E+00 0.  1.
          4    1    3    3  501    0 -0.35783806362E+03 -0.16625784952E+03  0.24319883308E+03  0.46350342471E+03  0.00000000000E+00 0.  1.
         13    1    1    2    0    0  0.27300062196E+03 -0.65634856187E+02  0.24785047600E+03  0.37452255413E+03  0.10566000000E+00 0. -1.
<mgrwt>
<rscale>  1 0.74538331E+03</rscale>
<asrwt>0</asrwt>
<pdfrwt beam="2">  1       21 0.11781910E+00 0.10320901E+04</pdfrwt>
<pdfrwt beam="1">  1        4 0.10619557E+00 0.10320901E+04</pdfrwt>
<totfact> 0.14467233E+01</totfact>
</mgrwt>
</event>
<event>
 6    1  0.1375310E-005  0.1108492E+04  0.7818608E-02  0.9422325E-01
         21   -1    0    0  501  502  0.00000000000E+00  0.00000000000E+00  0.27702259912E+03  0.27702259912E+03  0.00000000000E+00 0. -1.
          4   -1    0    0  502    0 -0.00000000000E+00 -0.00000000000E+00 -0.23718716115E+04  0.23718716115E+04  0.00000000000E+00 0.  1.
    9000010    2    1    2  501    0  0.47503531143E+03  0.10866668322E+03 -0.16581400417E+04  0.19945382438E+04  0.99563417619E+03 0.  0.
        -13    1    3    3    0    0  0.62004063486E+03  0.24562562190E+03 -0.53825782161E+03  0.85703198814E+03  0.10566000000E+00 0.  1.
          4    1    3    3  501    0 -0.14500532343E+03 -0.13695893868E+03 -0.11198822201E+04  0.11375062556E+04  0.00000000000E+00 0.  1.
         13    1    1    2    0    0 -0.47503531143E+03 -0.10866668322E+03 -0.43670897071E+03  0.65435596690E+03  0.10566000000E+00 0. -1.
<mgrwt>
<rscale>  1 0.90260944E+03</rscale>
<asrwt>0</asrwt>
<pdfrwt beam="1">  1       21 0.42618862E-01 0.11084920E+04</pdfrwt>
<pdfrwt beam="2">  1        4 0.36490332E+00 0.11084920E+04</pdfrwt>
<totfact> 0.25006463E+00</totfact>
</mgrwt>
</event>
<event>
 6    1  0.1375310E-005  0.1005554E+04  0.7818608E-02  0.9840114E-01
         21   -1    0    0  501  502  0.00000000000E+00  0.00000000000E+00  0.13315541896E+04  0.13315541896E+04  0.00000000000E+00 0.  1.
          4   -1    0    0  502    0 -0.00000000000E+00 -0.00000000000E+00 -0.28642191749E+03  0.28642191749E+03  0.00000000000E+00 0.  1.
    9000010    2    1    2  501    0 -0.76340798051E+02  0.13769638958E+03  0.66239301217E+03  0.12041191688E+04  0.99315167866E+03 0.  0.
        -13    1    3    3    0    0 -0.33318767616E+03 -0.14975343882E+03  0.72666363586E+03  0.81331431245E+03  0.10566000000E+00 0.  1.
          4    1    3    3  501    0  0.25684687811E+03  0.28744982840E+03 -0.64270623688E+02  0.39080485631E+03  0.00000000000E+00 0.  1.
         13    1    1    2    0    0  0.76340798051E+02 -0.13769638958E+03  0.38273925990E+03  0.41385693830E+03  0.10566000000E+00 0. -1.
<mgrwt>
<rscale>  1 0.63253523E+03</rscale>
<asrwt>0</asrwt>
<pdfrwt beam="1">  1       21 0.20485449E+00 0.10055538E+04</pdfrwt>
<pdfrwt beam="2">  1        4 0.44064911E-01 0.10055538E+04</pdfrwt>
<totfact> 0.21492915E+01</totfact>
</mgrwt>
</event>
<event>
 6    1  0.1375310E-005  0.1005467E+04  0.7818608E-02  0.9990997E-01
          4   -1    0    0  502    0 -0.00000000000E+00  0.00000000000E+00  0.39265936036E+03  0.39265936036E+03  0.00000000000E+00 0.  1.
         21   -1    0    0  501  502  0.00000000000E+00 -0.00000000000E+00 -0.95012386355E+03  0.95012386355E+03  0.00000000000E+00 0.  1.
    9000010    2    1    2  501    0  0.74709693039E+02  0.61980563144E+02 -0.65909964769E+03  0.12022384190E+04  0.10007705741E+04 0.  0.
        -13    1    3    3    0    0  0.44809077512E+03  0.76697380194E+02 -0.11723218781E+02  0.45475848085E+03  0.10566000000E+00 0.  1.
          4    1    3    3  501    0 -0.37338108208E+03 -0.14716817050E+02 -0.64737642891E+03  0.74747993811E+03  0.00000000000E+00 0.  1.
         13    1    1    2    0    0 -0.74709693039E+02 -0.61980563144E+02  0.10163514449E+03  0.14054480496E+03  0.10566000000E+00 0. -1.
<mgrwt>
<rscale>  1 0.56046756E+03</rscale>
<asrwt>0</asrwt>
<pdfrwt beam="2">  1       21 0.14617290E+00 0.10054675E+04</pdfrwt>
<pdfrwt beam="1">  1        4 0.60409133E-01 0.10054675E+04</pdfrwt>
<totfact> 0.29915452E+01</totfact>
</mgrwt>
</event>
<event>
 6    1  0.1375310E-005  0.1133944E+04  0.7818608E-02  0.9524309E-01
          4   -1    0    0  502    0 -0.00000000000E+00  0.00000000000E+00  0.88219978528E+03  0.88219978528E+03  0.00000000000E+00 0.  1.
         21   -1    0    0  501  502  0.00000000000E+00 -0.00000000000E+00 -0.60647386881E+03  0.60647386881E+03  0.00000000000E+00 0.  1.
    9000010    2    1    2  501    0 -0.31229594779E+03  0.59697962649E+02  0.13848887047E+03  0.11423694183E+04  0.10884558397E+04 0.  0.
        -13    1    3    3    0    0 -0.61220784123E+03  0.17380271131E+03 -0.20856291487E+03  0.66970465426E+03  0.10566000000E+00 0.  1.
          4    1    3    3  501    0  0.29991189344E+03 -0.11410474866E+03  0.34705178533E+03  0.47266476407E+03  0.00000000000E+00 0.  1.
         13    1    1    2    0    0  0.31229594779E+03 -0.59697962649E+02  0.13723704600E+03  0.34630423576E+03  0.10566000000E+00 0. -1.
<mgrwt>
<rscale>  1 0.82515132E+03</rscale>
<asrwt>0</asrwt>
<pdfrwt beam="2">  1       21 0.93303672E-01 0.11339439E+04</pdfrwt>
<pdfrwt beam="1">  1        4 0.13572304E+00 0.11339439E+04</pdfrwt>
<totfact> 0.13861840E+01</totfact>
</mgrwt>
</event>
<event>
 6    1  0.1375310E-005  0.1041543E+04  0.7818608E-02  0.9644154E-01
          4   -1    0    0  502    0 -0.00000000000E+00  0.00000000000E+00  0.12071209593E+04  0.12071209593E+04  0.00000000000E+00 0.  1.
         21   -1    0    0  501  502  0.00000000000E+00 -0.00000000000E+00 -0.56128464154E+03  0.56128464154E+03  0.00000000000E+00 0.  1.
    9000010    2    1    2  501    0  0.18554995137E+02  0.27115210314E+03 -0.27898527371E+02  0.10419165069E+04  0.10054570745E+04 0.  0.
        -13    1    3    3    0    0 -0.72208763706E+02  0.40932194152E+03 -0.43553291330E+03  0.60203611777E+03  0.10566000000E+00 0.  1.
          4    1    3    3  501    0  0.90763758844E+02 -0.13816983839E+03  0.40763438593E+03  0.43988038914E+03  0.00000000000E+00 0.  1.
         13    1    1    2    0    0 -0.18554995137E+02 -0.27115210314E+03  0.67373484513E+03  0.72648909392E+03  0.10566000000E+00 0. -1.
<mgrwt>
<rscale>  1 0.74441437E+03</rscale>
<asrwt>0</asrwt>
<pdfrwt beam="2">  1       21 0.86351484E-01 0.10415429E+04</pdfrwt>
<pdfrwt beam="1">  1        4 0.18571092E+00 0.10415429E+04</pdfrwt>
<totfact> 0.71092875E+00</totfact>
</mgrwt>
</event>
<event>
 6    1  0.1375310E-005  0.1073889E+04  0.7818608E-02  0.9552888E-01
          4   -1    0    0  502    0 -0.00000000000E+00  0.00000000000E+00  0.63623274811E+03  0.63623274811E+03  0.00000000000E+00 0.  1.
         21   -1    0    0  501  502  0.00000000000E+00 -0.00000000000E+00 -0.78981353883E+03  0.78981353883E+03  0.00000000000E+00 0.  1.
    9000010    2    1    2  501    0  0.30472128284E+03 -0.14851828590E+03 -0.16698067216E+03  0.10867937122E+04  0.10189824761E+04 0.  0.
        -13    1    3    3    0    0  0.31311383958E+03 -0.12055125291E+03 -0.58144314028E+03  0.67130396815E+03  0.10566000000E+00 0.  1.
          4    1    3    3  501    0 -0.83925567433E+01 -0.27967032996E+02  0.41446246813E+03  0.41548974407E+03  0.00000000000E+00 0.  1.
         13    1    1    2    0    0 -0.30472128284E+03  0.14851828590E+03  0.13399881437E+02  0.33925257471E+03  0.10566000000E+00 0. -1.
<mgrwt>
<rscale>  1 0.80494394E+03</rscale>
<asrwt>0</asrwt>
<pdfrwt beam="2">  1       21 0.12150977E+00 0.10738892E+04</pdfrwt>
<pdfrwt beam="1">  1        4 0.97881962E-01 0.10738892E+04</pdfrwt>
<totfact> 0.16203573E+01</totfact>
</mgrwt>
</event>
<event>
 6    1  0.1375310E-005  0.1020264E+04  0.7818608E-02  0.9842392E-01
          4   -1    0    0  502    0 -0.00000000000E+00  0.00000000000E+00  0.15338111666E+04  0.15338111666E+04  0.00000000000E+00 0.  1.
         21   -1    0    0  501  502  0.00000000000E+00 -0.00000000000E+00 -0.22450633725E+03  0.22450633725E+03  0.00000000000E+00 0. -1.
    9000010    2    1    2  501    0 -0.14675491297E+03 -0.29123178216E+02  0.10916795662E+04  0.14942229558E+04  0.10092337699E+04 0.  0.
        -13    1    3    3    0    0  0.17300075353E+03  0.42520584942E+03  0.57258882662E+03  0.73388503912E+03  0.10566000000E+00 0.  1.
          4    1    3    3  501    0 -0.31975566651E+03 -0.45432902764E+03  0.51909073960E+03  0.76033791669E+03  0.00000000000E+00 0.  1.
         13    1    1    2    0    0  0.14675491297E+03  0.29123178216E+02  0.21762526314E+03  0.26409454805E+03  0.10566000000E+00 0. -1.
<mgrwt>
<rscale>  1 0.63136337E+03</rscale>
<asrwt>0</asrwt>
<pdfrwt beam="2">  1       21 0.34539438E-01 0.10202637E+04</pdfrwt>
<pdfrwt beam="1">  1        4 0.23597094E+00 0.10202637E+04</pdfrwt>
<totfact> 0.25285044E+01</totfact>
</mgrwt>
</event>
<event>
 6    1  0.1375310E-005  0.1019108E+04  0.7818608E-02  0.1004773E+00
          4   -1    0    0  502    0 -0.00000000000E+00  0.00000000000E+00  0.10479067282E+04  0.10479067282E+04  0.00000000000E+00 0.  1.
         21   -1    0    0  501  502  0.00000000000E+00 -0.00000000000E+00 -0.33136162671E+03  0.33136162671E+03  0.00000000000E+00 0.  1.
    9000010    2    1    2  501    0 -0.54581468407E+02  0.55744493458E+02  0.47298796941E+03  0.11235210714E+04  0.10161178049E+04 0.  0.
        -13    1    3    3    0    0  0.15777223765E+03  0.92830260137E+02  0.75028319608E+03  0.77229166877E+03  0.10566000000E+00 0.  1.
          4    1    3    3  501    0 -0.21235370606E+03 -0.37085766679E+02 -0.27729522667E+03  0.35122940267E+03  0.00000000000E+00 0.  1.
         13    1    1    2    0    0  0.54581468407E+02 -0.55744493458E+02  0.24355713205E+03  0.25574728342E+03  0.10566000000E+00 0. -1.
<mgrwt>
<rscale>  1 0.53605840E+03</rscale>
<asrwt>0</asrwt>
<pdfrwt beam="2">  1       21 0.50978712E-01 0.10191084E+04</pdfrwt>
<pdfrwt beam="1">  1        4 0.16121642E+00 0.10191084E+04</pdfrwt>
<totfact> 0.35317802E+01</totfact>
</mgrwt>
</event>
<event>
 6    1  0.1375310E-005  0.1000116E+04  0.7818608E-02  0.9790498E-01
         21   -1    0    0  501  502  0.00000000000E+00  0.00000000000E+00  0.36280980154E+03  0.36280980154E+03  0.00000000000E+00 0.  1.
          4   -1    0    0  502    0 -0.00000000000E+00 -0.00000000000E+00 -0.14267150267E+04  0.14267150267E+04  0.00000000000E+00 0.  1.
    9000010    2    1    2  501    0  0.71293138314E+01 -0.18811257939E+03 -0.36328119756E+03  0.10640517351E+04  0.98224014215E+03 0.  0.
        -13    1    3    3    0    0 -0.48038333182E+03 -0.11048452058E+03 -0.26874877788E+03  0.56142754792E+03  0.10566000000E+00 0.  1.
          4    1    3    3  501    0  0.48751264565E+03 -0.77628058809E+02 -0.94532419673E+02  0.50262418720E+03  0.00000000000E+00 0.  1.
         13    1    1    2    0    0 -0.71293138314E+01  0.18811257939E+03 -0.70062402764E+03  0.72547309317E+03  0.10566000000E+00 0. -1.
<mgrwt>
<rscale>  1 0.65874953E+03</rscale>
<asrwt>0</asrwt>
<pdfrwt beam="1">  1       21 0.55816893E-01 0.10001164E+04</pdfrwt>
<pdfrwt beam="2">  1        4 0.21949462E+00 0.10001164E+04</pdfrwt>
<totfact> 0.11622485E+01</totfact>
</mgrwt>
</event>
<event>
 6    1  0.1375310E-005  0.1095830E+04  0.7818608E-02  0.9333390E-01
          4   -1    0    0  502    0 -0.00000000000E+00  0.00000000000E+00  0.89841729554E+03  0.89841729554E+03  0.00000000000E+00 0.  1.
         21   -1    0    0  501  502  0.00000000000E+00 -0.00000000000E+00 -0.10342103024E+04  0.10342103024E+04  0.00000000000E+00 0.  1.
    9000010    2    1    2  501    0 -0.63664598868E+03  0.27692397020E+03  0.26981950380E+03  0.11285588695E+04  0.84784288463E+03 0.  0.
        -13    1    3    3    0    0  0.57569392680E+02 -0.18888810786E+03 -0.91710610419E+02  0.21772413622E+03  0.10566000000E+00 0.  1.
          4    1    3    3  501    0 -0.69421538136E+03  0.46581207806E+03  0.36153011422E+03  0.91083473324E+03  0.00000000000E+00 0.  1.
         13    1    1    2    0    0  0.63664598868E+03 -0.27692397020E+03 -0.40561251069E+03  0.80406872851E+03  0.10566000000E+00 0. -1.
<mgrwt>
<rscale>  1 0.97766209E+03</rscale>
<asrwt>0</asrwt>
<pdfrwt beam="2">  1       21 0.15910928E+00 0.10958296E+04</pdfrwt>
<pdfrwt beam="1">  1        4 0.13821805E+00 0.10958296E+04</pdfrwt>
<totfact> 0.32669982E+00</totfact>
</mgrwt>
</event>
<event>
 6    1  0.1375310E-005  0.1019055E+04  0.7818608E-02  0.9742660E-01
         21   -1    0    0  501  502  0.00000000000E+00  0.00000000000E+00  0.60353332903E+03  0.60353332903E+03  0.00000000000E+00 0.  1.
          4   -1    0    0  502    0 -0.00000000000E+00 -0.00000000000E+00 -0.64679430699E+03  0.64679430699E+03  0.00000000000E+00 0.  1.
    9000010    2    1    2  501    0 -0.88807729418E+02  0.18858346368E+03 -0.12445118532E+03  0.10266260569E+04  0.99750810901E+03 0.  0.
        -13    1    3    3    0    0  0.69774923585E+02 -0.93884193045E+02  0.39637662400E+03  0.41327620411E+03  0.10566000000E+00 0.  1.
          4    1    3    3  501    0 -0.15858265300E+03  0.28246765673E+03 -0.52082780932E+03  0.61334985277E+03  0.00000000000E+00 0.  1.
         13    1    1    2    0    0  0.88807729418E+02 -0.18858346368E+03  0.81190207352E+02  0.22370157914E+03  0.10566000000E+00 0. -1.
<mgrwt>
<rscale>  1 0.68532671E+03</rscale>
<asrwt>0</asrwt>
<pdfrwt beam="1">  1       21 0.92851282E-01 0.10190549E+04</pdfrwt>
<pdfrwt beam="2">  1        4 0.99506816E-01 0.10190549E+04</pdfrwt>
<totfact> 0.30816235E+01</totfact>
</mgrwt>
</event>
<event>
 6    1  0.1375310E-005  0.9944880E+03  0.7818608E-02  0.1035375E+00
          4   -1    0    0  502    0 -0.00000000000E+00  0.00000000000E+00  0.45072896693E+03  0.45072896693E+03  0.00000000000E+00 0.  1.
         21   -1    0    0  501  502  0.00000000000E+00 -0.00000000000E+00 -0.68654341118E+03  0.68654341118E+03  0.00000000000E+00 0.  1.
    9000010    2    1    2  501    0 -0.18509736687E+02  0.27615015051E+02 -0.32166066221E+03  0.10452137896E+04  0.99393213300E+03 0.  0.
        -13    1    3    3    0    0 -0.94750826676E+02 -0.38945005929E+03 -0.44963332266E+03  0.60234475498E+03  0.10566000000E+00 0.  1.
          4    1    3    3  501    0  0.76241089989E+02  0.41706507434E+03  0.12797266044E+03  0.44286903466E+03  0.00000000000E+00 0.  1.
         13    1    1    2    0    0  0.18509736687E+02 -0.27615015051E+02  0.85846217964E+02  0.92058588471E+02  0.10566000000E+00 0. -1.
<mgrwt>
<rscale>  1 0.42523624E+03</rscale>
<asrwt>0</asrwt>
<pdfrwt beam="2">  1       21 0.10562206E+00 0.99448795E+03</pdfrwt>
<pdfrwt beam="1">  1        4 0.69342919E-01 0.99448795E+03</pdfrwt>
<totfact> 0.51836049E+01</totfact>
</mgrwt>
</event>
<event>
 6    1  0.1375310E-005  0.1064106E+04  0.7818608E-02  0.9554538E-01
         21   -1    0    0  501  502  0.00000000000E+00  0.00000000000E+00  0.10311633189E+04  0.10311633189E+04  0.00000000000E+00 0. -1.
          4   -1    0    0  502    0 -0.00000000000E+00 -0.00000000000E+00 -0.58076164400E+03  0.58076164400E+03  0.00000000000E+00 0.  1.
    9000010    2    1    2  501    0 -0.33648046140E+03  0.82477114043E+02  0.61427594042E+03  0.12286804439E+04  0.10061307703E+04 0.  0.
        -13    1    3    3    0    0 -0.43915948347E+03 -0.19932263666E+03 -0.64523384851E+02  0.48657357488E+03  0.10566000000E+00 0.  1.
          4    1    3    3  501    0  0.10267902207E+03  0.28179975071E+03  0.67879932527E+03  0.74210686903E+03  0.00000000000E+00 0.  1.
         13    1    1    2    0    0  0.33648046140E+03 -0.82477114043E+02 -0.16387426555E+03  0.38324451897E+03  0.10566000000E+00 0. -1.
<mgrwt>
<rscale>  1 0.80379623E+03</rscale>
<asrwt>0</asrwt>
<pdfrwt beam="1">  1       21 0.15864051E+00 0.10641056E+04</pdfrwt>
<pdfrwt beam="2">  1        4 0.89347945E-01 0.10641056E+04</pdfrwt>
<totfact> 0.97443021E+00</totfact>
</mgrwt>
</event>
<event>
 6    1  0.1375310E-005  0.1021013E+04  0.7818608E-02  0.9674081E-01
         21   -1    0    0  501  502  0.00000000000E+00  0.00000000000E+00  0.94737143078E+03  0.94737143078E+03  0.00000000000E+00 0.  1.
          4   -1    0    0  502    0 -0.00000000000E+00 -0.00000000000E+00 -0.88029302476E+03  0.88029302476E+03  0.00000000000E+00 0.  1.
    9000010    2    1    2  501    0 -0.23824610454E+03 -0.10593655035E+03  0.63526468349E+03  0.12025089420E+04  0.98715894288E+03 0.  0.
        -13    1    3    3    0    0  0.30935214668E+03 -0.14211715469E+03 -0.28066611977E+02  0.34159007916E+03  0.10566000000E+00 0.  1.
          4    1    3    3  501    0 -0.54759825122E+03  0.36180604335E+02  0.66333129547E+03  0.86091886285E+03  0.00000000000E+00 0.  1.
         13    1    1    2    0    0  0.23824610454E+03  0.10593655035E+03 -0.56818627747E+03  0.62515551353E+03  0.10566000000E+00 0. -1.
<mgrwt>
<rscale>  1 0.72581168E+03</rscale>
<asrwt>0</asrwt>
<pdfrwt beam="1">  1       21 0.14574945E+00 0.10210125E+04</pdfrwt>
<pdfrwt beam="2">  1        4 0.13542970E+00 0.10210125E+04</pdfrwt>
<totfact> 0.44513377E+00</totfact>
</mgrwt>
</event>
<event>
 6    1  0.1375310E-005  0.1149273E+04  0.7818608E-02  0.9347133E-01
         21   -1    0    0  501  502  0.00000000000E+00  0.00000000000E+00  0.19698871117E+04  0.19698871117E+04  0.00000000000E+00 0. -1.
          4   -1    0    0  502    0 -0.00000000000E+00 -0.00000000000E+00 -0.37652590520E+03  0.37652590520E+03  0.00000000000E+00 0.  1.
    9000010    2    1    2  501    0 -0.31770968614E+03  0.47639874805E+03  0.10915279697E+04  0.15850117951E+04  0.99646067168E+03 0.  0.
        -13    1    3    3    0    0 -0.58214630572E+03  0.23977791223E+03  0.10546141366E+04  0.12282502827E+04  0.10566000000E+00 0.  1.
          4    1    3    3  501    0  0.26443661958E+03  0.23662083581E+03  0.36913833098E+02  0.35676151249E+03  0.00000000000E+00 0.  1.
         13    1    1    2    0    0  0.31770968614E+03 -0.47639874805E+03  0.50183323673E+03  0.76140122174E+03  0.10566000000E+00 0. -1.
<mgrwt>
<rscale>  1 0.96557135E+03</rscale>
<asrwt>0</asrwt>
<pdfrwt beam="1">  1       21 0.30305955E+00 0.11492733E+04</pdfrwt>
<pdfrwt beam="2">  1        4 0.57927064E-01 0.11492733E+04</pdfrwt>
<totfact> 0.27700100E+00</totfact>
</mgrwt>
</event>
<event>
 6    1  0.1375310E-005  0.1038220E+04  0.7818608E-02  0.9617269E-01
         21   -1    0    0  501  502  0.00000000000E+00  0.00000000000E+00  0.82200019778E+03  0.82200019778E+03  0.00000000000E+00 0.  1.
          4   -1    0    0  502    0 -0.00000000000E+00 -0.00000000000E+00 -0.54575566217E+03  0.54575566217E+03  0.00000000000E+00 0.  1.
    9000010    2    1    2  501    0  0.19230973727E+03  0.23115547556E+03  0.23199787741E+03  0.10638254948E+04  0.99372319051E+03 0.  0.
        -13    1    3    3    0    0  0.39126379085E+03  0.27555260964E+03  0.52275834985E+03  0.70872625054E+03  0.10566000000E+00 0.  1.
          4    1    3    3  501    0 -0.19895405358E+03 -0.44397134075E+02 -0.29076047244E+03  0.35509924427E+03  0.00000000000E+00 0.  1.
         13    1    1    2    0    0 -0.19230973727E+03 -0.23115547556E+03  0.44246658201E+02  0.30393036514E+03  0.10566000000E+00 0. -1.
<mgrwt>
<rscale>  1 0.76163656E+03</rscale>
<asrwt>0</asrwt>
<pdfrwt beam="1">  1       21 0.12646157E+00 0.10382204E+04</pdfrwt>
<pdfrwt beam="2">  1        4 0.83962409E-01 0.10382204E+04</pdfrwt>
<totfact> 0.21022016E+01</totfact>
</mgrwt>
</event>
<event>
 6    1  0.1375310E-005  0.1027498E+04  0.7818608E-02  0.9689129E-01
         21   -1    0    0  501  502  0.00000000000E+00  0.00000000000E+00  0.13445906790E+04  0.13445906790E+04  0.00000000000E+00 0.  1.
          4   -1    0    0  502    0 -0.00000000000E+00 -0.00000000000E+00 -0.30068881141E+03  0.30068881141E+03  0.00000000000E+00 0.  1.
    9000010    2    1    2  501    0 -0.37229554765E+02  0.24032754116E+03  0.86934546082E+03  0.13459246556E+04  0.99830270040E+03 0.  0.
        -13    1    3    3    0    0 -0.12927561923E+02  0.61090100623E+03  0.72334362828E+03  0.94688604225E+03  0.10566000000E+00 0.  1.
          4    1    3    3  501    0 -0.24301992842E+02 -0.37057346507E+03  0.14600183254E+03  0.39903861339E+03  0.00000000000E+00 0.  1.
         13    1    1    2    0    0  0.37229554765E+02 -0.24032754116E+03  0.17455640677E+03  0.29935483476E+03  0.10566000000E+00 0. -1.
<mgrwt>
<rscale>  1 0.71667776E+03</rscale>
<asrwt>0</asrwt>
<pdfrwt beam="1">  1       21 0.20686010E+00 0.10274978E+04</pdfrwt>
<pdfrwt beam="2">  1        4 0.46259818E-01 0.10274978E+04</pdfrwt>
<totfact> 0.18777122E+01</totfact>
</mgrwt>
</event>
<event>
 6    1  0.1375310E-005  0.1037879E+04  0.7818608E-02  0.9821446E-01
          4   -1    0    0  502    0 -0.00000000000E+00  0.00000000000E+00  0.42654136447E+03  0.42654136447E+03  0.00000000000E+00 0.  1.
         21   -1    0    0  501  502  0.00000000000E+00 -0.00000000000E+00 -0.11518936686E+04  0.11518936686E+04  0.00000000000E+00 0.  1.
    9000010    2    1    2  501    0  0.29841716152E+02 -0.14922463617E+03 -0.88054103705E+03  0.13610826141E+04  0.10266619914E+04 0.  0.
        -13    1    3    3    0    0  0.99717585272E+02 -0.63699863304E+02 -0.11047924410E+04  0.11111109837E+04  0.10566000000E+00 0.  1.
          4    1    3    3  501    0 -0.69875869120E+02 -0.85524772861E+02  0.22425140390E+03  0.24997163041E+03  0.00000000000E+00 0.  1.
         13    1    1    2    0    0 -0.29841716152E+02  0.14922463617E+03  0.15518873288E+03  0.21735241898E+03  0.10566000000E+00 0. -1.
<mgrwt>
<rscale>  1 0.64224244E+03</rscale>
<asrwt>0</asrwt>
<pdfrwt beam="2">  1       21 0.17721441E+00 0.10378793E+04</pdfrwt>
<pdfrwt beam="1">  1        4 0.65621750E-01 0.10378793E+04</pdfrwt>
<totfact> 0.14302434E+01</totfact>
</mgrwt>
</event>
<event>
 6    1  0.1375310E-005  0.9865307E+03  0.7818608E-02  0.9771839E-01
          4   -1    0    0  502    0 -0.00000000000E+00  0.00000000000E+00  0.25412219491E+03  0.25412219491E+03  0.00000000000E+00 0.  1.
         21   -1    0    0  501  502  0.00000000000E+00 -0.00000000000E+00 -0.14933610669E+04  0.14933610669E+04  0.00000000000E+00 0. -1.
    9000010    2    1    2  501    0 -0.79406996453E+01 -0.20842634497E+03 -0.11638259072E+04  0.15256911916E+04  0.96422936782E+03 0.  0.
        -13    1    3    3    0    0 -0.10680814509E+03  0.21334084738E+02 -0.12548100135E+04  0.12595282069E+04  0.10566000000E+00 0.  1.
          4    1    3    3  501    0  0.98867445446E+02 -0.22976042970E+03  0.90984106209E+02  0.26616298467E+03  0.00000000000E+00 0.  1.
         13    1    1    2    0    0  0.79406996453E+01  0.20842634497E+03 -0.75412964727E+02  0.22179207019E+03  0.10566000000E+00 0. -1.
<mgrwt>
<rscale>  1 0.66895957E+03</rscale>
<asrwt>0</asrwt>
<pdfrwt beam="2">  1       21 0.22974786E+00 0.98653072E+03</pdfrwt>
<pdfrwt beam="1">  1        4 0.39095722E-01 0.98653072E+03</pdfrwt>
<totfact> 0.18817994E+01</totfact>
</mgrwt>
</event>
<event>
 6    1  0.1375310E-005  0.1047325E+04  0.7818608E-02  0.9703272E-01
          4   -1    0    0  502    0 -0.00000000000E+00  0.00000000000E+00  0.12212513286E+04  0.12212513286E+04  0.00000000000E+00 0.  1.
         21   -1    0    0  501  502  0.00000000000E+00 -0.00000000000E+00 -0.44126738532E+03  0.44126738532E+03  0.00000000000E+00 0.  1.
    9000010    2    1    2  501    0  0.86537675262E+02  0.20117272886E+03  0.23244625105E+03  0.10728096571E+04  0.10241728686E+04 0.  0.
        -13    1    3    3    0    0 -0.29907852343E+03  0.37852387720E+03 -0.14612666527E+03  0.50406477982E+03  0.10566000000E+00 0.  1.
          4    1    3    3  501    0  0.38561619869E+03 -0.17735114834E+03  0.37857291632E+03  0.56874487733E+03  0.00000000000E+00 0.  1.
         13    1    1    2    0    0 -0.86537675262E+02 -0.20117272886E+03  0.54753769227E+03  0.58970905682E+03  0.10566000000E+00 0. -1.
<mgrwt>
<rscale>  1 0.70822311E+03</rscale>
<asrwt>0</asrwt>
<pdfrwt beam="2">  1       21 0.67887291E-01 0.10473248E+04</pdfrwt>
<pdfrwt beam="1">  1        4 0.18788482E+00 0.10473248E+04</pdfrwt>
<totfact> 0.12040193E+01</totfact>
</mgrwt>
</event>
<event>
 6    1  0.1375310E-005  0.1053147E+04  0.7818608E-02  0.9548223E-01
         21   -1    0    0  501  502  0.00000000000E+00  0.00000000000E+00  0.72780642371E+03  0.72780642371E+03  0.00000000000E+00 0.  1.
          4   -1    0    0  502    0 -0.00000000000E+00 -0.00000000000E+00 -0.11733632990E+04  0.11733632990E+04  0.00000000000E+00 0.  1.
    9000010    2    1    2  501    0 -0.36523743701E+03 -0.45596617055E+01  0.27923824671E+03  0.10895373207E+04  0.98777446765E+03 0.  0.
        -13    1    3    3    0    0  0.20410599258E+03  0.27256219327E+03 -0.95630861088E+02  0.35368726039E+03  0.10566000000E+00 0.  1.
          4    1    3    3  501    0 -0.56934342959E+03 -0.27712185498E+03  0.37486910780E+03  0.73585006034E+03  0.00000000000E+00 0.  1.
         13    1    1    2    0    0  0.36523743701E+03  0.45596617055E+01 -0.72479512199E+03  0.81163240198E+03  0.10566000000E+00 0. -1.
<mgrwt>
<rscale>  1 0.80820007E+03</rscale>
<asrwt>0</asrwt>
<pdfrwt beam="1">  1       21 0.11197022E+00 0.10531465E+04</pdfrwt>
<pdfrwt beam="2">  1        4 0.18051743E+00 0.10531465E+04</pdfrwt>
<totfact> 0.40581402E+00</totfact>
</mgrwt>
</event>
<event>
 6    1  0.1375310E-005  0.1092433E+04  0.7818608E-02  0.9465739E-01
          4   -1    0    0  502    0 -0.00000000000E+00  0.00000000000E+00  0.59443159544E+03  0.59443159544E+03  0.00000000000E+00 0.  1.
         21   -1    0    0  501  502  0.00000000000E+00 -0.00000000000E+00 -0.11058682354E+04  0.11058682354E+04  0.00000000000E+00 0. -1.
    9000010    2    1    2  501    0 -0.77810428871E+02  0.42957159696E+03 -0.61217567246E+03  0.12522656987E+04  0.10014110576E+04 0.  0.
        -13    1    3    3    0    0 -0.19178466080E+03 -0.28717515365E+03 -0.31706345884E+03  0.46880718113E+03  0.10566000000E+00 0.  1.
          4    1    3    3  501    0  0.11397423192E+03  0.71674675061E+03 -0.29511221362E+03  0.78345851752E+03  0.00000000000E+00 0.  1.
         13    1    1    2    0    0  0.77810428871E+02 -0.42957159696E+03  0.10073903251E+03  0.44803413217E+03  0.10566000000E+00 0. -1.
<mgrwt>
<rscale>  1 0.86857557E+03</rscale>
<asrwt>0</asrwt>
<pdfrwt beam="2">  1       21 0.17013357E+00 0.10924332E+04</pdfrwt>
<pdfrwt beam="1">  1        4 0.91451016E-01 0.10924332E+04</pdfrwt>
<totfact> 0.75078054E+00</totfact>
</mgrwt>
</event>
<event>
 6    1  0.1375310E-005  0.1059262E+04  0.7818608E-02  0.9579275E-01
          4   -1    0    0  502    0 -0.00000000000E+00  0.00000000000E+00  0.21054366033E+04  0.21054366033E+04  0.00000000000E+00 0.  1.
         21   -1    0    0  501  502  0.00000000000E+00 -0.00000000000E+00 -0.28876044083E+03  0.28876044083E+03  0.00000000000E+00 0. -1.
    9000010    2    1    2  501    0  0.19407206456E+03  0.25755871044E+03  0.79948095832E+03  0.13271044755E+04  0.10089777156E+04 0.  0.
        -13    1    3    3    0    0 -0.16969737544E+03  0.19116705137E+03 -0.15813058396E+03  0.30057833173E+03  0.10566000000E+00 0.  1.
          4    1    3    3  501    0  0.36376943999E+03  0.66391659064E+02  0.95761154227E+03  0.10265261437E+04  0.00000000000E+00 0.  1.
         13    1    1    2    0    0 -0.19407206456E+03 -0.25755871044E+03  0.10171952041E+04  0.10670925686E+04  0.10566000000E+00 0. -1.
<mgrwt>
<rscale>  1 0.78683203E+03</rscale>
<asrwt>0</asrwt>
<pdfrwt beam="2">  1       21 0.44424684E-01 0.10592622E+04</pdfrwt>
<pdfrwt beam="1">  1        4 0.32391331E+00 0.10592622E+04</pdfrwt>
<totfact> 0.42377471E+00</totfact>
</mgrwt>
</event>
<event>
 6    1  0.1375310E-005  0.8739633E+03  0.7818608E-02  0.9888254E-01
          4   -1    0    0  502    0 -0.00000000000E+00  0.00000000000E+00  0.10570432007E+04  0.10570432007E+04  0.00000000000E+00 0.  1.
         21   -1    0    0  501  502  0.00000000000E+00 -0.00000000000E+00 -0.27763362593E+03  0.27763362593E+03  0.00000000000E+00 0.  1.
    9000010    2    1    2  501    0  0.13944591384E+03 -0.15049108858E+03  0.58240704923E+03  0.10502427625E+04  0.84954055731E+03 0.  0.
        -13    1    3    3    0    0  0.88619886020E+02 -0.21725786381E+03 -0.17216180114E+03  0.29102261171E+03  0.10566000000E+00 0.  1.
          4    1    3    3  501    0  0.50826027823E+02  0.66766775236E+02  0.75456885037E+03  0.75922015077E+03  0.00000000000E+00 0.  1.
         13    1    1    2    0    0 -0.13944591384E+03  0.15049108858E+03  0.19700252558E+03  0.28443406420E+03  0.10566000000E+00 0. -1.
<mgrwt>
<rscale>  1 0.60833921E+03</rscale>
<asrwt>0</asrwt>
<pdfrwt beam="2">  1       21 0.42712866E-01 0.87396332E+03</pdfrwt>
<pdfrwt beam="1">  1        4 0.16262203E+00 0.87396332E+03</pdfrwt>
<totfact> 0.50987906E+01</totfact>
</mgrwt>
</event>
<event>
 6    1  0.1375310E-005  0.1007138E+04  0.7818608E-02  0.9865847E-01
          4   -1    0    0  502    0 -0.00000000000E+00  0.00000000000E+00  0.90670161808E+03  0.90670161808E+03  0.00000000000E+00 0.  1.
         21   -1    0    0  501  502  0.00000000000E+00 -0.00000000000E+00 -0.46086608704E+03  0.46086608704E+03  0.00000000000E+00 0.  1.
    9000010    2    1    2  501    0  0.62742479104E+02 -0.12976234140E+03  0.12376319498E+03  0.10147143578E+04  0.99677129548E+03 0.  0.
        -13    1    3    3    0    0 -0.61728904479E+02  0.11054050744E+03 -0.40304329210E+03  0.42246132120E+03  0.10566000000E+00 0.  1.
          4    1    3    3  501    0  0.12447138358E+03 -0.24030284884E+03  0.52680648709E+03  0.59225303657E+03  0.00000000000E+00 0.  1.
         13    1    1    2    0    0 -0.62742479104E+02  0.12976234140E+03  0.32207233605E+03  0.35285334736E+03  0.10566000000E+00 0. -1.
<mgrwt>
<rscale>  1 0.61945426E+03</rscale>
<asrwt>0</asrwt>
<pdfrwt beam="2">  1       21 0.70902475E-01 0.10071385E+04</pdfrwt>
<pdfrwt beam="1">  1        4 0.13949256E+00 0.10071385E+04</pdfrwt>
<totfact> 0.24998186E+01</totfact>
</mgrwt>
</event>
<event>
 6    1  0.1375310E-005  0.1003161E+04  0.7818608E-02  0.9730413E-01
         21   -1    0    0  501  502  0.00000000000E+00  0.00000000000E+00  0.48230256329E+03  0.48230256329E+03  0.00000000000E+00 0.  1.
          4   -1    0    0  502    0 -0.00000000000E+00 -0.00000000000E+00 -0.12097843677E+04  0.12097843677E+04  0.00000000000E+00 0.  1.
    9000010    2    1    2  501    0  0.22325420489E+03  0.44281554610E+02 -0.80671178256E+02  0.10063994706E+04  0.97699987684E+03 0.  0.
        -13    1    3    3    0    0 -0.17303384233E+03 -0.16649190075E+03  0.32316881583E+03  0.40261440398E+03  0.10566000000E+00 0.  1.
          4    1    3    3  501    0  0.39628804722E+03  0.21077345536E+03 -0.40383999408E+03  0.60378506662E+03  0.00000000000E+00 0.  1.
         13    1    1    2    0    0 -0.22325420489E+03 -0.44281554610E+02 -0.64681062616E+03  0.68568746040E+03  0.10566000000E+00 0. -1.
<mgrwt>
<rscale>  1 0.69234518E+03</rscale>
<asrwt>0</asrwt>
<pdfrwt beam="1">  1       21 0.74200394E-01 0.10031610E+04</pdfrwt>
<pdfrwt beam="2">  1        4 0.18612067E+00 0.10031610E+04</pdfrwt>
<totfact> 0.10139990E+01</totfact>
</mgrwt>
</event>
<event>
 6    1  0.1375310E-005  0.9850299E+03  0.7818608E-02  0.1011389E+00
          4   -1    0    0  502    0 -0.00000000000E+00  0.00000000000E+00  0.82090022288E+03  0.82090022288E+03  0.00000000000E+00 0.  1.
         21   -1    0    0  501  502  0.00000000000E+00 -0.00000000000E+00 -0.41437830706E+03  0.41437830706E+03  0.00000000000E+00 0.  1.
    9000010    2    1    2  501    0  0.24193655853E+02  0.66086088130E+02  0.18422683430E+03  0.10021094530E+04  0.98251265906E+03 0.  0.
        -13    1    3    3    0    0 -0.10433977121E+03 -0.43804326585E+03  0.17103210466E+03  0.48168525262E+03  0.10566000000E+00 0.  1.
          4    1    3    3  501    0  0.12853342706E+03  0.50412935398E+03  0.13194729649E+02  0.52042420034E+03  0.00000000000E+00 0.  1.
         13    1    1    2    0    0 -0.24193655853E+02 -0.66086088130E+02  0.22229508151E+03  0.23316907697E+03  0.10566000000E+00 0. -1.
<mgrwt>
<rscale>  1 0.50926340E+03</rscale>
<asrwt>0</asrwt>
<pdfrwt beam="2">  1       21 0.63750509E-01 0.98502986E+03</pdfrwt>
<pdfrwt beam="1">  1        4 0.12629234E+00 0.98502986E+03</pdfrwt>
<totfact> 0.41241140E+01</totfact>
</mgrwt>
</event>
<event>
 6    1  0.1375310E-005  0.1020850E+04  0.7818608E-02  0.9674411E-01
         21   -1    0    0  501  502  0.00000000000E+00  0.00000000000E+00  0.44135363129E+03  0.44135363129E+03  0.00000000000E+00 0.  1.
          4   -1    0    0  502    0 -0.00000000000E+00 -0.00000000000E+00 -0.94344059521E+03  0.94344059521E+03  0.00000000000E+00 0.  1.
    9000010    2    1    2  501    0 -0.10285410385E+03 -0.23941261073E+03 -0.46437757729E+03  0.11215084998E+04  0.98703465800E+03 0.  0.
        -13    1    3    3    0    0 -0.94819240002E+02 -0.12451498676E+03  0.30539705239E+03  0.34316474320E+03  0.10566000000E+00 0.  1.
          4    1    3    3  501    0 -0.80348638433E+01 -0.11489762397E+03 -0.76977462968E+03  0.77834375665E+03  0.00000000000E+00 0.  1.
         13    1    1    2    0    0  0.10285410385E+03  0.23941261073E+03 -0.37709386633E+02  0.26328572665E+03  0.10566000000E+00 0. -1.
<mgrwt>
<rscale>  1 0.72560980E+03</rscale>
<asrwt>0</asrwt>
<pdfrwt beam="1">  1       21 0.67900559E-01 0.10208500E+04</pdfrwt>
<pdfrwt beam="2">  1        4 0.14514471E+00 0.10208500E+04</pdfrwt>
<totfact> 0.24815226E+01</totfact>
</mgrwt>
</event>
<event>
 6    1  0.1375310E-005  0.9527567E+03  0.7818608E-02  0.1008096E+00
         21   -1    0    0  501  502  0.00000000000E+00  0.00000000000E+00  0.20919365244E+03  0.20919365244E+03  0.00000000000E+00 0.  1.
          4   -1    0    0  502    0 -0.00000000000E+00 -0.00000000000E+00 -0.13531500745E+04  0.13531500745E+04  0.00000000000E+00 0.  1.
    9000010    2    1    2  501    0  0.72200152284E+02 -0.46910771503E+02 -0.92867270727E+03  0.13304804666E+04  0.94885815185E+03 0.  0.
        -13    1    3    3    0    0  0.84638689472E+02  0.42489232199E+02  0.18781961229E+03  0.21034557407E+03  0.10566000000E+00 0.  1.
          4    1    3    3  501    0 -0.12438537188E+02 -0.89400003702E+02 -0.11164923196E+04  0.11201348925E+04  0.00000000000E+00 0.  1.
         13    1    1    2    0    0 -0.72200152284E+02  0.46910771503E+02 -0.21528371483E+03  0.23186326036E+03  0.10566000000E+00 0. -1.
<mgrwt>
<rscale>  1 0.52238340E+03</rscale>
<asrwt>0</asrwt>
<pdfrwt beam="1">  1       21 0.32183639E-01 0.95275667E+03</pdfrwt>
<pdfrwt beam="2">  1        4 0.20817693E+00 0.95275667E+03</pdfrwt>
<totfact> 0.44188763E+01</totfact>
</mgrwt>
</event>
<event>
 6    1  0.1375310E-005  0.1002655E+04  0.7818608E-02  0.9965709E-01
          4   -1    0    0  502    0 -0.00000000000E+00  0.00000000000E+00  0.24399728142E+03  0.24399728142E+03  0.00000000000E+00 0.  1.
         21   -1    0    0  501  502  0.00000000000E+00 -0.00000000000E+00 -0.14619288875E+04  0.14619288875E+04  0.00000000000E+00 0.  1.
    9000010    2    1    2  501    0 -0.64299055431E+01 -0.10585573156E+03 -0.12429663342E+04  0.15969604479E+04  0.99703088445E+03 0.  0.
        -13    1    3    3    0    0 -0.37820795350E+03 -0.37940506441E+03 -0.58489171751E+03  0.79315054773E+03  0.10566000000E+00 0.  1.
          4    1    3    3  501    0  0.37177804796E+03  0.27354933285E+03 -0.65807461667E+03  0.80380990013E+03  0.00000000000E+00 0.  1.
         13    1    1    2    0    0  0.64299055431E+01  0.10585573156E+03  0.25034728111E+02  0.10896572105E+03  0.10566000000E+00 0. -1.
<mgrwt>
<rscale>  1 0.57179752E+03</rscale>
<asrwt>0</asrwt>
<pdfrwt beam="2">  1       21 0.22491213E+00 0.10026552E+04</pdfrwt>
<pdfrwt beam="1">  1        4 0.37538044E-01 0.10026552E+04</pdfrwt>
<totfact> 0.21925027E+01</totfact>
</mgrwt>
</event>
<event>
 6    1  0.1375310E-005  0.1009963E+04  0.7818608E-02  0.9774358E-01
         21   -1    0    0  501  502  0.00000000000E+00  0.00000000000E+00  0.27015804894E+03  0.27015804894E+03  0.00000000000E+00 0.  1.
          4   -1    0    0  502    0 -0.00000000000E+00 -0.00000000000E+00 -0.13546777480E+04  0.13546777480E+04  0.00000000000E+00 0.  1.
    9000010    2    1    2  501    0 -0.15971079358E+03  0.10797248166E+03 -0.84118354583E+03  0.13143875903E+04  0.99139264943E+03 0.  0.
        -13    1    3    3    0    0  0.19929087467E+03  0.29280219689E+03  0.28705984357E+02  0.35535056484E+03  0.10566000000E+00 0.  1.
          4    1    3    3  501    0 -0.35900166825E+03 -0.18482971523E+03 -0.86988953019E+03  0.95903702545E+03  0.00000000000E+00 0.  1.
         13    1    1    2    0    0  0.15971079358E+03 -0.10797248166E+03 -0.24333615324E+03  0.31044820667E+03  0.10566000000E+00 0. -1.
<mgrwt>
<rscale>  1 0.66756984E+03</rscale>
<asrwt>0</asrwt>
<pdfrwt beam="1">  1       21 0.41562778E-01 0.10099629E+04</pdfrwt>
<pdfrwt beam="2">  1        4 0.20841196E+00 0.10099629E+04</pdfrwt>
<totfact> 0.25808520E+01</totfact>
</mgrwt>
</event>
<event>
 6    1  0.1375310E-005  0.9497905E+03  0.7818608E-02  0.1035370E+00
         21   -1    0    0  501  502  0.00000000000E+00  0.00000000000E+00  0.57698026062E+03  0.57698026062E+03  0.00000000000E+00 0.  1.
          4   -1    0    0  502    0 -0.00000000000E+00 -0.00000000000E+00 -0.59631146570E+03  0.59631146570E+03  0.00000000000E+00 0.  1.
    9000010    2    1    2  501    0  0.17866383484E+02  0.33728288833E+02  0.18311293978E+03  0.96728093029E+03  0.94902331071E+03 0.  0.
        -13    1    3    3    0    0  0.14732425193E+03  0.38213898977E+03  0.36939175304E+03  0.55152961941E+03  0.10566000000E+00 0.  1.
          4    1    3    3  501    0 -0.12945786845E+03 -0.34841070094E+03 -0.18627881326E+03  0.41575131088E+03  0.00000000000E+00 0.  1.
         13    1    1    2    0    0 -0.17866383484E+02 -0.33728288833E+02 -0.20244414486E+03  0.20601079602E+03  0.10566000000E+00 0. -1.
<mgrwt>
<rscale>  1 0.42525211E+03</rscale>
<asrwt>0</asrwt>
<pdfrwt beam="1">  1       21 0.88766193E-01 0.94979053E+03</pdfrwt>
<pdfrwt beam="2">  1        4 0.91740226E-01 0.94979053E+03</pdfrwt>
<totfact> 0.41956323E+01</totfact>
</mgrwt>
</event>
<event>
 6    1  0.1375310E-005  0.9643756E+03  0.7818608E-02  0.9898996E-01
         21   -1    0    0  501  502  0.00000000000E+00  0.00000000000E+00  0.41284900437E+03  0.41284900437E+03  0.00000000000E+00 0.  1.
          4   -1    0    0  502    0 -0.00000000000E+00 -0.00000000000E+00 -0.78789617787E+03  0.78789617787E+03  0.00000000000E+00 0.  1.
    9000010    2    1    2  501    0  0.10844020903E+03  0.99997494646E+02 -0.41197164069E+03  0.10486853081E+04  0.95302752578E+03 0.  0.
        -13    1    3    3    0    0  0.51146800807E+03 -0.88951043208E+02 -0.22965550164E+03  0.56767373725E+03  0.10566000000E+00 0.  1.
          4    1    3    3  501    0 -0.40302779905E+03  0.18894853785E+03 -0.18231613906E+03  0.48101157088E+03  0.00000000000E+00 0.  1.
         13    1    1    2    0    0 -0.10844020903E+03 -0.99997494646E+02  0.36924467195E+02  0.15205987410E+03  0.10566000000E+00 0. -1.
<mgrwt>
<rscale>  1 0.60309961E+03</rscale>
<asrwt>0</asrwt>
<pdfrwt beam="1">  1       21 0.63515232E-01 0.96437557E+03</pdfrwt>
<pdfrwt beam="2">  1        4 0.12121479E+00 0.96437557E+03</pdfrwt>
<totfact> 0.46233142E+01</totfact>
</mgrwt>
</event>
<event>
 6    1  0.1375310E-005  0.1011141E+04  0.7818608E-02  0.9842670E-01
          4   -1    0    0  502    0 -0.00000000000E+00  0.00000000000E+00  0.36946065726E+03  0.36946065726E+03  0.00000000000E+00 0.  1.
         21   -1    0    0  501  502  0.00000000000E+00 -0.00000000000E+00 -0.10448607910E+04  0.10448607910E+04  0.00000000000E+00 0.  1.
    9000010    2    1    2  501    0  0.18530152770E+02 -0.15244151881E+03 -0.73452005512E+03  0.12497706674E+04  0.99941244068E+03 0.  0.
        -13    1    3    3    0    0  0.45623935385E+03 -0.19544724128E+03 -0.15048637787E+03  0.51865222762E+03  0.10566000000E+00 0.  1.
          4    1    3    3  501    0 -0.43770920108E+03  0.43005722467E+02 -0.58403367725E+03  0.73111843982E+03  0.00000000000E+00 0.  1.
         13    1    1    2    0    0 -0.18530152770E+02  0.15244151881E+03  0.59119921341E+02  0.16455078086E+03  0.10566000000E+00 0. -1.
<mgrwt>
<rscale>  1 0.63122042E+03</rscale>
<asrwt>0</asrwt>
<pdfrwt beam="2">  1       21 0.16074781E+00 0.10111414E+04</pdfrwt>
<pdfrwt beam="1">  1        4 0.56840101E-01 0.10111414E+04</pdfrwt>
<totfact> 0.26118347E+01</totfact>
</mgrwt>
</event>
<event>
 6    1  0.1375310E-005  0.1001789E+04  0.7818608E-02  0.9705172E-01
          4   -1    0    0  502    0 -0.00000000000E+00  0.00000000000E+00  0.29265049607E+03  0.29265049607E+03  0.00000000000E+00 0.  1.
         21   -1    0    0  501  502  0.00000000000E+00 -0.00000000000E+00 -0.14145898867E+04  0.14145898867E+04  0.00000000000E+00 0.  1.
    9000010    2    1    2  501    0 -0.18651932165E+03  0.16442959905E+03 -0.10434377489E+04  0.14464932461E+04  0.97044001602E+03 0.  0.
        -13    1    3    3    0    0 -0.54152193184E+03  0.18710768642E+03 -0.89138358107E+03  0.10596320063E+04  0.10566000000E+00 0.  1.
          4    1    3    3  501    0  0.35500261019E+03 -0.22678087370E+02 -0.15205416783E+03  0.38686123978E+03  0.00000000000E+00 0.  1.
         13    1    1    2    0    0  0.18651932165E+03 -0.16442959905E+03 -0.78501641760E+02  0.26074713673E+03  0.10566000000E+00 0. -1.
<mgrwt>
<rscale>  1 0.70709692E+03</rscale>
<asrwt>0</asrwt>
<pdfrwt beam="2">  1       21 0.21762921E+00 0.10017886E+04</pdfrwt>
<pdfrwt beam="1">  1        4 0.45023154E-01 0.10017886E+04</pdfrwt>
<totfact> 0.16878570E+01</totfact>
</mgrwt>
</event>
<event>
 6    1  0.1375310E-005  0.1007009E+04  0.7818608E-02  0.9962421E-01
         21   -1    0    0  501  502  0.00000000000E+00  0.00000000000E+00  0.14530609546E+03  0.14530609546E+03  0.00000000000E+00 0.  1.
          4   -1    0    0  502    0 -0.00000000000E+00 -0.00000000000E+00 -0.22482529373E+04  0.22482529373E+04  0.00000000000E+00 0.  1.
    9000010    2    1    2  501    0 -0.10482477906E+03  0.14182439258E+02 -0.20269342747E+04  0.22633004537E+04  0.10014374738E+04 0.  0.
        -13    1    3    3    0    0  0.11291956756E+03 -0.28062641303E+03 -0.18147885302E+04  0.18398259246E+04  0.10566000000E+00 0.  1.
          4    1    3    3  501    0 -0.21774434662E+03  0.29480885229E+03 -0.21214574451E+03  0.42347452909E+03  0.00000000000E+00 0.  1.
         13    1    1    2    0    0  0.10482477906E+03 -0.14182439258E+02 -0.76012567145E+02  0.13025857905E+03  0.10566000000E+00 0. -1.
<mgrwt>
<rscale>  1 0.57329181E+03</rscale>
<asrwt>0</asrwt>
<pdfrwt beam="1">  1       21 0.22354785E-01 0.10070086E+04</pdfrwt>
<pdfrwt beam="2">  1        4 0.34588505E+00 0.10070086E+04</pdfrwt>
<totfact> 0.12499213E+01</totfact>
</mgrwt>
</event>
<event>
 6    1  0.1375310E-005  0.1138195E+04  0.7818608E-02  0.9368470E-01
         21   -1    0    0  501  502  0.00000000000E+00  0.00000000000E+00  0.82486610719E+03  0.82486610719E+03  0.00000000000E+00 0. -1.
          4   -1    0    0  502    0 -0.00000000000E+00 -0.00000000000E+00 -0.87586103784E+03  0.87586103784E+03  0.00000000000E+00 0.  1.
    9000010    2    1    2  501    0  0.37722947376E+03 -0.39449138283E+03  0.74604083564E+02  0.11406372857E+04  0.99878031678E+03 0.  0.
        -13    1    3    3    0    0 -0.17215301346E+03 -0.54222177654E+03  0.52455733583E+02  0.57130791185E+03  0.10566000000E+00 0.  1.
          4    1    3    3  501    0  0.54938248722E+03  0.14773039371E+03  0.22148349981E+02  0.56932937383E+03  0.00000000000E+00 0.  1.
         13    1    1    2    0    0 -0.37722947376E+03  0.39449138283E+03 -0.12559901422E+03  0.56008985934E+03  0.10566000000E+00 0. -1.
<mgrwt>
<rscale>  1 0.94716566E+03</rscale>
<asrwt>0</asrwt>
<pdfrwt beam="1">  1       21 0.12690248E+00 0.11381949E+04</pdfrwt>
<pdfrwt beam="2">  1        4 0.13474785E+00 0.11381949E+04</pdfrwt>
<totfact> 0.64646912E+00</totfact>
</mgrwt>
</event>
<event>
 6    1  0.1375310E-005  0.1112445E+04  0.7818608E-02  0.9403150E-01
         21   -1    0    0  501  502  0.00000000000E+00  0.00000000000E+00  0.21765517429E+04  0.21765517429E+04  0.00000000000E+00 0.  1.
          4   -1    0    0  502    0 -0.00000000000E+00 -0.00000000000E+00 -0.30807058382E+03  0.30807058382E+03  0.00000000000E+00 0.  1.
    9000010    2    1    2  501    0 -0.29542134138E+03  0.42335996689E+03  0.13938168588E+04  0.17833280663E+04  0.98540657895E+03 0.  0.
        -13    1    3    3    0    0 -0.43332043995E+03 -0.17792344932E+03  0.41221538321E+03  0.62397507227E+03  0.10566000000E+00 0.  1.
          4    1    3    3  501    0  0.13789909857E+03  0.60128341621E+03  0.98160147557E+03  0.11593529941E+04  0.00000000000E+00 0.  1.
         13    1    1    2    0    0  0.29542134138E+03 -0.42335996689E+03  0.47466430029E+03  0.70129426038E+03  0.10566000000E+00 0. -1.
<mgrwt>
<rscale>  1 0.91816881E+03</rscale>
<asrwt>0</asrwt>
<pdfrwt beam="1">  1       21 0.33485411E+00 0.11124449E+04</pdfrwt>
<pdfrwt beam="2">  1        4 0.47395476E-01 0.11124449E+04</pdfrwt>
<totfact> 0.27030918E+00</totfact>
</mgrwt>
</event>
<event>
 6    1  0.1375310E-005  0.9033122E+03  0.7818608E-02  0.9745739E-01
         21   -1    0    0  501  502  0.00000000000E+00  0.00000000000E+00  0.32689359283E+03  0.32689359283E+03  0.00000000000E+00 0. -1.
          4   -1    0    0  502    0 -0.00000000000E+00 -0.00000000000E+00 -0.11008413166E+04  0.11008413166E+04  0.00000000000E+00 0.  1.
    9000010    2    1    2  501    0  0.92899780022E+02 -0.28128929848E+03 -0.57101128012E+03  0.10686565755E+04  0.85335746075E+03 0.  0.
        -13    1    3    3    0    0 -0.17590732842E+03  0.21171576672E+03 -0.39257761798E+03  0.47946235658E+03  0.10566000000E+00 0.  1.
          4    1    3    3  501    0  0.26880710844E+03 -0.49300506520E+03 -0.17843366213E+03  0.58919421895E+03  0.00000000000E+00 0.  1.
         13    1    1    2    0    0 -0.92899780022E+02  0.28128929848E+03 -0.20293644367E+03  0.35907833394E+03  0.10566000000E+00 0. -1.
<mgrwt>
<rscale>  1 0.68357601E+03</rscale>
<asrwt>0</asrwt>
<pdfrwt beam="1">  1       21 0.50291322E-01 0.90331224E+03</pdfrwt>
<pdfrwt beam="2">  1        4 0.16936020E+00 0.90331224E+03</pdfrwt>
<totfact> 0.32050983E+01</totfact>
</mgrwt>
</event>
<event>
 6    1  0.1375310E-005  0.1019598E+04  0.7818608E-02  0.9811526E-01
          4   -1    0    0  502    0 -0.00000000000E+00  0.00000000000E+00  0.24518238198E+03  0.24518238198E+03  0.00000000000E+00 0.  1.
         21   -1    0    0  501  502  0.00000000000E+00 -0.00000000000E+00 -0.14939036783E+04  0.14939036783E+04  0.00000000000E+00 0.  1.
    9000010    2    1    2  501    0  0.28843556601E+02  0.16328154642E+03 -0.11803175092E+04  0.15597207810E+04  0.10060251875E+04 0.  0.
        -13    1    3    3    0    0  0.27444338561E+03 -0.27432569934E+03 -0.15435871976E+03  0.41761272341E+03  0.10566000000E+00 0.  1.
          4    1    3    3  501    0 -0.24559982901E+03  0.43760724577E+03 -0.10259587894E+04  0.11421080576E+04  0.00000000000E+00 0.  1.
         13    1    1    2    0    0 -0.28843556601E+02 -0.16328154642E+03 -0.68403787118E+02  0.17936527929E+03  0.10566000000E+00 0. -1.
<mgrwt>
<rscale>  1 0.64747657E+03</rscale>
<asrwt>0</asrwt>
<pdfrwt beam="2">  1       21 0.22983134E+00 0.10195977E+04</pdfrwt>
<pdfrwt beam="1">  1        4 0.37720365E-01 0.10195977E+04</pdfrwt>
<totfact> 0.20118359E+01</totfact>
</mgrwt>
</event>
<event>
 6    1  0.1375310E-005  0.1018000E+04  0.7818608E-02  0.1007489E+00
          4   -1    0    0  502    0 -0.00000000000E+00  0.00000000000E+00  0.53227594800E+03  0.53227594800E+03  0.00000000000E+00 0.  1.
         21   -1    0    0  501  502  0.00000000000E+00 -0.00000000000E+00 -0.74379970894E+03  0.74379970894E+03  0.00000000000E+00 0.  1.
    9000010    2    1    2  501    0  0.71592884579E+02  0.69192590648E+01 -0.38492940947E+03  0.10883446063E+04  0.10154555207E+04 0.  0.
        -13    1    3    3    0    0  0.25855987748E+03 -0.43854514381E+03 -0.31894248611E+03  0.60074901083E+03  0.10566000000E+00 0.  1.
          4    1    3    3  501    0 -0.18696699291E+03  0.44546440287E+03 -0.65986923359E+02  0.48759559547E+03  0.00000000000E+00 0.  1.
         13    1    1    2    0    0 -0.71592884579E+02 -0.69192590648E+01  0.17340564853E+03  0.18773105064E+03  0.10566000000E+00 0. -1.
<mgrwt>
<rscale>  1 0.52484738E+03</rscale>
<asrwt>0</asrwt>
<pdfrwt beam="2">  1       21 0.11443072E+00 0.10179997E+04</pdfrwt>
<pdfrwt beam="1">  1        4 0.81888608E-01 0.10179997E+04</pdfrwt>
<totfact> 0.28941964E+01</totfact>
</mgrwt>
</event>
<event>
 6    1  0.1375310E-005  0.1042487E+04  0.7818608E-02  0.9705914E-01
          4   -1    0    0  502    0 -0.00000000000E+00  0.00000000000E+00  0.70502655954E+03  0.70502655954E+03  0.00000000000E+00 0.  1.
         21   -1    0    0  501  502  0.00000000000E+00 -0.00000000000E+00 -0.58381923422E+03  0.58381923422E+03  0.00000000000E+00 0.  1.
    9000010    2    1    2  501    0  0.15105332730E+03 -0.16008750782E+03  0.10659181420E+02  0.10425410615E+04  0.10189863242E+04 0.  0.
        -13    1    3    3    0    0 -0.39325903116E+03 -0.19428902206E+03  0.17602385749E+03  0.47263654033E+03  0.10566000000E+00 0.  1.
          4    1    3    3  501    0  0.54431235847E+03  0.34201514236E+02 -0.16536467607E+03  0.56990452117E+03  0.00000000000E+00 0.  1.
         13    1    1    2    0    0 -0.15105332730E+03  0.16008750782E+03  0.11054814390E+03  0.24630473226E+03  0.10566000000E+00 0. -1.
<mgrwt>
<rscale>  1 0.70665773E+03</rscale>
<asrwt>0</asrwt>
<pdfrwt beam="2">  1       21 0.89818343E-01 0.10424866E+04</pdfrwt>
<pdfrwt beam="1">  1        4 0.10846562E+00 0.10424866E+04</pdfrwt>
<totfact> 0.27013484E+01</totfact>
</mgrwt>
</event>
<event>
 6    1  0.1375310E-005  0.1252241E+04  0.7818608E-02  0.9206808E-01
          4   -1    0    0  502    0 -0.00000000000E+00  0.00000000000E+00  0.40239483106E+03  0.40239483106E+03  0.00000000000E+00 0.  1.
         21   -1    0    0  501  502  0.00000000000E+00 -0.00000000000E+00 -0.24705794163E+04  0.24705794163E+04  0.00000000000E+00 0. -1.
    9000010    2    1    2  501    0 -0.58002510475E+02 -0.73884781664E+03 -0.13378235917E+04  0.18324515040E+04  0.10093790986E+04 0.  0.
        -13    1    3    3    0    0 -0.98869871252E+02 -0.91171083399E+03 -0.13732697287E+04  0.16513211847E+04  0.10566000000E+00 0.  1.
          4    1    3    3  501    0  0.40867360777E+02  0.17286301736E+03  0.35446136945E+02  0.18113031930E+03  0.00000000000E+00 0.  1.
         13    1    1    2    0    0  0.58002510475E+02  0.73884781664E+03 -0.73036099349E+03  0.10405227433E+04  0.10566000000E+00 0. -1.
<mgrwt>
<rscale>  1 0.10983433E+04</rscale>
<asrwt>0</asrwt>
<pdfrwt beam="2">  1       21 0.38008914E+00 0.12522406E+04</pdfrwt>
<pdfrwt beam="1">  1        4 0.61906897E-01 0.12522406E+04</pdfrwt>
<totfact> 0.76445963E-01</totfact>
</mgrwt>
</event>
<event>
 6    1  0.1375310E-005  0.1009328E+04  0.7818608E-02  0.9745804E-01
         21   -1    0    0  501  502  0.00000000000E+00  0.00000000000E+00  0.31195609385E+03  0.31195609385E+03  0.00000000000E+00 0.  1.
          4   -1    0    0  502    0 -0.00000000000E+00 -0.00000000000E+00 -0.14474796969E+04  0.14474796969E+04  0.00000000000E+00 0.  1.
    9000010    2    1    2  501    0  0.75573594182E+02 -0.19839656288E+03 -0.57857827515E+03  0.11633983140E+04  0.98674730917E+03 0.  0.
        -13    1    3    3    0    0  0.33972031246E+03 -0.41586214823E+03 -0.61832656654E+03  0.81894991977E+03  0.10566000000E+00 0.  1.
          4    1    3    3  501    0 -0.26414671828E+03  0.21746558536E+03  0.39748291395E+02  0.34444839419E+03  0.00000000000E+00 0.  1.
         13    1    1    2    0    0 -0.75573594182E+02  0.19839656288E+03 -0.55694532793E+03  0.59603747682E+03  0.10566000000E+00 0. -1.
<mgrwt>
<rscale>  1 0.68353893E+03</rscale>
<asrwt>0</asrwt>
<pdfrwt beam="1">  1       21 0.47993246E-01 0.10093279E+04</pdfrwt>
<pdfrwt beam="2">  1        4 0.22268918E+00 0.10093279E+04</pdfrwt>
<totfact> 0.15385171E+01</totfact>
</mgrwt>
</event>
<event>
 6    1  0.1375310E-005  0.1056470E+04  0.7818608E-02  0.9568287E-01
          4   -1    0    0  502    0 -0.00000000000E+00  0.00000000000E+00  0.69496185209E+03  0.69496185209E+03  0.00000000000E+00 0.  1.
         21   -1    0    0  501  502  0.00000000000E+00 -0.00000000000E+00 -0.70825615140E+03  0.70825615140E+03  0.00000000000E+00 0.  1.
    9000010    2    1    2  501    0  0.23344226209E+03 -0.24387205582E+03 -0.78512363845E+02  0.10593833391E+04  0.10010794167E+04 0.  0.
        -13    1    3    3    0    0 -0.32094744582E+03 -0.31319572088E+03  0.12373291302E+03  0.46519745000E+03  0.10566000000E+00 0.  1.
          4    1    3    3  501    0  0.55438970792E+03  0.69323665062E+02 -0.20224527686E+03  0.59418588909E+03  0.00000000000E+00 0.  1.
         13    1    1    2    0    0 -0.23344226209E+03  0.24387205582E+03  0.65218064539E+02  0.34383466440E+03  0.10566000000E+00 0. -1.
<mgrwt>
<rscale>  1 0.79431207E+03</rscale>
<asrwt>0</asrwt>
<pdfrwt beam="2">  1       21 0.10896248E+00 0.10564700E+04</pdfrwt>
<pdfrwt beam="1">  1        4 0.10691721E+00 0.10564700E+04</pdfrwt>
<totfact> 0.17324121E+01</totfact>
</mgrwt>
</event>
<event>
 6    1  0.1375310E-005  0.1034368E+04  0.7818608E-02  0.9652722E-01
          4   -1    0    0  502    0 -0.00000000000E+00  0.00000000000E+00  0.23999523727E+04  0.23999523727E+04  0.00000000000E+00 0.  1.
         21   -1    0    0  501  502  0.00000000000E+00 -0.00000000000E+00 -0.18484752606E+03  0.18484752606E+03  0.00000000000E+00 0.  1.
    9000010    2    1    2  501    0  0.21352598334E+03 -0.16449025644E+03  0.19465644262E+04  0.22043207816E+04  0.99863239124E+03 0.  0.
        -13    1    3    3    0    0  0.30873042980E+03  0.71479169537E+02  0.88650162758E+02  0.32906323478E+03  0.10566000000E+00 0.  1.
          4    1    3    3  501    0 -0.95204446459E+02 -0.23596942598E+03  0.18579142634E+04  0.18752575468E+04  0.00000000000E+00 0.  1.
         13    1    1    2    0    0 -0.21352598334E+03  0.16449025644E+03  0.26854042045E+03  0.38047911718E+03  0.10566000000E+00 0. -1.
<mgrwt>
<rscale>  1 0.73902835E+03</rscale>
<asrwt>0</asrwt>
<pdfrwt beam="2">  1       21 0.28438083E-01 0.10343679E+04</pdfrwt>
<pdfrwt beam="1">  1        4 0.36922342E+00 0.10343679E+04</pdfrwt>
<totfact> 0.54427097E+00</totfact>
</mgrwt>
</event>
<event>
 6    1  0.1375310E-005  0.1737754E+04  0.7818608E-02  0.8789476E-01
          4   -1    0    0  502    0 -0.00000000000E+00  0.00000000000E+00  0.18568503494E+04  0.18568503494E+04  0.00000000000E+00 0.  1.
         21   -1    0    0  501  502  0.00000000000E+00 -0.00000000000E+00 -0.13731210645E+04  0.13731210645E+04  0.00000000000E+00 0. -1.
    9000010    2    1    2  501    0  0.92316498915E+03 -0.10761191828E+04  0.18818989171E+02  0.17378562417E+04  0.10047507500E+04 0.  0.
        -13    1    3    3    0    0  0.50985404156E+03 -0.41331980856E+03  0.49586347499E+03  0.82259650184E+03  0.10566000000E+00 0.  1.
          4    1    3    3  501    0  0.41331094759E+03 -0.66279937428E+03 -0.47704448582E+03  0.91525973985E+03  0.00000000000E+00 0.  1.
         13    1    1    2    0    0 -0.92316498915E+03  0.10761191828E+04  0.46491029566E+03  0.14921151722E+04  0.10566000000E+00 0. -1.
<mgrwt>
<rscale>  1 0.16515738E+04</rscale>
<asrwt>0</asrwt>
<pdfrwt beam="2">  1       21 0.21124939E+00 0.17377543E+04</pdfrwt>
<pdfrwt beam="1">  1        4 0.28566929E+00 0.17377543E+04</pdfrwt>
<totfact> 0.12667023E-01</totfact>
</mgrwt>
</event>
<event>
 6    1  0.1375310E-005  0.1144408E+04  0.7818608E-02  0.9359250E-01
         21   -1    0    0  501  502  0.00000000000E+00  0.00000000000E+00  0.77932467777E+03  0.77932467777E+03  0.00000000000E+00 0. -1.
          4   -1    0    0  502    0 -0.00000000000E+00 -0.00000000000E+00 -0.94555207172E+03  0.94555207172E+03  0.00000000000E+00 0.  1.
    9000010    2    1    2  501    0  0.32808357989E+03  0.44779697062E+03  0.34122452432E+01  0.11444126415E+04  0.10007535603E+04 0.  0.
        -13    1    3    3    0    0  0.23088683920E+03 -0.27601488499E+03  0.16589057650E+03  0.39624820982E+03  0.10566000000E+00 0.  1.
          4    1    3    3  501    0  0.97196740695E+02  0.72381185561E+03 -0.16247833126E+03  0.74816443169E+03  0.00000000000E+00 0.  1.
         13    1    1    2    0    0 -0.32808357989E+03 -0.44779697062E+03 -0.16963963919E+03  0.58046410797E+03  0.10566000000E+00 0. -1.
<mgrwt>
<rscale>  1 0.95506459E+03</rscale>
<asrwt>0</asrwt>
<pdfrwt beam="1">  1       21 0.11989610E+00 0.11444076E+04</pdfrwt>
<pdfrwt beam="2">  1        4 0.14546955E+00 0.11444076E+04</pdfrwt>
<totfact> 0.61301344E+00</totfact>
</mgrwt>
</event>
<event>
 6    1  0.1375310E-005  0.1069648E+04  0.7818608E-02  0.9540640E-01
          4   -1    0    0  502    0 -0.00000000000E+00  0.00000000000E+00  0.21468422439E+03  0.21468422439E+03  0.00000000000E+00 0.  1.
         21   -1    0    0  501  502  0.00000000000E+00 -0.00000000000E+00 -0.24927248941E+04  0.24927248941E+04  0.00000000000E+00 0. -1.
    9000010    2    1    2  501    0 -0.24230534552E+03 -0.26340736426E+03 -0.14206177780E+04  0.17782862276E+04  0.10079939067E+04 0.  0.
        -13    1    3    3    0    0  0.15146870967E+02  0.87199414860E+01 -0.14031576871E+04  0.14032665360E+04  0.10566000000E+00 0.  1.
          4    1    3    3  501    0 -0.25745221648E+03 -0.27212730574E+03 -0.17460090923E+02  0.37501969159E+03  0.00000000000E+00 0.  1.
         13    1    1    2    0    0  0.24230534552E+03  0.26340736426E+03 -0.85742289172E+03  0.92912289091E+03  0.10566000000E+00 0. -1.
<mgrwt>
<rscale>  1 0.81352782E+03</rscale>
<asrwt>0</asrwt>
<pdfrwt beam="2">  1       21 0.38349612E+00 0.10696481E+04</pdfrwt>
<pdfrwt beam="1">  1        4 0.33028344E-01 0.10696481E+04</pdfrwt>
<totfact> 0.27855035E+00</totfact>
</mgrwt>
</event>
<event>
 6    1  0.1375310E-005  0.9344695E+03  0.7818608E-02  0.1007666E+00
         21   -1    0    0  501  502  0.00000000000E+00  0.00000000000E+00  0.12669606297E+04  0.12669606297E+04  0.00000000000E+00 0.  1.
          4   -1    0    0  502    0 -0.00000000000E+00 -0.00000000000E+00 -0.28962971974E+03  0.28962971974E+03  0.00000000000E+00 0.  1.
    9000010    2    1    2  501    0  0.47184156339E+02 -0.79539637545E+02  0.10734459281E+04  0.14232074179E+04  0.92988187169E+03 0.  0.
        -13    1    3    3    0    0 -0.20830464306E+03  0.27526670969E+03  0.10528259222E+03  0.36089752170E+03  0.10566000000E+00 0.  1.
          4    1    3    3  501    0  0.25548879939E+03 -0.35480634723E+03  0.96816333590E+03  0.10623098962E+04  0.00000000000E+00 0.  1.
         13    1    1    2    0    0 -0.47184156339E+02  0.79539637545E+02 -0.96115018130E+02  0.13338293153E+03  0.10566000000E+00 0. -1.
<mgrwt>
<rscale>  1 0.52412886E+03</rscale>
<asrwt>0</asrwt>
<pdfrwt beam="1">  1       21 0.19491702E+00 0.93446947E+03</pdfrwt>
<pdfrwt beam="2">  1        4 0.44558419E-01 0.93446947E+03</pdfrwt>
<totfact> 0.24802395E+01</totfact>
</mgrwt>
</event>
<event>
 6    1  0.1375310E-005  0.1042473E+04  0.7818608E-02  0.9576476E-01
         21   -1    0    0  501  502  0.00000000000E+00  0.00000000000E+00  0.87832113683E+03  0.87832113683E+03  0.00000000000E+00 0.  1.
          4   -1    0    0  502    0 -0.00000000000E+00 -0.00000000000E+00 -0.59958531068E+03  0.59958531068E+03  0.00000000000E+00 0.  1.
    9000010    2    1    2  501    0  0.12216178668E+03  0.31900970769E+03  0.39832136244E+03  0.11159790965E+04  0.98491560065E+03 0.  0.
        -13    1    3    3    0    0  0.85268453377E+02 -0.27518641725E+03 -0.13365490094E+03  0.31758765261E+03  0.10566000000E+00 0.  1.
          4    1    3    3  501    0  0.36893333303E+02  0.59419612494E+03  0.53197626338E+03  0.79839144393E+03  0.00000000000E+00 0.  1.
         13    1    1    2    0    0 -0.12216178668E+03 -0.31900970769E+03 -0.11958553629E+03  0.36192735097E+03  0.10566000000E+00 0. -1.
<mgrwt>
<rscale>  1 0.78872947E+03</rscale>
<asrwt>0</asrwt>
<pdfrwt beam="1">  1       21 0.13512633E+00 0.10424728E+04</pdfrwt>
<pdfrwt beam="2">  1        4 0.92243894E-01 0.10424728E+04</pdfrwt>
<totfact> 0.14130306E+01</totfact>
</mgrwt>
</event>
<event>
 6    1  0.1375310E-005  0.1016935E+04  0.7818608E-02  0.9786282E-01
         21   -1    0    0  501  502  0.00000000000E+00  0.00000000000E+00  0.10261418912E+04  0.10261418912E+04  0.00000000000E+00 0.  1.
          4   -1    0    0  502    0 -0.00000000000E+00 -0.00000000000E+00 -0.35660492645E+03  0.35660492645E+03  0.00000000000E+00 0.  1.
    9000010    2    1    2  501    0 -0.17862182738E+02 -0.18068327861E+03  0.49544340899E+03  0.11312034177E+04  0.10005955706E+04 0.  0.
        -13    1    3    3    0    0  0.43569867753E+03 -0.15355714497E+03  0.41186127347E+01  0.46198496567E+03  0.10566000000E+00 0.  1.
          4    1    3    3  501    0 -0.45356086026E+03 -0.27126133642E+02  0.49132479626E+03  0.66921845201E+03  0.00000000000E+00 0.  1.
         13    1    1    2    0    0  0.17862182738E+02  0.18068327861E+03  0.17409355572E+03  0.25154339993E+03  0.10566000000E+00 0. -1.
<mgrwt>
<rscale>  1 0.66103959E+03</rscale>
<asrwt>0</asrwt>
<pdfrwt beam="1">  1       21 0.15786798E+00 0.10169351E+04</pdfrwt>
<pdfrwt beam="2">  1        4 0.54862297E-01 0.10169351E+04</pdfrwt>
<totfact> 0.29662259E+01</totfact>
</mgrwt>
</event>
<event>
 6    1  0.1375310E-005  0.1089019E+04  0.7818608E-02  0.9484618E-01
          4   -1    0    0  502    0 -0.00000000000E+00  0.00000000000E+00  0.43825829320E+03  0.43825829320E+03  0.00000000000E+00 0.  1.
         21   -1    0    0  501  502  0.00000000000E+00 -0.00000000000E+00 -0.13270891145E+04  0.13270891145E+04  0.00000000000E+00 0.  1.
    9000010    2    1    2  501    0  0.36128893747E+03  0.19878743179E+03 -0.77791411882E+03  0.13383243809E+04  0.10079264025E+04 0.  0.
        -13    1    3    3    0    0 -0.11808580486E+03  0.47658324226E+03 -0.17942632345E+03  0.52275200700E+03  0.10566000000E+00 0.  1.
          4    1    3    3  501    0  0.47937474233E+03 -0.27779581047E+03 -0.59848779537E+03  0.81557237392E+03  0.00000000000E+00 0.  1.
         13    1    1    2    0    0 -0.36128893747E+03 -0.19878743179E+03 -0.11091670253E+03  0.42702302682E+03  0.10566000000E+00 0. -1.
<mgrwt>
<rscale>  1 0.85427434E+03</rscale>
<asrwt>0</asrwt>
<pdfrwt beam="2">  1       21 0.20416755E+00 0.10890187E+04</pdfrwt>
<pdfrwt beam="1">  1        4 0.67424354E-01 0.10890187E+04</pdfrwt>
<totfact> 0.86343983E+00</totfact>
</mgrwt>
</event>
<event>
 6    1  0.1375310E-005  0.1017699E+04  0.7818608E-02  0.9697440E-01
          4   -1    0    0  502    0 -0.00000000000E+00  0.00000000000E+00  0.32115350721E+04  0.32115350721E+04  0.00000000000E+00 0.  1.
         21   -1    0    0  501  502  0.00000000000E+00 -0.00000000000E+00 -0.14941707234E+03  0.14941707234E+03  0.00000000000E+00 0.  1.
    9000010    2    1    2  501    0 -0.15884184511E+03 -0.18442223546E+03  0.17329572571E+04  0.20096895557E+04  0.98816444113E+03 0.  0.
        -13    1    3    3    0    0  0.13734976920E+01 -0.47594637316E+02  0.17906178462E+04  0.17912507972E+04  0.10566000000E+00 0.  1.
          4    1    3    3  501    0 -0.16021534280E+03 -0.13682759814E+03 -0.57660589144E+02  0.21843875852E+03  0.00000000000E+00 0.  1.
         13    1    1    2    0    0  0.15884184511E+03  0.18442223546E+03  0.13291607427E+04  0.13512625888E+04  0.10566000000E+00 0. -1.
<mgrwt>
<rscale>  1 0.71169433E+03</rscale>
<asrwt>0</asrwt>
<pdfrwt beam="2">  1       21 0.22987244E-01 0.10176990E+04</pdfrwt>
<pdfrwt beam="1">  1        4 0.49408227E+00 0.10176990E+04</pdfrwt>
<totfact> 0.10296928E+00</totfact>
</mgrwt>
</event>
<event>
 6    1  0.1375310E-005  0.1007968E+04  0.7818608E-02  0.9843210E-01
         21   -1    0    0  501  502  0.00000000000E+00  0.00000000000E+00  0.49171819057E+03  0.49171819057E+03  0.00000000000E+00 0.  1.
          4   -1    0    0  502    0 -0.00000000000E+00 -0.00000000000E+00 -0.93290507391E+03  0.93290507391E+03  0.00000000000E+00 0.  1.
    9000010    2    1    2  501    0  0.12377641352E+03  0.92875760646E+02 -0.56009055965E+02  0.10095227016E+04  0.99601835485E+03 0.  0.
        -13    1    3    3    0    0 -0.30616039437E+03 -0.48414247531E+02 -0.35180134225E+03  0.46887346056E+03  0.10566000000E+00 0.  1.
          4    1    3    3  501    0  0.42993680789E+03  0.14129000818E+03  0.29579228629E+03  0.54064924102E+03  0.00000000000E+00 0.  1.
         13    1    1    2    0    0 -0.12377641352E+03 -0.92875760646E+02 -0.38517782737E+03  0.41510056290E+03  0.10566000000E+00 0. -1.
<mgrwt>
<rscale>  1 0.63094324E+03</rscale>
<asrwt>0</asrwt>
<pdfrwt beam="1">  1       21 0.75648953E-01 0.10079678E+04</pdfrwt>
<pdfrwt beam="2">  1        4 0.14352386E+00 0.10079678E+04</pdfrwt>
<totfact> 0.19959182E+01</totfact>
</mgrwt>
</event>
<event>
 6    1  0.1375310E-005  0.1034856E+04  0.7818608E-02  0.9715902E-01
         21   -1    0    0  501  502  0.00000000000E+00  0.00000000000E+00  0.20174826906E+04  0.20174826906E+04  0.00000000000E+00 0.  1.
          4   -1    0    0  502    0 -0.00000000000E+00 -0.00000000000E+00 -0.24579751149E+03  0.24579751149E+03  0.00000000000E+00 0.  1.
    9000010    2    1    2  501    0  0.93293448604E+02 -0.19659977789E+03  0.17644660695E+04  0.20455481031E+04  0.10117170512E+04 0.  0.
        -13    1    3    3    0    0  0.59182111919E+02 -0.59759521909E+03  0.12931940635E+04  0.14258237848E+04  0.10566000000E+00 0.  1.
          4    1    3    3  501    0  0.34111336685E+02  0.40099544120E+03  0.47127200599E+03  0.61972431837E+03  0.00000000000E+00 0.  1.
         13    1    1    2    0    0 -0.93293448604E+02  0.19659977789E+03  0.72191096735E+01  0.21773209898E+03  0.10566000000E+00 0. -1.
<mgrwt>
<rscale>  1 0.70077852E+03</rscale>
<asrwt>0</asrwt>
<pdfrwt beam="1">  1       21 0.31038194E+00 0.10348558E+04</pdfrwt>
<pdfrwt beam="2">  1        4 0.37815003E-01 0.10348558E+04</pdfrwt>
<totfact> 0.62038819E+00</totfact>
</mgrwt>
</event>
<event>
 6    1  0.1375310E-005  0.1004830E+04  0.7818608E-02  0.9909112E-01
         21   -1    0    0  501  502  0.00000000000E+00  0.00000000000E+00  0.48412194225E+03  0.48412194225E+03  0.00000000000E+00 0.  1.
          4   -1    0    0  502    0 -0.00000000000E+00 -0.00000000000E+00 -0.71203898066E+03  0.71203898066E+03  0.00000000000E+00 0.  1.
    9000010    2    1    2  501    0 -0.67474954593E+02 -0.10668043082E+03 -0.89466341896E+02  0.10088051374E+04  0.99687009945E+03 0.  0.
        -13    1    3    3    0    0  0.51678912286E+02 -0.39830050744E+03 -0.39972448533E+03  0.56665128566E+03  0.10566000000E+00 0.  1.
          4    1    3    3  501    0 -0.11915386688E+03  0.29162007661E+03  0.31025814344E+03  0.44215385178E+03  0.00000000000E+00 0.  1.
         13    1    1    2    0    0  0.67474954593E+02  0.10668043082E+03 -0.13845069651E+03  0.18735578547E+03  0.10566000000E+00 0. -1.
<mgrwt>
<rscale>  1 0.59821694E+03</rscale>
<asrwt>0</asrwt>
<pdfrwt beam="1">  1       21 0.74480299E-01 0.10048301E+04</pdfrwt>
<pdfrwt beam="2">  1        4 0.10954446E+00 0.10048301E+04</pdfrwt>
<totfact> 0.41192591E+01</totfact>
</mgrwt>
</event>
<event>
 6    1  0.1375310E-005  0.1014016E+04  0.7818608E-02  0.9762623E-01
         21   -1    0    0  501  502  0.00000000000E+00  0.00000000000E+00  0.96461362624E+03  0.96461362624E+03  0.00000000000E+00 0.  1.
          4   -1    0    0  502    0 -0.00000000000E+00 -0.00000000000E+00 -0.49946547188E+03  0.49946547188E+03  0.00000000000E+00 0.  1.
    9000010    2    1    2  501    0  0.15698821071E+03  0.12068552586E+03  0.64068420348E+03  0.11994601076E+04  0.99449384444E+03 0.  0.
        -13    1    3    3    0    0  0.41287109821E+03 -0.16609474993E+03 -0.84141358977E+01  0.44510764826E+03  0.10566000000E+00 0.  1.
          4    1    3    3  501    0 -0.25588288750E+03  0.28678027579E+03  0.64909833937E+03  0.75435245932E+03  0.00000000000E+00 0.  1.
         13    1    1    2    0    0 -0.15698821071E+03 -0.12068552586E+03 -0.17553604911E+03  0.26461899054E+03  0.10566000000E+00 0. -1.
<mgrwt>
<rscale>  1 0.67407561E+03</rscale>
<asrwt>0</asrwt>
<pdfrwt beam="1">  1       21 0.14840210E+00 0.10140159E+04</pdfrwt>
<pdfrwt beam="2">  1        4 0.76840842E-01 0.10140159E+04</pdfrwt>
<totfact> 0.16763595E+01</totfact>
</mgrwt>
</event>
<event>
 6    1  0.1375310E-005  0.1035216E+04  0.7818608E-02  0.9678329E-01
          4   -1    0    0  502    0 -0.00000000000E+00  0.00000000000E+00  0.86062151137E+03  0.86062151137E+03  0.00000000000E+00 0.  1.
         21   -1    0    0  501  502  0.00000000000E+00 -0.00000000000E+00 -0.52636780134E+03  0.52636780134E+03  0.00000000000E+00 0.  1.
    9000010    2    1    2  501    0  0.23031306000E+03  0.88121619946E+02  0.88736596781E+02  0.10390120296E+04  0.10054164752E+04 0.  0.
        -13    1    3    3    0    0 -0.25049011526E+03  0.39192465736E+03  0.13654515894E+02  0.46533503184E+03  0.10566000000E+00 0.  1.
          4    1    3    3  501    0  0.48080317526E+03 -0.30380303742E+03  0.75082080887E+02  0.57367699775E+03  0.00000000000E+00 0.  1.
         13    1    1    2    0    0 -0.23031306000E+03 -0.88121619946E+02  0.24551711325E+03  0.34797728312E+03  0.10566000000E+00 0. -1.
<mgrwt>
<rscale>  1 0.72321869E+03</rscale>
<asrwt>0</asrwt>
<pdfrwt beam="2">  1       21 0.80979662E-01 0.10352158E+04</pdfrwt>
<pdfrwt beam="1">  1        4 0.13240331E+00 0.10352158E+04</pdfrwt>
<totfact> 0.20957985E+01</totfact>
</mgrwt>
</event>
<event>
 6    1  0.1375310E-005  0.9713614E+03  0.7818608E-02  0.9749960E-01
          4   -1    0    0  502    0 -0.00000000000E+00  0.00000000000E+00  0.84707447741E+03  0.84707447741E+03  0.00000000000E+00 0.  1.
         21   -1    0    0  501  502  0.00000000000E+00 -0.00000000000E+00 -0.64949420370E+03  0.64949420370E+03  0.00000000000E+00 0.  1.
    9000010    2    1    2  501    0 -0.89026253229E+02  0.21739697654E+03 -0.23941535192E+03  0.10004312937E+04  0.94252636226E+03 0.  0.
        -13    1    3    3    0    0 -0.11435042550E+02  0.46926192086E+03  0.18195302882E+03  0.50343264339E+03  0.10566000000E+00 0.  1.
          4    1    3    3  501    0 -0.77591210680E+02 -0.25186494432E+03 -0.42136838074E+03  0.49699865034E+03  0.00000000000E+00 0.  1.
         13    1    1    2    0    0  0.89026253229E+02 -0.21739697654E+03  0.43699562563E+03  0.49613738738E+03  0.10566000000E+00 0. -1.
<mgrwt>
<rscale>  1 0.68118547E+03</rscale>
<asrwt>0</asrwt>
<pdfrwt beam="2">  1       21 0.99922185E-01 0.97136145E+03</pdfrwt>
<pdfrwt beam="1">  1        4 0.13031915E+00 0.97136145E+03</pdfrwt>
<totfact> 0.13227514E+01</totfact>
</mgrwt>
</event>
<event>
 6    1  0.1375310E-005  0.1025967E+04  0.7818608E-02  0.9696529E-01
         21   -1    0    0  501  502  0.00000000000E+00  0.00000000000E+00  0.43921804846E+03  0.43921804846E+03  0.00000000000E+00 0.  1.
          4   -1    0    0  502    0 -0.00000000000E+00 -0.00000000000E+00 -0.92685359911E+03  0.92685359911E+03  0.00000000000E+00 0.  1.
    9000010    2    1    2  501    0 -0.21397931082E+03 -0.10485223588E+03 -0.31995579019E+03  0.10746996344E+04  0.99791104798E+03 0.  0.
        -13    1    3    3    0    0  0.13559371569E+03  0.33345473827E+03  0.10070829687E+03  0.37379123910E+03  0.10566000000E+00 0.  1.
          4    1    3    3  501    0 -0.34957302651E+03 -0.43830697415E+03 -0.42066408706E+03  0.70090839529E+03  0.00000000000E+00 0.  1.
         13    1    1    2    0    0  0.21397931082E+03  0.10485223588E+03 -0.16767976046E+03  0.29137201317E+03  0.10566000000E+00 0. -1.
<mgrwt>
<rscale>  1 0.71223852E+03</rscale>
<asrwt>0</asrwt>
<pdfrwt beam="1">  1       21 0.67572009E-01 0.10259667E+04</pdfrwt>
<pdfrwt beam="2">  1        4 0.14259286E+00 0.10259667E+04</pdfrwt>
<totfact> 0.26288171E+01</totfact>
</mgrwt>
</event>
<event>
 6    1  0.1375310E-005  0.9899902E+03  0.7818608E-02  0.1002274E+00
          4   -1    0    0  502    0 -0.00000000000E+00  0.00000000000E+00  0.16183226423E+03  0.16183226423E+03  0.00000000000E+00 0.  1.
         21   -1    0    0  501  502  0.00000000000E+00 -0.00000000000E+00 -0.31287990392E+04  0.31287990392E+04  0.00000000000E+00 0.  1.
    9000010    2    1    2  501    0 -0.58914875467E+02  0.70696627412E+02 -0.30242960397E+04  0.31822079137E+04  0.98570365460E+03 0.  0.
        -13    1    3    3    0    0 -0.23277303976E+03 -0.34312413578E+03 -0.22443140327E+04  0.22822933530E+04  0.10566000000E+00 0.  1.
          4    1    3    3  501    0  0.17385816429E+03  0.41382076319E+03 -0.77998200695E+03  0.89991456067E+03  0.00000000000E+00 0.  1.
         13    1    1    2    0    0  0.58914875467E+02 -0.70696627412E+02  0.57329264732E+02  0.10842338972E+03  0.10566000000E+00 0. -1.
<mgrwt>
<rscale>  1 0.54664089E+03</rscale>
<asrwt>0</asrwt>
<pdfrwt beam="2">  1       21 0.48135366E+00 0.98999024E+03</pdfrwt>
<pdfrwt beam="1">  1        4 0.24897274E-01 0.98999024E+03</pdfrwt>
<totfact> 0.10699531E+00</totfact>
</mgrwt>
</event>
<event>
 6    1  0.1375310E-005  0.1008797E+04  0.7818608E-02  0.9865938E-01
          4   -1    0    0  502    0 -0.00000000000E+00  0.00000000000E+00  0.39560969104E+03  0.39560969104E+03  0.00000000000E+00 0.  1.
         21   -1    0    0  501  502  0.00000000000E+00 -0.00000000000E+00 -0.84614857244E+03  0.84614857244E+03  0.00000000000E+00 0.  1.
    9000010    2    1    2  501    0 -0.94051380944E+01  0.14307409513E+03 -0.35489225282E+03  0.10694012444E+04  0.99855488432E+03 0.  0.
        -13    1    3    3    0    0 -0.21007803710E+03  0.61274695253E+02  0.30469059914E+03  0.37513163332E+03  0.10566000000E+00 0.  1.
          4    1    3    3  501    0  0.20067289901E+03  0.81799399872E+02 -0.65958285195E+03  0.69426961104E+03  0.00000000000E+00 0.  1.
         13    1    1    2    0    0  0.94051380944E+01 -0.14307409513E+03 -0.95646628585E+02  0.17235701913E+03  0.10566000000E+00 0. -1.
<mgrwt>
<rscale>  1 0.61940843E+03</rscale>
<asrwt>0</asrwt>
<pdfrwt beam="2">  1       21 0.13017670E+00 0.10087966E+04</pdfrwt>
<pdfrwt beam="1">  1        4 0.60863031E-01 0.10087966E+04</pdfrwt>
<totfact> 0.40274273E+01</totfact>
</mgrwt>
</event>
<event>
 6    1  0.1375310E-005  0.1011140E+04  0.7818608E-02  0.9906508E-01
         21   -1    0    0  501  502  0.00000000000E+00  0.00000000000E+00  0.10000652233E+04  0.10000652233E+04  0.00000000000E+00 0. -1.
          4   -1    0    0  502    0 -0.00000000000E+00 -0.00000000000E+00 -0.39629347671E+03  0.39629347671E+03  0.00000000000E+00 0.  1.
    9000010    2    1    2  501    0 -0.72154872869E+02 -0.10197433908E+03  0.27980253612E+03  0.10491395300E+04  0.10033938423E+04 0.  0.
        -13    1    3    3    0    0  0.25325949428E+01 -0.18371996473E+02  0.65616943725E+03  0.65643147840E+03  0.10566000000E+00 0.  1.
          4    1    3    3  501    0 -0.74687467812E+02 -0.83602342605E+02 -0.37636690113E+03  0.39270805161E+03  0.00000000000E+00 0.  1.
         13    1    1    2    0    0  0.72154872869E+02  0.10197433908E+03  0.32396921043E+03  0.34721916995E+03  0.10566000000E+00 0. -1.
<mgrwt>
<rscale>  1 0.59946921E+03</rscale>
<asrwt>0</asrwt>
<pdfrwt beam="1">  1       21 0.15385619E+00 0.10111401E+04</pdfrwt>
<pdfrwt beam="2">  1        4 0.60968227E-01 0.10111401E+04</pdfrwt>
<totfact> 0.25406002E+01</totfact>
</mgrwt>
</event>
<event>
 6    1  0.1375310E-005  0.1106439E+04  0.7818608E-02  0.9405487E-01
          4   -1    0    0  502    0 -0.00000000000E+00  0.00000000000E+00  0.16029343519E+04  0.16029343519E+04  0.00000000000E+00 0.  1.
         21   -1    0    0  501  502  0.00000000000E+00 -0.00000000000E+00 -0.14825191944E+04  0.14825191944E+04  0.00000000000E+00 0.  1.
    9000010    2    1    2  501    0 -0.11531914820E+03  0.50739506686E+03 -0.12203511443E+04  0.16472593498E+04  0.97645183723E+03 0.  0.
        -13    1    3    3    0    0  0.33822300176E+03  0.49418092334E+03 -0.43464267195E+03  0.73994854372E+03  0.10566000000E+00 0.  1.
          4    1    3    3  501    0 -0.45354214996E+03  0.13214143522E+02 -0.78570847234E+03  0.90731080611E+03  0.00000000000E+00 0.  1.
         13    1    1    2    0    0  0.11531914820E+03 -0.50739506686E+03  0.13407663018E+04  0.14381941965E+04  0.10566000000E+00 0. -1.
<mgrwt>
<rscale>  1 0.91625469E+03</rscale>
<asrwt>0</asrwt>
<pdfrwt beam="2">  1       21 0.22807988E+00 0.11064386E+04</pdfrwt>
<pdfrwt beam="1">  1        4 0.24660528E+00 0.11064386E+04</pdfrwt>
<totfact> 0.18930048E-01</totfact>
</mgrwt>
</event>
<event>
 6    1  0.1375310E-005  0.9685693E+03  0.7818608E-02  0.9788318E-01
          4   -1    0    0  502    0 -0.00000000000E+00  0.00000000000E+00  0.58128236807E+03  0.58128236807E+03  0.00000000000E+00 0.  1.
         21   -1    0    0  501  502  0.00000000000E+00 -0.00000000000E+00 -0.85422004888E+03  0.85422004888E+03  0.00000000000E+00 0.  1.
    9000010    2    1    2  501    0  0.17664255909E+03 -0.11121970024E+03 -0.53021284104E+03  0.11041975202E+04  0.94580869700E+03 0.  0.
        -13    1    3    3    0    0  0.43433600191E+03  0.26350132817E+03 -0.33970687277E+03  0.61113131410E+03  0.10566000000E+00 0.  1.
          4    1    3    3  501    0 -0.25769344282E+03 -0.37472102842E+03 -0.19050596827E+03  0.49306620606E+03  0.00000000000E+00 0.  1.
         13    1    1    2    0    0 -0.17664255909E+03  0.11121970024E+03  0.25727516023E+03  0.33130489679E+03  0.10566000000E+00 0. -1.
<mgrwt>
<rscale>  1 0.65993247E+03</rscale>
<asrwt>0</asrwt>
<pdfrwt beam="2">  1       21 0.13141847E+00 0.96856931E+03</pdfrwt>
<pdfrwt beam="1">  1        4 0.89428056E-01 0.96856931E+03</pdfrwt>
<totfact> 0.16507986E+01</totfact>
</mgrwt>
</event>
<event>
 6    1  0.1375310E-005  0.1033348E+04  0.7818608E-02  0.9642366E-01
          4   -1    0    0  502    0 -0.00000000000E+00  0.00000000000E+00  0.11348511934E+04  0.11348511934E+04  0.00000000000E+00 0.  1.
         21   -1    0    0  501  502  0.00000000000E+00 -0.00000000000E+00 -0.42526069244E+03  0.42526069244E+03  0.00000000000E+00 0.  1.
    9000010    2    1    2  501    0  0.27662393912E+03  0.43334439376E+02  0.32276288100E+03  0.10825825191E+04  0.99469108575E+03 0.  0.
        -13    1    3    3    0    0  0.12360002609E+02 -0.66659868235E+02  0.64673130036E+03  0.65027509081E+03  0.10566000000E+00 0.  1.
          4    1    3    3  501    0  0.26426393651E+03  0.10999430761E+03 -0.32396841936E+03  0.43230742833E+03  0.00000000000E+00 0.  1.
         13    1    1    2    0    0 -0.27662393912E+03 -0.43334439376E+02  0.38682761995E+03  0.47752936669E+03  0.10566000000E+00 0. -1.
<mgrwt>
<rscale>  1 0.74554472E+03</rscale>
<asrwt>0</asrwt>
<pdfrwt beam="2">  1       21 0.65424723E-01 0.10333485E+04</pdfrwt>
<pdfrwt beam="1">  1        4 0.17459249E+00 0.10333485E+04</pdfrwt>
<totfact> 0.16227603E+01</totfact>
</mgrwt>
</event>
<event>
 6    1  0.1375310E-005  0.1010726E+04  0.7818608E-02  0.9860024E-01
         21   -1    0    0  501  502  0.00000000000E+00  0.00000000000E+00  0.45209004044E+03  0.45209004044E+03  0.00000000000E+00 0.  1.
          4   -1    0    0  502    0 -0.00000000000E+00 -0.00000000000E+00 -0.11049896649E+04  0.11049896649E+04  0.00000000000E+00 0.  1.
    9000010    2    1    2  501    0  0.86832796708E+02  0.11652854230E+03 -0.13563134770E+03  0.10197852637E+04  0.10002236179E+04 0.  0.
        -13    1    3    3    0    0  0.28632686867E+03 -0.26641698718E+03 -0.36141503246E+03  0.53252410616E+03  0.10566000000E+00 0.  1.
          4    1    3    3  501    0 -0.19949407197E+03  0.38294552948E+03  0.22578368477E+03  0.48726115750E+03  0.00000000000E+00 0.  1.
         13    1    1    2    0    0 -0.86832796708E+02 -0.11652854230E+03 -0.51726827672E+03  0.53729444165E+03  0.10566000000E+00 0. -1.
<mgrwt>
<rscale>  1 0.62238441E+03</rscale>
<asrwt>0</asrwt>
<pdfrwt beam="1">  1       21 0.69552314E-01 0.10107255E+04</pdfrwt>
<pdfrwt beam="2">  1        4 0.16999841E+00 0.10107255E+04</pdfrwt>
<totfact> 0.15260922E+01</totfact>
</mgrwt>
</event>
<event>
 6    1  0.1375310E-005  0.9865028E+03  0.7818608E-02  0.9900679E-01
         21   -1    0    0  501  502  0.00000000000E+00  0.00000000000E+00  0.15606264399E+04  0.15606264399E+04  0.00000000000E+00 0.  1.
          4   -1    0    0  502    0 -0.00000000000E+00 -0.00000000000E+00 -0.20291681245E+03  0.20291681245E+03  0.00000000000E+00 0.  1.
    9000010    2    1    2  501    0  0.47369108777E+02  0.12861395274E+03  0.12241057924E+04  0.15721395502E+04  0.97693520405E+03 0.  0.
        -13    1    3    3    0    0 -0.50235427343E+02 -0.42232691398E+03  0.48351056212E+03  0.64394572385E+03  0.10566000000E+00 0.  1.
          4    1    3    3  501    0  0.97604536121E+02  0.55094086671E+03  0.74059523033E+03  0.92819382635E+03  0.00000000000E+00 0.  1.
         13    1    1    2    0    0 -0.47369108777E+02 -0.12861395274E+03  0.13360383503E+03  0.19140370217E+03  0.10566000000E+00 0. -1.
<mgrwt>
<rscale>  1 0.60228393E+03</rscale>
<asrwt>0</asrwt>
<pdfrwt beam="1">  1       21 0.24009637E+00 0.98650280E+03</pdfrwt>
<pdfrwt beam="2">  1        4 0.31217972E-01 0.98650280E+03</pdfrwt>
<totfact> 0.25293825E+01</totfact>
</mgrwt>
</event>
<event>
 6    1  0.1375310E-005  0.1027329E+04  0.7818608E-02  0.9736272E-01
         21   -1    0    0  501  502  0.00000000000E+00  0.00000000000E+00  0.12872984176E+04  0.12872984176E+04  0.00000000000E+00 0.  1.
          4   -1    0    0  502    0 -0.00000000000E+00 -0.00000000000E+00 -0.31898836291E+03  0.31898836291E+03  0.00000000000E+00 0.  1.
    9000010    2    1    2  501    0 -0.79672426788E+02  0.19194189568E+03  0.94727720922E+03  0.13974045681E+04  0.10060894736E+04 0.  0.
        -13    1    3    3    0    0  0.20083106322E+03  0.44933930137E+03  0.15103538088E+03  0.51483067231E+03  0.10566000000E+00 0.  1.
          4    1    3    3  501    0 -0.28050349001E+03 -0.25739740569E+03  0.79624182834E+03  0.88257389580E+03  0.00000000000E+00 0.  1.
         13    1    1    2    0    0  0.79672426788E+02 -0.19194189568E+03  0.21032845491E+02  0.20888221241E+03  0.10566000000E+00 0. -1.
<mgrwt>
<rscale>  1 0.68897647E+03</rscale>
<asrwt>0</asrwt>
<pdfrwt beam="1">  1       21 0.19804591E+00 0.10273293E+04</pdfrwt>
<pdfrwt beam="2">  1        4 0.49075134E-01 0.10273293E+04</pdfrwt>
<totfact> 0.19063913E+01</totfact>
</mgrwt>
</event>
<event>
 6    1  0.1375310E-005  0.1062658E+04  0.7818608E-02  0.9537881E-01
         21   -1    0    0  501  502  0.00000000000E+00  0.00000000000E+00  0.70352180829E+03  0.70352180829E+03  0.00000000000E+00 0. -1.
          4   -1    0    0  502    0 -0.00000000000E+00 -0.00000000000E+00 -0.90928095558E+03  0.90928095558E+03  0.00000000000E+00 0.  1.
    9000010    2    1    2  501    0  0.36849268761E+03 -0.48569378512E+01 -0.46733612773E+03  0.11608813343E+04  0.99671057248E+03 0.  0.
        -13    1    3    3    0    0  0.31668724537E+02  0.44176519759E+02 -0.72932957935E+03  0.73135225404E+03  0.10566000000E+00 0.  1.
          4    1    3    3  501    0  0.33682396307E+03 -0.49033457610E+02  0.26199345162E+03  0.42952908022E+03  0.00000000000E+00 0.  1.
         13    1    1    2    0    0 -0.36849268761E+03  0.48569378512E+01  0.26157698044E+03  0.45192142960E+03  0.10566000000E+00 0. -1.
<mgrwt>
<rscale>  1 0.81547735E+03</rscale>
<asrwt>0</asrwt>
<pdfrwt beam="1">  1       21 0.10823413E+00 0.10626582E+04</pdfrwt>
<pdfrwt beam="2">  1        4 0.13988938E+00 0.10626582E+04</pdfrwt>
<totfact> 0.89155197E+00</totfact>
</mgrwt>
</event>
<event>
 6    1  0.1375310E-005  0.1041587E+04  0.7818608E-02  0.9728712E-01
          4   -1    0    0  502    0 -0.00000000000E+00  0.00000000000E+00  0.61489316044E+03  0.61489316044E+03  0.00000000000E+00 0.  1.
         21   -1    0    0  501  502  0.00000000000E+00 -0.00000000000E+00 -0.64861155870E+03  0.64861155870E+03  0.00000000000E+00 0.  1.
    9000010    2    1    2  501    0  0.18608327703E+03 -0.84782003709E+02 -0.10519491785E+03  0.10468855183E+04  0.10213169653E+04 0.  0.
        -13    1    3    3    0    0 -0.19366690031E+03  0.37808673628E+03 -0.13968863448E+03  0.44717935350E+03  0.10566000000E+00 0.  1.
          4    1    3    3  501    0  0.37975017733E+03 -0.46286873999E+03  0.34493716626E+02  0.59970616483E+03  0.00000000000E+00 0.  1.
         13    1    1    2    0    0 -0.18608327703E+03  0.84782003709E+02  0.71476519591E+02  0.21661920081E+03  0.10566000000E+00 0. -1.
<mgrwt>
<rscale>  1 0.69332703E+03</rscale>
<asrwt>0</asrwt>
<pdfrwt beam="2">  1       21 0.99786393E-01 0.10415869E+04</pdfrwt>
<pdfrwt beam="1">  1        4 0.94598948E-01 0.10415869E+04</pdfrwt>
<totfact> 0.29087189E+01</totfact>
</mgrwt>
</event>
<event>
 6    1  0.1375310E-005  0.1022080E+04  0.7818608E-02  0.9742873E-01
          4   -1    0    0  502    0 -0.00000000000E+00  0.00000000000E+00  0.11989917079E+04  0.11989917079E+04  0.00000000000E+00 0.  1.
         21   -1    0    0  501  502  0.00000000000E+00 -0.00000000000E+00 -0.55647008114E+03  0.55647008114E+03  0.00000000000E+00 0.  1.
    9000010    2    1    2  501    0 -0.19013912035E+03 -0.80444884235E+02 -0.59403015049E+02  0.10238044386E+04  0.10010107621E+04 0.  0.
        -13    1    3    3    0    0  0.26690614535E+03  0.28143036753E+03 -0.18143673122E+03  0.42820700694E+03  0.10566000000E+00 0.  1.
          4    1    3    3  501    0 -0.45704526570E+03 -0.36187525176E+03  0.12203371617E+03  0.59559743168E+03  0.00000000000E+00 0.  1.
         13    1    1    2    0    0  0.19013912035E+03  0.80444884235E+02  0.70192464177E+03  0.73165735039E+03  0.10566000000E+00 0. -1.
<mgrwt>
<rscale>  1 0.68520525E+03</rscale>
<asrwt>0</asrwt>
<pdfrwt beam="2">  1       21 0.85610782E-01 0.10220796E+04</pdfrwt>
<pdfrwt beam="1">  1        4 0.18446026E+00 0.10220796E+04</pdfrwt>
<totfact> 0.74194956E+00</totfact>
</mgrwt>
</event>
<event>
 6    1  0.1375310E-005  0.9625535E+03  0.7818608E-02  0.9769170E-01
          4   -1    0    0  502    0 -0.00000000000E+00  0.00000000000E+00  0.31384194440E+03  0.31384194440E+03  0.00000000000E+00 0.  1.
         21   -1    0    0  501  502  0.00000000000E+00 -0.00000000000E+00 -0.14180282199E+04  0.14180282199E+04  0.00000000000E+00 0.  1.
    9000010    2    1    2  501    0  0.22417868351E+03 -0.32661723164E+02 -0.11511048274E+04  0.15005171181E+04  0.93551399114E+03 0.  0.
        -13    1    3    3    0    0 -0.33489019064E+03 -0.15512606368E+03 -0.60959388971E+03  0.71261508330E+03  0.10566000000E+00 0.  1.
          4    1    3    3  501    0  0.55906887415E+03  0.12246434052E+03 -0.54151093771E+03  0.78790203477E+03  0.00000000000E+00 0.  1.
         13    1    1    2    0    0 -0.22417868351E+03  0.32661723164E+02  0.46918551952E+02  0.23135304619E+03  0.10566000000E+00 0. -1.
<mgrwt>
<rscale>  1 0.67043634E+03</rscale>
<asrwt>0</asrwt>
<pdfrwt beam="2">  1       21 0.21815819E+00 0.96255353E+03</pdfrwt>
<pdfrwt beam="1">  1        4 0.48283376E-01 0.96255353E+03</pdfrwt>
<totfact> 0.14547845E+01</totfact>
</mgrwt>
</event>
<event>
 6    1  0.1375310E-005  0.1003215E+04  0.7818608E-02  0.1004010E+00
          4   -1    0    0  502    0 -0.00000000000E+00  0.00000000000E+00  0.47561845344E+03  0.47561845344E+03  0.00000000000E+00 0.  1.
         21   -1    0    0  501  502  0.00000000000E+00 -0.00000000000E+00 -0.73248517847E+03  0.73248517847E+03  0.00000000000E+00 0.  1.
    9000010    2    1    2  501    0 -0.18421981490E+02  0.81704779973E+02 -0.36831683171E+03  0.10686899385E+04  0.99971288659E+03 0.  0.
        -13    1    3    3    0    0  0.28529539055E+03  0.31046284418E+03  0.13059695799E+03  0.44140255333E+03  0.10566000000E+00 0.  1.
          4    1    3    3  501    0 -0.30371737204E+03 -0.22875806421E+03 -0.49891378970E+03  0.62728738515E+03  0.00000000000E+00 0.  1.
         13    1    1    2    0    0  0.18421981490E+02 -0.81704779973E+02  0.11145010668E+03  0.13941369343E+03  0.10566000000E+00 0. -1.
<mgrwt>
<rscale>  1 0.53926156E+03</rscale>
<asrwt>0</asrwt>
<pdfrwt beam="2">  1       21 0.11269003E+00 0.10032153E+04</pdfrwt>
<pdfrwt beam="1">  1        4 0.73172070E-01 0.10032153E+04</pdfrwt>
<totfact> 0.38966342E+01</totfact>
</mgrwt>
</event>
<event>
 6    1  0.1375310E-005  0.1085742E+04  0.7818608E-02  0.9450820E-01
          4   -1    0    0  502    0 -0.00000000000E+00  0.00000000000E+00  0.18387344631E+04  0.18387344631E+04  0.00000000000E+00 0.  1.
         21   -1    0    0  501  502  0.00000000000E+00 -0.00000000000E+00 -0.32913219461E+03  0.32913219461E+03  0.00000000000E+00 0.  1.
    9000010    2    1    2  501    0  0.46815695516E+03 -0.23226876384E+02  0.10116604753E+04  0.14840125337E+04  0.97934971296E+03 0.  0.
        -13    1    3    3    0    0  0.43533627492E+03 -0.32259515052E+03  0.10488740252E+04  0.11805600515E+04  0.10566000000E+00 0.  1.
          4    1    3    3  501    0  0.32820680233E+02  0.29936827413E+03 -0.37213549868E+02  0.30345248212E+03  0.00000000000E+00 0.  1.
         13    1    1    2    0    0 -0.46815695516E+03  0.23226876384E+02  0.49794179320E+03  0.68385412409E+03  0.10566000000E+00 0. -1.
<mgrwt>
<rscale>  1 0.88008860E+03</rscale>
<asrwt>0</asrwt>
<pdfrwt beam="2">  1       21 0.50635723E-01 0.10857423E+04</pdfrwt>
<pdfrwt beam="1">  1        4 0.28288222E+00 0.10857423E+04</pdfrwt>
<totfact> 0.57399317E+00</totfact>
</mgrwt>
</event>
<event>
 6    1  0.1375310E-005  0.9988842E+03  0.7818608E-02  0.9933315E-01
          4   -1    0    0  502    0 -0.00000000000E+00  0.00000000000E+00  0.12640597597E+04  0.12640597597E+04  0.00000000000E+00 0.  1.
         21   -1    0    0  501  502  0.00000000000E+00 -0.00000000000E+00 -0.30828002187E+03  0.30828002187E+03  0.00000000000E+00 0.  1.
    9000010    2    1    2  501    0 -0.18162648313E+02  0.11751592211E+03  0.53104396187E+03  0.11312724803E+04  0.99178115600E+03 0.  0.
        -13    1    3    3    0    0  0.19304323253E+03  0.48489064854E+03  0.47150590960E+03  0.70335088300E+03  0.10566000000E+00 0.  1.
          4    1    3    3  501    0 -0.21120588085E+03 -0.36737472643E+03  0.59538052271E+02  0.42792159725E+03  0.00000000000E+00 0.  1.
         13    1    1    2    0    0  0.18162648313E+02 -0.11751592211E+03  0.42473577595E+03  0.44106730130E+03  0.10566000000E+00 0. -1.
<mgrwt>
<rscale>  1 0.58673515E+03</rscale>
<asrwt>0</asrwt>
<pdfrwt beam="2">  1       21 0.47427696E-01 0.99888425E+03</pdfrwt>
<pdfrwt beam="1">  1        4 0.19447073E+00 0.99888425E+03</pdfrwt>
<totfact> 0.24122978E+01</totfact>
</mgrwt>
</event>
<event>
 6    1  0.1375310E-005  0.1021791E+04  0.7818608E-02  0.9742762E-01
          4   -1    0    0  502    0 -0.00000000000E+00  0.00000000000E+00  0.24247374337E+03  0.24247374337E+03  0.00000000000E+00 0.  1.
         21   -1    0    0  501  502  0.00000000000E+00 -0.00000000000E+00 -0.28682677474E+04  0.28682677474E+04  0.00000000000E+00 0.  1.
    9000010    2    1    2  501    0  0.15713684263E+03  0.13429838941E+03 -0.27033137635E+04  0.28899760746E+04  0.10006639611E+04 0.  0.
        -13    1    3    3    0    0 -0.17016009489E+03  0.43531642415E+03 -0.72721280176E+03  0.86446128729E+03  0.10566000000E+00 0.  1.
          4    1    3    3  501    0  0.32729693753E+03 -0.30101803473E+03 -0.19761009617E+04  0.20255147873E+04  0.00000000000E+00 0.  1.
         13    1    1    2    0    0 -0.15713684263E+03 -0.13429838941E+03  0.77519759469E+02  0.22076541619E+03  0.10566000000E+00 0. -1.
<mgrwt>
<rscale>  1 0.68526828E+03</rscale>
<asrwt>0</asrwt>
<pdfrwt beam="2">  1       21 0.44127195E+00 0.10217908E+04</pdfrwt>
<pdfrwt beam="1">  1        4 0.37303654E-01 0.10217908E+04</pdfrwt>
<totfact> 0.91150839E-01</totfact>
</mgrwt>
</event>
<event>
 6    1  0.1375310E-005  0.9788767E+03  0.7818608E-02  0.9854345E-01
         21   -1    0    0  501  502  0.00000000000E+00  0.00000000000E+00  0.45417960813E+03  0.45417960813E+03  0.00000000000E+00 0.  1.
          4   -1    0    0  502    0 -0.00000000000E+00 -0.00000000000E+00 -0.74295580386E+03  0.74295580386E+03  0.00000000000E+00 0.  1.
    9000010    2    1    2  501    0  0.39410865724E+02  0.15811222481E+03 -0.16541041773E+03  0.99275386116E+03  0.96521859212E+03 0.  0.
        -13    1    3    3    0    0  0.25937003304E+03  0.23013042049E+03 -0.48620351250E+03  0.59718229311E+03  0.10566000000E+00 0.  1.
          4    1    3    3  501    0 -0.21995916732E+03 -0.72018195679E+02  0.32079309477E+03  0.39557156805E+03  0.00000000000E+00 0.  1.
         13    1    1    2    0    0 -0.39410865724E+02 -0.15811222481E+03 -0.12336577801E+03  0.20438155083E+03  0.10566000000E+00 0. -1.
<mgrwt>
<rscale>  1 0.62525848E+03</rscale>
<asrwt>0</asrwt>
<pdfrwt beam="1">  1       21 0.69873786E-01 0.97887671E+03</pdfrwt>
<pdfrwt beam="2">  1        4 0.11430089E+00 0.97887671E+03</pdfrwt>
<totfact> 0.43063186E+01</totfact>
</mgrwt>
</event>
<event>
 6    1  0.1375310E-005  0.1046527E+04  0.7818608E-02  0.1023393E+00
          4   -1    0    0  502    0 -0.00000000000E+00  0.00000000000E+00  0.10703221013E+04  0.10703221013E+04  0.00000000000E+00 0.  1.
         21   -1    0    0  501  502  0.00000000000E+00 -0.00000000000E+00 -0.32220520415E+03  0.32220520415E+03  0.00000000000E+00 0.  1.
    9000010    2    1    2  501    0 -0.40717010110E+02  0.88754110941E+00  0.53461094519E+03  0.11751716860E+04  0.10457346538E+04 0.  0.
        -13    1    3    3    0    0  0.37805280003E+03  0.31663561568E+03  0.12239176701E+03  0.50809623943E+03  0.10566000000E+00 0.  1.
          4    1    3    3  501    0 -0.41876981014E+03 -0.31574807457E+03  0.41221917818E+03  0.66707544652E+03  0.00000000000E+00 0.  1.
         13    1    1    2    0    0  0.40717010110E+02 -0.88754110941E+00  0.21350595196E+03  0.21735561950E+03  0.10566000000E+00 0. -1.
<mgrwt>
<rscale>  1 0.46481815E+03</rscale>
<asrwt>0</asrwt>
<pdfrwt beam="2">  1       21 0.49570032E-01 0.10465274E+04</pdfrwt>
<pdfrwt beam="1">  1        4 0.16466494E+00 0.10465274E+04</pdfrwt>
<totfact> 0.35304470E+01</totfact>
</mgrwt>
</event>
<event>
 6    1  0.1375310E-005  0.1003356E+04  0.7818608E-02  0.1036182E+00
          4   -1    0    0  502    0 -0.00000000000E+00  0.00000000000E+00  0.17445981118E+03  0.17445981118E+03  0.00000000000E+00 0.  1.
         21   -1    0    0  501  502  0.00000000000E+00 -0.00000000000E+00 -0.15908501689E+04  0.15908501689E+04  0.00000000000E+00 0.  1.
    9000010    2    1    2  501    0 -0.18974530816E+01  0.31557350794E+02 -0.14137131851E+04  0.17335823086E+04  0.10028575094E+04 0.  0.
        -13    1    3    3    0    0 -0.17543155953E+03  0.11509419646E+03 -0.15056295406E+04  0.15201786838E+04  0.10566000000E+00 0.  1.
          4    1    3    3  501    0  0.17353410644E+03 -0.83536845670E+02  0.91916355430E+02  0.21340362480E+03  0.00000000000E+00 0.  1.
         13    1    1    2    0    0  0.18974530816E+01 -0.31557350794E+02 -0.26771725528E+01  0.31727671428E+02  0.10566000000E+00 0. -1.
<mgrwt>
<rscale>  1 0.42272978E+03</rscale>
<asrwt>0</asrwt>
<pdfrwt beam="2">  1       21 0.24474618E+00 0.10033557E+04</pdfrwt>
<pdfrwt beam="1">  1        4 0.26839971E-01 0.10033557E+04</pdfrwt>
<totfact> 0.31631778E+01</totfact>
</mgrwt>
</event>
<event>
 6    1  0.1375310E-005  0.9809906E+03  0.7818608E-02  0.9813455E-01
         21   -1    0    0  501  502  0.00000000000E+00  0.00000000000E+00  0.13754042474E+04  0.13754042474E+04  0.00000000000E+00 0.  1.
          4   -1    0    0  502    0 -0.00000000000E+00 -0.00000000000E+00 -0.39693011061E+03  0.39693011061E+03  0.00000000000E+00 0.  1.
    9000010    2    1    2  501    0  0.18427407372E+03  0.16303184920E+02  0.11558627959E+04  0.15160347762E+04  0.96338980252E+03 0.  0.
        -13    1    3    3    0    0 -0.21876131060E+01 -0.46130773415E+03  0.45785472030E+03  0.64995428093E+03  0.10566000000E+00 0.  1.
          4    1    3    3  501    0  0.18646168682E+03  0.47761091907E+03  0.69800807564E+03  0.86608049529E+03  0.00000000000E+00 0.  1.
         13    1    1    2    0    0 -0.18427407372E+03 -0.16303184920E+02 -0.17738865913E+03  0.25629958181E+03  0.10566000000E+00 0. -1.
<mgrwt>
<rscale>  1 0.64645455E+03</rscale>
<asrwt>0</asrwt>
<pdfrwt beam="1">  1       21 0.21160065E+00 0.98099064E+03</pdfrwt>
<pdfrwt beam="2">  1        4 0.61066171E-01 0.98099064E+03</pdfrwt>
<totfact> 0.97073777E+00</totfact>
</mgrwt>
</event>
<event>
 6    1  0.1375310E-005  0.1152708E+04  0.7818608E-02  0.9320976E-01
         21   -1    0    0  501  502  0.00000000000E+00  0.00000000000E+00  0.30210759311E+03  0.30210759311E+03  0.00000000000E+00 0. -1.
          4   -1    0    0  502    0 -0.00000000000E+00 -0.00000000000E+00 -0.26185079406E+04  0.26185079406E+04  0.00000000000E+00 0.  1.
    9000010    2    1    2  501    0 -0.60698006055E+03  0.14471364324E+03 -0.14336077670E+04  0.18395560608E+04  0.96921021408E+03 0.  0.
        -13    1    3    3    0    0 -0.50290139572E+03  0.37581847518E+03 -0.14555249398E+04  0.15851505297E+04  0.10566000000E+00 0.  1.
          4    1    3    3  501    0 -0.10407866483E+03 -0.23110483193E+03  0.21917172887E+02  0.25440553116E+03  0.00000000000E+00 0.  1.
         13    1    1    2    0    0  0.60698006055E+03 -0.14471364324E+03 -0.88279258052E+03  0.10810594728E+04  0.10566000000E+00 0. -1.
<mgrwt>
<rscale>  1 0.98874499E+03</rscale>
<asrwt>0</asrwt>
<pdfrwt beam="1">  1       21 0.46478090E-01 0.11527078E+04</pdfrwt>
<pdfrwt beam="2">  1        4 0.40284738E+00 0.11527078E+04</pdfrwt>
<totfact> 0.11417793E+00</totfact>
</mgrwt>
</event>
<event>
 6    1  0.1375310E-005  0.8050760E+03  0.7818608E-02  0.9810045E-01
          4   -1    0    0  502    0 -0.00000000000E+00  0.00000000000E+00  0.53838746646E+03  0.53838746646E+03  0.00000000000E+00 0.  1.
         21   -1    0    0  501  502  0.00000000000E+00 -0.00000000000E+00 -0.66306371723E+03  0.66306371723E+03  0.00000000000E+00 0.  1.
    9000010    2    1    2  501    0 -0.33742239188E+03 -0.26329258512E+02  0.74881887202E+02  0.80855099027E+03  0.73047950447E+03 0.  0.
        -13    1    3    3    0    0  0.93635874699E+02  0.25511347771E+03 -0.55792874172E+02  0.27742281722E+03  0.10566000000E+00 0.  1.
          4    1    3    3  501    0 -0.43105826658E+03 -0.28144273622E+03  0.13067476137E+03  0.53112817306E+03  0.00000000000E+00 0.  1.
         13    1    1    2    0    0  0.33742239188E+03  0.26329258512E+02 -0.19955813797E+03  0.39290019342E+03  0.10566000000E+00 0. -1.
<mgrwt>
<rscale>  1 0.64826227E+03</rscale>
<asrwt>0</asrwt>
<pdfrwt beam="2">  1       21 0.10200980E+00 0.80507603E+03</pdfrwt>
<pdfrwt beam="1">  1        4 0.82828842E-01 0.80507603E+03</pdfrwt>
<totfact> 0.38469897E+01</totfact>
</mgrwt>
</event>
<event>
 6    1  0.1375310E-005  0.1042549E+04  0.7818608E-02  0.9625880E-01
          4   -1    0    0  502    0 -0.00000000000E+00  0.00000000000E+00  0.99116345191E+03  0.99116345191E+03  0.00000000000E+00 0.  1.
         21   -1    0    0  501  502  0.00000000000E+00 -0.00000000000E+00 -0.44977171207E+03  0.44977171207E+03  0.00000000000E+00 0.  1.
    9000010    2    1    2  501    0 -0.61101180806E+02 -0.28182350605E+03  0.47151904897E+03  0.11442197330E+04  0.10018736153E+04 0.  0.
        -13    1    3    3    0    0  0.34217310129E+01  0.12424751294E+02 -0.30812930150E+03  0.30839870346E+03  0.10566000000E+00 0.  1.
          4    1    3    3  501    0 -0.64522911818E+02 -0.29424825735E+03  0.77964835047E+03  0.83582102959E+03  0.00000000000E+00 0.  1.
         13    1    1    2    0    0  0.61101180806E+02  0.28182350605E+03  0.69872690864E+02  0.29671543093E+03  0.10566000000E+00 0. -1.
<mgrwt>
<rscale>  1 0.75606711E+03</rscale>
<asrwt>0</asrwt>
<pdfrwt beam="2">  1       21 0.69195648E-01 0.10425491E+04</pdfrwt>
<pdfrwt beam="1">  1        4 0.15248668E+00 0.10425491E+04</pdfrwt>
<totfact> 0.20781360E+01</totfact>
</mgrwt>
</event>
<event>
 6    1  0.1375310E-005  0.1236091E+04  0.7818608E-02  0.9206565E-01
          4   -1    0    0  502    0 -0.00000000000E+00  0.00000000000E+00  0.28582363525E+04  0.28582363525E+04  0.00000000000E+00 0.  1.
         21   -1    0    0  501  502  0.00000000000E+00 -0.00000000000E+00 -0.36965977722E+03  0.36965977722E+03  0.00000000000E+00 0. -1.
    9000010    2    1    2  501    0  0.75424431755E+03  0.16105756233E+03  0.18583364279E+04  0.22318907666E+04  0.96597002310E+03 0.  0.
        -13    1    3    3    0    0  0.69626217679E+03  0.51916391723E+03  0.13975965972E+04  0.16454751446E+04  0.10566000000E+00 0.  1.
          4    1    3    3  501    0  0.57982140756E+02 -0.35810635490E+03  0.46073983071E+03  0.58641562195E+03  0.00000000000E+00 0.  1.
         13    1    1    2    0    0 -0.75424431755E+03 -0.16105756233E+03  0.63024014730E+03  0.99600536312E+03  0.10566000000E+00 0. -1.
<mgrwt>
<rscale>  1 0.10985924E+04</rscale>
<asrwt>0</asrwt>
<pdfrwt beam="2">  1       21 0.56870737E-01 0.12360915E+04</pdfrwt>
<pdfrwt beam="1">  1        4 0.43972866E+00 0.12360915E+04</pdfrwt>
<totfact> 0.39497124E-01</totfact>
</mgrwt>
</event>
<event>
 6    1  0.1629981E-005  0.8123626E+03  0.7818608E-02  0.9914701E-01
          4   -1    0    0  502    0 -0.00000000000E+00  0.00000000000E+00  0.19449729179E+03  0.19449729179E+03  0.00000000000E+00 0.  1.
         21   -1    0    0  501  502  0.00000000000E+00 -0.00000000000E+00 -0.14337085562E+04  0.14337085562E+04  0.00000000000E+00 0.  1.
    9000010    2    1    2  501    0  0.10939169872E+03  0.20757613479E+03 -0.10450310725E+04  0.13236400036E+04  0.77773936582E+03 0.  0.
        -13    1    3    3    0    0  0.88974079731E+02 -0.85607633290E+01 -0.10968143290E+04  0.11004505246E+04  0.10566000000E+00 0.  1.
          4    1    3    3  501    0  0.20417618991E+02  0.21613689812E+03  0.51783256510E+02  0.22318947903E+03  0.00000000000E+00 0.  1.
         13    1    1    2    0    0 -0.10939169872E+03 -0.20757613479E+03 -0.19418019193E+03  0.30456584442E+03  0.10566000000E+00 0. -1.
<mgrwt>
<rscale>  1 0.59554068E+03</rscale>
<asrwt>0</asrwt>
<pdfrwt beam="2">  1       21 0.22057056E+00 0.81236255E+03</pdfrwt>
<pdfrwt beam="1">  1        4 0.29922658E-01 0.81236255E+03</pdfrwt>
<totfact> 0.37700380E+01</totfact>
</mgrwt>
</event>
<event>
 6    1  0.1375310E-005  0.1017254E+04  0.7818608E-02  0.9675977E-01
          4   -1    0    0  502    0 -0.00000000000E+00  0.00000000000E+00  0.16115376247E+04  0.16115376247E+04  0.00000000000E+00 0.  1.
         21   -1    0    0  501  502  0.00000000000E+00 -0.00000000000E+00 -0.30572793319E+03  0.30572793319E+03  0.00000000000E+00 0.  1.
    9000010    2    1    2  501    0  0.83871400396E+02  0.24816880970E+03  0.64014514116E+03  0.12019114675E+04  0.98294618570E+03 0.  0.
        -13    1    3    3    0    0 -0.43820184206E+03  0.20848294034E+03  0.23107832549E+03  0.53747855257E+03  0.10566000000E+00 0.  1.
          4    1    3    3  501    0  0.52207324246E+03  0.39685869354E+02  0.40906681567E+03  0.66443291490E+03  0.00000000000E+00 0.  1.
         13    1    1    2    0    0 -0.83871400396E+02 -0.24816880970E+03  0.66566455034E+03  0.71535409041E+03  0.10566000000E+00 0. -1.
<mgrwt>
<rscale>  1 0.72465296E+03</rscale>
<asrwt>0</asrwt>
<pdfrwt beam="2">  1       21 0.47035067E-01 0.10172538E+04</pdfrwt>
<pdfrwt beam="1">  1        4 0.24792886E+00 0.10172538E+04</pdfrwt>
<totfact> 0.11151420E+01</totfact>
</mgrwt>
</event>
<event>
 6    1  0.1375310E-005  0.1011575E+04  0.7818608E-02  0.9913897E-01
          4   -1    0    0  502    0 -0.00000000000E+00  0.00000000000E+00  0.57573635956E+03  0.57573635956E+03  0.00000000000E+00 0.  1.
         21   -1    0    0  501  502  0.00000000000E+00 -0.00000000000E+00 -0.56637796552E+03  0.56637796552E+03  0.00000000000E+00 0.  1.
    9000010    2    1    2  501    0  0.76342218922E+02  0.94950404043E+02 -0.35724119079E+02  0.10122060583E+04  0.10042117198E+04 0.  0.
        -13    1    3    3    0    0  0.63043654337E+02 -0.57188458707E+02 -0.50839745138E+03  0.51547357051E+03  0.10566000000E+00 0.  1.
          4    1    3    3  501    0  0.13298564585E+02  0.15213886275E+03  0.47267333230E+03  0.49673248781E+03  0.00000000000E+00 0.  1.
         13    1    1    2    0    0 -0.76342218922E+02 -0.94950404043E+02  0.45082513125E+02  0.12990826676E+03  0.10566000000E+00 0. -1.
<mgrwt>
<rscale>  1 0.59592496E+03</rscale>
<asrwt>0</asrwt>
<pdfrwt beam="2">  1       21 0.87135071E-01 0.10115755E+04</pdfrwt>
<pdfrwt beam="1">  1        4 0.88574825E-01 0.10115755E+04</pdfrwt>
<totfact> 0.47393961E+01</totfact>
</mgrwt>
</event>
<event>
 6    1  0.1375310E-005  0.1089318E+04  0.7818608E-02  0.9727197E-01
         21   -1    0    0  501  502  0.00000000000E+00  0.00000000000E+00  0.57484010407E+03  0.57484010407E+03  0.00000000000E+00 0.  1.
          4   -1    0    0  502    0 -0.00000000000E+00 -0.00000000000E+00 -0.73806230951E+03  0.73806230951E+03  0.00000000000E+00 0.  1.
    9000010    2    1    2  501    0  0.93093930219E+02 -0.15367423059E+03 -0.30888816967E+02  0.10897558567E+04  0.10743981846E+04 0.  0.
        -13    1    3    3    0    0  0.30482557971E+03 -0.53100136620E+03  0.13393202765E+03  0.62675264989E+03  0.10566000000E+00 0.  1.
          4    1    3    3  501    0 -0.21173164949E+03  0.37732713561E+03 -0.16482084462E+03  0.46300320678E+03  0.00000000000E+00 0.  1.
         13    1    1    2    0    0 -0.93093930219E+02  0.15367423059E+03 -0.13233338848E+03  0.22314655691E+03  0.10566000000E+00 0. -1.
<mgrwt>
<rscale>  1 0.69420303E+03</rscale>
<asrwt>0</asrwt>
<pdfrwt beam="1">  1       21 0.88436940E-01 0.10893180E+04</pdfrwt>
<pdfrwt beam="2">  1        4 0.11354805E+00 0.10893180E+04</pdfrwt>
<totfact> 0.24944138E+01</totfact>
</mgrwt>
</event>
<event>
 6    1  0.1375310E-005  0.1035475E+04  0.7818608E-02  0.9614610E-01
         21   -1    0    0  501  502  0.00000000000E+00  0.00000000000E+00  0.20292601272E+04  0.20292601272E+04  0.00000000000E+00 0.  1.
          4   -1    0    0  502    0 -0.00000000000E+00 -0.00000000000E+00 -0.25564095450E+03  0.25564095450E+03  0.00000000000E+00 0.  1.
    9000010    2    1    2  501    0  0.10884985469E+03  0.28582887364E+03  0.16642403589E+04  0.19600777883E+04  0.98927373775E+03 0.  0.
        -13    1    3    3    0    0  0.32945937904E+03 -0.10123205358E+03  0.14006331130E+04  0.14424162157E+04  0.10566000000E+00 0.  1.
          4    1    3    3  501    0 -0.22060952435E+03  0.38706092722E+03  0.26360724592E+03  0.51766157257E+03  0.00000000000E+00 0.  1.
         13    1    1    2    0    0 -0.10884985469E+03 -0.28582887364E+03  0.10937881384E+03  0.32482329343E+03  0.10566000000E+00 0. -1.
<mgrwt>
<rscale>  1 0.76336668E+03</rscale>
<asrwt>0</asrwt>
<pdfrwt beam="1">  1       21 0.31219386E+00 0.10354752E+04</pdfrwt>
<pdfrwt beam="2">  1        4 0.39329379E-01 0.10354752E+04</pdfrwt>
<totfact> 0.55813919E+00</totfact>
</mgrwt>
</event>
<event>
 6    1  0.1375310E-005  0.1007103E+04  0.7818608E-02  0.9827173E-01
         21   -1    0    0  501  502  0.00000000000E+00  0.00000000000E+00  0.15201174690E+04  0.15201174690E+04  0.00000000000E+00 0.  1.
          4   -1    0    0  502    0 -0.00000000000E+00 -0.00000000000E+00 -0.24266571615E+03  0.24266571615E+03  0.00000000000E+00 0.  1.
    9000010    2    1    2  501    0 -0.13417377042E+03 -0.93384798448E+02  0.89682582654E+03  0.13485375718E+04  0.99374730095E+03 0.  0.
        -13    1    3    3    0    0 -0.17312077357E+03 -0.15496653300E+03 -0.16451792282E+03  0.28469560355E+03  0.10566000000E+00 0.  1.
          4    1    3    3  501    0  0.38947003144E+02  0.61581734548E+02  0.10613437494E+04  0.10638419682E+04  0.00000000000E+00 0.  1.
         13    1    1    2    0    0  0.13417377042E+03  0.93384798448E+02  0.38062592632E+03  0.41424561338E+03  0.10566000000E+00 0. -1.
<mgrwt>
<rscale>  1 0.63924434E+03</rscale>
<asrwt>0</asrwt>
<pdfrwt beam="1">  1       21 0.23386422E+00 0.10071033E+04</pdfrwt>
<pdfrwt beam="2">  1        4 0.37333188E-01 0.10071033E+04</pdfrwt>
<totfact> 0.19372084E+01</totfact>
</mgrwt>
</event>
<event>
 6    1  0.1375310E-005  0.9766714E+03  0.7818608E-02  0.9797299E-01
          4   -1    0    0  502    0 -0.00000000000E+00  0.00000000000E+00  0.99366278910E+03  0.99366278910E+03  0.00000000000E+00 0.  1.
         21   -1    0    0  501  502  0.00000000000E+00 -0.00000000000E+00 -0.11122397950E+04  0.11122397950E+04  0.00000000000E+00 0.  1.
    9000010    2    1    2  501    0 -0.17727651481E+03  0.87425946431E+02 -0.88280736989E+03  0.13165241456E+04  0.95646051400E+03 0.  0.
        -13    1    3    3    0    0  0.99498115280E+02 -0.33116503177E+03 -0.70304150055E+03  0.78347783368E+03  0.10566000000E+00 0.  1.
          4    1    3    3  501    0 -0.27677463009E+03  0.41859097820E+03 -0.17976586934E+03  0.53304631194E+03  0.00000000000E+00 0.  1.
         13    1    1    2    0    0  0.17727651481E+03 -0.87425946431E+02  0.76423036396E+03  0.78937843851E+03  0.10566000000E+00 0. -1.
<mgrwt>
<rscale>  1 0.65507669E+03</rscale>
<asrwt>0</asrwt>
<pdfrwt beam="2">  1       21 0.17111381E+00 0.97667137E+03</pdfrwt>
<pdfrwt beam="1">  1        4 0.15287120E+00 0.97667137E+03</pdfrwt>
<totfact> 0.20588590E+00</totfact>
</mgrwt>
</event>
<event>
 6    1  0.1375310E-005  0.1008403E+04  0.7818608E-02  0.9960584E-01
          4   -1    0    0  502    0 -0.00000000000E+00  0.00000000000E+00  0.20428009732E+03  0.20428009732E+03  0.00000000000E+00 0.  1.
         21   -1    0    0  501  502  0.00000000000E+00 -0.00000000000E+00 -0.15676075266E+04  0.15676075266E+04  0.00000000000E+00 0.  1.
    9000010    2    1    2  501    0  0.10593347165E+03  0.22845146041E+01 -0.13102761949E+04  0.16533905182E+04  0.10028207115E+04 0.  0.
        -13    1    3    3    0    0  0.49722936650E+03 -0.18437639074E+03 -0.47334201567E+03  0.71083357499E+03  0.10566000000E+00 0.  1.
          4    1    3    3  501    0 -0.39129589485E+03  0.18666090534E+03 -0.83693417921E+03  0.94255694324E+03  0.00000000000E+00 0.  1.
         13    1    1    2    0    0 -0.10593347165E+03 -0.22845146041E+01 -0.53051234388E+02  0.11849710569E+03  0.10566000000E+00 0. -1.
<mgrwt>
<rscale>  1 0.57412859E+03</rscale>
<asrwt>0</asrwt>
<pdfrwt beam="2">  1       21 0.24117039E+00 0.10084029E+04</pdfrwt>
<pdfrwt beam="1">  1        4 0.31427708E-01 0.10084029E+04</pdfrwt>
<totfact> 0.24496419E+01</totfact>
</mgrwt>
</event>
<event>
 6    1  0.1375310E-005  0.1025828E+04  0.7818608E-02  0.9836191E-01
          4   -1    0    0  502    0 -0.00000000000E+00  0.00000000000E+00  0.10112843638E+04  0.10112843638E+04  0.00000000000E+00 0.  1.
         21   -1    0    0  501  502  0.00000000000E+00 -0.00000000000E+00 -0.35021180259E+03  0.35021180259E+03  0.00000000000E+00 0.  1.
    9000010    2    1    2  501    0 -0.33082650697E+02  0.14651020016E+03  0.49977499417E+03  0.11410951300E+04  0.10147725610E+04 0.  0.
        -13    1    3    3    0    0 -0.47124589333E+03  0.14788184752E+03  0.50016819976E+03  0.70292956406E+03  0.10566000000E+00 0.  1.
          4    1    3    3  501    0  0.43816324263E+03 -0.13716473628E+01 -0.39320559462E+00  0.43816556599E+03  0.00000000000E+00 0.  1.
         13    1    1    2    0    0  0.33082650697E+02 -0.14651020016E+03  0.16129756708E+03  0.22040103638E+03  0.10566000000E+00 0. -1.
<mgrwt>
<rscale>  1 0.63455986E+03</rscale>
<asrwt>0</asrwt>
<pdfrwt beam="2">  1       21 0.53878739E-01 0.10258280E+04</pdfrwt>
<pdfrwt beam="1">  1        4 0.15558221E+00 0.10258280E+04</pdfrwt>
<totfact> 0.34499900E+01</totfact>
</mgrwt>
</event>
<event>
 6    1  0.1375310E-005  0.9552047E+03  0.7818608E-02  0.1004113E+00
         21   -1    0    0  501  502  0.00000000000E+00  0.00000000000E+00  0.12624768688E+04  0.12624768688E+04  0.00000000000E+00 0.  1.
          4   -1    0    0  502    0 -0.00000000000E+00 -0.00000000000E+00 -0.29154429801E+03  0.29154429801E+03  0.00000000000E+00 0.  1.
    9000010    2    1    2  501    0  0.53190187706E+02 -0.80779833433E+02  0.10569211929E+04  0.14246046615E+04  0.95029545720E+03 0.  0.
        -13    1    3    3    0    0  0.28055409425E+03 -0.33100683874E+03  0.15394329662E+03  0.46040707731E+03  0.10566000000E+00 0.  1.
          4    1    3    3  501    0 -0.22736390655E+03  0.25022700531E+03  0.90297789625E+03  0.96419758416E+03  0.00000000000E+00 0.  1.
         13    1    1    2    0    0 -0.53190187706E+02  0.80779833433E+02 -0.85988622093E+02  0.12941650533E+03  0.10566000000E+00 0. -1.
<mgrwt>
<rscale>  1 0.53882834E+03</rscale>
<asrwt>0</asrwt>
<pdfrwt beam="1">  1       21 0.19422721E+00 0.95520471E+03</pdfrwt>
<pdfrwt beam="2">  1        4 0.44852970E-01 0.95520471E+03</pdfrwt>
<totfact> 0.24673698E+01</totfact>
</mgrwt>
</event>
<event>
 6    1  0.1375310E-005  0.9951731E+03  0.7818608E-02  0.9723652E-01
         21   -1    0    0  501  502  0.00000000000E+00  0.00000000000E+00  0.34803486235E+03  0.34803486235E+03  0.00000000000E+00 0.  1.
          4   -1    0    0  502    0 -0.00000000000E+00 -0.00000000000E+00 -0.17970758749E+04  0.17970758749E+04  0.00000000000E+00 0.  1.
    9000010    2    1    2  501    0  0.23742597118E+03  0.22008238808E+02 -0.40540190437E+03  0.10745790686E+04  0.96618529082E+03 0.  0.
        -13    1    3    3    0    0  0.28187120556E+03  0.16658195208E+03 -0.68357675182E+03  0.75794334226E+03  0.10566000000E+00 0.  1.
          4    1    3    3  501    0 -0.44445234383E+02 -0.14457371327E+03  0.27817484745E+03  0.31663572632E+03  0.00000000000E+00 0.  1.
         13    1    1    2    0    0 -0.23742597118E+03 -0.22008238808E+02 -0.10436391082E+04  0.10705316687E+04  0.10566000000E+00 0. -1.
<mgrwt>
<rscale>  1 0.69625847E+03</rscale>
<asrwt>0</asrwt>
<pdfrwt beam="1">  1       21 0.53543826E-01 0.99517309E+03</pdfrwt>
<pdfrwt beam="2">  1        4 0.27647321E+00 0.99517309E+03</pdfrwt>
<totfact> 0.56330465E+00</totfact>
</mgrwt>
</event>
<event>
 6    1  0.1375310E-005  0.1003440E+04  0.7818608E-02  0.9778492E-01
         21   -1    0    0  501  502  0.00000000000E+00  0.00000000000E+00  0.70675487421E+03  0.70675487421E+03  0.00000000000E+00 0.  1.
          4   -1    0    0  502    0 -0.00000000000E+00 -0.00000000000E+00 -0.55092097970E+03  0.55092097970E+03  0.00000000000E+00 0.  1.
    9000010    2    1    2  501    0 -0.15696941672E+03 -0.11383964579E+03  0.26135725616E+03  0.10369179463E+04  0.98452645944E+03 0.  0.
        -13    1    3    3    0    0 -0.56305434067E+03 -0.77054386484E+02  0.32259359493E+02  0.56921722256E+03  0.10566000000E+00 0.  1.
          4    1    3    3  501    0  0.40608492395E+03 -0.36785259303E+02  0.22909789667E+03  0.46770072377E+03  0.00000000000E+00 0.  1.
         13    1    1    2    0    0  0.15696941672E+03  0.11383964579E+03 -0.10552336166E+03  0.22075790758E+03  0.10566000000E+00 0. -1.
<mgrwt>
<rscale>  1 0.66529661E+03</rscale>
<asrwt>0</asrwt>
<pdfrwt beam="1">  1       21 0.10873152E+00 0.10034397E+04</pdfrwt>
<pdfrwt beam="2">  1        4 0.84757074E-01 0.10034397E+04</pdfrwt>
<totfact> 0.30468857E+01</totfact>
</mgrwt>
</event>
<event>
 6    1  0.1375310E-005  0.1023296E+04  0.7818608E-02  0.9941173E-01
         21   -1    0    0  501  502  0.00000000000E+00  0.00000000000E+00  0.21173560779E+03  0.21173560779E+03  0.00000000000E+00 0.  1.
          4   -1    0    0  502    0 -0.00000000000E+00 -0.00000000000E+00 -0.17998045962E+04  0.17998045962E+04  0.00000000000E+00 0.  1.
    9000010    2    1    2  501    0  0.42758131593E+02  0.99025281088E+02 -0.10629773356E+04  0.14754846852E+04  0.10175951928E+04 0.  0.
        -13    1    3    3    0    0  0.17973850774E+03 -0.36894735663E+03 -0.14358899697E+03  0.43479408269E+03  0.10566000000E+00 0.  1.
          4    1    3    3  501    0 -0.13698037614E+03  0.46797263772E+03 -0.91938833859E+03  0.10406906026E+04  0.00000000000E+00 0.  1.
         13    1    1    2    0    0 -0.42758131593E+02 -0.99025281088E+02 -0.52509165283E+03  0.53605551871E+03  0.10566000000E+00 0. -1.
<mgrwt>
<rscale>  1 0.58306679E+03</rscale>
<asrwt>0</asrwt>
<pdfrwt beam="1">  1       21 0.32574708E-01 0.10232958E+04</pdfrwt>
<pdfrwt beam="2">  1        4 0.27689302E+00 0.10232958E+04</pdfrwt>
<totfact> 0.15908427E+01</totfact>
</mgrwt>
</event>
<event>
 6    1  0.1375310E-005  0.1022362E+04  0.7818608E-02  0.9985244E-01
          4   -1    0    0  502    0 -0.00000000000E+00  0.00000000000E+00  0.28536714592E+03  0.28536714592E+03  0.00000000000E+00 0.  1.
         21   -1    0    0  501  502  0.00000000000E+00 -0.00000000000E+00 -0.13311605955E+04  0.13311605955E+04  0.00000000000E+00 0.  1.
    9000010    2    1    2  501    0 -0.92300802542E+02  0.17966160567E+02 -0.11050007786E+04  0.15054073561E+04  0.10180286666E+04 0.  0.
        -13    1    3    3    0    0  0.76962708107E+02 -0.46783449515E+03 -0.33964746220E+03  0.58322618514E+03  0.10566000000E+00 0.  1.
          4    1    3    3  501    0 -0.16926351065E+03  0.48580065572E+03 -0.76535331639E+03  0.92218117094E+03  0.00000000000E+00 0.  1.
         13    1    1    2    0    0  0.92300802542E+02 -0.17966160567E+02  0.59207328983E+02  0.11112038537E+03  0.10566000000E+00 0. -1.
<mgrwt>
<rscale>  1 0.56302003E+03</rscale>
<asrwt>0</asrwt>
<pdfrwt beam="2">  1       21 0.20479394E+00 0.10223623E+04</pdfrwt>
<pdfrwt beam="1">  1        4 0.43902638E-01 0.10223623E+04</pdfrwt>
<totfact> 0.21632958E+01</totfact>
</mgrwt>
</event>
<event>
 6    1  0.1375310E-005  0.8057287E+03  0.7818608E-02  0.9866319E-01
          4   -1    0    0  502    0 -0.00000000000E+00  0.00000000000E+00  0.17924521838E+04  0.17924521838E+04  0.00000000000E+00 0.  1.
         21   -1    0    0  501  502  0.00000000000E+00 -0.00000000000E+00 -0.16588773019E+03  0.16588773019E+03  0.00000000000E+00 0.  1.
    9000010    2    1    2  501    0 -0.17301552890E+03  0.22150157898E+03  0.11316257235E+04  0.13891635965E+04  0.75511681006E+03 0.  0.
        -13    1    3    3    0    0  0.40832800519E+02  0.47107860511E+03  0.73638202053E+03  0.87512334052E+03  0.10566000000E+00 0.  1.
          4    1    3    3  501    0 -0.21384832942E+03 -0.24957702613E+03  0.39524370302E+03  0.51404025595E+03  0.00000000000E+00 0.  1.
         13    1    1    2    0    0  0.17301552890E+03 -0.22150157898E+03  0.49493873002E+03  0.56917631747E+03  0.10566000000E+00 0. -1.
<mgrwt>
<rscale>  1 0.61921743E+03</rscale>
<asrwt>0</asrwt>
<pdfrwt beam="2">  1       21 0.25521190E-01 0.80572869E+03</pdfrwt>
<pdfrwt beam="1">  1        4 0.27576186E+00 0.80572869E+03</pdfrwt>
<totfact> 0.27088044E+01</totfact>
</mgrwt>
</event>
<event>
 6    1  0.1375310E-005  0.1003119E+04  0.7818608E-02  0.9928763E-01
         21   -1    0    0  501  502  0.00000000000E+00  0.00000000000E+00  0.14987395990E+04  0.14987395990E+04  0.00000000000E+00 0.  1.
          4   -1    0    0  502    0 -0.00000000000E+00 -0.00000000000E+00 -0.26118338692E+03  0.26118338692E+03  0.00000000000E+00 0.  1.
    9000010    2    1    2  501    0  0.11154338240E+03 -0.41840949493E+02  0.12863032254E+04  0.16312028488E+04  0.99601915403E+03 0.  0.
        -13    1    3    3    0    0 -0.38498204408E+03  0.21182698667E+03  0.47840248861E+03  0.64957740017E+03  0.10566000000E+00 0.  1.
          4    1    3    3  501    0  0.49652542647E+03 -0.25366793617E+03  0.80790073679E+03  0.98162544867E+03  0.00000000000E+00 0.  1.
         13    1    1    2    0    0 -0.11154338240E+03  0.41840949493E+02 -0.48747013330E+02  0.12872013706E+03  0.10566000000E+00 0. -1.
<mgrwt>
<rscale>  1 0.58887340E+03</rscale>
<asrwt>0</asrwt>
<pdfrwt beam="1">  1       21 0.23057532E+00 0.10031185E+04</pdfrwt>
<pdfrwt beam="2">  1        4 0.40182061E-01 0.10031185E+04</pdfrwt>
<totfact> 0.17537456E+01</totfact>
</mgrwt>
</event>
<event>
 6    1  0.1375310E-005  0.1044225E+04  0.7818608E-02  0.9605710E-01
          4   -1    0    0  502    0 -0.00000000000E+00  0.00000000000E+00  0.11091596185E+04  0.11091596185E+04  0.00000000000E+00 0.  1.
         21   -1    0    0  501  502  0.00000000000E+00 -0.00000000000E+00 -0.52189518045E+03  0.52189518045E+03  0.00000000000E+00 0.  1.
    9000010    2    1    2  501    0 -0.22837417311E+03 -0.20582726191E+03  0.92189349888E+02  0.10482864241E+04  0.99794084291E+03 0.  0.
        -13    1    3    3    0    0 -0.46872503093E+03  0.24696447637E+03  0.16185445330E+02  0.53005338129E+03  0.10566000000E+00 0.  1.
          4    1    3    3  501    0  0.24035085783E+03 -0.45279173828E+03  0.76003904557E+02  0.51823304277E+03  0.00000000000E+00 0.  1.
         13    1    1    2    0    0  0.22837417311E+03  0.20582726191E+03  0.49507508813E+03  0.58276837486E+03  0.10566000000E+00 0. -1.
<mgrwt>
<rscale>  1 0.76919380E+03</rscale>
<asrwt>0</asrwt>
<pdfrwt beam="2">  1       21 0.80291566E-01 0.10442249E+04</pdfrwt>
<pdfrwt beam="1">  1        4 0.17063994E+00 0.10442249E+04</pdfrwt>
<totfact> 0.10780227E+01</totfact>
</mgrwt>
</event>
<event>
 6    1  0.1375310E-005  0.1096606E+04  0.7818608E-02  0.9478050E-01
         21   -1    0    0  501  502  0.00000000000E+00  0.00000000000E+00  0.49317331438E+03  0.49317331438E+03  0.00000000000E+00 0.  1.
          4   -1    0    0  502    0 -0.00000000000E+00 -0.00000000000E+00 -0.13392169522E+04  0.13392169522E+04  0.00000000000E+00 0.  1.
    9000010    2    1    2  501    0 -0.37950944188E+03 -0.16365688429E+03 -0.28047610447E+03  0.11319064065E+04  0.10157432135E+04 0.  0.
        -13    1    3    3    0    0 -0.31416538958E+02  0.52572287793E+02 -0.60567523743E+03  0.60876378733E+03  0.10566000000E+00 0.  1.
          4    1    3    3  501    0 -0.34809290293E+03 -0.21622917208E+03  0.32519913296E+03  0.52314261918E+03  0.00000000000E+00 0.  1.
         13    1    1    2    0    0  0.37950944188E+03  0.16365688429E+03 -0.56556753335E+03  0.70048386006E+03  0.10566000000E+00 0. -1.
<mgrwt>
<rscale>  1 0.85921632E+03</rscale>
<asrwt>0</asrwt>
<pdfrwt beam="1">  1       21 0.75872817E-01 0.10966063E+04</pdfrwt>
<pdfrwt beam="2">  1        4 0.20603338E+00 0.10966063E+04</pdfrwt>
<totfact> 0.70092366E+00</totfact>
</mgrwt>
</event>
<event>
 6    1  0.1375310E-005  0.1130280E+04  0.7818608E-02  0.9379443E-01
          4   -1    0    0  502    0 -0.00000000000E+00  0.00000000000E+00  0.11676128033E+04  0.11676128033E+04  0.00000000000E+00 0.  1.
         21   -1    0    0  501  502  0.00000000000E+00 -0.00000000000E+00 -0.62721093826E+03  0.62721093826E+03  0.00000000000E+00 0. -1.
    9000010    2    1    2  501    0 -0.52248992023E+03  0.11873025564E+03  0.55419821870E+03  0.12588359237E+04  0.99520833339E+03 0.  0.
        -13    1    3    3    0    0 -0.26277808788E+03  0.49863849174E+03  0.34539997681E+02  0.56469964717E+03  0.10566000000E+00 0.  1.
          4    1    3    3  501    0 -0.25971183235E+03 -0.37990823610E+03  0.51965822102E+03  0.69413627653E+03  0.00000000000E+00 0.  1.
         13    1    1    2    0    0  0.52248992023E+03 -0.11873025564E+03 -0.13796353665E+02  0.53598781785E+03  0.10566000000E+00 0. -1.
<mgrwt>
<rscale>  1 0.93786915E+03</rscale>
<asrwt>0</asrwt>
<pdfrwt beam="2">  1       21 0.96493990E-01 0.11302797E+04</pdfrwt>
<pdfrwt beam="1">  1        4 0.17963274E+00 0.11302797E+04</pdfrwt>
<totfact> 0.59232567E+00</totfact>
</mgrwt>
</event>
<event>
 6    1  0.1375310E-005  0.1045428E+04  0.7818608E-02  0.1012683E+00
         21   -1    0    0  501  502  0.00000000000E+00  0.00000000000E+00  0.40043425092E+03  0.40043425092E+03  0.00000000000E+00 0.  1.
          4   -1    0    0  502    0 -0.00000000000E+00 -0.00000000000E+00 -0.81853262429E+03  0.81853262429E+03  0.00000000000E+00 0.  1.
    9000010    2    1    2  501    0 -0.55873839566E+02 -0.88552975676E+01 -0.29936660710E+03  0.10874467409E+04  0.10438964252E+04 0.  0.
        -13    1    3    3    0    0  0.26340911720E+03  0.39353755393E+03 -0.32300860128E+03  0.57322834634E+03  0.10566000000E+00 0.  1.
          4    1    3    3  501    0 -0.31928295677E+03 -0.40239285150E+03  0.23641994174E+02  0.51421839457E+03  0.00000000000E+00 0.  1.
         13    1    1    2    0    0  0.55873839566E+02  0.88552975676E+01 -0.11873176627E+03  0.13152013430E+03  0.10566000000E+00 0. -1.
<mgrwt>
<rscale>  1 0.50421959E+03</rscale>
<asrwt>0</asrwt>
<pdfrwt beam="1">  1       21 0.61605270E-01 0.10454282E+04</pdfrwt>
<pdfrwt beam="2">  1        4 0.12592809E+00 0.10454282E+04</pdfrwt>
<totfact> 0.44647791E+01</totfact>
</mgrwt>
</event>
<event>
 6    1  0.1375310E-005  0.1209693E+04  0.7818608E-02  0.9258078E-01
          4   -1    0    0  502    0 -0.00000000000E+00  0.00000000000E+00  0.64088773847E+03  0.64088773847E+03  0.00000000000E+00 0.  1.
         21   -1    0    0  501  502  0.00000000000E+00 -0.00000000000E+00 -0.14725594001E+04  0.14725594001E+04  0.00000000000E+00 0. -1.
    9000010    2    1    2  501    0  0.65650582133E+03  0.17625484261E+03 -0.28923403806E+03  0.12437895912E+04  0.10006450697E+04 0.  0.
        -13    1    3    3    0    0 -0.52541402549E+02 -0.25495361507E+03 -0.32103190182E+03  0.41330792149E+03  0.10566000000E+00 0.  1.
          4    1    3    3  501    0  0.70904722388E+03  0.43120845768E+03  0.31797863753E+02  0.83048166976E+03  0.00000000000E+00 0.  1.
         13    1    1    2    0    0 -0.65650582133E+03 -0.17625484261E+03 -0.54243762357E+03  0.86965754732E+03  0.10566000000E+00 0. -1.
<mgrwt>
<rscale>  1 0.10473559E+04</rscale>
<asrwt>0</asrwt>
<pdfrwt beam="2">  1       21 0.22654760E+00 0.12096926E+04</pdfrwt>
<pdfrwt beam="1">  1        4 0.98598114E-01 0.12096926E+04</pdfrwt>
<totfact> 0.24982100E+00</totfact>
</mgrwt>
</event>
<event>
 6    1  0.1375310E-005  0.1028402E+04  0.7818608E-02  0.9711847E-01
          4   -1    0    0  502    0 -0.00000000000E+00  0.00000000000E+00  0.71342539153E+03  0.71342539153E+03  0.00000000000E+00 0.  1.
         21   -1    0    0  501  502  0.00000000000E+00 -0.00000000000E+00 -0.56449016312E+03  0.56449016312E+03  0.00000000000E+00 0.  1.
    9000010    2    1    2  501    0  0.18859269612E+03 -0.12227304304E+03  0.42638482207E+02  0.10292854851E+04  0.10035400677E+04 0.  0.
        -13    1    3    3    0    0  0.92114867298E+01 -0.50627330732E+03 -0.19590727033E+03  0.54293386607E+03  0.10566000000E+00 0.  1.
          4    1    3    3  501    0  0.17938120939E+03  0.38400026428E+03  0.23854575254E+03  0.48635161900E+03  0.00000000000E+00 0.  1.
         13    1    1    2    0    0 -0.18859269612E+03  0.12227304304E+03  0.10629674621E+03  0.24863006959E+03  0.10566000000E+00 0. -1.
<mgrwt>
<rscale>  1 0.70315787E+03</rscale>
<asrwt>0</asrwt>
<pdfrwt beam="2">  1       21 0.86844640E-01 0.10284019E+04</pdfrwt>
<pdfrwt beam="1">  1        4 0.10975775E+00 0.10284019E+04</pdfrwt>
<totfact> 0.28487957E+01</totfact>
</mgrwt>
</event>
<event>
 6    1  0.1375310E-005  0.1423329E+04  0.7818608E-02  0.9025101E-01
         21   -1    0    0  501  502  0.00000000000E+00  0.00000000000E+00  0.57650505184E+03  0.57650505184E+03  0.00000000000E+00 0. -1.
          4   -1    0    0  502    0 -0.00000000000E+00 -0.00000000000E+00 -0.25685852138E+04  0.25685852138E+04  0.00000000000E+00 0.  1.
    9000010    2    1    2  501    0  0.94241109694E+03 -0.35716870212E+03 -0.10941383843E+04  0.17952726466E+04  0.10050656269E+04 0.  0.
        -13    1    3    3    0    0 -0.20587419929E+03  0.37134110806E+02 -0.16526222839E+03  0.26659846851E+03  0.10566000000E+00 0.  1.
          4    1    3    3  501    0  0.11482852962E+04 -0.39430281292E+03 -0.92887615594E+03  0.15286741781E+04  0.00000000000E+00 0.  1.
         13    1    1    2    0    0 -0.94241109694E+03  0.35716870212E+03 -0.89794177768E+03  0.13498176190E+04  0.10566000000E+00 0. -1.
<mgrwt>
<rscale>  1 0.13056449E+04</rscale>
<asrwt>0</asrwt>
<pdfrwt beam="1">  1       21 0.88693086E-01 0.14233289E+04</pdfrwt>
<pdfrwt beam="2">  1        4 0.39516695E+00 0.14233289E+04</pdfrwt>
<totfact> 0.28575195E-01</totfact>
</mgrwt>
</event>
<event>
 6    1  0.1375310E-005  0.1022493E+04  0.7818608E-02  0.9801950E-01
          4   -1    0    0  502    0 -0.00000000000E+00  0.00000000000E+00  0.70509710043E+03  0.70509710043E+03  0.00000000000E+00 0.  1.
         21   -1    0    0  501  502  0.00000000000E+00 -0.00000000000E+00 -0.99100720657E+03  0.99100720657E+03  0.00000000000E+00 0.  1.
    9000010    2    1    2  501    0 -0.13950789448E+03 -0.96532806931E+02 -0.70633604540E+03  0.12427401962E+04  0.10083211545E+04 0.  0.
        -13    1    3    3    0    0 -0.40863732130E+03 -0.25929124242E+03 -0.78163863515E+03  0.91933420250E+03  0.10566000000E+00 0.  1.
          4    1    3    3  501    0  0.26912942682E+03  0.16275843549E+03  0.75302589759E+02  0.32340599365E+03  0.00000000000E+00 0.  1.
         13    1    1    2    0    0  0.13950789448E+03  0.96532806931E+02  0.42042593926E+03  0.45336411084E+03  0.10566000000E+00 0. -1.
<mgrwt>
<rscale>  1 0.65257988E+03</rscale>
<asrwt>0</asrwt>
<pdfrwt beam="2">  1       21 0.15246265E+00 0.10224933E+04</pdfrwt>
<pdfrwt beam="1">  1        4 0.10847648E+00 0.10224933E+04</pdfrwt>
<totfact> 0.68732123E+00</totfact>
</mgrwt>
</event>
<event>
 6    1  0.1375310E-005  0.1095223E+04  0.7818608E-02  0.9748583E-01
          4   -1    0    0  502    0 -0.00000000000E+00  0.00000000000E+00  0.41144399263E+03  0.41144399263E+03  0.00000000000E+00 0.  1.
         21   -1    0    0  501  502  0.00000000000E+00 -0.00000000000E+00 -0.99497582072E+03  0.99497582072E+03  0.00000000000E+00 0.  1.
    9000010    2    1    2  501    0 -0.16239495981E+03  0.27102689709E+02 -0.58521726605E+03  0.12417700923E+04  0.10827774633E+04 0.  0.
        -13    1    3    3    0    0 -0.32646935559E+03  0.61899093517E+02 -0.85881371367E+03  0.92085544136E+03  0.10566000000E+00 0.  1.
          4    1    3    3  501    0  0.16407439578E+03 -0.34796403808E+02  0.27359644762E+03  0.32091465099E+03  0.00000000000E+00 0.  1.
         13    1    1    2    0    0  0.16239495981E+03 -0.27102689709E+02  0.16854379583E+01  0.16464972101E+03  0.10566000000E+00 0. -1.
<mgrwt>
<rscale>  1 0.68196411E+03</rscale>
<asrwt>0</asrwt>
<pdfrwt beam="2">  1       21 0.15307320E+00 0.10952231E+04</pdfrwt>
<pdfrwt beam="1">  1        4 0.63299076E-01 0.10952231E+04</pdfrwt>
<totfact> 0.23535454E+01</totfact>
</mgrwt>
</event>
<event>
 6    1  0.1375310E-005  0.1082661E+04  0.7818608E-02  0.9503749E-01
         21   -1    0    0  501  502  0.00000000000E+00  0.00000000000E+00  0.93037770709E+03  0.93037770709E+03  0.00000000000E+00 0.  1.
          4   -1    0    0  502    0 -0.00000000000E+00 -0.00000000000E+00 -0.65796759355E+03  0.65796759355E+03  0.00000000000E+00 0.  1.
    9000010    2    1    2  501    0 -0.39244046341E+03 -0.46793321318E+01  0.43066363916E+03  0.11651720465E+04  0.10090209683E+04 0.  0.
        -13    1    3    3    0    0 -0.70043080056E+02 -0.32900802649E+02 -0.32977436719E+03  0.33873240220E+03  0.10566000000E+00 0.  1.
          4    1    3    3  501    0 -0.32239738336E+03  0.28221470517E+02  0.76043800635E+03  0.82643964432E+03  0.00000000000E+00 0.  1.
         13    1    1    2    0    0  0.39244046341E+03  0.46793321318E+01 -0.15825352561E+03  0.42317325413E+03  0.10566000000E+00 0. -1.
<mgrwt>
<rscale>  1 0.84007976E+03</rscale>
<asrwt>0</asrwt>
<pdfrwt beam="1">  1       21 0.14313503E+00 0.10826609E+04</pdfrwt>
<pdfrwt beam="2">  1        4 0.10122578E+00 0.10826609E+04</pdfrwt>
<totfact> 0.96293435E+00</totfact>
</mgrwt>
</event>
<event>
 6    1  0.1375310E-005  0.1038268E+04  0.7818608E-02  0.9612294E-01
         21   -1    0    0  501  502  0.00000000000E+00  0.00000000000E+00  0.51082108767E+03  0.51082108767E+03  0.00000000000E+00 0.  1.
          4   -1    0    0  502    0 -0.00000000000E+00 -0.00000000000E+00 -0.88928365420E+03  0.88928365420E+03  0.00000000000E+00 0.  1.
    9000010    2    1    2  501    0  0.17786012047E+03 -0.24875866065E+03 -0.24700768097E+03  0.10672451742E+04  0.99221185925E+03 0.  0.
        -13    1    3    3    0    0  0.44887542008E+03  0.31999878059E+02 -0.44220913915E+03  0.63092160278E+03  0.10566000000E+00 0.  1.
          4    1    3    3  501    0 -0.27101529961E+03 -0.28075853871E+03  0.19520145817E+03  0.43632357140E+03  0.00000000000E+00 0.  1.
         13    1    1    2    0    0 -0.17786012047E+03  0.24875866065E+03 -0.13145488557E+03  0.33285956769E+03  0.10566000000E+00 0. -1.
<mgrwt>
<rscale>  1 0.76487801E+03</rscale>
<asrwt>0</asrwt>
<pdfrwt beam="1">  1       21 0.78587860E-01 0.10382675E+04</pdfrwt>
<pdfrwt beam="2">  1        4 0.13681287E+00 0.10382675E+04</pdfrwt>
<totfact> 0.20654220E+01</totfact>
</mgrwt>
</event>
<event>
 6    1  0.1375310E-005  0.1035927E+04  0.7818608E-02  0.9664504E-01
          4   -1    0    0  502    0 -0.00000000000E+00  0.00000000000E+00  0.46815437455E+03  0.46815437455E+03  0.00000000000E+00 0.  1.
         21   -1    0    0  501  502  0.00000000000E+00 -0.00000000000E+00 -0.91333274448E+03  0.91333274448E+03  0.00000000000E+00 0.  1.
    9000010    2    1    2  501    0  0.96438304921E+02  0.23912348310E+03 -0.27250122747E+03  0.10711682612E+04  0.10033265361E+04 0.  0.
        -13    1    3    3    0    0  0.14485336036E+03  0.45901479178E+03  0.22031397203E+03  0.52935369321E+03  0.10566000000E+00 0.  1.
          4    1    3    3  501    0 -0.48415055444E+02 -0.21989130868E+03 -0.49281519951E+03  0.54181456799E+03  0.00000000000E+00 0.  1.
         13    1    1    2    0    0 -0.96438304921E+02 -0.23912348310E+03 -0.17267714246E+03  0.31031885782E+03  0.10566000000E+00 0. -1.
<mgrwt>
<rscale>  1 0.73170089E+03</rscale>
<asrwt>0</asrwt>
<pdfrwt beam="2">  1       21 0.14051273E+00 0.10359269E+04</pdfrwt>
<pdfrwt beam="1">  1        4 0.72023751E-01 0.10359269E+04</pdfrwt>
<totfact> 0.22513316E+01</totfact>
</mgrwt>
</event>
<event>
 6    1  0.1375310E-005  0.1000045E+04  0.7818608E-02  0.9843538E-01
          4   -1    0    0  502    0 -0.00000000000E+00  0.00000000000E+00  0.40970912598E+03  0.40970912598E+03  0.00000000000E+00 0.  1.
         21   -1    0    0  501  502  0.00000000000E+00 -0.00000000000E+00 -0.95939323963E+03  0.95939323963E+03  0.00000000000E+00 0.  1.
    9000010    2    1    2  501    0 -0.13749440951E+03  0.78417575243E+02 -0.63957393539E+03  0.11870742909E+04  0.98743937769E+03 0.  0.
        -13    1    3    3    0    0 -0.10596249019E+03  0.84023574196E+02  0.25674534019E+03  0.29018303055E+03  0.10566000000E+00 0.  1.
          4    1    3    3  501    0 -0.31531919321E+02 -0.56059989531E+01 -0.89631927559E+03  0.89689126038E+03  0.00000000000E+00 0.  1.
         13    1    1    2    0    0  0.13749440951E+03 -0.78417575243E+02  0.89889821741E+02  0.18202807467E+03  0.10566000000E+00 0. -1.
<mgrwt>
<rscale>  1 0.63077499E+03</rscale>
<asrwt>0</asrwt>
<pdfrwt beam="2">  1       21 0.14759896E+00 0.10000453E+04</pdfrwt>
<pdfrwt beam="1">  1        4 0.63032174E-01 0.10000453E+04</pdfrwt>
<totfact> 0.26550167E+01</totfact>
</mgrwt>
</event>
<event>
 6    1  0.1375310E-005  0.1033472E+04  0.7818608E-02  0.9607721E-01
          4   -1    0    0  502    0 -0.00000000000E+00  0.00000000000E+00  0.91822378563E+03  0.91822378563E+03  0.00000000000E+00 0.  1.
         21   -1    0    0  501  502  0.00000000000E+00 -0.00000000000E+00 -0.11361095428E+04  0.11361095428E+04  0.00000000000E+00 0.  1.
    9000010    2    1    2  501    0  0.25964690776E+03 -0.17828379171E+03 -0.85650962298E+03  0.13422644552E+04  0.98430864382E+03 0.  0.
        -13    1    3    3    0    0  0.73550493265E+02  0.33974145758E+03 -0.68088837970E+03  0.76448867214E+03  0.10566000000E+00 0.  1.
          4    1    3    3  501    0  0.18609641449E+03 -0.51802524929E+03 -0.17562124328E+03  0.57777578305E+03  0.00000000000E+00 0.  1.
         13    1    1    2    0    0 -0.25964690776E+03  0.17828379171E+03  0.63862386581E+03  0.71206887325E+03  0.10566000000E+00 0. -1.
<mgrwt>
<rscale>  1 0.76787231E+03</rscale>
<asrwt>0</asrwt>
<pdfrwt beam="2">  1       21 0.17478608E+00 0.10334724E+04</pdfrwt>
<pdfrwt beam="1">  1        4 0.14126520E+00 0.10334724E+04</pdfrwt>
<totfact> 0.23664178E+00</totfact>
</mgrwt>
</event>
<event>
 6    1  0.1375310E-005  0.1078538E+04  0.7818608E-02  0.9484284E-01
          4   -1    0    0  502    0 -0.00000000000E+00  0.00000000000E+00  0.49999255291E+03  0.49999255291E+03  0.00000000000E+00 0.  1.
         21   -1    0    0  501  502  0.00000000000E+00 -0.00000000000E+00 -0.13501751490E+04  0.13501751490E+04  0.00000000000E+00 0.  1.
    9000010    2    1    2  501    0 -0.20639368530E+03 -0.37152404251E+03 -0.92227035123E+03  0.14190933195E+04  0.99126927791E+03 0.  0.
        -13    1    3    3    0    0  0.31174503688E+03 -0.13084118975E+03 -0.46071295462E+01  0.33812072069E+03  0.10566000000E+00 0.  1.
          4    1    3    3  501    0 -0.51813872218E+03 -0.24068285276E+03 -0.91766322169E+03  0.10809725989E+04  0.00000000000E+00 0.  1.
         13    1    1    2    0    0  0.20639368530E+03  0.37152404251E+03  0.72087755171E+02  0.43107438234E+03  0.10566000000E+00 0. -1.
<mgrwt>
<rscale>  1 0.85452492E+03</rscale>
<asrwt>0</asrwt>
<pdfrwt beam="2">  1       21 0.20771925E+00 0.10785376E+04</pdfrwt>
<pdfrwt beam="1">  1        4 0.76921931E-01 0.10785376E+04</pdfrwt>
<totfact> 0.60761071E+00</totfact>
</mgrwt>
</event>
<event>
 6    1  0.1375310E-005  0.1055961E+04  0.7818608E-02  0.9574855E-01
         21   -1    0    0  501  502  0.00000000000E+00  0.00000000000E+00  0.12816673458E+04  0.12816673458E+04  0.00000000000E+00 0.  1.
          4   -1    0    0  502    0 -0.00000000000E+00 -0.00000000000E+00 -0.39016395733E+03  0.39016395733E+03  0.00000000000E+00 0.  1.
    9000010    2    1    2  501    0 -0.29321707725E+03  0.15252617060E+03  0.81152781674E+03  0.13317774981E+04  0.10029024977E+04 0.  0.
        -13    1    3    3    0    0 -0.49029956529E+03 -0.14555751834E+03  0.82892321599E+03  0.97400942708E+03  0.10566000000E+00 0.  1.
          4    1    3    3  501    0  0.19708248804E+03  0.29808368895E+03 -0.17395399257E+02  0.35776807100E+03  0.00000000000E+00 0.  1.
         13    1    1    2    0    0  0.29321707725E+03 -0.15252617060E+03  0.79975571776E+02  0.34005380509E+03  0.10566000000E+00 0. -1.
<mgrwt>
<rscale>  1 0.78983051E+03</rscale>
<asrwt>0</asrwt>
<pdfrwt beam="1">  1       21 0.19717959E+00 0.10559611E+04</pdfrwt>
<pdfrwt beam="2">  1        4 0.60025225E-01 0.10559611E+04</pdfrwt>
<totfact> 0.12512385E+01</totfact>
</mgrwt>
</event>
<event>
 6    1  0.1375310E-005  0.1050044E+04  0.7818608E-02  0.9709192E-01
          4   -1    0    0  502    0 -0.00000000000E+00  0.00000000000E+00  0.22147976179E+04  0.22147976179E+04  0.00000000000E+00 0.  1.
         21   -1    0    0  501  502  0.00000000000E+00 -0.00000000000E+00 -0.18343208594E+03  0.18343208594E+03  0.00000000000E+00 0.  1.
    9000010    2    1    2  501    0  0.20864788884E+03 -0.43000524532E+02  0.15541894075E+04  0.18756590851E+04  0.10282068384E+04 0.  0.
        -13    1    3    3    0    0 -0.39446012084E+03  0.93820770510E+02  0.82706851547E+03  0.92110990895E+03  0.10566000000E+00 0.  1.
          4    1    3    3  501    0  0.60310800968E+03 -0.13682129504E+03  0.72712089201E+03  0.95454917616E+03  0.00000000000E+00 0.  1.
         13    1    1    2    0    0 -0.20864788884E+03  0.43000524532E+02  0.47717612448E+03  0.52257061874E+03  0.10566000000E+00 0. -1.
<mgrwt>
<rscale>  1 0.70472107E+03</rscale>
<asrwt>0</asrwt>
<pdfrwt beam="2">  1       21 0.28220323E-01 0.10500439E+04</pdfrwt>
<pdfrwt beam="1">  1        4 0.34073808E+00 0.10500439E+04</pdfrwt>
<totfact> 0.84583147E+00</totfact>
</mgrwt>
</event>
<event>
 6    1  0.1375310E-005  0.1091108E+04  0.7818608E-02  0.9481048E-01
         21   -1    0    0  501  502  0.00000000000E+00  0.00000000000E+00  0.68243943735E+03  0.68243943735E+03  0.00000000000E+00 0.  1.
          4   -1    0    0  502    0 -0.00000000000E+00 -0.00000000000E+00 -0.85512287823E+03  0.85512287823E+03  0.00000000000E+00 0.  1.
    9000010    2    1    2  501    0 -0.10556065317E+02 -0.41504030934E+03 -0.86077157370E+01  0.10911423971E+04  0.10090330763E+04 0.  0.
        -13    1    3    3    0    0 -0.23742849198E+03 -0.99262869240E+01 -0.41229543072E+03  0.47587640552E+03  0.10566000000E+00 0.  1.
          4    1    3    3  501    0  0.22687242666E+03 -0.40511402242E+03  0.40368771498E+03  0.61526599156E+03  0.00000000000E+00 0.  1.
         13    1    1    2    0    0  0.10556065317E+02  0.41504030934E+03 -0.16407572515E+03  0.44641991851E+03  0.10566000000E+00 0. -1.
<mgrwt>
<rscale>  1 0.85695618E+03</rscale>
<asrwt>0</asrwt>
<pdfrwt beam="1">  1       21 0.10499068E+00 0.10911084E+04</pdfrwt>
<pdfrwt beam="2">  1        4 0.13155737E+00 0.10911084E+04</pdfrwt>
<totfact> 0.11262602E+01</totfact>
</mgrwt>
</event>
<event>
 6    1  0.1375310E-005  0.1355788E+04  0.7818608E-02  0.9085082E-01
         21   -1    0    0  501  502  0.00000000000E+00  0.00000000000E+00  0.69796808315E+03  0.69796808315E+03  0.00000000000E+00 0.  1.
          4   -1    0    0  502    0 -0.00000000000E+00 -0.00000000000E+00 -0.19557865418E+04  0.19557865418E+04  0.00000000000E+00 0.  1.
    9000010    2    1    2  501    0  0.92445635917E+03 -0.36759179008E+02 -0.45884734648E+03  0.14313284936E+04  0.99105477753E+03 0.  0.
        -13    1    3    3    0    0  0.16560679270E+03 -0.14985123136E+02  0.30940951601E+03  0.35126118981E+03  0.10566000000E+00 0.  1.
          4    1    3    3  501    0  0.75884956647E+03 -0.21774055872E+02 -0.76825686249E+03  0.10800673038E+04  0.00000000000E+00 0.  1.
         13    1    1    2    0    0 -0.92445635917E+03  0.36759179008E+02 -0.79897111217E+03  0.12224261313E+04  0.10566000000E+00 0. -1.
<mgrwt>
<rscale>  1 0.12322566E+04</rscale>
<asrwt>0</asrwt>
<pdfrwt beam="1">  1       21 0.10737971E+00 0.13557877E+04</pdfrwt>
<pdfrwt beam="2">  1        4 0.30089023E+00 0.13557877E+04</pdfrwt>
<totfact> 0.74111014E-01</totfact>
</mgrwt>
</event>
<event>
 6    1  0.1375310E-005  0.1019415E+04  0.7818608E-02  0.9762575E-01
          4   -1    0    0  502    0 -0.00000000000E+00  0.00000000000E+00  0.92312646441E+03  0.92312646441E+03  0.00000000000E+00 0.  1.
         21   -1    0    0  501  502  0.00000000000E+00 -0.00000000000E+00 -0.40508121986E+03  0.40508121986E+03  0.00000000000E+00 0.  1.
    9000010    2    1    2  501    0  0.85587364498E+02 -0.17512198614E+03  0.37406108198E+03  0.10858765942E+04  0.10006065049E+04 0.  0.
        -13    1    3    3    0    0  0.12212526232E+03  0.51947893082E+02 -0.32441403230E+03  0.35051054023E+03  0.10566000000E+00 0.  1.
          4    1    3    3  501    0 -0.36537897819E+02 -0.22706987922E+03  0.69847511429E+03  0.73536605395E+03  0.00000000000E+00 0.  1.
         13    1    1    2    0    0 -0.85587364498E+02  0.17512198614E+03  0.14398416256E+03  0.24233109009E+03  0.10566000000E+00 0. -1.
<mgrwt>
<rscale>  1 0.67410259E+03</rscale>
<asrwt>0</asrwt>
<pdfrwt beam="2">  1       21 0.62320188E-01 0.10194147E+04</pdfrwt>
<pdfrwt beam="1">  1        4 0.14201946E+00 0.10194147E+04</pdfrwt>
<totfact> 0.31922394E+01</totfact>
</mgrwt>
</event>
<event>
 6    1  0.1375310E-005  0.1114536E+04  0.7818608E-02  0.9434967E-01
         21   -1    0    0  501  502  0.00000000000E+00  0.00000000000E+00  0.37136785639E+03  0.37136785639E+03  0.00000000000E+00 0.  1.
          4   -1    0    0  502    0 -0.00000000000E+00 -0.00000000000E+00 -0.24709099038E+04  0.24709099038E+04  0.00000000000E+00 0.  1.
    9000010    2    1    2  501    0  0.45799834678E+03  0.18296200621E+02 -0.58264851559E+03  0.12576442901E+04  0.10159195987E+04 0.  0.
        -13    1    3    3    0    0  0.86317132312E+02 -0.36650496728E+03 -0.61561432374E+03  0.72163532697E+03  0.10566000000E+00 0.  1.
          4    1    3    3  501    0  0.37168121446E+03  0.38480116790E+03  0.32965808149E+02  0.53600896309E+03  0.00000000000E+00 0.  1.
         13    1    1    2    0    0 -0.45799834678E+03 -0.18296200621E+02 -0.15168935318E+04  0.15846334701E+04  0.10566000000E+00 0. -1.
<mgrwt>
<rscale>  1 0.89253044E+03</rscale>
<asrwt>0</asrwt>
<pdfrwt beam="1">  1       21 0.57133517E-01 0.11145357E+04</pdfrwt>
<pdfrwt beam="2">  1        4 0.38013998E+00 0.11145357E+04</pdfrwt>
<totfact> 0.10485612E+00</totfact>
</mgrwt>
</event>
<event>
 6    1  0.1375310E-005  0.9792712E+03  0.7818608E-02  0.1032261E+00
         21   -1    0    0  501  502  0.00000000000E+00  0.00000000000E+00  0.59814492508E+03  0.59814492508E+03  0.00000000000E+00 0.  1.
          4   -1    0    0  502    0 -0.00000000000E+00 -0.00000000000E+00 -0.45592282011E+03  0.45592282011E+03  0.00000000000E+00 0.  1.
    9000010    2    1    2  501    0 -0.26401647103E+02  0.27556670624E+02  0.18515883567E+03  0.99662219642E+03  0.97852725609E+03 0.  0.
        -13    1    3    3    0    0  0.46410394217E+03  0.79326426818E+02  0.17794794304E+03  0.50333948059E+03  0.10566000000E+00 0.  1.
          4    1    3    3  501    0 -0.49050558927E+03 -0.51769756194E+02  0.72108926221E+01  0.49328271583E+03  0.00000000000E+00 0.  1.
         13    1    1    2    0    0  0.26401647103E+02 -0.27556670624E+02 -0.42936730702E+02  0.57445548766E+02  0.10566000000E+00 0. -1.
<mgrwt>
<rscale>  1 0.43509928E+03</rscale>
<asrwt>0</asrwt>
<pdfrwt beam="1">  1       21 0.92022297E-01 0.97927116E+03</pdfrwt>
<pdfrwt beam="2">  1        4 0.70141972E-01 0.97927116E+03</pdfrwt>
<totfact> 0.71098504E+01</totfact>
</mgrwt>
</event>
<event>
 6    1  0.1375310E-005  0.1032814E+04  0.7818608E-02  0.9702354E-01
          4   -1    0    0  502    0 -0.00000000000E+00  0.00000000000E+00  0.21931334691E+04  0.21931334691E+04  0.00000000000E+00 0.  1.
         21   -1    0    0  501  502  0.00000000000E+00 -0.00000000000E+00 -0.21556179568E+03  0.21556179568E+03  0.00000000000E+00 0.  1.
    9000010    2    1    2  501    0  0.20047295433E+03 -0.11081190379E+03  0.11307341769E+04  0.15314253860E+04  0.10070924738E+04 0.  0.
        -13    1    3    3    0    0  0.30138858230E+03 -0.17680277241E+03  0.12872605452E+04  0.13338418273E+04  0.10566000000E+00 0.  1.
          4    1    3    3  501    0 -0.10091562797E+03  0.65990868621E+02 -0.15652636831E+03  0.19758355875E+03  0.00000000000E+00 0.  1.
         13    1    1    2    0    0 -0.20047295433E+03  0.11081190379E+03  0.84683749658E+03  0.87726987878E+03  0.10566000000E+00 0. -1.
<mgrwt>
<rscale>  1 0.70876782E+03</rscale>
<asrwt>0</asrwt>
<pdfrwt beam="2">  1       21 0.33163355E-01 0.10328136E+04</pdfrwt>
<pdfrwt beam="1">  1        4 0.33740513E+00 0.10328136E+04</pdfrwt>
<totfact> 0.64223894E+00</totfact>
</mgrwt>
</event>
<event>
 6    1  0.1375310E-005  0.8674555E+03  0.7818608E-02  0.9900365E-01
         21   -1    0    0  501  502  0.00000000000E+00  0.00000000000E+00  0.35498495090E+03  0.35498495090E+03  0.00000000000E+00 0.  1.
          4   -1    0    0  502    0 -0.00000000000E+00 -0.00000000000E+00 -0.82979585417E+03  0.82979585417E+03  0.00000000000E+00 0.  1.
    9000010    2    1    2  501    0 -0.19597349555E+03 -0.48104006096E+02 -0.30020171584E+03  0.91793256008E+03  0.84365840735E+03 0.  0.
        -13    1    3    3    0    0 -0.52277421433E+03  0.13747179234E+02 -0.25649703758E+03  0.58247111993E+03  0.10566000000E+00 0.  1.
          4    1    3    3  501    0  0.32680071878E+03 -0.61851185330E+02 -0.43704678264E+02  0.33546144014E+03  0.00000000000E+00 0.  1.
         13    1    1    2    0    0  0.19597349555E+03  0.48104006096E+02 -0.17460918743E+03  0.26684824500E+03  0.10566000000E+00 0. -1.
<mgrwt>
<rscale>  1 0.60243595E+03</rscale>
<asrwt>0</asrwt>
<pdfrwt beam="1">  1       21 0.54613070E-01 0.86745554E+03</pdfrwt>
<pdfrwt beam="2">  1        4 0.12766090E+00 0.86745554E+03</pdfrwt>
<totfact> 0.57131798E+01</totfact>
</mgrwt>
</event>
<event>
 6    1  0.1375310E-005  0.1017578E+04  0.7818608E-02  0.9810936E-01
          4   -1    0    0  502    0 -0.00000000000E+00  0.00000000000E+00  0.53788496344E+03  0.53788496344E+03  0.00000000000E+00 0.  1.
         21   -1    0    0  501  502  0.00000000000E+00 -0.00000000000E+00 -0.75831816312E+03  0.75831816312E+03  0.00000000000E+00 0.  1.
    9000010    2    1    2  501    0 -0.13223052092E+03  0.10219960721E+03 -0.35906087061E+03  0.10790688071E+04  0.10037604850E+04 0.  0.
        -13    1    3    3    0    0  0.25450711990E+03 -0.32816626571E+03 -0.37160971332E+02  0.41695074168E+03  0.10566000000E+00 0.  1.
          4    1    3    3  501    0 -0.38673764082E+03  0.43036587293E+03 -0.32189989927E+03  0.66211806542E+03  0.00000000000E+00 0.  1.
         13    1    1    2    0    0  0.13223052092E+03 -0.10219960721E+03  0.13862767092E+03  0.21713431946E+03  0.10566000000E+00 0. -1.
<mgrwt>
<rscale>  1 0.64778964E+03</rscale>
<asrwt>0</asrwt>
<pdfrwt beam="2">  1       21 0.11666433E+00 0.10175779E+04</pdfrwt>
<pdfrwt beam="1">  1        4 0.82751533E-01 0.10175779E+04</pdfrwt>
<totfact> 0.26887587E+01</totfact>
</mgrwt>
</event>
<event>
 6    1  0.1375310E-005  0.1035049E+04  0.7818608E-02  0.9702580E-01
         21   -1    0    0  501  502  0.00000000000E+00  0.00000000000E+00  0.51954518176E+03  0.51954518176E+03  0.00000000000E+00 0.  1.
          4   -1    0    0  502    0 -0.00000000000E+00 -0.00000000000E+00 -0.97249520995E+03  0.97249520995E+03  0.00000000000E+00 0.  1.
    9000010    2    1    2  501    0  0.10930324939E+03  0.19941709296E+03 -0.58460306326E+02  0.10366981807E+04  0.10097579577E+04 0.  0.
        -13    1    3    3    0    0 -0.19086925973E+03 -0.33175418320E+03 -0.16596964164E+03  0.41717843363E+03  0.10566000000E+00 0.  1.
          4    1    3    3  501    0  0.30017250912E+03  0.53117127615E+03  0.10750933531E+03  0.61951974708E+03  0.00000000000E+00 0.  1.
         13    1    1    2    0    0 -0.10930324939E+03 -0.19941709296E+03 -0.39448972187E+03  0.45534221099E+03  0.10566000000E+00 0. -1.
<mgrwt>
<rscale>  1 0.70863397E+03</rscale>
<asrwt>0</asrwt>
<pdfrwt beam="1">  1       21 0.79930029E-01 0.10350486E+04</pdfrwt>
<pdfrwt beam="2">  1        4 0.14961465E+00 0.10350486E+04</pdfrwt>
<totfact> 0.15663546E+01</totfact>
</mgrwt>
</event>
<event>
 6    1  0.1375310E-005  0.1004458E+04  0.7818608E-02  0.1000902E+00
          4   -1    0    0  502    0 -0.00000000000E+00  0.00000000000E+00  0.91278648306E+03  0.91278648306E+03  0.00000000000E+00 0.  1.
         21   -1    0    0  501  502  0.00000000000E+00 -0.00000000000E+00 -0.36798883220E+03  0.36798883220E+03  0.00000000000E+00 0.  1.
    9000010    2    1    2  501    0 -0.88194663529E+02  0.26150031185E+02  0.34712695619E+03  0.10627481667E+04  0.10002371816E+04 0.  0.
        -13    1    3    3    0    0  0.36978877926E+01  0.11767700724E+03  0.68801752423E+03  0.69801839318E+03  0.10566000000E+00 0.  1.
          4    1    3    3  501    0 -0.91892551322E+02 -0.91526976059E+02 -0.34089056804E+03  0.36472977355E+03  0.00000000000E+00 0.  1.
         13    1    1    2    0    0  0.88194663529E+02 -0.26150031185E+02  0.19767069466E+03  0.21802714854E+03  0.10566000000E+00 0. -1.
<mgrwt>
<rscale>  1 0.55256571E+03</rscale>
<asrwt>0</asrwt>
<pdfrwt beam="2">  1       21 0.56613667E-01 0.10044583E+04</pdfrwt>
<pdfrwt beam="1">  1        4 0.14042869E+00 0.10044583E+04</pdfrwt>
<totfact> 0.40774977E+01</totfact>
</mgrwt>
</event>
<event>
 6    1  0.1375310E-005  0.1165495E+04  0.7818608E-02  0.9293230E-01
          4   -1    0    0  502    0 -0.00000000000E+00  0.00000000000E+00  0.72708086821E+03  0.72708086821E+03  0.00000000000E+00 0.  1.
         21   -1    0    0  501  502  0.00000000000E+00 -0.00000000000E+00 -0.12214182049E+04  0.12214182049E+04  0.00000000000E+00 0.  1.
    9000010    2    1    2  501    0  0.44271129721E+02  0.66651488919E+03 -0.92949141180E+02  0.11691952010E+04  0.95507897307E+03 0.  0.
        -13    1    3    3    0    0 -0.21230667456E+03  0.31231067980E+03 -0.46215659986E+03  0.59682561837E+03  0.10566000000E+00 0.  1.
          4    1    3    3  501    0  0.25657780428E+03  0.35420420939E+03  0.36920745868E+03  0.57236958265E+03  0.00000000000E+00 0.  1.
         13    1    1    2    0    0 -0.44271129721E+02 -0.66651488919E+03 -0.40138819555E+03  0.77930387213E+03  0.10566000000E+00 0. -1.
<mgrwt>
<rscale>  1 0.10140847E+04</rscale>
<asrwt>0</asrwt>
<pdfrwt beam="2">  1       21 0.18791049E+00 0.11654947E+04</pdfrwt>
<pdfrwt beam="1">  1        4 0.11185860E+00 0.11654947E+04</pdfrwt>
<totfact> 0.33866798E+00</totfact>
</mgrwt>
</event>
<event>
 6    1  0.1375310E-005  0.1003131E+04  0.7818608E-02  0.9957757E-01
          4   -1    0    0  502    0 -0.00000000000E+00  0.00000000000E+00  0.90686192024E+03  0.90686192024E+03  0.00000000000E+00 0.  1.
         21   -1    0    0  501  502  0.00000000000E+00 -0.00000000000E+00 -0.37648972187E+03  0.37648972187E+03  0.00000000000E+00 0. -1.
    9000010    2    1    2  501    0 -0.10860295679E+03  0.11117682182E+01  0.33102501870E+03  0.10563381018E+04  0.99723456827E+03 0.  0.
        -13    1    3    3    0    0  0.10818855287E+03 -0.46296349097E+03  0.67171234438E+02  0.48015824771E+03  0.10566000000E+00 0.  1.
          4    1    3    3  501    0 -0.21679150966E+03  0.46407525919E+03  0.26385378426E+03  0.57617985414E+03  0.00000000000E+00 0.  1.
         13    1    1    2    0    0  0.10860295679E+03 -0.11117682182E+01  0.19934717967E+03  0.22701354025E+03  0.10566000000E+00 0. -1.
<mgrwt>
<rscale>  1 0.57541943E+03</rscale>
<asrwt>0</asrwt>
<pdfrwt beam="2">  1       21 0.57921496E-01 0.10031314E+04</pdfrwt>
<pdfrwt beam="1">  1        4 0.13951722E+00 0.10031314E+04</pdfrwt>
<totfact> 0.39442221E+01</totfact>
</mgrwt>
</event>
<event>
 6    1  0.1375310E-005  0.1063456E+04  0.7818608E-02  0.9500738E-01
          4   -1    0    0  502    0 -0.00000000000E+00  0.00000000000E+00  0.12816267266E+04  0.12816267266E+04  0.00000000000E+00 0.  1.
         21   -1    0    0  501  502  0.00000000000E+00 -0.00000000000E+00 -0.44107489879E+03  0.44107489879E+03  0.00000000000E+00 0.  1.
    9000010    2    1    2  501    0 -0.41790243428E+03 -0.22385773923E+02  0.72982560518E+03  0.12897999334E+04  0.97764762910E+03 0.  0.
        -13    1    3    3    0    0  0.73785969615E+02 -0.32196486606E+03  0.62165693781E+03  0.70396243066E+03  0.10566000000E+00 0.  1.
          4    1    3    3  501    0 -0.49168840390E+03  0.29957909214E+03  0.10816866737E+03  0.58583750270E+03  0.00000000000E+00 0.  1.
         13    1    1    2    0    0  0.41790243428E+03  0.22385773923E+02  0.11072622267E+03  0.43290169208E+03  0.10566000000E+00 0. -1.
<mgrwt>
<rscale>  1 0.84229446E+03</rscale>
<asrwt>0</asrwt>
<pdfrwt beam="2">  1       21 0.67857677E-01 0.10634559E+04</pdfrwt>
<pdfrwt beam="1">  1        4 0.19717334E+00 0.10634559E+04</pdfrwt>
<totfact> 0.10414496E+01</totfact>
</mgrwt>
</event>
<event>
 6    1  0.1375310E-005  0.1440881E+04  0.7818608E-02  0.8962773E-01
          4   -1    0    0  502    0 -0.00000000000E+00  0.00000000000E+00  0.72140093604E+03  0.72140093604E+03  0.00000000000E+00 0.  1.
         21   -1    0    0  501  502  0.00000000000E+00 -0.00000000000E+00 -0.26812744957E+04  0.26812744957E+04  0.00000000000E+00 0. -1.
    9000010    2    1    2  501    0  0.10405288536E+04  0.67379225137E+03 -0.15014728751E+04  0.20809994155E+04  0.73446679928E+03 0.  0.
        -13    1    3    3    0    0 -0.72221513442E+02  0.71258224925E+02  0.18603011537E+02  0.10314923570E+03  0.10566000000E+00 0.  1.
          4    1    3    3  501    0  0.11127503670E+04  0.60253402645E+03 -0.15200758867E+04  0.19778501798E+04  0.00000000000E+00 0.  1.
         13    1    1    2    0    0 -0.10405288536E+04 -0.67379225137E+03 -0.45840068450E+03  0.13216760162E+04  0.10566000000E+00 0. -1.
<mgrwt>
<rscale>  1 0.13876967E+04</rscale>
<asrwt>0</asrwt>
<pdfrwt beam="2">  1       21 0.41250377E+00 0.14408809E+04</pdfrwt>
<pdfrwt beam="1">  1        4 0.11098476E+00 0.14408809E+04</pdfrwt>
<totfact> 0.11601858E-01</totfact>
</mgrwt>
</event>
<event>
 6    1  0.1375310E-005  0.1133786E+04  0.7818608E-02  0.9379498E-01
          4   -1    0    0  502    0 -0.00000000000E+00  0.00000000000E+00  0.80164740698E+03  0.80164740698E+03  0.00000000000E+00 0.  1.
         21   -1    0    0  501  502  0.00000000000E+00 -0.00000000000E+00 -0.86407135205E+03  0.86407135205E+03  0.00000000000E+00 0. -1.
    9000010    2    1    2  501    0 -0.47834475474E+03  0.22996077926E+03 -0.45549180816E+02  0.11347004607E+04  0.10018855938E+04 0.  0.
        -13    1    3    3    0    0 -0.16544610906E+02  0.55801707571E+03 -0.94192280517E+02  0.56615278663E+03  0.10566000000E+00 0.  1.
          4    1    3    3  501    0 -0.46180014383E+03 -0.32805629646E+03  0.48643099701E+02  0.56854767402E+03  0.00000000000E+00 0.  1.
         13    1    1    2    0    0  0.47834475474E+03 -0.22996077926E+03 -0.16874764254E+02  0.53101829838E+03  0.10566000000E+00 0. -1.
<mgrwt>
<rscale>  1 0.93782284E+03</rscale>
<asrwt>0</asrwt>
<pdfrwt beam="2">  1       21 0.13293405E+00 0.11337859E+04</pdfrwt>
<pdfrwt beam="1">  1        4 0.12333037E+00 0.11337859E+04</pdfrwt>
<totfact> 0.71755953E+00</totfact>
</mgrwt>
</event>
<event>
 6    1  0.1375310E-005  0.1093742E+04  0.7818608E-02  0.9444787E-01
          4   -1    0    0  502    0 -0.00000000000E+00  0.00000000000E+00  0.99361381253E+03  0.99361381253E+03  0.00000000000E+00 0.  1.
         21   -1    0    0  501  502  0.00000000000E+00 -0.00000000000E+00 -0.61951606467E+03  0.61951606467E+03  0.00000000000E+00 0. -1.
    9000010    2    1    2  501    0 -0.40235912812E+03  0.23983502321E+03  0.33102439192E+03  0.11427374543E+04  0.98836128775E+03 0.  0.
        -13    1    3    3    0    0 -0.72601296976E+03  0.18722037769E+03  0.31846118120E+03  0.81459427765E+03  0.10566000000E+00 0.  1.
          4    1    3    3  501    0  0.32365384164E+03  0.52614645516E+02  0.12563210725E+02  0.32814317667E+03  0.00000000000E+00 0.  1.
         13    1    1    2    0    0  0.40235912812E+03 -0.23983502321E+03  0.43073355936E+02  0.47039242287E+03  0.10566000000E+00 0. -1.
<mgrwt>
<rscale>  1 0.88479817E+03</rscale>
<asrwt>0</asrwt>
<pdfrwt beam="2">  1       21 0.95310164E-01 0.10937421E+04</pdfrwt>
<pdfrwt beam="1">  1        4 0.15286366E+00 0.10937421E+04</pdfrwt>
<totfact> 0.96295329E+00</totfact>
</mgrwt>
</event>
<event>
 6    1  0.1375310E-005  0.9996413E+03  0.7818608E-02  0.9987390E-01
          4   -1    0    0  502    0 -0.00000000000E+00  0.00000000000E+00  0.72718643684E+03  0.72718643684E+03  0.00000000000E+00 0.  1.
         21   -1    0    0  501  502  0.00000000000E+00 -0.00000000000E+00 -0.85261418873E+03  0.85261418873E+03  0.00000000000E+00 0.  1.
    9000010    2    1    2  501    0  0.42703136622E+01  0.99820527073E+02 -0.55183632682E+03  0.11418432565E+04  0.99463577130E+03 0.  0.
        -13    1    3    3    0    0  0.11397368153E+03  0.31425039925E+03  0.17416419140E+03  0.37693035198E+03  0.10566000000E+00 0.  1.
          4    1    3    3  501    0 -0.10970336787E+03 -0.21442987218E+03 -0.72600051822E+03  0.76491290449E+03  0.00000000000E+00 0.  1.
         13    1    1    2    0    0 -0.42703136622E+01 -0.99820527073E+02  0.42640857493E+03  0.43795736909E+03  0.10566000000E+00 0. -1.
<mgrwt>
<rscale>  1 0.56206614E+03</rscale>
<asrwt>0</asrwt>
<pdfrwt beam="2">  1       21 0.13117141E+00 0.99964128E+03</pdfrwt>
<pdfrwt beam="1">  1        4 0.11187484E+00 0.99964128E+03</pdfrwt>
<totfact> 0.96355941E+00</totfact>
</mgrwt>
</event>
<event>
 6    1  0.1375310E-005  0.7659186E+03  0.7818608E-02  0.9897058E-01
          4   -1    0    0  502    0 -0.00000000000E+00  0.00000000000E+00  0.41864622347E+03  0.41864622347E+03  0.00000000000E+00 0.  1.
         21   -1    0    0  501  502  0.00000000000E+00 -0.00000000000E+00 -0.71804663335E+03  0.71804663335E+03  0.00000000000E+00 0.  1.
    9000010    2    1    2  501    0  0.23341926454E+03 -0.18249227978E+03 -0.84274565795E+02  0.77054107792E+03  0.70628844326E+03 0.  0.
        -13    1    3    3    0    0  0.13674392140E+03 -0.14798504673E+03  0.30633991244E+03  0.36666418862E+03  0.10566000000E+00 0.  1.
          4    1    3    3  501    0  0.96675343144E+02 -0.34507233048E+02 -0.39061447824E+03  0.40387688930E+03  0.00000000000E+00 0.  1.
         13    1    1    2    0    0 -0.23341926454E+03  0.18249227978E+03 -0.21512584408E+03  0.36615177890E+03  0.10566000000E+00 0. -1.
<mgrwt>
<rscale>  1 0.60404101E+03</rscale>
<asrwt>0</asrwt>
<pdfrwt beam="2">  1       21 0.11046871E+00 0.76591863E+03</pdfrwt>
<pdfrwt beam="1">  1        4 0.64407111E-01 0.76591863E+03</pdfrwt>
<totfact> 0.55734316E+01</totfact>
</mgrwt>
</event>
<event>
 6    1  0.1375310E-005  0.1051716E+04  0.7818608E-02  0.9592980E-01
          4   -1    0    0  502    0 -0.00000000000E+00  0.00000000000E+00  0.65628226722E+03  0.65628226722E+03  0.00000000000E+00 0.  1.
         21   -1    0    0  501  502  0.00000000000E+00 -0.00000000000E+00 -0.73987224594E+03  0.73987224594E+03  0.00000000000E+00 0.  1.
    9000010    2    1    2  501    0  0.26863264147E+03  0.16321871033E+03 -0.18078163304E+03  0.10671407258E+04  0.10036450998E+04 0.  0.
        -13    1    3    3    0    0  0.23715080669E+03 -0.17067526320E+03  0.33963495738E+03  0.44802060893E+03  0.10566000000E+00 0.  1.
          4    1    3    3  501    0  0.31481834782E+02  0.33389397353E+03 -0.52041659042E+03  0.61912011683E+03  0.00000000000E+00 0.  1.
         13    1    1    2    0    0 -0.26863264147E+03 -0.16321871033E+03  0.97191654324E+02  0.32901378740E+03  0.10566000000E+00 0. -1.
<mgrwt>
<rscale>  1 0.77762589E+03</rscale>
<asrwt>0</asrwt>
<pdfrwt beam="2">  1       21 0.11382650E+00 0.10517164E+04</pdfrwt>
<pdfrwt beam="1">  1        4 0.10096650E+00 0.10517164E+04</pdfrwt>
<totfact> 0.17835857E+01</totfact>
</mgrwt>
</event>
<event>
 6    1  0.1375310E-005  0.1189240E+04  0.7818608E-02  0.9280536E-01
         21   -1    0    0  501  502  0.00000000000E+00  0.00000000000E+00  0.56028216934E+03  0.56028216934E+03  0.00000000000E+00 0. -1.
          4   -1    0    0  502    0 -0.00000000000E+00 -0.00000000000E+00 -0.15852915183E+04  0.15852915183E+04  0.00000000000E+00 0.  1.
    9000010    2    1    2  501    0  0.73969075392E+02  0.65453809297E+03 -0.45108878174E+03  0.12719167939E+04  0.99015135330E+03 0.  0.
        -13    1    3    3    0    0 -0.65874531942E+02  0.71894679743E+03 -0.68281152616E+03  0.99370797668E+03  0.10566000000E+00 0.  1.
          4    1    3    3  501    0  0.13984360733E+03 -0.64408704460E+02  0.23172274442E+03  0.27820881726E+03  0.00000000000E+00 0.  1.
         13    1    1    2    0    0 -0.73969075392E+02 -0.65453809297E+03 -0.57392056723E+03  0.87365689371E+03  0.10566000000E+00 0. -1.
<mgrwt>
<rscale>  1 0.10259465E+04</rscale>
<asrwt>0</asrwt>
<pdfrwt beam="1">  1       21 0.86197258E-01 0.11892398E+04</pdfrwt>
<pdfrwt beam="2">  1        4 0.24389100E+00 0.11892398E+04</pdfrwt>
<totfact> 0.29422858E+00</totfact>
</mgrwt>
</event>
<event>
 6    1  0.1375310E-005  0.1010458E+04  0.7818608E-02  0.9975728E-01
          4   -1    0    0  502    0 -0.00000000000E+00  0.00000000000E+00  0.82838746946E+03  0.82838746946E+03  0.00000000000E+00 0.  1.
         21   -1    0    0  501  502  0.00000000000E+00 -0.00000000000E+00 -0.50294325970E+03  0.50294325970E+03  0.00000000000E+00 0.  1.
    9000010    2    1    2  501    0 -0.51509435430E+02  0.86148804857E+02  0.20901850090E+02  0.10106737496E+04  0.10054599457E+04 0.  0.
        -13    1    3    3    0    0 -0.52726818756E+03  0.12588125271E+02 -0.17710374005E+02  0.52771571041E+03  0.10566000000E+00 0.  1.
          4    1    3    3  501    0  0.47575875213E+03  0.73560679587E+02  0.38612224095E+02  0.48295803923E+03  0.00000000000E+00 0.  1.
         13    1    1    2    0    0  0.51509435430E+02 -0.86148804857E+02  0.30454235967E+03  0.32065697952E+03  0.10566000000E+00 0. -1.
<mgrwt>
<rscale>  1 0.56727467E+03</rscale>
<asrwt>0</asrwt>
<pdfrwt beam="2">  1       21 0.77375886E-01 0.10104576E+04</pdfrwt>
<pdfrwt beam="1">  1        4 0.12744423E+00 0.10104576E+04</pdfrwt>
<totfact> 0.25784523E+01</totfact>
</mgrwt>
</event>
<event>
 6    1  0.1375310E-005  0.1258371E+04  0.7818608E-02  0.9191344E-01
          4   -1    0    0  502    0 -0.00000000000E+00  0.00000000000E+00  0.39128623320E+03  0.39128623320E+03  0.00000000000E+00 0.  1.
         21   -1    0    0  501  502  0.00000000000E+00 -0.00000000000E+00 -0.27706159281E+04  0.27706159281E+04  0.00000000000E+00 0. -1.
    9000010    2    1    2  501    0  0.75124269029E+03  0.18538223281E+03 -0.17955842883E+04  0.21926287928E+04  0.99235373469E+03 0.  0.
        -13    1    3    3    0    0  0.64912110711E+03 -0.33243906617E+03 -0.99262671138E+03  0.12317393165E+04  0.10566000000E+00 0.  1.
          4    1    3    3  501    0  0.10212158317E+03  0.51782129899E+03 -0.80295757696E+03  0.96088947638E+03  0.00000000000E+00 0.  1.
         13    1    1    2    0    0 -0.75124269029E+03 -0.18538223281E+03 -0.58374540655E+03  0.96927336845E+03  0.10566000000E+00 0. -1.
<mgrwt>
<rscale>  1 0.11143219E+04</rscale>
<asrwt>0</asrwt>
<pdfrwt beam="2">  1       21 0.42624861E+00 0.12583712E+04</pdfrwt>
<pdfrwt beam="1">  1        4 0.60197881E-01 0.12583712E+04</pdfrwt>
<totfact> 0.40194020E-01</totfact>
</mgrwt>
</event>
<event>
 6    1  0.1375310E-005  0.1079289E+04  0.7818608E-02  0.9918307E-01
          4   -1    0    0  502    0 -0.00000000000E+00  0.00000000000E+00  0.18939064258E+04  0.18939064258E+04  0.00000000000E+00 0.  1.
         21   -1    0    0  501  502  0.00000000000E+00 -0.00000000000E+00 -0.19326710827E+03  0.19326710827E+03  0.00000000000E+00 0.  1.
    9000010    2    1    2  501    0  0.22774573850E+02 -0.96245668394E+02  0.13818209190E+04  0.17533665654E+04  0.10747480406E+04 0.  0.
        -13    1    3    3    0    0  0.42874741518E+03 -0.34339927628E+03  0.10107694284E+04  0.11503922190E+04  0.10566000000E+00 0.  1.
          4    1    3    3  501    0 -0.40597284133E+03  0.24715360788E+03  0.37105149055E+03  0.60297434641E+03  0.00000000000E+00 0.  1.
         13    1    1    2    0    0 -0.22774573850E+02  0.96245668394E+02  0.31881839852E+03  0.33380696861E+03  0.10566000000E+00 0. -1.
<mgrwt>
<rscale>  1 0.59382217E+03</rscale>
<asrwt>0</asrwt>
<pdfrwt beam="2">  1       21 0.29733403E-01 0.10792892E+04</pdfrwt>
<pdfrwt beam="1">  1        4 0.29137021E+00 0.10792892E+04</pdfrwt>
<totfact> 0.15489115E+01</totfact>
</mgrwt>
</event>
<event>
 6    1  0.1375310E-005  0.1021632E+04  0.7818608E-02  0.9817887E-01
         21   -1    0    0  501  502  0.00000000000E+00  0.00000000000E+00  0.34056856740E+04  0.34056856740E+04  0.00000000000E+00 0.  1.
          4   -1    0    0  502    0 -0.00000000000E+00 -0.00000000000E+00 -0.27358817992E+03  0.27358817992E+03  0.00000000000E+00 0.  1.
    9000010    2    1    2  501    0  0.14502940729E+03 -0.70880613415E+02  0.32951145761E+04  0.34498568306E+04  0.10087985387E+04 0.  0.
        -13    1    3    3    0    0  0.29595749113E+03  0.34330904284E+03  0.24996019543E+04  0.25403664847E+04  0.10566000000E+00 0.  1.
          4    1    3    3  501    0 -0.15092808384E+03 -0.41418965626E+03  0.79551262186E+03  0.90949034596E+03  0.00000000000E+00 0.  1.
         13    1    1    2    0    0 -0.14502940729E+03  0.70880613415E+02 -0.16301708210E+03  0.22941702325E+03  0.10566000000E+00 0. -1.
<mgrwt>
<rscale>  1 0.64411393E+03</rscale>
<asrwt>0</asrwt>
<pdfrwt beam="1">  1       21 0.52395161E+00 0.10216321E+04</pdfrwt>
<pdfrwt beam="2">  1        4 0.42090492E-01 0.10216321E+04</pdfrwt>
<totfact> 0.18513648E-01</totfact>
</mgrwt>
</event>
<event>
 6    1  0.1375310E-005  0.1253240E+04  0.7818608E-02  0.9206078E-01
         21   -1    0    0  501  502  0.00000000000E+00  0.00000000000E+00  0.12038602451E+04  0.12038602451E+04  0.00000000000E+00 0.  1.
          4   -1    0    0  502    0 -0.00000000000E+00 -0.00000000000E+00 -0.24411725012E+04  0.24411725012E+04  0.00000000000E+00 0.  1.
    9000010    2    1    2  501    0 -0.56297584920E+03  0.48236865621E+03  0.79336835934E+03  0.14832545199E+04  0.10104401466E+04 0.  0.
        -13    1    3    3    0    0 -0.50521637565E+03  0.56003638094E+03  0.10014815615E+04  0.12537342874E+04  0.10566000000E+00 0.  1.
          4    1    3    3  501    0 -0.57759473555E+02 -0.77667724734E+02 -0.20811320211E+03  0.22952023254E+03  0.00000000000E+00 0.  1.
         13    1    1    2    0    0  0.56297584920E+03 -0.48236865621E+03 -0.20306806154E+04  0.21617782264E+04  0.10566000000E+00 0. -1.
<mgrwt>
<rscale>  1 0.10990910E+04</rscale>
<asrwt>0</asrwt>
<pdfrwt beam="1">  1       21 0.18520927E+00 0.12532400E+04</pdfrwt>
<pdfrwt beam="2">  1        4 0.37556500E+00 0.12532400E+04</pdfrwt>
<totfact> 0.55042617E-02</totfact>
</mgrwt>
</event>
<event>
 6    1  0.1375310E-005  0.1005105E+04  0.7818608E-02  0.9821418E-01
         21   -1    0    0  501  502  0.00000000000E+00  0.00000000000E+00  0.45044991643E+03  0.45044991643E+03  0.00000000000E+00 0.  1.
          4   -1    0    0  502    0 -0.00000000000E+00 -0.00000000000E+00 -0.10741412389E+04  0.10741412389E+04  0.00000000000E+00 0.  1.
    9000010    2    1    2  501    0  0.12873170723E+03 -0.10727762257E+03 -0.14262403824E+03  0.10151737588E+04  0.99103774073E+03 0.  0.
        -13    1    3    3    0    0  0.45120138777E+03 -0.15891887430E+03  0.22054584853E+03  0.52676216968E+03  0.10566000000E+00 0.  1.
          4    1    3    3  501    0 -0.32246968054E+03  0.51641251734E+02 -0.36316988678E+03  0.48841158914E+03  0.00000000000E+00 0.  1.
         13    1    1    2    0    0 -0.12873170723E+03  0.10727762257E+03 -0.48106728425E+03  0.50941739653E+03  0.10566000000E+00 0. -1.
<mgrwt>
<rscale>  1 0.64225709E+03</rscale>
<asrwt>0</asrwt>
<pdfrwt beam="1">  1       21 0.69299988E-01 0.10051050E+04</pdfrwt>
<pdfrwt beam="2">  1        4 0.16525250E+00 0.10051050E+04</pdfrwt>
<totfact> 0.16668183E+01</totfact>
</mgrwt>
</event>
<event>
 6    1  0.1375310E-005  0.1009549E+04  0.7818608E-02  0.1036726E+00
          4   -1    0    0  502    0 -0.00000000000E+00  0.00000000000E+00  0.22567271000E+03  0.22567271000E+03  0.00000000000E+00 0.  1.
         21   -1    0    0  501  502  0.00000000000E+00 -0.00000000000E+00 -0.13881741701E+04  0.13881741701E+04  0.00000000000E+00 0.  1.
    9000010    2    1    2  501    0 -0.28671882995E+00  0.30543454516E+02 -0.11982397234E+04  0.15668339090E+04  0.10090872505E+04 0.  0.
        -13    1    3    3    0    0 -0.43025852551E+03 -0.20773091160E+03 -0.37243461130E+03  0.60579045986E+03  0.10566000000E+00 0.  1.
          4    1    3    3  501    0  0.42997180668E+03  0.23827436612E+03 -0.82580511206E+03  0.96104344916E+03  0.00000000000E+00 0.  1.
         13    1    1    2    0    0  0.28671882995E+00 -0.30543454516E+02  0.35738263270E+02  0.47012971051E+02  0.10566000000E+00 0. -1.
<mgrwt>
<rscale>  1 0.42104708E+03</rscale>
<asrwt>0</asrwt>
<pdfrwt beam="2">  1       21 0.21356525E+00 0.10095494E+04</pdfrwt>
<pdfrwt beam="1">  1        4 0.34718879E-01 0.10095494E+04</pdfrwt>
<totfact> 0.30461446E+01</totfact>
</mgrwt>
</event>
<event>
 6    1  0.1375310E-005  0.1048124E+04  0.7818608E-02  0.9516845E-01
         21   -1    0    0  501  502  0.00000000000E+00  0.00000000000E+00  0.65558139117E+03  0.65558139117E+03  0.00000000000E+00 0.  1.
          4   -1    0    0  502    0 -0.00000000000E+00 -0.00000000000E+00 -0.81617773435E+03  0.81617773435E+03  0.00000000000E+00 0.  1.
    9000010    2    1    2  501    0 -0.41276375792E+03 -0.19550521198E+02 -0.14630029137E+03  0.10582853888E+04  0.96322793048E+03 0.  0.
        -13    1    3    3    0    0 -0.10719161870E+03 -0.41991754777E+03 -0.30530864858E+03  0.53012656235E+03  0.10566000000E+00 0.  1.
          4    1    3    3  501    0 -0.30557213922E+03  0.40036702658E+03  0.15900835721E+03  0.52815882640E+03  0.00000000000E+00 0.  1.
         13    1    1    2    0    0  0.41276375792E+03  0.19550521198E+02 -0.14296051810E+02  0.41347373677E+03  0.10566000000E+00 0. -1.
<mgrwt>
<rscale>  1 0.83053251E+03</rscale>
<asrwt>0</asrwt>
<pdfrwt beam="1">  1       21 0.10085868E+00 0.10481241E+04</pdfrwt>
<pdfrwt beam="2">  1        4 0.12556581E+00 0.10481241E+04</pdfrwt>
<totfact> 0.14097596E+01</totfact>
</mgrwt>
</event>
<event>
 6    1  0.1375310E-005  0.1037507E+04  0.7818608E-02  0.9627351E-01
         21   -1    0    0  501  502  0.00000000000E+00  0.00000000000E+00  0.11141359933E+04  0.11141359933E+04  0.00000000000E+00 0.  1.
          4   -1    0    0  502    0 -0.00000000000E+00 -0.00000000000E+00 -0.39931887717E+03  0.39931887717E+03  0.00000000000E+00 0.  1.
    9000010    2    1    2  501    0  0.26445179399E+03 -0.12175449477E+03  0.61278757257E+03  0.12049602234E+04  0.99582208377E+03 0.  0.
        -13    1    3    3    0    0 -0.15294080154E+03 -0.41104755532E+03  0.41434280631E+02  0.44053126142E+03  0.10566000000E+00 0.  1.
          4    1    3    3  501    0  0.41739259554E+03  0.28929306056E+03  0.57135329194E+03  0.76442896198E+03  0.00000000000E+00 0.  1.
         13    1    1    2    0    0 -0.26445179399E+03  0.12175449477E+03  0.10202954356E+03  0.30849464706E+03  0.10566000000E+00 0. -1.
<mgrwt>
<rscale>  1 0.75512077E+03</rscale>
<asrwt>0</asrwt>
<pdfrwt beam="1">  1       21 0.17140554E+00 0.10375069E+04</pdfrwt>
<pdfrwt beam="2">  1        4 0.61433674E-01 0.10375069E+04</pdfrwt>
<totfact> 0.18256334E+01</totfact>
</mgrwt>
</event>
<event>
 6    1  0.1375310E-005  0.1092296E+04  0.7818608E-02  0.9537791E-01
         21   -1    0    0  501  502  0.00000000000E+00  0.00000000000E+00  0.11980350429E+04  0.11980350429E+04  0.00000000000E+00 0.  1.
          4   -1    0    0  502    0 -0.00000000000E+00 -0.00000000000E+00 -0.44470037697E+03  0.44470037697E+03  0.00000000000E+00 0.  1.
    9000010    2    1    2  501    0  0.16019495262E+03  0.29925948439E+03  0.70455083854E+03  0.12998089922E+04  0.10382161963E+04 0.  0.
        -13    1    3    3    0    0  0.73769223299E+02 -0.49368960477E+02 -0.25777870360E+03  0.27263357049E+03  0.10566000000E+00 0.  1.
          4    1    3    3  501    0  0.86425729317E+02  0.34862844487E+03  0.96232954215E+03  0.10271754217E+04  0.00000000000E+00 0.  1.
         13    1    1    2    0    0 -0.16019495262E+03 -0.29925948439E+03  0.48783827428E+02  0.34292642771E+03  0.10566000000E+00 0. -1.
<mgrwt>
<rscale>  1 0.81554091E+03</rscale>
<asrwt>0</asrwt>
<pdfrwt beam="1">  1       21 0.18431308E+00 0.10922964E+04</pdfrwt>
<pdfrwt beam="2">  1        4 0.68415443E-01 0.10922964E+04</pdfrwt>
<totfact> 0.11505280E+01</totfact>
</mgrwt>
</event>
<event>
 6    1  0.1375310E-005  0.1046593E+04  0.7818608E-02  0.9661675E-01
          4   -1    0    0  502    0 -0.00000000000E+00  0.00000000000E+00  0.74308410773E+03  0.74308410773E+03  0.00000000000E+00 0.  1.
         21   -1    0    0  501  502  0.00000000000E+00 -0.00000000000E+00 -0.61945240651E+03  0.61945240651E+03  0.00000000000E+00 0.  1.
    9000010    2    1    2  501    0  0.92755353693E+02 -0.23477868670E+03 -0.63172272592E+02  0.10484977855E+04  0.10156930062E+04 0.  0.
        -13    1    3    3    0    0  0.52729476214E+03 -0.13463777116E+03  0.13470684625E+03  0.56063628245E+03  0.10566000000E+00 0.  1.
          4    1    3    3  501    0 -0.43453940845E+03 -0.10014091554E+03 -0.19787911884E+03  0.48786150303E+03  0.00000000000E+00 0.  1.
         13    1    1    2    0    0 -0.92755353693E+02  0.23477868670E+03  0.18680397381E+03  0.31403872876E+03  0.10566000000E+00 0. -1.
<mgrwt>
<rscale>  1 0.73345209E+03</rscale>
<asrwt>0</asrwt>
<pdfrwt beam="2">  1       21 0.95300370E-01 0.10465930E+04</pdfrwt>
<pdfrwt beam="1">  1        4 0.11432063E+00 0.10465930E+04</pdfrwt>
<totfact> 0.20535090E+01</totfact>
</mgrwt>
</event>
<event>
 6    1  0.1375310E-005  0.1141766E+04  0.7818608E-02  0.9364687E-01
          4   -1    0    0  502    0 -0.00000000000E+00  0.00000000000E+00  0.48630836393E+03  0.48630836393E+03  0.00000000000E+00 0.  1.
         21   -1    0    0  501  502  0.00000000000E+00 -0.00000000000E+00 -0.14825510214E+04  0.14825510214E+04  0.00000000000E+00 0.  1.
    9000010    2    1    2  501    0 -0.58341860832E+02  0.54502265809E+03 -0.76249648919E+03  0.13729644677E+04  0.10015872718E+04 0.  0.
        -13    1    3    3    0    0 -0.11896579591E+03  0.27422066485E+01 -0.81605330206E+03  0.82468380806E+03  0.10566000000E+00 0.  1.
          4    1    3    3  501    0  0.60623935081E+02  0.54228045144E+03  0.53556812875E+02  0.54828065963E+03  0.00000000000E+00 0.  1.
         13    1    1    2    0    0  0.58341860832E+02 -0.54502265809E+03 -0.23374616832E+03  0.59589491769E+03  0.10566000000E+00 0. -1.
<mgrwt>
<rscale>  1 0.95039710E+03</rscale>
<asrwt>0</asrwt>
<pdfrwt beam="2">  1       21 0.22808477E+00 0.11417664E+04</pdfrwt>
<pdfrwt beam="1">  1        4 0.74816673E-01 0.11417664E+04</pdfrwt>
<totfact> 0.46964361E+00</totfact>
</mgrwt>
</event>
<event>
 6    1  0.1375310E-005  0.1016417E+04  0.7818608E-02  0.9785945E-01
         21   -1    0    0  501  502  0.00000000000E+00  0.00000000000E+00  0.24789521918E+04  0.24789521918E+04  0.00000000000E+00 0.  1.
          4   -1    0    0  502    0 -0.00000000000E+00 -0.00000000000E+00 -0.15021623579E+03  0.15021623579E+03  0.00000000000E+00 0.  1.
    9000010    2    1    2  501    0 -0.18111849011E+03 -0.18330808451E+02  0.17647245952E+04  0.20365060007E+04  0.99998193378E+03 0.  0.
        -13    1    3    3    0    0 -0.17878985420E+03  0.30269540605E+03  0.13680688328E+03  0.37723527842E+03  0.10566000000E+00 0.  1.
          4    1    3    3  501    0 -0.23286359146E+01 -0.32102621450E+03  0.16279177120E+04  0.16592707223E+04  0.00000000000E+00 0.  1.
         13    1    1    2    0    0  0.18111849011E+03  0.18330808451E+02  0.56401136080E+03  0.59266242691E+03  0.10566000000E+00 0. -1.
<mgrwt>
<rscale>  1 0.66122307E+03</rscale>
<asrwt>0</asrwt>
<pdfrwt beam="1">  1       21 0.38137723E+00 0.10164171E+04</pdfrwt>
<pdfrwt beam="2">  1        4 0.23110192E-01 0.10164171E+04</pdfrwt>
<totfact> 0.58043173E+00</totfact>
</mgrwt>
</event>
<event>
 6    1  0.1375310E-005  0.1036579E+04  0.7818608E-02  0.9630171E-01
          4   -1    0    0  502    0 -0.00000000000E+00  0.00000000000E+00  0.12163893841E+04  0.12163893841E+04  0.00000000000E+00 0.  1.
         21   -1    0    0  501  502  0.00000000000E+00 -0.00000000000E+00 -0.39847122142E+03  0.39847122142E+03  0.00000000000E+00 0.  1.
    9000010    2    1    2  501    0  0.18689213520E+03  0.22060258798E+03  0.40966283666E+03  0.11145940821E+04  0.99544068442E+03 0.  0.
        -13    1    3    3    0    0  0.48029576392E+03 -0.10431184825E+03  0.46093878100E+03  0.67381715140E+03  0.10566000000E+00 0.  1.
          4    1    3    3  501    0 -0.29340362872E+03  0.32491443623E+03 -0.51275944337E+02  0.44077693075E+03  0.00000000000E+00 0.  1.
         13    1    1    2    0    0 -0.18689213520E+03 -0.22060258798E+03  0.40825532604E+03  0.50026652339E+03  0.10566000000E+00 0. -1.
<mgrwt>
<rscale>  1 0.75331022E+03</rscale>
<asrwt>0</asrwt>
<pdfrwt beam="2">  1       21 0.61303265E-01 0.10365791E+04</pdfrwt>
<pdfrwt beam="1">  1        4 0.18713683E+00 0.10365791E+04</pdfrwt>
<totfact> 0.15358318E+01</totfact>
</mgrwt>
</event>
<event>
 6    1  0.1375310E-005  0.1229517E+04  0.7818608E-02  0.9231801E-01
         21   -1    0    0  501  502  0.00000000000E+00  0.00000000000E+00  0.17699968591E+04  0.17699968591E+04  0.00000000000E+00 0. -1.
          4   -1    0    0  502    0 -0.00000000000E+00 -0.00000000000E+00 -0.53723766689E+03  0.53723766689E+03  0.00000000000E+00 0.  1.
    9000010    2    1    2  501    0 -0.69857085293E+03  0.14506409485E+03  0.87502824505E+03  0.15091015359E+04  0.10013332052E+04 0.  0.
        -13    1    3    3    0    0 -0.54856999546E+03 -0.21941426462E+03  0.47771638953E+02  0.59275104394E+03  0.10566000000E+00 0.  1.
          4    1    3    3  501    0 -0.15000085747E+03  0.36447835946E+03  0.82725660609E+03  0.91635049194E+03  0.00000000000E+00 0.  1.
         13    1    1    2    0    0  0.69857085293E+03 -0.14506409485E+03  0.35773094715E+03  0.79813299010E+03  0.10566000000E+00 0. -1.
<mgrwt>
<rscale>  1 0.10731131E+04</rscale>
<asrwt>0</asrwt>
<pdfrwt beam="1">  1       21 0.27230721E+00 0.12295174E+04</pdfrwt>
<pdfrwt beam="2">  1        4 0.82651950E-01 0.12295174E+04</pdfrwt>
<totfact> 0.19216405E+00</totfact>
</mgrwt>
</event>
<event>
 6    1  0.1375310E-005  0.1187509E+04  0.7818608E-02  0.9268269E-01
          4   -1    0    0  502    0 -0.00000000000E+00  0.00000000000E+00  0.22046886686E+04  0.22046886686E+04  0.00000000000E+00 0.  1.
         21   -1    0    0  501  502  0.00000000000E+00 -0.00000000000E+00 -0.41863315030E+03  0.41863315030E+03  0.00000000000E+00 0.  1.
    9000010    2    1    2  501    0 -0.63829982397E+03  0.26751779991E+03  0.85533805466E+03  0.14634824133E+04  0.96497935091E+03 0.  0.
        -13    1    3    3    0    0  0.20804918190E+03  0.55682526336E+02 -0.33550045036E+02  0.21796931553E+03  0.10566000000E+00 0.  1.
          4    1    3    3  501    0 -0.84634900587E+03  0.21183527358E+03  0.88888809970E+03  0.12455130977E+04  0.00000000000E+00 0.  1.
         13    1    1    2    0    0  0.63829982397E+03 -0.26751779991E+03  0.93071746365E+03  0.11598394056E+04  0.10566000000E+00 0. -1.
<mgrwt>
<rscale>  1 0.10375732E+04</rscale>
<asrwt>0</asrwt>
<pdfrwt beam="2">  1       21 0.64405101E-01 0.11875090E+04</pdfrwt>
<pdfrwt beam="1">  1        4 0.33918287E+00 0.11875090E+04</pdfrwt>
<totfact> 0.14742047E+00</totfact>
</mgrwt>
</event>
<event>
 6    1  0.1375310E-005  0.1104095E+04  0.7818608E-02  0.9457459E-01
         21   -1    0    0  501  502  0.00000000000E+00  0.00000000000E+00  0.34242906639E+03  0.34242906639E+03  0.00000000000E+00 0. -1.
          4   -1    0    0  502    0 -0.00000000000E+00 -0.00000000000E+00 -0.17642797439E+04  0.17642797439E+04  0.00000000000E+00 0.  1.
    9000010    2    1    2  501    0 -0.34174780002E+03  0.26979475465E+03 -0.11456729692E+04  0.15910976135E+04  0.10146153434E+04 0.  0.
        -13    1    3    3    0    0 -0.55529306921E+03  0.34102537353E+03 -0.11945555981E+04  0.13607394262E+04  0.10566000000E+00 0.  1.
          4    1    3    3  501    0  0.21354526919E+03 -0.71230618877E+02  0.48882628857E+02  0.23035818732E+03  0.00000000000E+00 0.  1.
         13    1    1    2    0    0  0.34174780002E+03 -0.26979475465E+03 -0.27617770827E+03  0.51561119670E+03  0.10566000000E+00 0. -1.
<mgrwt>
<rscale>  1 0.87494163E+03</rscale>
<asrwt>0</asrwt>
<pdfrwt beam="1">  1       21 0.52681393E-01 0.11040947E+04</pdfrwt>
<pdfrwt beam="2">  1        4 0.27142766E+00 0.11040947E+04</pdfrwt>
<totfact> 0.61818844E+00</totfact>
</mgrwt>
</event>
<event>
 6    1  0.1375310E-005  0.1016023E+04  0.7818608E-02  0.9764362E-01
          4   -1    0    0  502    0 -0.00000000000E+00  0.00000000000E+00  0.71242731682E+03  0.71242731682E+03  0.00000000000E+00 0.  1.
         21   -1    0    0  501  502  0.00000000000E+00 -0.00000000000E+00 -0.71016001084E+03  0.71016001084E+03  0.00000000000E+00 0.  1.
    9000010    2    1    2  501    0 -0.15190619517E+03 -0.12340584167E+03 -0.30275762809E+03  0.10601722128E+04  0.99699470690E+03 0.  0.
        -13    1    3    3    0    0  0.17169423283E+03 -0.42821815128E+03  0.86367533493E+02  0.46937091588E+03  0.10566000000E+00 0.  1.
          4    1    3    3  501    0 -0.32360042800E+03  0.30481230961E+03 -0.38912516158E+03  0.59080129694E+03  0.00000000000E+00 0.  1.
         13    1    1    2    0    0  0.15190619517E+03  0.12340584167E+03  0.30502493407E+03  0.36241511483E+03  0.10566000000E+00 0. -1.
<mgrwt>
<rscale>  1 0.67310671E+03</rscale>
<asrwt>0</asrwt>
<pdfrwt beam="2">  1       21 0.10925539E+00 0.10160231E+04</pdfrwt>
<pdfrwt beam="1">  1        4 0.10960420E+00 0.10160231E+04</pdfrwt>
<totfact> 0.16255209E+01</totfact>
</mgrwt>
</event>
<event>
 6    1  0.1375310E-005  0.9956352E+03  0.7818608E-02  0.9865301E-01
          4   -1    0    0  502    0 -0.00000000000E+00  0.00000000000E+00  0.21482774795E+04  0.21482774795E+04  0.00000000000E+00 0.  1.
         21   -1    0    0  501  502  0.00000000000E+00 -0.00000000000E+00 -0.16275716211E+03  0.16275716211E+03  0.00000000000E+00 0.  1.
    9000010    2    1    2  501    0 -0.68259663817E+02  0.13295416795E+03  0.18823056221E+04  0.21294045864E+04  0.98435422733E+03 0.  0.
        -13    1    3    3    0    0 -0.14291612932E+03 -0.19128613407E+03  0.17581193108E+04  0.17742601070E+04  0.10566000000E+00 0.  1.
          4    1    3    3  501    0  0.74656465502E+02  0.32424030203E+03  0.12418631131E+03  0.35514447935E+03  0.00000000000E+00 0.  1.
         13    1    1    2    0    0  0.68259663817E+02 -0.13295416795E+03  0.10321469525E+03  0.18163005522E+03  0.10566000000E+00 0. -1.
<mgrwt>
<rscale>  1 0.61972841E+03</rscale>
<asrwt>0</asrwt>
<pdfrwt beam="2">  1       21 0.25039565E-01 0.99563519E+03</pdfrwt>
<pdfrwt beam="1">  1        4 0.33050421E+00 0.99563519E+03</pdfrwt>
<totfact> 0.12559417E+01</totfact>
</mgrwt>
</event>
<event>
 6    1  0.1375310E-005  0.1080097E+04  0.7818608E-02  0.9497601E-01
         21   -1    0    0  501  502  0.00000000000E+00  0.00000000000E+00  0.90765705674E+03  0.90765705674E+03  0.00000000000E+00 0.  1.
          4   -1    0    0  502    0 -0.00000000000E+00 -0.00000000000E+00 -0.67435864505E+03  0.67435864505E+03  0.00000000000E+00 0.  1.
    9000010    2    1    2  501    0 -0.31569822160E+03  0.25187571332E+03  0.39066271821E+03  0.11485756503E+04  0.10017494313E+04 0.  0.
        -13    1    3    3    0    0 -0.62511964854E+03 -0.34175253860E+02  0.93614916926E+02  0.63301365452E+03  0.10566000000E+00 0.  1.
          4    1    3    3  501    0  0.30942142694E+03  0.28605096718E+03  0.29704780129E+03  0.51556199581E+03  0.00000000000E+00 0.  1.
         13    1    1    2    0    0  0.31569822160E+03 -0.25187571332E+03 -0.15736430652E+03  0.43344005146E+03  0.10566000000E+00 0. -1.
<mgrwt>
<rscale>  1 0.84460946E+03</rscale>
<asrwt>0</asrwt>
<pdfrwt beam="1">  1       21 0.13963955E+00 0.10800966E+04</pdfrwt>
<pdfrwt beam="2">  1        4 0.10374748E+00 0.10800966E+04</pdfrwt>
<totfact> 0.97084648E+00</totfact>
</mgrwt>
</event>
<event>
 6    1  0.1375310E-005  0.1122153E+04  0.7818608E-02  0.9500518E-01
          4   -1    0    0  502    0 -0.00000000000E+00  0.00000000000E+00  0.75969947680E+03  0.75969947680E+03  0.00000000000E+00 0.  1.
         21   -1    0    0  501  502  0.00000000000E+00 -0.00000000000E+00 -0.72123795607E+03  0.72123795607E+03  0.00000000000E+00 0. -1.
    9000010    2    1    2  501    0  0.30130022843E+03  0.19051151792E+03  0.60467311774E+02  0.11237809796E+04  0.10640258118E+04 0.  0.
        -13    1    3    3    0    0  0.13924607733E+03 -0.41168239900E+03 -0.15886013018E+03  0.46271851035E+03  0.10566000000E+00 0.  1.
          4    1    3    3  501    0  0.16205415110E+03  0.60219391692E+03  0.21932744196E+03  0.66106246925E+03  0.00000000000E+00 0.  1.
         13    1    1    2    0    0 -0.30130022843E+03 -0.19051151792E+03 -0.22005791045E+02  0.35715645327E+03  0.10566000000E+00 0. -1.
<mgrwt>
<rscale>  1 0.84245607E+03</rscale>
<asrwt>0</asrwt>
<pdfrwt beam="2">  1       21 0.11095969E+00 0.11221530E+04</pdfrwt>
<pdfrwt beam="1">  1        4 0.11687684E+00 0.11221530E+04</pdfrwt>
<totfact> 0.13190508E+01</totfact>
</mgrwt>
</event>
<event>
 6    1  0.1375310E-005  0.9671685E+03  0.7818608E-02  0.9860672E-01
          4   -1    0    0  502    0 -0.00000000000E+00  0.00000000000E+00  0.15238041206E+04  0.15238041206E+04  0.00000000000E+00 0.  1.
         21   -1    0    0  501  502  0.00000000000E+00 -0.00000000000E+00 -0.21546533953E+03  0.21546533953E+03  0.00000000000E+00 0.  1.
    9000010    2    1    2  501    0  0.12278614188E+03  0.11097780171E+03  0.10119851849E+04  0.13998317277E+04  0.95290206326E+03 0.  0.
        -13    1    3    3    0    0  0.50739055896E+03  0.14695925396E+02  0.31333196677E+03  0.59652165268E+03  0.10566000000E+00 0.  1.
          4    1    3    3  501    0 -0.38460441708E+03  0.96281876313E+02  0.69865321814E+03  0.80331007498E+03  0.00000000000E+00 0.  1.
         13    1    1    2    0    0 -0.12278614188E+03 -0.11097780171E+03  0.29635359616E+03  0.33943773248E+03  0.10566000000E+00 0. -1.
<mgrwt>
<rscale>  1 0.62205759E+03</rscale>
<asrwt>0</asrwt>
<pdfrwt beam="2">  1       21 0.33148515E-01 0.96716847E+03</pdfrwt>
<pdfrwt beam="1">  1        4 0.23443140E+00 0.96716847E+03</pdfrwt>
<totfact> 0.28275477E+01</totfact>
</mgrwt>
</event>
<event>
 6    1  0.1375310E-005  0.1026889E+04  0.7818608E-02  0.9706192E-01
          4   -1    0    0  502    0 -0.00000000000E+00  0.00000000000E+00  0.10928904822E+04  0.10928904822E+04  0.00000000000E+00 0.  1.
         21   -1    0    0  501  502  0.00000000000E+00 -0.00000000000E+00 -0.38433225791E+03  0.38433225791E+03  0.00000000000E+00 0.  1.
    9000010    2    1    2  501    0  0.17320282001E+03 -0.15143728777E+03  0.42321535397E+03  0.11106807455E+04  0.10007836997E+04 0.  0.
        -13    1    3    3    0    0  0.24481796671E+03  0.29021296683E+03 -0.12805196863E+03  0.40069529667E+03  0.10566000000E+00 0.  1.
          4    1    3    3  501    0 -0.71615146695E+02 -0.44165025460E+03  0.55126732260E+03  0.70998544886E+03  0.00000000000E+00 0.  1.
         13    1    1    2    0    0 -0.17320282001E+03  0.15143728777E+03  0.28534287036E+03  0.36654199462E+03  0.10566000000E+00 0. -1.
<mgrwt>
<rscale>  1 0.70649294E+03</rscale>
<asrwt>0</asrwt>
<pdfrwt beam="2">  1       21 0.59128040E-01 0.10268887E+04</pdfrwt>
<pdfrwt beam="1">  1        4 0.16813700E+00 0.10268887E+04</pdfrwt>
<totfact> 0.22669524E+01</totfact>
</mgrwt>
</event>
<event>
 6    1  0.1375310E-005  0.1022814E+04  0.7818608E-02  0.9737816E-01
         21   -1    0    0  501  502  0.00000000000E+00  0.00000000000E+00  0.25258790940E+03  0.25258790940E+03  0.00000000000E+00 0.  1.
          4   -1    0    0  502    0 -0.00000000000E+00 -0.00000000000E+00 -0.15291528026E+04  0.15291528026E+04  0.00000000000E+00 0.  1.
    9000010    2    1    2  501    0  0.10793495035E+03 -0.17956261239E+03 -0.96433209581E+03  0.14057327118E+04  0.10011270553E+04 0.  0.
        -13    1    3    3    0    0  0.13628465803E+03 -0.36436674773E+03 -0.11051816002E+04  0.11716496982E+04  0.10566000000E+00 0.  1.
          4    1    3    3  501    0 -0.28349707682E+02  0.18480413534E+03  0.14084950436E+03  0.23408301357E+03  0.00000000000E+00 0.  1.
         13    1    1    2    0    0 -0.10793495035E+03  0.17956261239E+03 -0.31223279735E+03  0.37600800015E+03  0.10566000000E+00 0. -1.
<mgrwt>
<rscale>  1 0.68809193E+03</rscale>
<asrwt>0</asrwt>
<pdfrwt beam="1">  1       21 0.38859679E-01 0.10228138E+04</pdfrwt>
<pdfrwt beam="2">  1        4 0.23525427E+00 0.10228138E+04</pdfrwt>
<totfact> 0.20014878E+01</totfact>
</mgrwt>
</event>
<event>
 6    1  0.1375310E-005  0.1019746E+04  0.7818608E-02  0.9769633E-01
          4   -1    0    0  502    0 -0.00000000000E+00  0.00000000000E+00  0.25394139306E+04  0.25394139306E+04  0.00000000000E+00 0.  1.
         21   -1    0    0  501  502  0.00000000000E+00 -0.00000000000E+00 -0.16981452318E+03  0.16981452318E+03  0.00000000000E+00 0.  1.
    9000010    2    1    2  501    0 -0.14583556425E+03  0.12215176427E+03  0.14657895697E+04  0.17856152776E+04  0.10018451934E+04 0.  0.
        -13    1    3    3    0    0  0.18277314514E+03 -0.31257468138E+03  0.21461400025E+03  0.42091345226E+03  0.10566000000E+00 0.  1.
          4    1    3    3  501    0 -0.32860870939E+03  0.43472644566E+03  0.12511755695E+04  0.13647018253E+04  0.00000000000E+00 0.  1.
         13    1    1    2    0    0  0.14583556425E+03 -0.12215176427E+03  0.90380983766E+03  0.92361317613E+03  0.10566000000E+00 0. -1.
<mgrwt>
<rscale>  1 0.67017982E+03</rscale>
<asrwt>0</asrwt>
<pdfrwt beam="2">  1       21 0.26125313E-01 0.10197465E+04</pdfrwt>
<pdfrwt beam="1">  1        4 0.39067904E+00 0.10197465E+04</pdfrwt>
<totfact> 0.46333576E+00</totfact>
</mgrwt>
</event>
<event>
 6    1  0.1375310E-005  0.1009748E+04  0.7818608E-02  0.9781999E-01
         21   -1    0    0  501  502  0.00000000000E+00  0.00000000000E+00  0.92383298973E+03  0.92383298973E+03  0.00000000000E+00 0.  1.
          4   -1    0    0  502    0 -0.00000000000E+00 -0.00000000000E+00 -0.62092500099E+03  0.62092500099E+03  0.00000000000E+00 0.  1.
    9000010    2    1    2  501    0 -0.12850690187E+03  0.13736571260E+03  0.61359605001E+03  0.11815632146E+04  0.99207265594E+03 0.  0.
        -13    1    3    3    0    0 -0.19043163140E+03  0.41572205796E+03 -0.49321348530E+02  0.45991482069E+03  0.10566000000E+00 0.  1.
          4    1    3    3  501    0  0.61924729524E+02 -0.27835634536E+03  0.66291739854E+03  0.72164839390E+03  0.00000000000E+00 0.  1.
         13    1    1    2    0    0  0.12850690187E+03 -0.13736571260E+03 -0.31068806127E+03  0.36319477613E+03  0.10566000000E+00 0. -1.
<mgrwt>
<rscale>  1 0.66337597E+03</rscale>
<asrwt>0</asrwt>
<pdfrwt beam="1">  1       21 0.14212815E+00 0.10097482E+04</pdfrwt>
<pdfrwt beam="2">  1        4 0.95526923E-01 0.10097482E+04</pdfrwt>
<totfact> 0.11377877E+01</totfact>
</mgrwt>
</event>
<event>
 6    1  0.1375310E-005  0.1089771E+04  0.7818608E-02  0.9485866E-01
          4   -1    0    0  502    0 -0.00000000000E+00  0.00000000000E+00  0.42441944661E+03  0.42441944661E+03  0.00000000000E+00 0.  1.
         21   -1    0    0  501  502  0.00000000000E+00 -0.00000000000E+00 -0.14304865101E+04  0.14304865101E+04  0.00000000000E+00 0.  1.
    9000010    2    1    2  501    0  0.25827378549E+03 -0.31805735808E+03 -0.94147659126E+03  0.14401315945E+04  0.10098192939E+04 0.  0.
        -13    1    3    3    0    0 -0.15497627225E+03  0.24968188858E+03 -0.58032740714E+03  0.65049104612E+03  0.10566000000E+00 0.  1.
          4    1    3    3  501    0  0.41325005774E+03 -0.56773924666E+03 -0.36114918412E+03  0.78964054836E+03  0.00000000000E+00 0.  1.
         13    1    1    2    0    0 -0.25827378549E+03  0.31805735808E+03 -0.64590472238E+02  0.41477436223E+03  0.10566000000E+00 0. -1.
<mgrwt>
<rscale>  1 0.85333926E+03</rscale>
<asrwt>0</asrwt>
<pdfrwt beam="2">  1       21 0.22007485E+00 0.10897710E+04</pdfrwt>
<pdfrwt beam="1">  1        4 0.65295300E-01 0.10897710E+04</pdfrwt>
<totfact> 0.72465970E+00</totfact>
</mgrwt>
</event>
<event>
 6    1  0.1375310E-005  0.1154127E+04  0.7818608E-02  0.9348719E-01
          4   -1    0    0  502    0 -0.00000000000E+00  0.00000000000E+00  0.17009263182E+04  0.17009263182E+04  0.00000000000E+00 0.  1.
         21   -1    0    0  501  502  0.00000000000E+00 -0.00000000000E+00 -0.65995755872E+03  0.65995755872E+03  0.00000000000E+00 0.  1.
    9000010    2    1    2  501    0 -0.53119770719E+03  0.18409769393E+03 -0.26489174870E+02  0.11544306380E+04  0.10079411969E+04 0.  0.
        -13    1    3    3    0    0 -0.48375735335E+03  0.57416442718E+03 -0.90802578908E+02  0.75626125503E+03  0.10566000000E+00 0.  1.
          4    1    3    3  501    0 -0.47440353835E+02 -0.39006673324E+03  0.64313404038E+02  0.39816938292E+03  0.00000000000E+00 0.  1.
         13    1    1    2    0    0  0.53119770719E+03 -0.18409769393E+03  0.10674579344E+04  0.12064532390E+04  0.10566000000E+00 0. -1.
<mgrwt>
<rscale>  1 0.96418821E+03</rscale>
<asrwt>0</asrwt>
<pdfrwt beam="2">  1       21 0.10153193E+00 0.11541267E+04</pdfrwt>
<pdfrwt beam="1">  1        4 0.26168097E+00 0.11541267E+04</pdfrwt>
<totfact> 0.15355021E+00</totfact>
</mgrwt>
</event>
<event>
 6    1  0.1375310E-005  0.9936291E+03  0.7818608E-02  0.9894213E-01
          4   -1    0    0  502    0 -0.00000000000E+00  0.00000000000E+00  0.29722030202E+03  0.29722030202E+03  0.00000000000E+00 0.  1.
         21   -1    0    0  501  502  0.00000000000E+00 -0.00000000000E+00 -0.10973948394E+04  0.10973948394E+04  0.00000000000E+00 0.  1.
    9000010    2    1    2  501    0 -0.36116879322E+02 -0.13210448399E+03 -0.63141912351E+03  0.11772803202E+04  0.98414573060E+03 0.  0.
        -13    1    3    3    0    0 -0.22811681960E+03  0.36825715071E+03 -0.15463388316E+03  0.45995897798E+03  0.10566000000E+00 0.  1.
          4    1    3    3  501    0  0.19199994028E+03 -0.50036163470E+03 -0.47678524035E+03  0.71732134219E+03  0.00000000000E+00 0.  1.
         13    1    1    2    0    0  0.36116879322E+02  0.13210448399E+03 -0.16875541389E+03  0.21733482129E+03  0.10566000000E+00 0. -1.
<mgrwt>
<rscale>  1 0.60542579E+03</rscale>
<asrwt>0</asrwt>
<pdfrwt beam="2">  1       21 0.16882997E+00 0.99362913E+03</pdfrwt>
<pdfrwt beam="1">  1        4 0.45726201E-01 0.99362913E+03</pdfrwt>
<totfact> 0.35999286E+01</totfact>
</mgrwt>
</event>
<event>
 6    1  0.1375310E-005  0.9982013E+03  0.7818608E-02  0.1001043E+00
         21   -1    0    0  501  502  0.00000000000E+00  0.00000000000E+00  0.50920472600E+03  0.50920472600E+03  0.00000000000E+00 0.  1.
          4   -1    0    0  502    0 -0.00000000000E+00 -0.00000000000E+00 -0.91422273308E+03  0.91422273308E+03  0.00000000000E+00 0.  1.
    9000010    2    1    2  501    0  0.47941897950E+02  0.80057884244E+02  0.97936648411E+01  0.99824934966E+03  0.99383004473E+03 0.  0.
        -13    1    3    3    0    0 -0.44654300220E+03 -0.89446438858E+02 -0.94754782782E+02  0.46516641997E+03  0.10566000000E+00 0.  1.
          4    1    3    3  501    0  0.49448490015E+03  0.16950432310E+03  0.10454844762E+03  0.53308292969E+03  0.00000000000E+00 0.  1.
         13    1    1    2    0    0 -0.47941897950E+02 -0.80057884244E+02 -0.41481167192E+03  0.42517810942E+03  0.10566000000E+00 0. -1.
<mgrwt>
<rscale>  1 0.55195229E+03</rscale>
<asrwt>0</asrwt>
<pdfrwt beam="1">  1       21 0.78339189E-01 0.99820131E+03</pdfrwt>
<pdfrwt beam="2">  1        4 0.14064965E+00 0.99820131E+03</pdfrwt>
<totfact> 0.19425071E+01</totfact>
</mgrwt>
</event>
<event>
 6    1  0.1375310E-005  0.1000036E+04  0.7818608E-02  0.9905931E-01
          4   -1    0    0  502    0 -0.00000000000E+00  0.00000000000E+00  0.28167028126E+03  0.28167028126E+03  0.00000000000E+00 0.  1.
         21   -1    0    0  501  502  0.00000000000E+00 -0.00000000000E+00 -0.12699447436E+04  0.12699447436E+04  0.00000000000E+00 0.  1.
    9000010    2    1    2  501    0 -0.12926053992E+03 -0.52643029962E+01 -0.10089778084E+04  0.14206011334E+04  0.99163267511E+03 0.  0.
        -13    1    3    3    0    0 -0.12446443395E+03 -0.44674903071E+03 -0.21292055164E+03  0.51030506978E+03  0.10566000000E+00 0.  1.
          4    1    3    3  501    0 -0.47961059699E+01  0.44148472772E+03 -0.79605725674E+03  0.91029606363E+03  0.00000000000E+00 0.  1.
         13    1    1    2    0    0  0.12926053992E+03  0.52643029962E+01  0.20703346004E+02  0.13101389150E+03  0.10566000000E+00 0. -1.
<mgrwt>
<rscale>  1 0.59974704E+03</rscale>
<asrwt>0</asrwt>
<pdfrwt beam="2">  1       21 0.19537611E+00 0.10000357E+04</pdfrwt>
<pdfrwt beam="1">  1        4 0.43333890E-01 0.10000357E+04</pdfrwt>
<totfact> 0.25870668E+01</totfact>
</mgrwt>
</event>
<event>
 6    1  0.1375310E-005  0.1039413E+04  0.7818608E-02  0.9705534E-01
          4   -1    0    0  502    0 -0.00000000000E+00  0.00000000000E+00  0.75036467352E+03  0.75036467352E+03  0.00000000000E+00 0.  1.
         21   -1    0    0  501  502  0.00000000000E+00 -0.00000000000E+00 -0.55436199253E+03  0.55436199253E+03  0.00000000000E+00 0.  1.
    9000010    2    1    2  501    0  0.22064957379E+03  0.27394873970E+02  0.26363221941E+03  0.10723251188E+04  0.10153533866E+04 0.  0.
        -13    1    3    3    0    0 -0.29855491769E+03 -0.82087222650E+02 -0.19923072410E+03  0.36819321502E+03  0.10566000000E+00 0.  1.
          4    1    3    3  501    0  0.51920449148E+03  0.10948209662E+03  0.46286294351E+03  0.70413190378E+03  0.00000000000E+00 0.  1.
         13    1    1    2    0    0 -0.22064957379E+03 -0.27394873970E+02 -0.67629538422E+02  0.23240154725E+03  0.10566000000E+00 0. -1.
<mgrwt>
<rscale>  1 0.70688269E+03</rscale>
<asrwt>0</asrwt>
<pdfrwt beam="2">  1       21 0.85286461E-01 0.10394129E+04</pdfrwt>
<pdfrwt beam="1">  1        4 0.11544072E+00 0.10394129E+04</pdfrwt>
<totfact> 0.26233258E+01</totfact>
</mgrwt>
</event>
<event>
 6    1  0.1375310E-005  0.1011043E+04  0.7818608E-02  0.9866470E-01
         21   -1    0    0  501  502  0.00000000000E+00  0.00000000000E+00  0.10598554469E+04  0.10598554469E+04  0.00000000000E+00 0.  1.
          4   -1    0    0  502    0 -0.00000000000E+00 -0.00000000000E+00 -0.38411631908E+03  0.38411631908E+03  0.00000000000E+00 0.  1.
    9000010    2    1    2  501    0 -0.83312271361E+02  0.11521867112E+03  0.77215880241E+03  0.12721781643E+04  0.10009953991E+04 0.  0.
        -13    1    3    3    0    0  0.44404319124E+03 -0.36865949126E+01  0.49390180405E+03  0.66417388527E+03  0.10566000000E+00 0.  1.
          4    1    3    3  501    0 -0.52735546260E+03  0.11890526603E+03  0.27825699836E+03  0.60800427907E+03  0.00000000000E+00 0.  1.
         13    1    1    2    0    0  0.83312271361E+02 -0.11521867112E+03 -0.96419674629E+02  0.17179360161E+03  0.10566000000E+00 0. -1.
<mgrwt>
<rscale>  1 0.61914150E+03</rscale>
<asrwt>0</asrwt>
<pdfrwt beam="1">  1       21 0.16305468E+00 0.10110431E+04</pdfrwt>
<pdfrwt beam="2">  1        4 0.59094819E-01 0.10110431E+04</pdfrwt>
<totfact> 0.23045310E+01</totfact>
</mgrwt>
</event>
<event>
 6    1  0.1375310E-005  0.1057928E+04  0.7818608E-02  0.9627060E-01
         21   -1    0    0  501  502  0.00000000000E+00  0.00000000000E+00  0.25283226129E+04  0.25283226129E+04  0.00000000000E+00 0.  1.
          4   -1    0    0  502    0 -0.00000000000E+00 -0.00000000000E+00 -0.18128735802E+03  0.18128735802E+03  0.00000000000E+00 0.  1.
    9000010    2    1    2  501    0 -0.27005069689E+03 -0.51245988920E+02  0.16465464817E+04  0.19571220555E+04  0.10215957584E+04 0.  0.
        -13    1    3    3    0    0 -0.46438094001E+03 -0.15795834233E+03  0.16639460949E+04  0.17347383414E+04  0.10566000000E+00 0.  1.
          4    1    3    3  501    0  0.19433024313E+03  0.10671235341E+03 -0.17399613204E+02  0.22238371411E+03  0.00000000000E+00 0.  1.
         13    1    1    2    0    0  0.27005069689E+03  0.51245988920E+02  0.70048877324E+03  0.75248791543E+03  0.10566000000E+00 0. -1.
<mgrwt>
<rscale>  1 0.75530778E+03</rscale>
<asrwt>0</asrwt>
<pdfrwt beam="1">  1       21 0.38897268E+00 0.10579279E+04</pdfrwt>
<pdfrwt beam="2">  1        4 0.27890365E-01 0.10579279E+04</pdfrwt>
<totfact> 0.35843701E+00</totfact>
</mgrwt>
</event>
<event>
 6    1  0.1375310E-005  0.1072236E+04  0.7818608E-02  0.9504712E-01
         21   -1    0    0  501  502  0.00000000000E+00  0.00000000000E+00  0.13801174337E+04  0.13801174337E+04  0.00000000000E+00 0.  1.
          4   -1    0    0  502    0 -0.00000000000E+00 -0.00000000000E+00 -0.64239468941E+03  0.64239468941E+03  0.00000000000E+00 0.  1.
    9000010    2    1    2  501    0  0.26190866659E+03  0.30585447580E+03  0.10592552024E+04  0.15072197374E+04  0.99375381418E+03 0.  0.
        -13    1    3    3    0    0  0.12103711397E+03  0.56963382687E+03  0.23075359057E+03  0.62640235504E+03  0.10566000000E+00 0.  1.
          4    1    3    3  501    0  0.14087155262E+03 -0.26377935108E+03  0.82850161179E+03  0.88081738239E+03  0.00000000000E+00 0.  1.
         13    1    1    2    0    0 -0.26190866659E+03 -0.30585447580E+03 -0.32153245805E+03  0.51529238568E+03  0.10566000000E+00 0. -1.
<mgrwt>
<rscale>  1 0.83937313E+03</rscale>
<asrwt>0</asrwt>
<pdfrwt beam="1">  1       21 0.21232576E+00 0.10722359E+04</pdfrwt>
<pdfrwt beam="2">  1        4 0.98829953E-01 0.10722359E+04</pdfrwt>
<totfact> 0.31485610E+00</totfact>
</mgrwt>
</event>
<event>
 6    1  0.1375310E-005  0.1018082E+04  0.7818608E-02  0.9747220E-01
         21   -1    0    0  501  502  0.00000000000E+00  0.00000000000E+00  0.29845438634E+04  0.29845438634E+04  0.00000000000E+00 0.  1.
          4   -1    0    0  502    0 -0.00000000000E+00 -0.00000000000E+00 -0.22876302546E+03  0.22876302546E+03  0.00000000000E+00 0.  1.
    9000010    2    1    2  501    0  0.21726249370E+02 -0.20475351119E+03  0.28195746716E+04  0.29977478607E+04  0.99704306682E+03 0.  0.
        -13    1    3    3    0    0  0.27788028988E+02 -0.45636097165E+03  0.26616278296E+04  0.27006110837E+04  0.10566000000E+00 0.  1.
          4    1    3    3  501    0 -0.60617796186E+01  0.25160746046E+03  0.15794684206E+03  0.29713677700E+03  0.00000000000E+00 0.  1.
         13    1    1    2    0    0 -0.21726249370E+02  0.20475351119E+03 -0.63793833675E+02  0.21555902819E+03  0.10566000000E+00 0. -1.
<mgrwt>
<rscale>  1 0.68273588E+03</rscale>
<asrwt>0</asrwt>
<pdfrwt beam="1">  1       21 0.45916057E+00 0.10180820E+04</pdfrwt>
<pdfrwt beam="2">  1        4 0.35194314E-01 0.10180820E+04</pdfrwt>
<totfact> 0.77266684E-01</totfact>
</mgrwt>
</event>
<event>
 6    1  0.1375310E-005  0.9871903E+03  0.7818608E-02  0.9852716E-01
          4   -1    0    0  502    0 -0.00000000000E+00  0.00000000000E+00  0.57207818723E+03  0.57207818723E+03  0.00000000000E+00 0.  1.
         21   -1    0    0  501  502  0.00000000000E+00 -0.00000000000E+00 -0.57501595186E+03  0.57501595186E+03  0.00000000000E+00 0. -1.
    9000010    2    1    2  501    0  0.75255902117E+02  0.14086900389E+03 -0.97444784302E+01  0.98723836166E+03  0.97418535239E+03 0.  0.
        -13    1    3    3    0    0  0.33413607905E+03 -0.11221327303E+03  0.33575736312E+03  0.48679744866E+03  0.10566000000E+00 0.  1.
          4    1    3    3  501    0 -0.25888017693E+03  0.25308227692E+03 -0.34550184155E+03  0.50044091301E+03  0.00000000000E+00 0.  1.
         13    1    1    2    0    0 -0.75255902117E+02 -0.14086900389E+03  0.68067137974E+01  0.15985577743E+03  0.10566000000E+00 0. -1.
<mgrwt>
<rscale>  1 0.62608632E+03</rscale>
<asrwt>0</asrwt>
<pdfrwt beam="2">  1       21 0.88463992E-01 0.98719027E+03</pdfrwt>
<pdfrwt beam="1">  1        4 0.88012029E-01 0.98719027E+03</pdfrwt>
<totfact> 0.46484014E+01</totfact>
</mgrwt>
</event>
<event>
 6    1  0.1375310E-005  0.1011960E+04  0.7818608E-02  0.9568044E-01
          4   -1    0    0  502    0 -0.00000000000E+00  0.00000000000E+00  0.59827109041E+03  0.59827109041E+03  0.00000000000E+00 0.  1.
         21   -1    0    0  501  502  0.00000000000E+00 -0.00000000000E+00 -0.81720138888E+03  0.81720138888E+03  0.00000000000E+00 0.  1.
    9000010    2    1    2  501    0 -0.32343928746E+03  0.20781626457E+03 -0.12443975368E+03  0.10195822840E+04  0.93608878271E+03 0.  0.
        -13    1    3    3    0    0  0.15443116264E+03  0.44301551879E+03  0.13642846093E+02  0.46935900151E+03  0.10566000000E+00 0.  1.
          4    1    3    3  501    0 -0.47787045010E+03 -0.23519925422E+03 -0.13808259977E+03  0.55022328252E+03  0.00000000000E+00 0.  1.
         13    1    1    2    0    0  0.32343928746E+03 -0.20781626457E+03 -0.94490544793E+02  0.39589019527E+03  0.10566000000E+00 0. -1.
<mgrwt>
<rscale>  1 0.79447830E+03</rscale>
<asrwt>0</asrwt>
<pdfrwt beam="2">  1       21 0.12572329E+00 0.10119599E+04</pdfrwt>
<pdfrwt beam="1">  1        4 0.92041706E-01 0.10119599E+04</pdfrwt>
<totfact> 0.17262389E+01</totfact>
</mgrwt>
</event>
<event>
 6    1  0.1375310E-005  0.1058994E+04  0.7818608E-02  0.9546043E-01
         21   -1    0    0  501  502  0.00000000000E+00  0.00000000000E+00  0.85155144103E+03  0.85155144103E+03  0.00000000000E+00 0.  1.
          4   -1    0    0  502    0 -0.00000000000E+00 -0.00000000000E+00 -0.59551696445E+03  0.59551696445E+03  0.00000000000E+00 0.  1.
    9000010    2    1    2  501    0 -0.14461505670E+03  0.33182918992E+03  0.23326747262E+03  0.10843805596E+04  0.99521020814E+03 0.  0.
        -13    1    3    3    0    0 -0.12596189109E+03  0.25881544937E+03  0.62360789553E+03  0.68683233279E+03  0.10566000000E+00 0.  1.
          4    1    3    3  501    0 -0.18653165608E+02  0.73013740551E+02 -0.39034042290E+03  0.39754822682E+03  0.00000000000E+00 0.  1.
         13    1    1    2    0    0  0.14461505670E+03 -0.33182918992E+03  0.22767003958E+02  0.36268784587E+03  0.10566000000E+00 0. -1.
<mgrwt>
<rscale>  1 0.80972756E+03</rscale>
<asrwt>0</asrwt>
<pdfrwt beam="1">  1       21 0.13100791E+00 0.10589936E+04</pdfrwt>
<pdfrwt beam="2">  1        4 0.91617994E-01 0.10589936E+04</pdfrwt>
<totfact> 0.15571603E+01</totfact>
</mgrwt>
</event>
<event>
 6    1  0.1375310E-005  0.1054724E+04  0.7818608E-02  0.9563141E-01
          4   -1    0    0  502    0 -0.00000000000E+00  0.00000000000E+00  0.44954406310E+03  0.44954406310E+03  0.00000000000E+00 0.  1.
         21   -1    0    0  501  502  0.00000000000E+00 -0.00000000000E+00 -0.11102003647E+04  0.11102003647E+04  0.00000000000E+00 0.  1.
    9000010    2    1    2  501    0 -0.34063645175E+03  0.56854029650E+02 -0.58540367611E+03  0.12062921089E+04  0.99658296944E+03 0.  0.
        -13    1    3    3    0    0 -0.17585377184E+03  0.43632884328E+03  0.22496740767E+02  0.47097083037E+03  0.10566000000E+00 0.  1.
          4    1    3    3  501    0 -0.16478267991E+03 -0.37947481363E+03 -0.60790041688E+03  0.73532127851E+03  0.00000000000E+00 0.  1.
         13    1    1    2    0    0  0.34063645175E+03 -0.56854029650E+02 -0.75252625473E+02  0.35345231892E+03  0.10566000000E+00 0. -1.
<mgrwt>
<rscale>  1 0.79784510E+03</rscale>
<asrwt>0</asrwt>
<pdfrwt beam="2">  1       21 0.17080006E+00 0.10547242E+04</pdfrwt>
<pdfrwt beam="1">  1        4 0.69160625E-01 0.10547242E+04</pdfrwt>
<totfact> 0.14166683E+01</totfact>
</mgrwt>
</event>
<event>
 6    1  0.1375310E-005  0.1106291E+04  0.7818608E-02  0.9413435E-01
         21   -1    0    0  501  502  0.00000000000E+00  0.00000000000E+00  0.19218095939E+04  0.19218095939E+04  0.00000000000E+00 0.  1.
          4   -1    0    0  502    0 -0.00000000000E+00 -0.00000000000E+00 -0.34088739024E+03  0.34088739024E+03  0.00000000000E+00 0.  1.
    9000010    2    1    2  501    0  0.50558194603E+03  0.20310736128E+02  0.98827700927E+03  0.14834319665E+04  0.98379536592E+03 0.  0.
        -13    1    3    3    0    0  0.68253670194E+03  0.18513605042E+03  0.10182611996E+04  0.12397530352E+04  0.10566000000E+00 0.  1.
          4    1    3    3  501    0 -0.17695475592E+03 -0.16482531429E+03 -0.29984190294E+02  0.24367893126E+03  0.00000000000E+00 0.  1.
         13    1    1    2    0    0 -0.50558194603E+03 -0.20310736128E+02  0.59264519441E+03  0.77926501767E+03  0.10566000000E+00 0. -1.
<mgrwt>
<rscale>  1 0.90978215E+03</rscale>
<asrwt>0</asrwt>
<pdfrwt beam="1">  1       21 0.29566301E+00 0.11062906E+04</pdfrwt>
<pdfrwt beam="2">  1        4 0.52444215E-01 0.11062906E+04</pdfrwt>
<totfact> 0.38414586E+00</totfact>
</mgrwt>
</event>
<event>
 6    1  0.1375310E-005  0.2008165E+04  0.7818608E-02  0.8642262E-01
          4   -1    0    0  502    0 -0.00000000000E+00  0.00000000000E+00  0.23128855689E+04  0.23128855689E+04  0.00000000000E+00 0.  1.
         21   -1    0    0  501  502  0.00000000000E+00 -0.00000000000E+00 -0.16825739250E+04  0.16825739250E+04  0.00000000000E+00 0. -1.
    9000010    2    1    2  501    0 -0.11506948694E+04 -0.12478254395E+04 -0.34533479969E+03  0.20376410641E+04  0.10731066920E+04 0.  0.
        -13    1    3    3    0    0 -0.77474274729E+03 -0.10537037691E+04  0.22542766584E+03  0.13271531943E+04  0.10566000000E+00 0.  1.
          4    1    3    3  501    0 -0.37595212209E+03 -0.19412167037E+03 -0.57076246554E+03  0.71048786976E+03  0.00000000000E+00 0.  1.
         13    1    1    2    0    0  0.11506948694E+04  0.12478254395E+04  0.97564644361E+03  0.19578184298E+04  0.10566000000E+00 0. -1.
<mgrwt>
<rscale>  1 0.19255089E+04</rscale>
<asrwt>0</asrwt>
<pdfrwt beam="2">  1       21 0.25885753E+00 0.20081646E+04</pdfrwt>
<pdfrwt beam="1">  1        4 0.35582855E+00 0.20081646E+04</pdfrwt>
<totfact> 0.21019655E-02</totfact>
</mgrwt>
</event>
<event>
 6    1  0.1375310E-005  0.1024855E+04  0.7818608E-02  0.9715933E-01
         21   -1    0    0  501  502  0.00000000000E+00  0.00000000000E+00  0.78271483726E+03  0.78271483726E+03  0.00000000000E+00 0.  1.
          4   -1    0    0  502    0 -0.00000000000E+00 -0.00000000000E+00 -0.56602912762E+03  0.56602912762E+03  0.00000000000E+00 0.  1.
    9000010    2    1    2  501    0  0.18215202230E+03 -0.13040883583E+03  0.35601267424E+03  0.10849299434E+04  0.10000710646E+04 0.  0.
        -13    1    3    3    0    0  0.29021400903E+03 -0.50427337158E+03  0.39251894735E+02  0.58314365874E+03  0.10566000000E+00 0.  1.
          4    1    3    3  501    0 -0.10806198672E+03  0.37386453575E+03  0.31676077951E+03  0.50178628469E+03  0.00000000000E+00 0.  1.
         13    1    1    2    0    0 -0.18215202230E+03  0.13040883583E+03 -0.13932696460E+03  0.26381402146E+03  0.10566000000E+00 0. -1.
<mgrwt>
<rscale>  1 0.70076030E+03</rscale>
<asrwt>0</asrwt>
<pdfrwt beam="1">  1       21 0.12041767E+00 0.10248551E+04</pdfrwt>
<pdfrwt beam="2">  1        4 0.87081404E-01 0.10248551E+04</pdfrwt>
<totfact> 0.21987694E+01</totfact>
</mgrwt>
</event>
<event>
 6    1  0.1375310E-005  0.1002432E+04  0.7818608E-02  0.9945358E-01
         21   -1    0    0  501  502  0.00000000000E+00  0.00000000000E+00  0.40687242470E+03  0.40687242470E+03  0.00000000000E+00 0.  1.
          4   -1    0    0  502    0 -0.00000000000E+00 -0.00000000000E+00 -0.78816720984E+03  0.78816720984E+03  0.00000000000E+00 0.  1.
    9000010    2    1    2  501    0 -0.96203367125E+02  0.59691935338E+02 -0.27434761326E+03  0.10392965007E+04  0.99601826718E+03 0.  0.
        -13    1    3    3    0    0  0.43895846989E+03  0.14039066661E+03 -0.11234118972E+03  0.47435707187E+03  0.10566000000E+00 0.  1.
          4    1    3    3  501    0 -0.53516183701E+03 -0.80698731274E+02 -0.16200642354E+03  0.56493942887E+03  0.00000000000E+00 0.  1.
         13    1    1    2    0    0  0.96203367125E+02 -0.59691935338E+02 -0.10694717189E+03  0.15574313381E+03  0.10566000000E+00 0. -1.
<mgrwt>
<rscale>  1 0.58112531E+03</rscale>
<asrwt>0</asrwt>
<pdfrwt beam="1">  1       21 0.62595759E-01 0.10024323E+04</pdfrwt>
<pdfrwt beam="2">  1        4 0.12125649E+00 0.10024323E+04</pdfrwt>
<totfact> 0.47583487E+01</totfact>
</mgrwt>
</event>
<event>
 6    1  0.1375310E-005  0.1053214E+04  0.7818608E-02  0.9582202E-01
         21   -1    0    0  501  502  0.00000000000E+00  0.00000000000E+00  0.36053410460E+03  0.36053410460E+03  0.00000000000E+00 0.  1.
          4   -1    0    0  502    0 -0.00000000000E+00 -0.00000000000E+00 -0.16694248241E+04  0.16694248241E+04  0.00000000000E+00 0.  1.
    9000010    2    1    2  501    0  0.16860424846E+03 -0.27760249833E+03 -0.51538145174E+03  0.11725514941E+04  0.10018824411E+04 0.  0.
        -13    1    3    3    0    0  0.98772699381E+02  0.26477114351E+03  0.14297282097E+03  0.31670339953E+03  0.10566000000E+00 0.  1.
          4    1    3    3  501    0  0.69831549084E+02 -0.54237364184E+03 -0.65835427270E+03  0.85584809458E+03  0.00000000000E+00 0.  1.
         13    1    1    2    0    0 -0.16860424846E+03  0.27760249833E+03 -0.79350926780E+03  0.85740743462E+03  0.10566000000E+00 0. -1.
<mgrwt>
<rscale>  1 0.78485432E+03</rscale>
<asrwt>0</asrwt>
<pdfrwt beam="1">  1       21 0.55466786E-01 0.10532136E+04</pdfrwt>
<pdfrwt beam="2">  1        4 0.25683459E+00 0.10532136E+04</pdfrwt>
<totfact> 0.68363120E+00</totfact>
</mgrwt>
</event>
<event>
 6    1  0.1375310E-005  0.1096474E+04  0.7818608E-02  0.9428699E-01
         21   -1    0    0  501  502  0.00000000000E+00  0.00000000000E+00  0.11869735381E+04  0.11869735381E+04  0.00000000000E+00 0.  1.
          4   -1    0    0  502    0 -0.00000000000E+00 -0.00000000000E+00 -0.58458746876E+03  0.58458746876E+03  0.00000000000E+00 0.  1.
    9000010    2    1    2  501    0 -0.46052442748E+03  0.17378816095E+03  0.65389417782E+03  0.12766487222E+04  0.97978022576E+03 0.  0.
        -13    1    3    3    0    0  0.16268399796E+03  0.29460471931E+02 -0.16762561080E+03  0.23544077633E+03  0.10566000000E+00 0.  1.
          4    1    3    3  501    0 -0.62320842544E+03  0.14432768902E+03  0.82151978862E+03  0.10412079458E+04  0.00000000000E+00 0.  1.
         13    1    1    2    0    0  0.46052442748E+03 -0.17378816095E+03 -0.51508108442E+02  0.49491228475E+03  0.10566000000E+00 0. -1.
<mgrwt>
<rscale>  1 0.89751036E+03</rscale>
<asrwt>0</asrwt>
<pdfrwt beam="1">  1       21 0.18261131E+00 0.10964736E+04</pdfrwt>
<pdfrwt beam="2">  1        4 0.89936534E-01 0.10964736E+04</pdfrwt>
<totfact> 0.63182283E+00</totfact>
</mgrwt>
</event>
<event>
 6    1  0.1375310E-005  0.1145224E+04  0.7818608E-02  0.9361113E-01
          4   -1    0    0  502    0 -0.00000000000E+00  0.00000000000E+00  0.10390363398E+04  0.10390363398E+04  0.00000000000E+00 0.  1.
         21   -1    0    0  501  502  0.00000000000E+00 -0.00000000000E+00 -0.69874598362E+03  0.69874598362E+03  0.00000000000E+00 0.  1.
    9000010    2    1    2  501    0 -0.20271789281E+03  0.51152332544E+03  0.14714163521E+03  0.11546381765E+04  0.10043843892E+04 0.  0.
        -13    1    3    3    0    0 -0.26368735699E+03  0.20361717362E+03 -0.40200799454E+03  0.52211245386E+03  0.10566000000E+00 0.  1.
          4    1    3    3  501    0  0.60969464179E+02  0.30790615182E+03  0.54914962975E+03  0.63252572260E+03  0.00000000000E+00 0.  1.
         13    1    1    2    0    0  0.20271789281E+03 -0.51152332544E+03  0.19314872094E+03  0.58314414693E+03  0.10566000000E+00 0. -1.
<mgrwt>
<rscale>  1 0.95346235E+03</rscale>
<asrwt>0</asrwt>
<pdfrwt beam="2">  1       21 0.10749938E+00 0.11452243E+04</pdfrwt>
<pdfrwt beam="1">  1        4 0.15985175E+00 0.11452243E+04</pdfrwt>
<totfact> 0.62774045E+00</totfact>
</mgrwt>
</event>
<event>
 6    1  0.1375310E-005  0.1014679E+04  0.7818608E-02  0.9829607E-01
         21   -1    0    0  501  502  0.00000000000E+00  0.00000000000E+00  0.25366823575E+03  0.25366823575E+03  0.00000000000E+00 0. -1.
          4   -1    0    0  502    0 -0.00000000000E+00 -0.00000000000E+00 -0.14580079570E+04  0.14580079570E+04  0.00000000000E+00 0.  1.
    9000010    2    1    2  501    0 -0.15155693964E+03  0.46648654830E+02 -0.11713261524E+04  0.15497023991E+04  0.10022110394E+04 0.  0.
        -13    1    3    3    0    0  0.72444066495E+02  0.44239268339E+03 -0.93569678010E+03  0.10375393508E+04  0.10566000000E+00 0.  1.
          4    1    3    3  501    0 -0.22400100614E+03 -0.39574402856E+03 -0.23562937235E+03  0.51216304826E+03  0.00000000000E+00 0.  1.
         13    1    1    2    0    0  0.15155693964E+03 -0.46648654830E+02 -0.33013568850E+02  0.16197379369E+03  0.10566000000E+00 0. -1.
<mgrwt>
<rscale>  1 0.63797579E+03</rscale>
<asrwt>0</asrwt>
<pdfrwt beam="1">  1       21 0.39025882E-01 0.10146786E+04</pdfrwt>
<pdfrwt beam="2">  1        4 0.22430892E+00 0.10146786E+04</pdfrwt>
<totfact> 0.23271776E+01</totfact>
</mgrwt>
</event>
<event>
 6    1  0.1375310E-005  0.1062783E+04  0.7818608E-02  0.9644354E-01
         21   -1    0    0  501  502  0.00000000000E+00  0.00000000000E+00  0.82112044170E+03  0.82112044170E+03  0.00000000000E+00 0.  1.
          4   -1    0    0  502    0 -0.00000000000E+00 -0.00000000000E+00 -0.52924573645E+03  0.52924573645E+03  0.00000000000E+00 0.  1.
    9000010    2    1    2  501    0  0.11322964791E+03  0.22919788811E+03  0.23827627307E+03  0.10891662008E+04  0.10315787927E+04 0.  0.
        -13    1    3    3    0    0  0.53871194318E+03  0.26455472214E+03  0.27593398346E+03  0.66055986339E+03  0.10566000000E+00 0.  1.
          4    1    3    3  501    0 -0.42548229527E+03 -0.35356834028E+02 -0.37657710394E+02  0.42860633739E+03  0.00000000000E+00 0.  1.
         13    1    1    2    0    0 -0.11322964791E+03 -0.22919788811E+03  0.53598432176E+02  0.26119997736E+03  0.10566000000E+00 0. -1.
<mgrwt>
<rscale>  1 0.74428848E+03</rscale>
<asrwt>0</asrwt>
<pdfrwt beam="1">  1       21 0.12632622E+00 0.10627829E+04</pdfrwt>
<pdfrwt beam="2">  1        4 0.81422421E-01 0.10627829E+04</pdfrwt>
<totfact> 0.22580815E+01</totfact>
</mgrwt>
</event>
<event>
 6    1  0.1375310E-005  0.1042886E+04  0.7818608E-02  0.9650699E-01
         21   -1    0    0  501  502  0.00000000000E+00  0.00000000000E+00  0.32735597833E+03  0.32735597833E+03  0.00000000000E+00 0.  1.
          4   -1    0    0  502    0 -0.00000000000E+00 -0.00000000000E+00 -0.14268715344E+04  0.14268715344E+04  0.00000000000E+00 0.  1.
    9000010    2    1    2  501    0 -0.15326541424E+03 -0.21593122573E+03 -0.63920905800E+03  0.12231920480E+04  0.10087090686E+04 0.  0.
        -13    1    3    3    0    0  0.91544379166E+02 -0.40735588789E+03  0.93014454237E+02  0.42775097032E+03  0.10566000000E+00 0.  1.
          4    1    3    3  501    0 -0.24480979340E+03  0.19142466215E+03 -0.73222351223E+03  0.79544107770E+03  0.00000000000E+00 0.  1.
         13    1    1    2    0    0  0.15326541424E+03  0.21593122573E+03 -0.46030649807E+03  0.53103546471E+03  0.10566000000E+00 0. -1.
<mgrwt>
<rscale>  1 0.74029554E+03</rscale>
<asrwt>0</asrwt>
<pdfrwt beam="1">  1       21 0.50362458E-01 0.10428857E+04</pdfrwt>
<pdfrwt beam="2">  1        4 0.21951870E+00 0.10428857E+04</pdfrwt>
<totfact> 0.14473359E+01</totfact>
</mgrwt>
</event>
<event>
 6    1  0.1375310E-005  0.1040964E+04  0.7818608E-02  0.9659017E-01
          4   -1    0    0  502    0 -0.00000000000E+00  0.00000000000E+00  0.74551792796E+03  0.74551792796E+03  0.00000000000E+00 0.  1.
         21   -1    0    0  501  502  0.00000000000E+00 -0.00000000000E+00 -0.57794806508E+03  0.57794806508E+03  0.00000000000E+00 0.  1.
    9000010    2    1    2  501    0 -0.23657964301E+03  0.10509218747E+03  0.58653710950E+02  0.10426154373E+04  0.10082620676E+04 0.  0.
        -13    1    3    3    0    0 -0.41231156396E+03 -0.30947631447E+03  0.22513265279E+03  0.56254878678E+03  0.10566000000E+00 0.  1.
          4    1    3    3  501    0  0.17573192096E+03  0.41456850194E+03 -0.16647894184E+03  0.48006665050E+03  0.00000000000E+00 0.  1.
         13    1    1    2    0    0  0.23657964301E+03 -0.10509218747E+03  0.10891615193E+03  0.28085055575E+03  0.10566000000E+00 0. -1.
<mgrwt>
<rscale>  1 0.73510237E+03</rscale>
<asrwt>0</asrwt>
<pdfrwt beam="2">  1       21 0.88915087E-01 0.10409643E+04</pdfrwt>
<pdfrwt beam="1">  1        4 0.11469507E+00 0.10409643E+04</pdfrwt>
<totfact> 0.24119285E+01</totfact>
</mgrwt>
</event>
<event>
 6    1  0.1375310E-005  0.1024443E+04  0.7818608E-02  0.9827380E-01
          4   -1    0    0  502    0 -0.00000000000E+00  0.00000000000E+00  0.26332275127E+03  0.26332275127E+03  0.00000000000E+00 0.  1.
         21   -1    0    0  501  502  0.00000000000E+00 -0.00000000000E+00 -0.13895856433E+04  0.13895856433E+04  0.00000000000E+00 0.  1.
    9000010    2    1    2  501    0 -0.50106712014E+02  0.14689648939E+03 -0.10851999968E+04  0.14923611002E+04  0.10126170842E+04 0.  0.
        -13    1    3    3    0    0  0.17903800940E+03  0.26991851597E+03 -0.11737493926E+04  0.12176199168E+04  0.10566000000E+00 0.  1.
          4    1    3    3  501    0 -0.22914472141E+03 -0.12302202659E+03  0.88549395789E+02  0.27474118343E+03  0.00000000000E+00 0.  1.
         13    1    1    2    0    0  0.50106712014E+02 -0.14689648939E+03 -0.41062895217E+02  0.16054729431E+03  0.10566000000E+00 0. -1.
<mgrwt>
<rscale>  1 0.63913659E+03</rscale>
<asrwt>0</asrwt>
<pdfrwt beam="2">  1       21 0.21378240E+00 0.10244426E+04</pdfrwt>
<pdfrwt beam="1">  1        4 0.40511193E-01 0.10244426E+04</pdfrwt>
<totfact> 0.22189920E+01</totfact>
</mgrwt>
</event>
<event>
 6    1  0.1375310E-005  0.1143193E+04  0.7818608E-02  0.9360041E-01
         21   -1    0    0  501  502  0.00000000000E+00  0.00000000000E+00  0.17175508727E+04  0.17175508727E+04  0.00000000000E+00 0. -1.
          4   -1    0    0  502    0 -0.00000000000E+00 -0.00000000000E+00 -0.43859115864E+03  0.43859115864E+03  0.00000000000E+00 0.  1.
    9000010    2    1    2  501    0 -0.13136464940E+03 -0.53954629209E+03  0.64207526249E+03  0.13111635179E+04  0.99926085456E+03 0.  0.
        -13    1    3    3    0    0 -0.32859173122E+03 -0.44336654434E+02  0.70042394739E+03  0.77493998606E+03  0.10566000000E+00 0.  1.
          4    1    3    3  501    0  0.19722708181E+03 -0.49520963766E+03 -0.58348684906E+02  0.53622353180E+03  0.00000000000E+00 0.  1.
         13    1    1    2    0    0  0.13136464940E+03  0.53954629209E+03  0.63688445161E+03  0.84497851350E+03  0.10566000000E+00 0. -1.
<mgrwt>
<rscale>  1 0.95438378E+03</rscale>
<asrwt>0</asrwt>
<pdfrwt beam="1">  1       21 0.26423859E+00 0.11431925E+04</pdfrwt>
<pdfrwt beam="2">  1        4 0.67475564E-01 0.11431925E+04</pdfrwt>
<totfact> 0.34717346E+00</totfact>
</mgrwt>
</event>
<event>
 6    1  0.1375310E-005  0.1053539E+04  0.7818608E-02  0.9680912E-01
          4   -1    0    0  502    0 -0.00000000000E+00  0.00000000000E+00  0.10196398218E+04  0.10196398218E+04  0.00000000000E+00 0.  1.
         21   -1    0    0  501  502  0.00000000000E+00 -0.00000000000E+00 -0.44645257334E+03  0.44645257334E+03  0.00000000000E+00 0.  1.
    9000010    2    1    2  501    0  0.20429602775E+03 -0.10978425239E+03  0.27595126878E+03  0.10890795468E+04  0.10276943648E+04 0.  0.
        -13    1    3    3    0    0  0.48491522486E+03 -0.19623946618E+03 -0.17442895473E+03  0.55143283798E+03  0.10566000000E+00 0.  1.
          4    1    3    3  501    0 -0.28061919711E+03  0.86455213794E+02  0.45038022351E+03  0.53764670882E+03  0.00000000000E+00 0.  1.
         13    1    1    2    0    0 -0.20429602775E+03  0.10978425239E+03  0.29723597964E+03  0.37701284830E+03  0.10566000000E+00 0. -1.
<mgrwt>
<rscale>  1 0.72164768E+03</rscale>
<asrwt>0</asrwt>
<pdfrwt beam="2">  1       21 0.68685012E-01 0.10535393E+04</pdfrwt>
<pdfrwt beam="1">  1        4 0.15686766E+00 0.10535393E+04</pdfrwt>
<totfact> 0.19550195E+01</totfact>
</mgrwt>
</event>
<event>
 6    1  0.1375310E-005  0.1038398E+04  0.7818608E-02  0.9578469E-01
         21   -1    0    0  501  502  0.00000000000E+00  0.00000000000E+00  0.41501534783E+03  0.41501534783E+03  0.00000000000E+00 0.  1.
          4   -1    0    0  502    0 -0.00000000000E+00 -0.00000000000E+00 -0.14798720699E+04  0.14798720699E+04  0.00000000000E+00 0.  1.
    9000010    2    1    2  501    0  0.31624555226E+03 -0.13351315027E+03 -0.11415181109E+04  0.15431574214E+04  0.98001745849E+03 0.  0.
        -13    1    3    3    0    0 -0.12477326119E+03 -0.45945283841E+03 -0.65712517113E+03  0.81146705363E+03  0.10566000000E+00 0.  1.
          4    1    3    3  501    0  0.44101881345E+03  0.32593968814E+03 -0.48439293981E+03  0.73169036775E+03  0.00000000000E+00 0.  1.
         13    1    1    2    0    0 -0.31624555226E+03  0.13351315027E+03  0.76661388873E+02  0.35172999634E+03  0.10566000000E+00 0. -1.
<mgrwt>
<rscale>  1 0.78737801E+03</rscale>
<asrwt>0</asrwt>
<pdfrwt beam="1">  1       21 0.63848514E-01 0.10383984E+04</pdfrwt>
<pdfrwt beam="2">  1        4 0.22767263E+00 0.10383984E+04</pdfrwt>
<totfact> 0.76094192E+00</totfact>
</mgrwt>
</event>
<event>
 6    1  0.1375310E-005  0.1032524E+04  0.7818608E-02  0.9842294E-01
          4   -1    0    0  502    0 -0.00000000000E+00  0.00000000000E+00  0.42344173653E+03  0.42344173653E+03  0.00000000000E+00 0.  1.
         21   -1    0    0  501  502  0.00000000000E+00 -0.00000000000E+00 -0.99028203925E+03  0.99028203925E+03  0.00000000000E+00 0.  1.
    9000010    2    1    2  501    0 -0.14551368942E+02  0.14366087648E+03 -0.24531983973E+03  0.10612672408E+04  0.10223776909E+04 0.  0.
        -13    1    3    3    0    0 -0.30002597859E+03 -0.29960672713E+03  0.93967427139E+02  0.43429214510E+03  0.10566000000E+00 0.  1.
          4    1    3    3  501    0  0.28547460965E+03  0.44326760360E+03 -0.33928726687E+03  0.62697509569E+03  0.00000000000E+00 0.  1.
         13    1    1    2    0    0  0.14551368942E+02 -0.14366087648E+03 -0.32152046299E+03  0.35245653499E+03  0.10566000000E+00 0. -1.
<mgrwt>
<rscale>  1 0.63141374E+03</rscale>
<asrwt>0</asrwt>
<pdfrwt beam="2">  1       21 0.15235108E+00 0.10325243E+04</pdfrwt>
<pdfrwt beam="1">  1        4 0.65144883E-01 0.10325243E+04</pdfrwt>
<totfact> 0.22526083E+01</totfact>
</mgrwt>
</event>
<event>
 6    1  0.1375310E-005  0.1044561E+04  0.7818608E-02  0.9580708E-01
          4   -1    0    0  502    0 -0.00000000000E+00  0.00000000000E+00  0.41982761180E+03  0.41982761180E+03  0.00000000000E+00 0.  1.
         21   -1    0    0  501  502  0.00000000000E+00 -0.00000000000E+00 -0.13791183701E+04  0.13791183701E+04  0.00000000000E+00 0. -1.
    9000010    2    1    2  501    0 -0.33455486345E+03  0.78443348313E+01 -0.34614109994E+03  0.11004182409E+04  0.98950399370E+03 0.  0.
        -13    1    3    3    0    0  0.29402724197E+02  0.21493489634E+03  0.27564433374E+03  0.35077249000E+03  0.10566000000E+00 0.  1.
          4    1    3    3  501    0 -0.36395758765E+03 -0.20709056151E+03 -0.62178543368E+03  0.74964575088E+03  0.00000000000E+00 0.  1.
         13    1    1    2    0    0  0.33455486345E+03 -0.78443348313E+01 -0.61314965836E+03  0.69852774101E+03  0.10566000000E+00 0. -1.
<mgrwt>
<rscale>  1 0.78586317E+03</rscale>
<asrwt>0</asrwt>
<pdfrwt beam="2">  1       21 0.21217206E+00 0.10445605E+04</pdfrwt>
<pdfrwt beam="1">  1        4 0.64588863E-01 0.10445605E+04</pdfrwt>
<totfact> 0.84317098E+00</totfact>
</mgrwt>
</event>
<event>
 6    1  0.1375310E-005  0.1018632E+04  0.7818608E-02  0.9786181E-01
          4   -1    0    0  502    0 -0.00000000000E+00  0.00000000000E+00  0.19997076764E+04  0.19997076764E+04  0.00000000000E+00 0.  1.
         21   -1    0    0  501  502  0.00000000000E+00 -0.00000000000E+00 -0.18153664707E+03  0.18153664707E+03  0.00000000000E+00 0. -1.
    9000010    2    1    2  501    0 -0.12247207168E+03  0.13288960457E+03  0.16142104586E+04  0.19087393127E+04  0.10024725950E+04 0.  0.
        -13    1    3    3    0    0 -0.40933059979E+03 -0.37951633460E+02  0.15008670508E+04  0.15561470951E+04  0.10566000000E+00 0.  1.
          4    1    3    3  501    0  0.28685852811E+03  0.17084123803E+03  0.11334340779E+03  0.35259221751E+03  0.00000000000E+00 0.  1.
         13    1    1    2    0    0  0.12247207168E+03 -0.13288960457E+03  0.20396057080E+03  0.27250501087E+03  0.10566000000E+00 0. -1.
<mgrwt>
<rscale>  1 0.66109426E+03</rscale>
<asrwt>0</asrwt>
<pdfrwt beam="2">  1       21 0.27928716E-01 0.10186316E+04</pdfrwt>
<pdfrwt beam="1">  1        4 0.30764732E+00 0.10186316E+04</pdfrwt>
<totfact> 0.14022711E+01</totfact>
</mgrwt>
</event>
<event>
 6    1  0.1375310E-005  0.1019795E+04  0.7818608E-02  0.9742816E-01
          4   -1    0    0  502    0 -0.00000000000E+00  0.00000000000E+00  0.10798352140E+04  0.10798352140E+04  0.00000000000E+00 0.  1.
         21   -1    0    0  501  502  0.00000000000E+00 -0.00000000000E+00 -0.34948874625E+03  0.34948874625E+03  0.00000000000E+00 0.  1.
    9000010    2    1    2  501    0 -0.18959133898E+03 -0.85275615218E+02  0.58509419332E+03  0.11757198578E+04  0.99838127122E+03 0.  0.
        -13    1    3    3    0    0  0.38103826077E+03 -0.20985137511E+03  0.27169902494E+03  0.51288217665E+03  0.10566000000E+00 0.  1.
          4    1    3    3  501    0 -0.57062959975E+03  0.12457575989E+03  0.31339516838E+03  0.66283768120E+03  0.00000000000E+00 0.  1.
         13    1    1    2    0    0  0.18959133898E+03  0.85275615218E+02  0.14525227447E+03  0.25360410243E+03  0.10566000000E+00 0. -1.
<mgrwt>
<rscale>  1 0.68523774E+03</rscale>
<asrwt>0</asrwt>
<pdfrwt beam="2">  1       21 0.53767500E-01 0.10197951E+04</pdfrwt>
<pdfrwt beam="1">  1        4 0.16612849E+00 0.10197951E+04</pdfrwt>
<totfact> 0.28931187E+01</totfact>
</mgrwt>
</event>
<event>
 6    1  0.1375310E-005  0.1119759E+04  0.7818608E-02  0.9395688E-01
         21   -1    0    0  501  502  0.00000000000E+00  0.00000000000E+00  0.89872138616E+03  0.89872138616E+03  0.00000000000E+00 0. -1.
          4   -1    0    0  502    0 -0.00000000000E+00 -0.00000000000E+00 -0.77979965395E+03  0.77979965395E+03  0.00000000000E+00 0.  1.
    9000010    2    1    2  501    0  0.15524480295E+03 -0.49616088705E+03 -0.78286203590E+02  0.11224926633E+04  0.99175827442E+03 0.  0.
        -13    1    3    3    0    0 -0.11555899616E+03 -0.71667318932E+03  0.95896010025E+02  0.73223657228E+03  0.10566000000E+00 0.  1.
          4    1    3    3  501    0  0.27080379911E+03  0.22051230227E+03 -0.17418221361E+03  0.39025609105E+03  0.00000000000E+00 0.  1.
         13    1    1    2    0    0 -0.15524480295E+03  0.49616088705E+03  0.19720793580E+03  0.55602837678E+03  0.10566000000E+00 0. -1.
<mgrwt>
<rscale>  1 0.92431422E+03</rscale>
<asrwt>0</asrwt>
<pdfrwt beam="1">  1       21 0.13826483E+00 0.11197594E+04</pdfrwt>
<pdfrwt beam="2">  1        4 0.11996918E+00 0.11197594E+04</pdfrwt>
<totfact> 0.69328955E+00</totfact>
</mgrwt>
</event>
<event>
 6    1  0.1375310E-005  0.1034252E+04  0.7818608E-02  0.9749859E-01
         21   -1    0    0  501  502  0.00000000000E+00  0.00000000000E+00  0.59977269431E+03  0.59977269431E+03  0.00000000000E+00 0.  1.
          4   -1    0    0  502    0 -0.00000000000E+00 -0.00000000000E+00 -0.64517077987E+03  0.64517077987E+03  0.00000000000E+00 0.  1.
    9000010    2    1    2  501    0  0.19087010753E+03 -0.38342328335E+02  0.33711171017E+02  0.10348010993E+04  0.10157634271E+04 0.  0.
        -13    1    3    3    0    0 -0.35938593003E+03  0.15361406333E+03 -0.15761147480E+03  0.42142249028E+03  0.10566000000E+00 0.  1.
          4    1    3    3  501    0  0.55025603756E+03 -0.19195639167E+03  0.19132264582E+03  0.61337860900E+03  0.00000000000E+00 0.  1.
         13    1    1    2    0    0 -0.19087010753E+03  0.38342328335E+02 -0.79109256582E+02  0.21014237490E+03  0.10566000000E+00 0. -1.
<mgrwt>
<rscale>  1 0.68124266E+03</rscale>
<asrwt>0</asrwt>
<pdfrwt beam="1">  1       21 0.92272722E-01 0.10342518E+04</pdfrwt>
<pdfrwt beam="2">  1        4 0.99257043E-01 0.10342518E+04</pdfrwt>
<totfact> 0.31435446E+01</totfact>
</mgrwt>
</event>
<event>
 6    1  0.1375310E-005  0.1016327E+04  0.7818608E-02  0.9713414E-01
         21   -1    0    0  501  502  0.00000000000E+00  0.00000000000E+00  0.16369131597E+04  0.16369131597E+04  0.00000000000E+00 0.  1.
          4   -1    0    0  502    0 -0.00000000000E+00 -0.00000000000E+00 -0.28183309500E+03  0.28183309500E+03  0.00000000000E+00 0.  1.
    9000010    2    1    2  501    0  0.20990383783E+03 -0.97994097471E+02  0.13464102208E+04  0.16869324466E+04  0.98957472310E+03 0.  0.
        -13    1    3    3    0    0  0.16390132137E+03  0.35720381162E+03  0.10982387981E+04  0.11664418867E+04  0.10566000000E+00 0.  1.
          4    1    3    3  501    0  0.46002516465E+02 -0.45519790909E+03  0.24817142266E+03  0.52049055994E+03  0.00000000000E+00 0.  1.
         13    1    1    2    0    0 -0.20990383783E+03  0.97994097471E+02  0.86698439645E+01  0.23181380812E+03  0.10566000000E+00 0. -1.
<mgrwt>
<rscale>  1 0.70223737E+03</rscale>
<asrwt>0</asrwt>
<pdfrwt beam="1">  1       21 0.25183279E+00 0.10163270E+04</pdfrwt>
<pdfrwt beam="2">  1        4 0.43358939E-01 0.10163270E+04</pdfrwt>
<totfact> 0.10936540E+01</totfact>
</mgrwt>
</event>
<event>
 6    1  0.1375310E-005  0.1017141E+04  0.7818608E-02  0.9771221E-01
         21   -1    0    0  501  502  0.00000000000E+00  0.00000000000E+00  0.75444382335E+03  0.75444382335E+03  0.00000000000E+00 0.  1.
          4   -1    0    0  502    0 -0.00000000000E+00 -0.00000000000E+00 -0.55266917350E+03  0.55266917350E+03  0.00000000000E+00 0.  1.
    9000010    2    1    2  501    0 -0.71629516978E+02 -0.17673246772E+03  0.33903169663E+03  0.10721562755E+04  0.99910531724E+03 0.  0.
        -13    1    3    3    0    0 -0.10166098793E+03 -0.28683944484E+03 -0.29743717188E+03  0.42553578693E+03  0.10566000000E+00 0.  1.
          4    1    3    3  501    0  0.30031470954E+02  0.11010697711E+03  0.63646886851E+03  0.64662048857E+03  0.00000000000E+00 0.  1.
         13    1    1    2    0    0  0.71629516978E+02  0.17673246772E+03 -0.13725704678E+03  0.23495672135E+03  0.10566000000E+00 0. -1.
<mgrwt>
<rscale>  1 0.66930133E+03</rscale>
<asrwt>0</asrwt>
<pdfrwt beam="1">  1       21 0.11606828E+00 0.10171414E+04</pdfrwt>
<pdfrwt beam="2">  1        4 0.85026027E-01 0.10171414E+04</pdfrwt>
<totfact> 0.25583158E+01</totfact>
</mgrwt>
</event>
<event>
 6    1  0.1375310E-005  0.1097130E+04  0.7818608E-02  0.9441438E-01
         21   -1    0    0  501  502  0.00000000000E+00  0.00000000000E+00  0.89559068990E+03  0.89559068990E+03  0.00000000000E+00 0.  1.
          4   -1    0    0  502    0 -0.00000000000E+00 -0.00000000000E+00 -0.75124439258E+03  0.75124439258E+03  0.00000000000E+00 0.  1.
    9000010    2    1    2  501    0  0.30352775005E+03 -0.35835844681E+03  0.32407276026E+03  0.11439916833E+04  0.99153615470E+03 0.  0.
        -13    1    3    3    0    0  0.52918923222E+03  0.43813399317E+01 -0.10387756045E+03  0.53930603405E+03  0.10566000000E+00 0.  1.
          4    1    3    3  501    0 -0.22566148217E+03 -0.36273978674E+03  0.42795032071E+03  0.60468564925E+03  0.00000000000E+00 0.  1.
         13    1    1    2    0    0 -0.30352775005E+03  0.35835844681E+03 -0.17972646294E+03  0.50284339918E+03  0.10566000000E+00 0. -1.
<mgrwt>
<rscale>  1 0.88742542E+03</rscale>
<asrwt>0</asrwt>
<pdfrwt beam="1">  1       21 0.13778318E+00 0.10971298E+04</pdfrwt>
<pdfrwt beam="2">  1        4 0.11557606E+00 0.10971298E+04</pdfrwt>
<totfact> 0.77036490E+00</totfact>
</mgrwt>
</event>
<event>
 6    1  0.1375310E-005  0.1099045E+04  0.7818608E-02  0.9417137E-01
          4   -1    0    0  502    0 -0.00000000000E+00  0.00000000000E+00  0.86989278973E+03  0.86989278973E+03  0.00000000000E+00 0.  1.
         21   -1    0    0  501  502  0.00000000000E+00 -0.00000000000E+00 -0.89572804767E+03  0.89572804767E+03  0.00000000000E+00 0.  1.
    9000010    2    1    2  501    0  0.46043740046E+03 -0.21767928488E+03 -0.35997217587E+03  0.11564949375E+04  0.97391668140E+03 0.  0.
        -13    1    3    3    0    0  0.27231494277E+03 -0.13530707155E+03 -0.69778179534E+03  0.76115890373E+03  0.10566000000E+00 0.  1.
          4    1    3    3  501    0  0.18812245769E+03 -0.82372213324E+02  0.33780961946E+03  0.39533603380E+03  0.00000000000E+00 0.  1.
         13    1    1    2    0    0 -0.46043740046E+03  0.21767928488E+03  0.33413691793E+03  0.60912589988E+03  0.10566000000E+00 0. -1.
<mgrwt>
<rscale>  1 0.90678681E+03</rscale>
<asrwt>0</asrwt>
<pdfrwt beam="2">  1       21 0.13780432E+00 0.10990453E+04</pdfrwt>
<pdfrwt beam="1">  1        4 0.13382966E+00 0.10990453E+04</pdfrwt>
<totfact> 0.53013469E+00</totfact>
</mgrwt>
</event>
<event>
 6    1  0.1375310E-005  0.1060333E+04  0.7818608E-02  0.9595486E-01
         21   -1    0    0  501  502  0.00000000000E+00  0.00000000000E+00  0.70212508662E+03  0.70212508662E+03  0.00000000000E+00 0.  1.
          4   -1    0    0  502    0 -0.00000000000E+00 -0.00000000000E+00 -0.71959927214E+03  0.71959927214E+03  0.00000000000E+00 0.  1.
    9000010    2    1    2  501    0  0.27021913081E+03 -0.13950519333E+03  0.15580121780E+03  0.10717179957E+04  0.10157880513E+04 0.  0.
        -13    1    3    3    0    0 -0.23822072525E+03 -0.86715316802E+02 -0.29584213034E+03  0.38960394936E+03  0.10566000000E+00 0.  1.
          4    1    3    3  501    0  0.50843985606E+03 -0.52789876528E+02  0.45164334814E+03  0.68211404634E+03  0.00000000000E+00 0.  1.
         13    1    1    2    0    0 -0.27021913081E+03  0.13950519333E+03 -0.17327540332E+03  0.35000636306E+03  0.10566000000E+00 0. -1.
<mgrwt>
<rscale>  1 0.77595699E+03</rscale>
<asrwt>0</asrwt>
<pdfrwt beam="1">  1       21 0.10801924E+00 0.10603327E+04</pdfrwt>
<pdfrwt beam="2">  1        4 0.11070758E+00 0.10603327E+04</pdfrwt>
<totfact> 0.16249416E+01</totfact>
</mgrwt>
</event>
<event>
 6    1  0.1375310E-005  0.1190213E+04  0.7818608E-02  0.9624327E-01
         21   -1    0    0  501  502  0.00000000000E+00  0.00000000000E+00  0.60810035570E+03  0.60810035570E+03  0.00000000000E+00 0.  1.
          4   -1    0    0  502    0 -0.00000000000E+00 -0.00000000000E+00 -0.81838310324E+03  0.81838310324E+03  0.00000000000E+00 0.  1.
    9000010    2    1    2  501    0 -0.36924503886E+01 -0.19479899972E+03 -0.27428107686E+03  0.12214076637E+04  0.11741576927E+04 0.  0.
        -13    1    3    3    0    0  0.80063370896E+02  0.48720601224E+03 -0.39675743925E+02  0.49533222946E+03  0.10566000000E+00 0.  1.
          4    1    3    3  501    0 -0.83755821285E+02 -0.68200501196E+03 -0.23460533293E+03  0.72607543422E+03  0.00000000000E+00 0.  1.
         13    1    1    2    0    0  0.36924503886E+01  0.19479899972E+03  0.63998329322E+02  0.20507579526E+03  0.10566000000E+00 0. -1.
<mgrwt>
<rscale>  1 0.75706771E+03</rscale>
<asrwt>0</asrwt>
<pdfrwt beam="1">  1       21 0.93553901E-01 0.11902128E+04</pdfrwt>
<pdfrwt beam="2">  1        4 0.12590509E+00 0.11902128E+04</pdfrwt>
<totfact> 0.16629435E+01</totfact>
</mgrwt>
</event>
<event>
 6    1  0.1375310E-005  0.1002924E+04  0.7818608E-02  0.9813447E-01
          4   -1    0    0  502    0 -0.00000000000E+00  0.00000000000E+00  0.59284245045E+03  0.59284245045E+03  0.00000000000E+00 0.  1.
         21   -1    0    0  501  502  0.00000000000E+00 -0.00000000000E+00 -0.70911707818E+03  0.70911707818E+03  0.00000000000E+00 0.  1.
    9000010    2    1    2  501    0  0.15983560730E+03  0.66517605125E+02 -0.30263784669E+03  0.10475911467E+04  0.98786918736E+03 0.  0.
        -13    1    3    3    0    0 -0.24375067249E+03  0.40467978221E+03 -0.18969866331E+03  0.50908320587E+03  0.10566000000E+00 0.  1.
          4    1    3    3  501    0  0.40358627979E+03 -0.33816217708E+03 -0.11293918338E+03  0.53850794088E+03  0.00000000000E+00 0.  1.
         13    1    1    2    0    0 -0.15983560730E+03 -0.66517605125E+02  0.18636321896E+03  0.25436838188E+03  0.10566000000E+00 0. -1.
<mgrwt>
<rscale>  1 0.64645856E+03</rscale>
<asrwt>0</asrwt>
<pdfrwt beam="2">  1       21 0.10909494E+00 0.10029245E+04</pdfrwt>
<pdfrwt beam="1">  1        4 0.91206531E-01 0.10029245E+04</pdfrwt>
<totfact> 0.25447255E+01</totfact>
</mgrwt>
</event>
<event>
 6    1  0.1375310E-005  0.9910388E+03  0.7818608E-02  0.1060319E+00
         21   -1    0    0  501  502  0.00000000000E+00  0.00000000000E+00  0.10456859666E+04  0.10456859666E+04  0.00000000000E+00 0.  1.
          4   -1    0    0  502    0 -0.00000000000E+00 -0.00000000000E+00 -0.29027267565E+03  0.29027267565E+03  0.00000000000E+00 0.  1.
    9000010    2    1    2  501    0 -0.67729859460E+01  0.14976374876E+02  0.80937499173E+03  0.12795490556E+04  0.99090248933E+03 0.  0.
        -13    1    3    3    0    0  0.18506984675E+03  0.44337239474E+03  0.59155757914E+03  0.76208287555E+03  0.10566000000E+00 0.  1.
          4    1    3    3  501    0 -0.19184283269E+03 -0.42839601987E+03  0.21781741259E+03  0.51746618007E+03  0.00000000000E+00 0.  1.
         13    1    1    2    0    0  0.67729859460E+01 -0.14976374876E+02 -0.53961700801E+02  0.56409586600E+02  0.10566000000E+00 0. -1.
<mgrwt>
<rscale>  1 0.35565089E+03</rscale>
<asrwt>0</asrwt>
<pdfrwt beam="1">  1       21 0.16087476E+00 0.99103880E+03</pdfrwt>
<pdfrwt beam="2">  1        4 0.44657335E-01 0.99103880E+03</pdfrwt>
<totfact> 0.43487941E+01</totfact>
</mgrwt>
</event>
<event>
 6    1  0.1375310E-005  0.1045061E+04  0.7818608E-02  0.9488761E-01
         21   -1    0    0  501  502  0.00000000000E+00  0.00000000000E+00  0.24216488987E+04  0.24216488987E+04  0.00000000000E+00 0.  1.
          4   -1    0    0  502    0 -0.00000000000E+00 -0.00000000000E+00 -0.62910581437E+03  0.62910581437E+03  0.00000000000E+00 0.  1.
    9000010    2    1    2  501    0  0.45690542475E+03  0.52287518875E+02  0.22004654154E+04  0.24360212821E+04  0.93843225142E+03 0.  0.
        -13    1    3    3    0    0 -0.79124144624E+02 -0.29840550631E+03  0.29985663325E+03  0.43037249927E+03  0.10566000000E+00 0.  1.
          4    1    3    3  501    0  0.53602956938E+03  0.35069302518E+03  0.19006087822E+04  0.20056487828E+04  0.00000000000E+00 0.  1.
         13    1    1    2    0    0 -0.45690542475E+03 -0.52287518875E+02 -0.40792233109E+03  0.61473343098E+03  0.10566000000E+00 0. -1.
<mgrwt>
<rscale>  1 0.85117531E+03</rscale>
<asrwt>0</asrwt>
<pdfrwt beam="1">  1       21 0.37256136E+00 0.10450606E+04</pdfrwt>
<pdfrwt beam="2">  1        4 0.96785511E-01 0.10450606E+04</pdfrwt>
<totfact> 0.32042603E-01</totfact>
</mgrwt>
</event>
<event>
 6    1  0.1375310E-005  0.1001315E+04  0.7818608E-02  0.9721219E-01
          4   -1    0    0  502    0 -0.00000000000E+00  0.00000000000E+00  0.82718718941E+03  0.82718718941E+03  0.00000000000E+00 0.  1.
         21   -1    0    0  501  502  0.00000000000E+00 -0.00000000000E+00 -0.47875165747E+03  0.47875165747E+03  0.00000000000E+00 0. -1.
    9000010    2    1    2  501    0  0.23582650428E+03 -0.88405429628E+01  0.18341805023E+03  0.10179751760E+04  0.97310789866E+03 0.  0.
        -13    1    3    3    0    0 -0.34503278414E+03 -0.64461569777E+02  0.24962466660E+03  0.43071498865E+03  0.10566000000E+00 0.  1.
          4    1    3    3  501    0  0.58085928842E+03  0.55621026815E+02 -0.66206616376E+02  0.58726018733E+03  0.00000000000E+00 0.  1.
         13    1    1    2    0    0 -0.23582650428E+03  0.88405429628E+01  0.16501748171E+03  0.28796367089E+03  0.10566000000E+00 0. -1.
<mgrwt>
<rscale>  1 0.69767373E+03</rscale>
<asrwt>0</asrwt>
<pdfrwt beam="2">  1       21 0.73654101E-01 0.10013148E+04</pdfrwt>
<pdfrwt beam="1">  1        4 0.12725957E+00 0.10013148E+04</pdfrwt>
<totfact> 0.29047780E+01</totfact>
</mgrwt>
</event>
<event>
 6    1  0.1375310E-005  0.1550070E+04  0.7818608E-02  0.8918611E-01
         21   -1    0    0  501  502  0.00000000000E+00  0.00000000000E+00  0.10767674370E+04  0.10767674370E+04  0.00000000000E+00 0. -1.
          4   -1    0    0  502    0 -0.00000000000E+00 -0.00000000000E+00 -0.21950759016E+04  0.21950759016E+04  0.00000000000E+00 0.  1.
    9000010    2    1    2  501    0  0.85063324515E+03 -0.82632883977E+03  0.12318375377E+03  0.15549568517E+04  0.99815845652E+03 0.  0.
        -13    1    3    3    0    0 -0.72872690136E+01 -0.67863543648E+03  0.79588684759E+02  0.68332534699E+03  0.10566000000E+00 0.  1.
          4    1    3    3  501    0  0.85792051416E+03 -0.14769340329E+03  0.43595069010E+02  0.87163150473E+03  0.00000000000E+00 0.  1.
         13    1    1    2    0    0 -0.85063324515E+03  0.82632883977E+03 -0.12414922184E+04  0.17168864869E+04  0.10566000000E+00 0. -1.
<mgrwt>
<rscale>  1 0.14496959E+04</rscale>
<asrwt>0</asrwt>
<pdfrwt beam="1">  1       21 0.16565653E+00 0.15500699E+04</pdfrwt>
<pdfrwt beam="2">  1        4 0.33770398E+00 0.15500699E+04</pdfrwt>
<totfact> 0.12987926E-01</totfact>
</mgrwt>
</event>
<event>
 6    1  0.1375310E-005  0.1119019E+04  0.7818608E-02  0.9496801E-01
         21   -1    0    0  501  502  0.00000000000E+00  0.00000000000E+00  0.28850284322E+03  0.28850284322E+03  0.00000000000E+00 0.  1.
          4   -1    0    0  502    0 -0.00000000000E+00 -0.00000000000E+00 -0.20669308273E+04  0.20669308273E+04  0.00000000000E+00 0.  1.
    9000010    2    1    2  501    0  0.15568566469E+03  0.32923472860E+03 -0.10201642570E+04  0.15142455681E+04  0.10580978199E+04 0.  0.
        -13    1    3    3    0    0  0.31327665578E+03 -0.28091962379E+03 -0.16501542386E+03  0.45198252108E+03  0.10566000000E+00 0.  1.
          4    1    3    3  501    0 -0.15759099109E+03  0.61015435239E+03 -0.85514883315E+03  0.10622630470E+04  0.00000000000E+00 0.  1.
         13    1    1    2    0    0 -0.15568566469E+03 -0.32923472860E+03 -0.75826372705E+03  0.84118810240E+03  0.10566000000E+00 0. -1.
<mgrwt>
<rscale>  1 0.84520080E+03</rscale>
<asrwt>0</asrwt>
<pdfrwt beam="1">  1       21 0.44385052E-01 0.11190194E+04</pdfrwt>
<pdfrwt beam="2">  1        4 0.31798937E+00 0.11190194E+04</pdfrwt>
<totfact> 0.45897744E+00</totfact>
</mgrwt>
</event>
<event>
 6    1  0.1375310E-005  0.1374283E+04  0.7818608E-02  0.9071108E-01
          4   -1    0    0  502    0 -0.00000000000E+00  0.00000000000E+00  0.24781403990E+04  0.24781403990E+04  0.00000000000E+00 0.  1.
         21   -1    0    0  501  502  0.00000000000E+00 -0.00000000000E+00 -0.54285924794E+03  0.54285924794E+03  0.00000000000E+00 0. -1.
    9000010    2    1    2  501    0 -0.52423316067E+03 -0.77696138510E+03  0.10249368201E+04  0.17143948051E+04  0.10050694811E+04 0.  0.
        -13    1    3    3    0    0 -0.56018354138E+03 -0.82098729481E+03  0.11837784185E+04  0.15456898439E+04  0.10566000000E+00 0.  1.
          4    1    3    3  501    0  0.35950380713E+02  0.44025909705E+02 -0.15884159831E+03  0.16870496125E+03  0.00000000000E+00 0.  1.
         13    1    1    2    0    0  0.52423316067E+03  0.77696138510E+03  0.91034433090E+03  0.13066048418E+04  0.10566000000E+00 0. -1.
<mgrwt>
<rscale>  1 0.12488901E+04</rscale>
<asrwt>0</asrwt>
<pdfrwt beam="2">  1       21 0.83516809E-01 0.13742831E+04</pdfrwt>
<pdfrwt beam="1">  1        4 0.38125236E+00 0.13742831E+04</pdfrwt>
<totfact> 0.41423723E-01</totfact>
</mgrwt>
</event>
<event>
 6    1  0.1375310E-005  0.1084805E+04  0.7818608E-02  0.9641776E-01
          4   -1    0    0  502    0 -0.00000000000E+00  0.00000000000E+00  0.99254094992E+03  0.99254094992E+03  0.00000000000E+00 0.  1.
         21   -1    0    0  501  502  0.00000000000E+00 -0.00000000000E+00 -0.44437371192E+03  0.44437371192E+03  0.00000000000E+00 0.  1.
    9000010    2    1    2  501    0  0.15578947131E+03 -0.18583680200E+03  0.42685076693E+03  0.11657627235E+04  0.10573530507E+04 0.  0.
        -13    1    3    3    0    0 -0.41807015809E+03 -0.27927848115E+03  0.17837620454E+03  0.53347653053E+03  0.10566000000E+00 0.  1.
          4    1    3    3  501    0  0.57385962940E+03  0.93441679147E+02  0.24847456239E+03  0.63228619296E+03  0.00000000000E+00 0.  1.
         13    1    1    2    0    0 -0.15578947131E+03  0.18583680200E+03  0.12131647107E+03  0.27115193835E+03  0.10566000000E+00 0. -1.
<mgrwt>
<rscale>  1 0.74591798E+03</rscale>
<asrwt>0</asrwt>
<pdfrwt beam="2">  1       21 0.68365186E-01 0.10848047E+04</pdfrwt>
<pdfrwt beam="1">  1        4 0.15269861E+00 0.10848047E+04</pdfrwt>
<totfact> 0.21201061E+01</totfact>
</mgrwt>
</event>
<event>
 6    1  0.1375310E-005  0.1206571E+04  0.7818608E-02  0.9268600E-01
         21   -1    0    0  501  502  0.00000000000E+00  0.00000000000E+00  0.18431141861E+04  0.18431141861E+04  0.00000000000E+00 0.  1.
          4   -1    0    0  502    0 -0.00000000000E+00 -0.00000000000E+00 -0.62059950493E+03  0.62059950493E+03  0.00000000000E+00 0.  1.
    9000010    2    1    2  501    0 -0.43278275528E+03 -0.49697508754E+03  0.13302815339E+04  0.17959571061E+04  0.10107065928E+04 0.  0.
        -13    1    3    3    0    0 -0.48798314058E+03  0.18055155872E+03  0.48554565716E+03  0.71167479033E+03  0.10566000000E+00 0.  1.
          4    1    3    3  501    0  0.55200385296E+02 -0.67752664626E+03  0.84473587673E+03  0.10842823158E+04  0.00000000000E+00 0.  1.
         13    1    1    2    0    0  0.43278275528E+03  0.49697508754E+03 -0.10776685275E+03  0.66775658486E+03  0.10566000000E+00 0. -1.
<mgrwt>
<rscale>  1 0.10372572E+04</rscale>
<asrwt>0</asrwt>
<pdfrwt beam="1">  1       21 0.28355603E+00 0.12065707E+04</pdfrwt>
<pdfrwt beam="2">  1        4 0.95476848E-01 0.12065707E+04</pdfrwt>
<totfact> 0.11668744E+00</totfact>
</mgrwt>
</event>
<event>
 6    1  0.1375310E-005  0.1099889E+04  0.7818608E-02  0.9451606E-01
          4   -1    0    0  502    0 -0.00000000000E+00  0.00000000000E+00  0.59623978947E+03  0.59623978947E+03  0.00000000000E+00 0.  1.
         21   -1    0    0  501  502  0.00000000000E+00 -0.00000000000E+00 -0.10146380855E+04  0.10146380855E+04  0.00000000000E+00 0.  1.
    9000010    2    1    2  501    0  0.41053279688E+03  0.18337585149E+03 -0.36092436972E+03  0.11575930378E+04  0.10037885037E+04 0.  0.
        -13    1    3    3    0    0  0.50815880838E+03  0.43881654982E+03  0.39651906251E+02  0.67257536660E+03  0.10566000000E+00 0.  1.
          4    1    3    3  501    0 -0.97626011497E+02 -0.25544069833E+03 -0.40057627597E+03  0.48501767118E+03  0.00000000000E+00 0.  1.
         13    1    1    2    0    0 -0.41053279688E+03 -0.18337585149E+03 -0.57473926267E+02  0.45328483715E+03  0.10566000000E+00 0. -1.
<mgrwt>
<rscale>  1 0.87947706E+03</rscale>
<asrwt>0</asrwt>
<pdfrwt beam="2">  1       21 0.15609817E+00 0.10998887E+04</pdfrwt>
<pdfrwt beam="1">  1        4 0.91729199E-01 0.10998887E+04</pdfrwt>
<totfact> 0.95513591E+00</totfact>
</mgrwt>
</event>
<event>
 6    1  0.1375310E-005  0.1052357E+04  0.7818608E-02  0.9613147E-01
         21   -1    0    0  501  502  0.00000000000E+00  0.00000000000E+00  0.31769167739E+03  0.31769167739E+03  0.00000000000E+00 0.  1.
          4   -1    0    0  502    0 -0.00000000000E+00 -0.00000000000E+00 -0.16398344513E+04  0.16398344513E+04  0.00000000000E+00 0.  1.
    9000010    2    1    2  501    0 -0.28686312280E+03 -0.58809760843E+02 -0.12871837658E+04  0.16626173587E+04  0.10107944377E+04 0.  0.
        -13    1    3    3    0    0 -0.22117818000E+03  0.23201328768E+03  0.20667862067E+02  0.32121196219E+03  0.10566000000E+00 0.  1.
          4    1    3    3  501    0 -0.65684942803E+02 -0.29082304852E+03 -0.13078516279E+04  0.13414053965E+04  0.00000000000E+00 0.  1.
         13    1    1    2    0    0  0.28686312280E+03  0.58809760843E+02 -0.34959008071E+02  0.29490876996E+03  0.10566000000E+00 0. -1.
<mgrwt>
<rscale>  1 0.76432122E+03</rscale>
<asrwt>0</asrwt>
<pdfrwt beam="1">  1       21 0.48875643E-01 0.10523566E+04</pdfrwt>
<pdfrwt beam="2">  1        4 0.25228222E+00 0.10523566E+04</pdfrwt>
<totfact> 0.96094603E+00</totfact>
</mgrwt>
</event>
<event>
 6    1  0.1375310E-005  0.1023649E+04  0.7818608E-02  0.9751431E-01
         21   -1    0    0  501  502  0.00000000000E+00  0.00000000000E+00  0.39232424763E+03  0.39232424763E+03  0.00000000000E+00 0.  1.
          4   -1    0    0  502    0 -0.00000000000E+00 -0.00000000000E+00 -0.96657253238E+03  0.96657253238E+03  0.00000000000E+00 0.  1.
    9000010    2    1    2  501    0  0.15728732980E+03  0.12312995930E+03 -0.53610588993E+03  0.11555371369E+04  0.10039702479E+04 0.  0.
        -13    1    3    3    0    0 -0.28649659630E+03 -0.23128358727E+03  0.90270519913E+01  0.36831222660E+03  0.10566000000E+00 0.  1.
          4    1    3    3  501    0  0.44378392610E+03  0.35441354656E+03 -0.54513294192E+03  0.78722491032E+03  0.00000000000E+00 0.  1.
         13    1    1    2    0    0 -0.15728732980E+03 -0.12312995930E+03 -0.38142394826E+02  0.20335964310E+03  0.10566000000E+00 0. -1.
<mgrwt>
<rscale>  1 0.68035450E+03</rscale>
<asrwt>0</asrwt>
<pdfrwt beam="1">  1       21 0.60357577E-01 0.10236486E+04</pdfrwt>
<pdfrwt beam="2">  1        4 0.14870346E+00 0.10236486E+04</pdfrwt>
<totfact> 0.30331207E+01</totfact>
</mgrwt>
</event>
<event>
 6    1  0.1375310E-005  0.9878627E+03  0.7818608E-02  0.9996484E-01
          4   -1    0    0  502    0 -0.00000000000E+00  0.00000000000E+00  0.32139489082E+03  0.32139489082E+03  0.00000000000E+00 0.  1.
         21   -1    0    0  501  502  0.00000000000E+00 -0.00000000000E+00 -0.11237262538E+04  0.11237262538E+04  0.00000000000E+00 0.  1.
    9000010    2    1    2  501    0 -0.92097033986E+02  0.40474793369E+02 -0.87608884391E+03  0.13203804145E+04  0.98272717684E+03 0.  0.
        -13    1    3    3    0    0 -0.14445886603E+03  0.12416972068E+03  0.17857589303E+03  0.26110504446E+03  0.10566000000E+00 0.  1.
          4    1    3    3  501    0  0.52361832044E+02 -0.83694927312E+02 -0.10546647369E+04  0.10592753701E+04  0.00000000000E+00 0.  1.
         13    1    1    2    0    0  0.92097033986E+02 -0.40474793369E+02  0.73757480969E+02  0.12474073004E+03  0.10566000000E+00 0. -1.
<mgrwt>
<rscale>  1 0.55804660E+03</rscale>
<asrwt>0</asrwt>
<pdfrwt beam="2">  1       21 0.17288096E+00 0.98786273E+03</pdfrwt>
<pdfrwt beam="1">  1        4 0.49445368E-01 0.98786273E+03</pdfrwt>
<totfact> 0.28528495E+01</totfact>
</mgrwt>
</event>
<event>
 6    1  0.1375310E-005  0.1034320E+04  0.7818608E-02  0.9601133E-01
         21   -1    0    0  501  502  0.00000000000E+00  0.00000000000E+00  0.54161885933E+03  0.54161885933E+03  0.00000000000E+00 0.  1.
          4   -1    0    0  502    0 -0.00000000000E+00 -0.00000000000E+00 -0.84835668570E+03  0.84835668570E+03  0.00000000000E+00 0.  1.
    9000010    2    1    2  501    0  0.32128152392E+03  0.67405809907E+01 -0.23829166261E+03  0.10614148329E+04  0.98313339788E+03 0.  0.
        -13    1    3    3    0    0  0.40186481405E+03 -0.24237397158E+03  0.23172744906E+03  0.52339095586E+03  0.10566000000E+00 0.  1.
          4    1    3    3  501    0 -0.80583290132E+02  0.24911455257E+03 -0.47001911167E+03  0.53802387706E+03  0.00000000000E+00 0.  1.
         13    1    1    2    0    0 -0.32128152392E+03 -0.67405809907E+01 -0.68446163758E+02  0.32856071211E+03  0.10566000000E+00 0. -1.
<mgrwt>
<rscale>  1 0.77221224E+03</rscale>
<asrwt>0</asrwt>
<pdfrwt beam="1">  1       21 0.83325978E-01 0.10343203E+04</pdfrwt>
<pdfrwt beam="2">  1        4 0.13051641E+00 0.10343203E+04</pdfrwt>
<totfact> 0.20327105E+01</totfact>
</mgrwt>
</event>
<event>
 6    1  0.1375310E-005  0.1054531E+04  0.7818608E-02  0.9570460E-01
         21   -1    0    0  501  502  0.00000000000E+00  0.00000000000E+00  0.19613121829E+04  0.19613121829E+04  0.00000000000E+00 0.  1.
          4   -1    0    0  502    0 -0.00000000000E+00 -0.00000000000E+00 -0.47949314470E+03  0.47949314470E+03  0.00000000000E+00 0.  1.
    9000010    2    1    2  501    0  0.33567036567E+03  0.29049969078E+02  0.17274231688E+04  0.20238642104E+04  0.99925824639E+03 0.  0.
        -13    1    3    3    0    0 -0.33367466577E+03 -0.80227586297E+02  0.83659083147E+03  0.90424525359E+03  0.10566000000E+00 0.  1.
          4    1    3    3  501    0  0.66934503144E+03  0.10927755538E+03  0.89083233732E+03  0.11196189568E+04  0.00000000000E+00 0.  1.
         13    1    1    2    0    0 -0.33567036567E+03 -0.29049969078E+02 -0.24560413059E+03  0.41694111721E+03  0.10566000000E+00 0. -1.
<mgrwt>
<rscale>  1 0.79282591E+03</rscale>
<asrwt>0</asrwt>
<pdfrwt beam="1">  1       21 0.30174033E+00 0.10545310E+04</pdfrwt>
<pdfrwt beam="2">  1        4 0.73768177E-01 0.10545310E+04</pdfrwt>
<totfact> 0.16794901E+00</totfact>
</mgrwt>
</event>
<event>
 6    1  0.1375310E-005  0.9201867E+03  0.7818608E-02  0.9855250E-01
         21   -1    0    0  501  502  0.00000000000E+00  0.00000000000E+00  0.44067759001E+03  0.44067759001E+03  0.00000000000E+00 0.  1.
          4   -1    0    0  502    0 -0.00000000000E+00 -0.00000000000E+00 -0.10130802448E+04  0.10130802448E+04  0.00000000000E+00 0.  1.
    9000010    2    1    2  501    0  0.17408462859E+03  0.89151126801E+02 -0.79672825944E+02  0.92362947609E+03  0.89916086913E+03 0.  0.
        -13    1    3    3    0    0 -0.20037072242E+03 -0.25618029011E+02  0.31074073138E+03  0.37062720234E+03  0.10566000000E+00 0.  1.
          4    1    3    3  501    0  0.37445535102E+03  0.11476915581E+03 -0.39041355732E+03  0.55300227375E+03  0.00000000000E+00 0.  1.
         13    1    1    2    0    0 -0.17408462859E+03 -0.89151126801E+02 -0.49272982884E+03  0.53012835871E+03  0.10566000000E+00 0. -1.
<mgrwt>
<rscale>  1 0.62479957E+03</rscale>
<asrwt>0</asrwt>
<pdfrwt beam="1">  1       21 0.67796553E-01 0.92018675E+03</pdfrwt>
<pdfrwt beam="2">  1        4 0.15585850E+00 0.92018675E+03</pdfrwt>
<totfact> 0.20772810E+01</totfact>
</mgrwt>
</event>
<event>
 6    1  0.1375310E-005  0.1017339E+04  0.7818608E-02  0.9724551E-01
         21   -1    0    0  501  502  0.00000000000E+00  0.00000000000E+00  0.12081338946E+04  0.12081338946E+04  0.00000000000E+00 0.  1.
          4   -1    0    0  502    0 -0.00000000000E+00 -0.00000000000E+00 -0.46053337698E+03  0.46053337698E+03  0.00000000000E+00 0.  1.
    9000010    2    1    2  501    0  0.14108348920E+03 -0.17208591963E+03  0.93196625787E+03  0.13796882896E+04  0.99270365975E+03 0.  0.
        -13    1    3    3    0    0  0.48596116964E+02  0.36953312568E+03  0.67949024288E+03  0.77499891283E+03  0.10566000000E+00 0.  1.
          4    1    3    3  501    0  0.92487372240E+02 -0.54161904531E+03  0.25247601499E+03  0.60468937680E+03  0.00000000000E+00 0.  1.
         13    1    1    2    0    0 -0.14108348920E+03  0.17208591963E+03 -0.18436574026E+03  0.28897898194E+03  0.10566000000E+00 0. -1.
<mgrwt>
<rscale>  1 0.69573652E+03</rscale>
<asrwt>0</asrwt>
<pdfrwt beam="1">  1       21 0.18586675E+00 0.10173390E+04</pdfrwt>
<pdfrwt beam="2">  1        4 0.70851289E-01 0.10173390E+04</pdfrwt>
<totfact> 0.10464447E+01</totfact>
</mgrwt>
</event>
<event>
 6    1  0.1375310E-005  0.1130376E+04  0.7818608E-02  0.9886700E-01
         21   -1    0    0  501  502  0.00000000000E+00  0.00000000000E+00  0.46324376238E+03  0.46324376238E+03  0.00000000000E+00 0.  1.
          4   -1    0    0  502    0 -0.00000000000E+00 -0.00000000000E+00 -0.10108411393E+04  0.10108411393E+04  0.00000000000E+00 0.  1.
    9000010    2    1    2  501    0 -0.92583775392E+02  0.22589335481E+02 -0.24471273100E+03  0.11565614326E+04  0.11263516294E+04 0.  0.
        -13    1    3    3    0    0 -0.39977046256E+03 -0.16374075110E+03  0.28424195628E+03  0.51712760242E+03  0.10566000000E+00 0.  1.
          4    1    3    3  501    0  0.30718668716E+03  0.18633008658E+03 -0.52895468728E+03  0.63943383015E+03  0.00000000000E+00 0.  1.
         13    1    1    2    0    0  0.92583775392E+02 -0.22589335481E+02 -0.30288464594E+03  0.31752346914E+03  0.10566000000E+00 0. -1.
<mgrwt>
<rscale>  1 0.60910220E+03</rscale>
<asrwt>0</asrwt>
<pdfrwt beam="1">  1       21 0.71268271E-01 0.11303761E+04</pdfrwt>
<pdfrwt beam="2">  1        4 0.15551402E+00 0.11303761E+04</pdfrwt>
<totfact> 0.18264388E+01</totfact>
</mgrwt>
</event>
<event>
 6    1  0.1375310E-005  0.1151594E+04  0.7818608E-02  0.9333414E-01
          4   -1    0    0  502    0 -0.00000000000E+00  0.00000000000E+00  0.62601906513E+03  0.62601906513E+03  0.00000000000E+00 0.  1.
         21   -1    0    0  501  502  0.00000000000E+00 -0.00000000000E+00 -0.12487738108E+04  0.12487738108E+04  0.00000000000E+00 0. -1.
    9000010    2    1    2  501    0 -0.74958421576E+02 -0.59344484001E+03 -0.27906513211E+03  0.11849246967E+04  0.98405977754E+03 0.  0.
        -13    1    3    3    0    0  0.11277436685E+03  0.10257200234E+03 -0.42315343415E+03  0.44977540337E+03  0.10566000000E+00 0.  1.
          4    1    3    3  501    0 -0.18773278842E+03 -0.69601684235E+03  0.14408830204E+03  0.73514929332E+03  0.00000000000E+00 0.  1.
         13    1    1    2    0    0  0.74958421576E+02  0.59344484001E+03 -0.34368961356E+03  0.68986817924E+03  0.10566000000E+00 0. -1.
<mgrwt>
<rscale>  1 0.97764013E+03</rscale>
<asrwt>0</asrwt>
<pdfrwt beam="2">  1       21 0.19211905E+00 0.11515942E+04</pdfrwt>
<pdfrwt beam="1">  1        4 0.96310626E-01 0.11515942E+04</pdfrwt>
<totfact> 0.45632066E+00</totfact>
</mgrwt>
</event>
<event>
 6    1  0.1375310E-005  0.1011577E+04  0.7818608E-02  0.9894221E-01
          4   -1    0    0  502    0 -0.00000000000E+00  0.00000000000E+00  0.17137647707E+03  0.17137647707E+03  0.00000000000E+00 0.  1.
         21   -1    0    0  501  502  0.00000000000E+00 -0.00000000000E+00 -0.19700461823E+04  0.19700461823E+04  0.00000000000E+00 0.  1.
    9000010    2    1    2  501    0 -0.54602120831E+02 -0.11774361286E+03 -0.17007177609E+04  0.19788202469E+04  0.10032166852E+04 0.  0.
        -13    1    3    3    0    0 -0.10331354226E+03  0.14198885443E+03 -0.17055002968E+04  0.17145161989E+04  0.10566000000E+00 0.  1.
          4    1    3    3  501    0  0.48711421432E+02 -0.25973246729E+03  0.47825359032E+01  0.26430404800E+03  0.00000000000E+00 0.  1.
         13    1    1    2    0    0  0.54602120831E+02  0.11774361286E+03 -0.97951944282E+02  0.16260241241E+03  0.10566000000E+00 0. -1.
<mgrwt>
<rscale>  1 0.60542181E+03</rscale>
<asrwt>0</asrwt>
<pdfrwt beam="2">  1       21 0.30308403E+00 0.10115773E+04</pdfrwt>
<pdfrwt beam="1">  1        4 0.26365611E-01 0.10115773E+04</pdfrwt>
<totfact> 0.14084685E+01</totfact>
</mgrwt>
</event>
<event>
 6    1  0.1375310E-005  0.1001116E+04  0.7818608E-02  0.9730193E-01
         21   -1    0    0  501  502  0.00000000000E+00  0.00000000000E+00  0.10426778239E+04  0.10426778239E+04  0.00000000000E+00 0.  1.
          4   -1    0    0  502    0 -0.00000000000E+00 -0.00000000000E+00 -0.49970905832E+03  0.49970905832E+03  0.00000000000E+00 0.  1.
    9000010    2    1    2  501    0  0.14219713191E+03  0.17971845100E+03  0.73616570941E+03  0.12426473015E+04  0.97453251274E+03 0.  0.
        -13    1    3    3    0    0  0.40589330899E+03  0.24341884532E+03  0.83011470772E+03  0.95555876411E+03  0.10566000000E+00 0.  1.
          4    1    3    3  501    0 -0.26369617708E+03 -0.63700394316E+02 -0.93948998314E+02  0.28708853743E+03  0.00000000000E+00 0.  1.
         13    1    1    2    0    0 -0.14219713191E+03 -0.17971845100E+03 -0.19319694382E+03  0.29973958067E+03  0.10566000000E+00 0. -1.
<mgrwt>
<rscale>  1 0.69247239E+03</rscale>
<asrwt>0</asrwt>
<pdfrwt beam="1">  1       21 0.16041197E+00 0.10011156E+04</pdfrwt>
<pdfrwt beam="2">  1        4 0.76878317E-01 0.10011156E+04</pdfrwt>
<totfact> 0.13467405E+01</totfact>
</mgrwt>
</event>
<event>
 6    1  0.1375310E-005  0.1051316E+04  0.7818608E-02  0.9685583E-01
          4   -1    0    0  502    0 -0.00000000000E+00  0.00000000000E+00  0.92817195467E+03  0.92817195467E+03  0.00000000000E+00 0.  1.
         21   -1    0    0  501  502  0.00000000000E+00 -0.00000000000E+00 -0.46250550995E+03  0.46250550995E+03  0.00000000000E+00 0.  1.
    9000010    2    1    2  501    0  0.33795272804E+02  0.22726033019E+03  0.26158855679E+03  0.10833711457E+04  0.10259020851E+04 0.  0.
        -13    1    3    3    0    0 -0.85781815136E+02  0.47405059973E+03  0.51838331922E+03  0.70767490256E+03  0.10566000000E+00 0.  1.
          4    1    3    3  501    0  0.11957708794E+03 -0.24679026954E+03 -0.25679476243E+03  0.37569624314E+03  0.00000000000E+00 0.  1.
         13    1    1    2    0    0 -0.33795272804E+02 -0.22726033019E+03  0.20407788792E+03  0.30730631892E+03  0.10566000000E+00 0. -1.
<mgrwt>
<rscale>  1 0.71881670E+03</rscale>
<asrwt>0</asrwt>
<pdfrwt beam="2">  1       21 0.71154694E-01 0.10513156E+04</pdfrwt>
<pdfrwt beam="1">  1        4 0.14279569E+00 0.10513156E+04</pdfrwt>
<totfact> 0.23214730E+01</totfact>
</mgrwt>
</event>
<event>
 6    1  0.1375310E-005  0.9708791E+03  0.7818608E-02  0.9640321E-01
         21   -1    0    0  501  502  0.00000000000E+00  0.00000000000E+00  0.11547794751E+04  0.11547794751E+04  0.00000000000E+00 0.  1.
          4   -1    0    0  502    0 -0.00000000000E+00 -0.00000000000E+00 -0.42655767264E+03  0.42655767264E+03  0.00000000000E+00 0.  1.
    9000010    2    1    2  501    0  0.57628516533E+02 -0.33502976502E+03  0.76956126180E+03  0.12388828422E+04  0.90941749029E+03 0.  0.
        -13    1    3    3    0    0 -0.26248203419E+03  0.15907667826E+03  0.51051571087E+03  0.59567483584E+03  0.10566000000E+00 0.  1.
          4    1    3    3  501    0  0.32011055072E+03 -0.49410644328E+03  0.25904555093E+03  0.64320800635E+03  0.00000000000E+00 0.  1.
         13    1    1    2    0    0 -0.57628516533E+02  0.33502976502E+03 -0.41339459296E+02  0.34245430560E+03  0.10566000000E+00 0. -1.
<mgrwt>
<rscale>  1 0.74684007E+03</rscale>
<asrwt>0</asrwt>
<pdfrwt beam="1">  1       21 0.17765838E+00 0.97087907E+03</pdfrwt>
<pdfrwt beam="2">  1        4 0.65624258E-01 0.97087907E+03</pdfrwt>
<totfact> 0.14311711E+01</totfact>
</mgrwt>
</event>
<event>
 6    1  0.1375310E-005  0.1009467E+04  0.7818608E-02  0.9882423E-01
         21   -1    0    0  501  502  0.00000000000E+00  0.00000000000E+00  0.85277764532E+03  0.85277764532E+03  0.00000000000E+00 0.  1.
          4   -1    0    0  502    0 -0.00000000000E+00 -0.00000000000E+00 -0.82029254462E+03  0.82029254462E+03  0.00000000000E+00 0.  1.
    9000010    2    1    2  501    0  0.12829808259E+03  0.44107371934E+02  0.54202301046E+03  0.11457801835E+04  0.10003086657E+04 0.  0.
        -13    1    3    3    0    0  0.31177847342E+03 -0.13561219594E+03 -0.17625465853E+03  0.38296501145E+03  0.10566000000E+00 0.  1.
          4    1    3    3  501    0 -0.18348039083E+03  0.17971956787E+03  0.71827766900E+03  0.76281517203E+03  0.00000000000E+00 0.  1.
         13    1    1    2    0    0 -0.12829808259E+03 -0.44107371934E+02 -0.50953790977E+03  0.52729000646E+03  0.10566000000E+00 0. -1.
<mgrwt>
<rscale>  1 0.61120737E+03</rscale>
<asrwt>0</asrwt>
<pdfrwt beam="1">  1       21 0.13119656E+00 0.10094668E+04</pdfrwt>
<pdfrwt beam="2">  1        4 0.12619885E+00 0.10094668E+04</pdfrwt>
<totfact> 0.71102167E+00</totfact>
</mgrwt>
</event>
<event>
 6    1  0.1375310E-005  0.9977054E+03  0.7818608E-02  0.9836684E-01
         21   -1    0    0  501  502  0.00000000000E+00  0.00000000000E+00  0.39141339799E+03  0.39141339799E+03  0.00000000000E+00 0.  1.
          4   -1    0    0  502    0 -0.00000000000E+00 -0.00000000000E+00 -0.97176713399E+03  0.97176713399E+03  0.00000000000E+00 0.  1.
    9000010    2    1    2  501    0  0.83016855818E+02 -0.14027456059E+03 -0.30514996531E+03  0.10433276326E+04  0.98430040986E+03 0.  0.
        -13    1    3    3    0    0 -0.35132711746E+03 -0.19683302171E+02  0.16791122787E+03  0.38988763439E+03  0.10566000000E+00 0.  1.
          4    1    3    3  501    0  0.43434397327E+03 -0.12059125842E+03 -0.47306119318E+03  0.65343999818E+03  0.00000000000E+00 0.  1.
         13    1    1    2    0    0 -0.83016855818E+02  0.14027456059E+03 -0.27520377069E+03  0.31985289942E+03  0.10566000000E+00 0. -1.
<mgrwt>
<rscale>  1 0.63430503E+03</rscale>
<asrwt>0</asrwt>
<pdfrwt beam="1">  1       21 0.60217446E-01 0.99770539E+03</pdfrwt>
<pdfrwt beam="2">  1        4 0.14950263E+00 0.99770539E+03</pdfrwt>
<totfact> 0.30123756E+01</totfact>
</mgrwt>
</event>
<event>
 6    1  0.1375310E-005  0.1116118E+04  0.7818608E-02  0.9414284E-01
          4   -1    0    0  502    0 -0.00000000000E+00  0.00000000000E+00  0.10485334959E+04  0.10485334959E+04  0.00000000000E+00 0.  1.
         21   -1    0    0  501  502  0.00000000000E+00 -0.00000000000E+00 -0.64981809609E+03  0.64981809609E+03  0.00000000000E+00 0.  1.
    9000010    2    1    2  501    0 -0.41598718439E+03  0.26130995532E+03  0.45210152469E+03  0.12042075646E+04  0.10021935141E+04 0.  0.
        -13    1    3    3    0    0 -0.24075925801E+02  0.59735910207E+03  0.27861248163E+03  0.65957749591E+03  0.10566000000E+00 0.  1.
          4    1    3    3  501    0 -0.39191125859E+03 -0.33604914675E+03  0.17348904307E+03  0.54463006868E+03  0.00000000000E+00 0.  1.
         13    1    1    2    0    0  0.41598718439E+03 -0.26130995532E+03 -0.53386124879E+02  0.49414402741E+03  0.10566000000E+00 0. -1.
<mgrwt>
<rscale>  1 0.90909390E+03</rscale>
<asrwt>0</asrwt>
<pdfrwt beam="2">  1       21 0.99972015E-01 0.11161183E+04</pdfrwt>
<pdfrwt beam="1">  1        4 0.16131285E+00 0.11161183E+04</pdfrwt>
<totfact> 0.73693691E+00</totfact>
</mgrwt>
</event>
<event>
 6    1  0.1375310E-005  0.1004838E+04  0.7818608E-02  0.9737608E-01
         21   -1    0    0  501  502  0.00000000000E+00  0.00000000000E+00  0.80250083282E+03  0.80250083282E+03  0.00000000000E+00 0.  1.
          4   -1    0    0  502    0 -0.00000000000E+00 -0.00000000000E+00 -0.90580007344E+03  0.90580007344E+03  0.00000000000E+00 0.  1.
    9000010    2    1    2  501    0 -0.21846638200E+03 -0.34054845728E+02  0.45854218436E+03  0.11045185857E+04  0.98021073184E+03 0.  0.
        -13    1    3    3    0    0 -0.40537771360E+03 -0.39401023949E+03  0.12397576282E+03  0.57874446903E+03  0.10566000000E+00 0.  1.
          4    1    3    3  501    0  0.18691133160E+03  0.35995539376E+03  0.33456642154E+03  0.52577411670E+03  0.00000000000E+00 0.  1.
         13    1    1    2    0    0  0.21846638200E+03  0.34054845728E+02 -0.56184142498E+03  0.60378232052E+03  0.10566000000E+00 0. -1.
<mgrwt>
<rscale>  1 0.68821115E+03</rscale>
<asrwt>0</asrwt>
<pdfrwt beam="1">  1       21 0.12346167E+00 0.10048385E+04</pdfrwt>
<pdfrwt beam="2">  1        4 0.13935386E+00 0.10048385E+04</pdfrwt>
<totfact> 0.64655985E+00</totfact>
</mgrwt>
</event>
<event>
 6    1  0.1375310E-005  0.1016738E+04  0.7818608E-02  0.9713273E-01
          4   -1    0    0  502    0 -0.00000000000E+00  0.00000000000E+00  0.22067447154E+04  0.22067447154E+04  0.00000000000E+00 0.  1.
         21   -1    0    0  501  502  0.00000000000E+00 -0.00000000000E+00 -0.21391021371E+03  0.21391021371E+03  0.00000000000E+00 0.  1.
    9000010    2    1    2  501    0 -0.20455038936E+03  0.10835913765E+03  0.10983592071E+04  0.14967130325E+04  0.99003756965E+03 0.  0.
        -13    1    3    3    0    0 -0.55926977347E+03  0.87983885128E+02  0.96182519955E+03  0.11160786573E+04  0.10566000000E+00 0.  1.
          4    1    3    3  501    0  0.35471938410E+03  0.20375252527E+02  0.13653400751E+03  0.38063437520E+03  0.00000000000E+00 0.  1.
         13    1    1    2    0    0  0.20455038936E+03 -0.10835913765E+03  0.89447529468E+03  0.92394189669E+03  0.10566000000E+00 0. -1.
<mgrwt>
<rscale>  1 0.70231972E+03</rscale>
<asrwt>0</asrwt>
<pdfrwt beam="2">  1       21 0.32909265E-01 0.10167384E+04</pdfrwt>
<pdfrwt beam="1">  1        4 0.33949917E+00 0.10167384E+04</pdfrwt>
<totfact> 0.63403059E+00</totfact>
</mgrwt>
</event>
<event>
 6    1  0.1375310E-005  0.8642000E+03  0.7818608E-02  0.1006611E+00
         21   -1    0    0  501  502  0.00000000000E+00  0.00000000000E+00  0.10634718119E+04  0.10634718119E+04  0.00000000000E+00 0.  1.
          4   -1    0    0  502    0 -0.00000000000E+00 -0.00000000000E+00 -0.22815087134E+03  0.22815087134E+03  0.00000000000E+00 0.  1.
    9000010    2    1    2  501    0 -0.10780712442E+03 -0.54544065803E+02  0.72578890427E+03  0.11285438394E+04  0.85571270448E+03 0.  0.
        -13    1    3    3    0    0 -0.40571755000E+03  0.21740431571E+03  0.36695386623E+03  0.58866503037E+03  0.10566000000E+00 0.  1.
          4    1    3    3  501    0  0.29791042559E+03 -0.27194838151E+03  0.35883503803E+03  0.53987880899E+03  0.00000000000E+00 0.  1.
         13    1    1    2    0    0  0.10780712442E+03  0.54544065803E+02  0.10953203633E+03  0.16307884393E+03  0.10566000000E+00 0. -1.
<mgrwt>
<rscale>  1 0.52843960E+03</rscale>
<asrwt>0</asrwt>
<pdfrwt beam="1">  1       21 0.16361104E+00 0.86420001E+03</pdfrwt>
<pdfrwt beam="2">  1        4 0.35100135E-01 0.86420001E+03</pdfrwt>
<totfact> 0.68512511E+01</totfact>
</mgrwt>
</event>
<event>
 6    1  0.1375310E-005  0.1100898E+04  0.7818608E-02  0.9688792E-01
         21   -1    0    0  501  502  0.00000000000E+00  0.00000000000E+00  0.67199390723E+03  0.67199390723E+03  0.00000000000E+00 0.  1.
          4   -1    0    0  502    0 -0.00000000000E+00 -0.00000000000E+00 -0.10942113880E+04  0.10942113880E+04  0.00000000000E+00 0.  1.
    9000010    2    1    2  501    0  0.51902212948E+02  0.19101985333E+03  0.19499001749E+03  0.11180328404E+04  0.10829560939E+04 0.  0.
        -13    1    3    3    0    0 -0.30783815327E+03  0.25054199143E+03  0.50298873082E+03  0.64072871996E+03  0.10566000000E+00 0.  1.
          4    1    3    3  501    0  0.35974036622E+03 -0.59522138107E+02 -0.30799871333E+03  0.47730412048E+03  0.00000000000E+00 0.  1.
         13    1    1    2    0    0 -0.51902212948E+02 -0.19101985333E+03 -0.61720749823E+03  0.64817245476E+03  0.10566000000E+00 0. -1.
<mgrwt>
<rscale>  1 0.71688044E+03</rscale>
<asrwt>0</asrwt>
<pdfrwt beam="1">  1       21 0.10338368E+00 0.11008980E+04</pdfrwt>
<pdfrwt beam="2">  1        4 0.16834021E+00 0.11008980E+04</pdfrwt>
<totfact> 0.60260157E+00</totfact>
</mgrwt>
</event>
<event>
 6    1  0.1375310E-005  0.1030917E+04  0.7818608E-02  0.9690796E-01
         21   -1    0    0  501  502  0.00000000000E+00  0.00000000000E+00  0.59780737561E+03  0.59780737561E+03  0.00000000000E+00 0.  1.
          4   -1    0    0  502    0 -0.00000000000E+00 -0.00000000000E+00 -0.70044276921E+03  0.70044276921E+03  0.00000000000E+00 0.  1.
    9000010    2    1    2  501    0  0.12068802372E+03 -0.20679584886E+03  0.15985058694E+02  0.10310405921E+04  0.10027258142E+04 0.  0.
        -13    1    3    3    0    0 -0.43284116399E+03  0.71910248168E+01  0.54617549495E+02  0.43633275371E+03  0.10566000000E+00 0.  1.
          4    1    3    3  501    0  0.55352918771E+03 -0.21398687368E+03 -0.38632490802E+02  0.59470783844E+03  0.00000000000E+00 0.  1.
         13    1    1    2    0    0 -0.12068802372E+03  0.20679584886E+03 -0.11862045230E+03  0.26720955268E+03  0.10566000000E+00 0. -1.
<mgrwt>
<rscale>  1 0.71567450E+03</rscale>
<asrwt>0</asrwt>
<pdfrwt beam="1">  1       21 0.91970365E-01 0.10309167E+04</pdfrwt>
<pdfrwt beam="2">  1        4 0.10776043E+00 0.10309167E+04</pdfrwt>
<totfact> 0.25947199E+01</totfact>
</mgrwt>
</event>
<event>
 6    1  0.1375310E-005  0.1059894E+04  0.7818608E-02  0.9542803E-01
         21   -1    0    0  501  502  0.00000000000E+00  0.00000000000E+00  0.51766518133E+03  0.51766518133E+03  0.00000000000E+00 0. -1.
          4   -1    0    0  502    0 -0.00000000000E+00 -0.00000000000E+00 -0.13714686574E+04  0.13714686574E+04  0.00000000000E+00 0.  1.
    9000010    2    1    2  501    0 -0.19450467537E+03 -0.30900855970E+03 -0.11637798494E+03  0.10662640283E+04  0.99501597176E+03 0.  0.
        -13    1    3    3    0    0  0.33911129966E+03 -0.23297201670E+03 -0.28615044885E+03  0.50115319481E+03  0.10566000000E+00 0.  1.
          4    1    3    3  501    0 -0.53361597503E+03 -0.76036542995E+02  0.16977246392E+03  0.56511083354E+03  0.00000000000E+00 0.  1.
         13    1    1    2    0    0  0.19450467537E+03  0.30900855970E+03 -0.73742549118E+03  0.82286981043E+03  0.10566000000E+00 0. -1.
<mgrwt>
<rscale>  1 0.81200378E+03</rscale>
<asrwt>0</asrwt>
<pdfrwt beam="1">  1       21 0.79640799E-01 0.10598939E+04</pdfrwt>
<pdfrwt beam="2">  1        4 0.21099517E+00 0.10598939E+04</pdfrwt>
<totfact> 0.58331100E+00</totfact>
</mgrwt>
</event>
<event>
 6    1  0.1375310E-005  0.1022087E+04  0.7818608E-02  0.9781035E-01
          4   -1    0    0  502    0 -0.00000000000E+00  0.00000000000E+00  0.77228650243E+03  0.77228650243E+03  0.00000000000E+00 0.  1.
         21   -1    0    0  501  502  0.00000000000E+00 -0.00000000000E+00 -0.53287793597E+03  0.53287793597E+03  0.00000000000E+00 0.  1.
    9000010    2    1    2  501    0 -0.49183596758E+02 -0.17517779950E+03  0.22886689852E+02  0.10223429013E+04  0.10057608660E+04 0.  0.
        -13    1    3    3    0    0  0.14817464545E+02 -0.16682659593E+03  0.50699932601E+03  0.53394662477E+03  0.10566000000E+00 0.  1.
          4    1    3    3  501    0 -0.64001061303E+02 -0.83512035705E+01 -0.48411263616E+03  0.48839627654E+03  0.00000000000E+00 0.  1.
         13    1    1    2    0    0  0.49183596758E+02  0.17517779950E+03  0.21652187661E+03  0.28282153709E+03  0.10566000000E+00 0. -1.
<mgrwt>
<rscale>  1 0.66390300E+03</rscale>
<asrwt>0</asrwt>
<pdfrwt beam="2">  1       21 0.81981221E-01 0.10220867E+04</pdfrwt>
<pdfrwt beam="1">  1        4 0.11881331E+00 0.10220867E+04</pdfrwt>
<totfact> 0.26863932E+01</totfact>
</mgrwt>
</event>
<event>
 6    1  0.1375310E-005  0.1279375E+04  0.7818608E-02  0.9169667E-01
          4   -1    0    0  502    0 -0.00000000000E+00  0.00000000000E+00  0.10907952040E+04  0.10907952040E+04  0.00000000000E+00 0.  1.
         21   -1    0    0  501  502  0.00000000000E+00 -0.00000000000E+00 -0.10001961101E+04  0.10001961101E+04  0.00000000000E+00 0. -1.
    9000010    2    1    2  501    0 -0.39522896636E+02  0.79768782555E+03 -0.48541625885E+02  0.12802952690E+04  0.99946573733E+03 0.  0.
        -13    1    3    3    0    0 -0.42977326050E+03  0.53084419364E+03  0.24290911462E+03  0.72491755565E+03  0.10566000000E+00 0.  1.
          4    1    3    3  501    0  0.39025036387E+03  0.26684363191E+03 -0.29145074050E+03  0.55537771339E+03  0.00000000000E+00 0.  1.
         13    1    1    2    0    0  0.39522896636E+02 -0.79768782555E+03  0.13914071974E+03  0.81069604504E+03  0.10566000000E+00 0. -1.
<mgrwt>
<rscale>  1 0.11372074E+04</rscale>
<asrwt>0</asrwt>
<pdfrwt beam="2">  1       21 0.15387632E+00 0.12793747E+04</pdfrwt>
<pdfrwt beam="1">  1        4 0.16781465E+00 0.12793747E+04</pdfrwt>
<totfact> 0.20736479E+00</totfact>
</mgrwt>
</event>
<event>
 6    1  0.1375310E-005  0.1030966E+04  0.7818608E-02  0.9679681E-01
          4   -1    0    0  502    0 -0.00000000000E+00  0.00000000000E+00  0.83784823574E+03  0.83784823574E+03  0.00000000000E+00 0.  1.
         21   -1    0    0  501  502  0.00000000000E+00 -0.00000000000E+00 -0.53308086366E+03  0.53308086366E+03  0.00000000000E+00 0.  1.
    9000010    2    1    2  501    0 -0.17942062377E+03  0.17196551505E+03  0.77027957243E+02  0.10338398667E+04  0.10005636737E+04 0.  0.
        -13    1    3    3    0    0  0.16500562977E+03 -0.25075619536E+03  0.31834934111E+03  0.43755210149E+03  0.10566000000E+00 0.  1.
          4    1    3    3  501    0 -0.34442625354E+03  0.42272171041E+03 -0.24132138387E+03  0.59628776517E+03  0.00000000000E+00 0.  1.
         13    1    1    2    0    0  0.17942062377E+03 -0.17196551505E+03  0.22773941484E+03  0.33708923275E+03  0.10566000000E+00 0. -1.
<mgrwt>
<rscale>  1 0.72239579E+03</rscale>
<asrwt>0</asrwt>
<pdfrwt beam="2">  1       21 0.82012440E-01 0.10309663E+04</pdfrwt>
<pdfrwt beam="1">  1        4 0.12889973E+00 0.10309663E+04</pdfrwt>
<totfact> 0.21800795E+01</totfact>
</mgrwt>
</event>
<event>
 6    1  0.1375310E-005  0.1029033E+04  0.7818608E-02  0.9925935E-01
         21   -1    0    0  501  502  0.00000000000E+00  0.00000000000E+00  0.55613943135E+03  0.55613943135E+03  0.00000000000E+00 0.  1.
          4   -1    0    0  502    0 -0.00000000000E+00 -0.00000000000E+00 -0.61228970756E+03  0.61228970756E+03  0.00000000000E+00 0.  1.
    9000010    2    1    2  501    0 -0.78700817349E+02 -0.78786035819E+02 -0.12639386191E+03  0.10367658160E+04  0.10229891939E+04 0.  0.
        -13    1    3    3    0    0 -0.12584413124E+03 -0.54491750355E+03 -0.43187265673E+02  0.56092511276E+03  0.10566000000E+00 0.  1.
          4    1    3    3  501    0  0.47143313886E+02  0.46613146773E+03 -0.83206596234E+02  0.47584070329E+03  0.00000000000E+00 0.  1.
         13    1    1    2    0    0  0.78700817349E+02  0.78786035819E+02  0.70243585701E+02  0.13166332286E+03  0.10566000000E+00 0. -1.
<mgrwt>
<rscale>  1 0.59020689E+03</rscale>
<asrwt>0</asrwt>
<pdfrwt beam="1">  1       21 0.85559912E-01 0.10290325E+04</pdfrwt>
<pdfrwt beam="2">  1        4 0.94198417E-01 0.10290325E+04</pdfrwt>
<totfact> 0.42751527E+01</totfact>
</mgrwt>
</event>
<event>
 6    1  0.1375310E-005  0.1033532E+04  0.7818608E-02  0.9703811E-01
          4   -1    0    0  502    0 -0.00000000000E+00  0.00000000000E+00  0.56020524765E+03  0.56020524765E+03  0.00000000000E+00 0.  1.
         21   -1    0    0  501  502  0.00000000000E+00 -0.00000000000E+00 -0.12237430116E+04  0.12237430116E+04  0.00000000000E+00 0.  1.
    9000010    2    1    2  501    0 -0.20209931217E+03 -0.10439608947E+03 -0.95977976459E+03  0.14104485811E+04  0.10081891329E+04 0.  0.
        -13    1    3    3    0    0 -0.28731185432E+03 -0.36084969355E+03 -0.10322846022E+04  0.11306511903E+04  0.10566000000E+00 0.  1.
          4    1    3    3  501    0  0.85212542149E+02  0.25645360408E+03  0.72504837642E+02  0.27979739074E+03  0.00000000000E+00 0.  1.
         13    1    1    2    0    0  0.20209931217E+03  0.10439608947E+03  0.29624200067E+03  0.37349967818E+03  0.10566000000E+00 0. -1.
<mgrwt>
<rscale>  1 0.70790342E+03</rscale>
<asrwt>0</asrwt>
<pdfrwt beam="2">  1       21 0.18826815E+00 0.10335318E+04</pdfrwt>
<pdfrwt beam="1">  1        4 0.86185423E-01 0.10335318E+04</pdfrwt>
<totfact> 0.64124424E+00</totfact>
</mgrwt>
</event>
<event>
 6    1  0.1375310E-005  0.9996410E+03  0.7818608E-02  0.9960777E-01
         21   -1    0    0  501  502  0.00000000000E+00  0.00000000000E+00  0.33087644154E+04  0.33087644154E+04  0.00000000000E+00 0.  1.
          4   -1    0    0  502    0 -0.00000000000E+00 -0.00000000000E+00 -0.98834621113E+02  0.98834621113E+02  0.00000000000E+00 0.  1.
    9000010    2    1    2  501    0 -0.22674349181E+02  0.10631104781E+03  0.30801849130E+04  0.32383361925E+04  0.99371325440E+03 0.  0.
        -13    1    3    3    0    0 -0.61633593020E+02  0.50852860863E+03  0.10495694054E+04  0.11679023904E+04  0.10566000000E+00 0.  1.
          4    1    3    3  501    0  0.38959243839E+02 -0.40221756082E+03  0.20306155077E+04  0.20704338021E+04  0.00000000000E+00 0.  1.
         13    1    1    2    0    0  0.22674349181E+02 -0.10631104781E+03  0.12974488123E+03  0.16926284402E+03  0.10566000000E+00 0. -1.
<mgrwt>
<rscale>  1 0.57404069E+03</rscale>
<asrwt>0</asrwt>
<pdfrwt beam="1">  1       21 0.50904059E+00 0.99964103E+03</pdfrwt>
<pdfrwt beam="2">  1        4 0.15205329E-01 0.99964103E+03</pdfrwt>
<totfact> 0.16909395E+00</totfact>
</mgrwt>
</event>
<event>
 6    1  0.1375310E-005  0.1059210E+04  0.7818608E-02  0.9554999E-01
         21   -1    0    0  501  502  0.00000000000E+00  0.00000000000E+00  0.55045455911E+03  0.55045455911E+03  0.00000000000E+00 0.  1.
          4   -1    0    0  502    0 -0.00000000000E+00 -0.00000000000E+00 -0.13807826801E+04  0.13807826801E+04  0.00000000000E+00 0.  1.
    9000010    2    1    2  501    0 -0.35053744322E+03 -0.10920275267E+02 -0.32476157801E+02  0.10597078261E+04  0.99946496909E+03 0.  0.
        -13    1    3    3    0    0 -0.31703936330E+02 -0.44091610099E+03  0.18852532468E+03  0.48057669201E+03  0.10566000000E+00 0.  1.
          4    1    3    3  501    0 -0.31883350689E+03  0.42999582572E+03 -0.22100148248E+03  0.57913113413E+03  0.00000000000E+00 0.  1.
         13    1    1    2    0    0  0.35053744322E+03  0.10920275267E+02 -0.79785196318E+03  0.87152941306E+03  0.10566000000E+00 0. -1.
<mgrwt>
<rscale>  1 0.80347588E+03</rscale>
<asrwt>0</asrwt>
<pdfrwt beam="1">  1       21 0.84685317E-01 0.10592101E+04</pdfrwt>
<pdfrwt beam="2">  1        4 0.21242810E+00 0.10592101E+04</pdfrwt>
<totfact> 0.49370276E+00</totfact>
</mgrwt>
</event>
<event>
 6    1  0.1375310E-005  0.1028313E+04  0.7818608E-02  0.9652351E-01
         21   -1    0    0  501  502  0.00000000000E+00  0.00000000000E+00  0.79843307407E+03  0.79843307407E+03  0.00000000000E+00 0.  1.
          4   -1    0    0  502    0 -0.00000000000E+00 -0.00000000000E+00 -0.53222228482E+03  0.53222228482E+03  0.00000000000E+00 0.  1.
    9000010    2    1    2  501    0 -0.25581987317E+03  0.10000432653E+03  0.19134769816E+03  0.10459640060E+04  0.99095009332E+03 0.  0.
        -13    1    3    3    0    0  0.37019758164E+03 -0.51542652481E+02  0.14251178757E+03  0.40001564374E+03  0.10566000000E+00 0.  1.
          4    1    3    3  501    0 -0.62601745481E+03  0.15154697901E+03  0.48835910591E+02  0.64594836228E+03  0.00000000000E+00 0.  1.
         13    1    1    2    0    0  0.25581987317E+03 -0.10000432653E+03  0.74863091094E+02  0.28469135288E+03  0.10566000000E+00 0. -1.
<mgrwt>
<rscale>  1 0.73926049E+03</rscale>
<asrwt>0</asrwt>
<pdfrwt beam="1">  1       21 0.12283586E+00 0.10283126E+04</pdfrwt>
<pdfrwt beam="2">  1        4 0.81880352E-01 0.10283126E+04</pdfrwt>
<totfact> 0.24075899E+01</totfact>
</mgrwt>
</event>
<event>
 6    1  0.1375310E-005  0.8884591E+03  0.7818608E-02  0.9580391E-01
          4   -1    0    0  502    0 -0.00000000000E+00  0.00000000000E+00  0.59193676913E+03  0.59193676913E+03  0.00000000000E+00 0.  1.
         21   -1    0    0  501  502  0.00000000000E+00 -0.00000000000E+00 -0.86762511386E+03  0.86762511386E+03  0.00000000000E+00 0. -1.
    9000010    2    1    2  501    0  0.15236386033E+03  0.52268372202E+03 -0.18747651799E+03  0.90802370957E+03  0.70210155473E+03 0.  0.
        -13    1    3    3    0    0  0.27869268823E+03  0.64983439386E+03 -0.12392265246E+03  0.71785178753E+03  0.10566000000E+00 0.  1.
          4    1    3    3  501    0 -0.12632882790E+03 -0.12715067184E+03 -0.63553865533E+02  0.19017192204E+03  0.00000000000E+00 0.  1.
         13    1    1    2    0    0 -0.15236386033E+03 -0.52268372202E+03 -0.88211826741E+02  0.55153817342E+03  0.10566000000E+00 0. -1.
<mgrwt>
<rscale>  1 0.78607729E+03</rscale>
<asrwt>0</asrwt>
<pdfrwt beam="2">  1       21 0.13348079E+00 0.88845912E+03</pdfrwt>
<pdfrwt beam="1">  1        4 0.91067196E-01 0.88845912E+03</pdfrwt>
<totfact> 0.15318910E+01</totfact>
</mgrwt>
</event>
<event>
 6    1  0.1375310E-005  0.1000883E+04  0.7818608E-02  0.1013759E+00
          4   -1    0    0  502    0 -0.00000000000E+00  0.00000000000E+00  0.62012379399E+03  0.62012379399E+03  0.00000000000E+00 0.  1.
         21   -1    0    0  501  502  0.00000000000E+00 -0.00000000000E+00 -0.47086407542E+03  0.47086407542E+03  0.00000000000E+00 0.  1.
    9000010    2    1    2  501    0 -0.62143355804E+02 -0.53532265461E+01  0.89948933971E+02  0.10049167707E+04  0.99893766149E+03 0.  0.
        -13    1    3    3    0    0  0.29981121086E+03 -0.34689997385E+03  0.19169221641E+03  0.49696304793E+03  0.10566000000E+00 0.  1.
          4    1    3    3  501    0 -0.36195456666E+03  0.34154674731E+03 -0.10174328244E+03  0.50795372274E+03  0.00000000000E+00 0.  1.
         13    1    1    2    0    0  0.62143355804E+02  0.53532265461E+01  0.59310784592E+02  0.86071098738E+02  0.10566000000E+00 0. -1.
<mgrwt>
<rscale>  1 0.50007793E+03</rscale>
<asrwt>0</asrwt>
<pdfrwt beam="2">  1       21 0.72440627E-01 0.10008831E+04</pdfrwt>
<pdfrwt beam="1">  1        4 0.95403661E-01 0.10008831E+04</pdfrwt>
<totfact> 0.61430136E+01</totfact>
</mgrwt>
</event>
<event>
 6    1  0.1375310E-005  0.1039873E+04  0.7818608E-02  0.9638576E-01
          4   -1    0    0  502    0 -0.00000000000E+00  0.00000000000E+00  0.62422060632E+03  0.62422060632E+03  0.00000000000E+00 0.  1.
         21   -1    0    0  501  502  0.00000000000E+00 -0.00000000000E+00 -0.70907251585E+03  0.70907251585E+03  0.00000000000E+00 0.  1.
    9000010    2    1    2  501    0 -0.19226874199E+03 -0.20123257674E+03  0.79699343267E+01  0.10399030662E+04  0.10019346526E+04 0.  0.
        -13    1    3    3    0    0 -0.21795757949E+03 -0.60093780201E+03 -0.21020079759E+01  0.63924657054E+03  0.10566000000E+00 0.  1.
          4    1    3    3  501    0  0.25688837503E+02  0.39970522527E+03  0.10071942303E+02  0.40065649565E+03  0.00000000000E+00 0.  1.
         13    1    1    2    0    0  0.19226874199E+03  0.20123257674E+03 -0.92821843855E+02  0.29339005598E+03  0.10566000000E+00 0. -1.
<mgrwt>
<rscale>  1 0.74794748E+03</rscale>
<asrwt>0</asrwt>
<pdfrwt beam="2">  1       21 0.10908808E+00 0.10398725E+04</pdfrwt>
<pdfrwt beam="1">  1        4 0.96033939E-01 0.10398725E+04</pdfrwt>
<totfact> 0.22439380E+01</totfact>
</mgrwt>
</event>
<event>
 6    1  0.1375310E-005  0.1029425E+04  0.7818608E-02  0.9769307E-01
          4   -1    0    0  502    0 -0.00000000000E+00  0.00000000000E+00  0.11874508266E+04  0.11874508266E+04  0.00000000000E+00 0.  1.
         21   -1    0    0  501  502  0.00000000000E+00 -0.00000000000E+00 -0.36317466786E+03  0.36317466786E+03  0.00000000000E+00 0.  1.
    9000010    2    1    2  501    0  0.14014838529E+03  0.12094328939E+03  0.43109701606E+03  0.11160467346E+04  0.10126434848E+04 0.  0.
        -13    1    3    3    0    0  0.13536130200E+03 -0.20998485496E+02 -0.32186857130E+03  0.34980424072E+03  0.10566000000E+00 0.  1.
          4    1    3    3  501    0  0.47870832827E+01  0.14194177489E+03  0.75296558735E+03  0.76624249384E+03  0.00000000000E+00 0.  1.
         13    1    1    2    0    0 -0.14014838529E+03 -0.12094328939E+03  0.39317914267E+03  0.43457875989E+03  0.10566000000E+00 0. -1.
<mgrwt>
<rscale>  1 0.67036058E+03</rscale>
<asrwt>0</asrwt>
<pdfrwt beam="2">  1       21 0.55873026E-01 0.10294249E+04</pdfrwt>
<pdfrwt beam="1">  1        4 0.18268474E+00 0.10294249E+04</pdfrwt>
<totfact> 0.20264423E+01</totfact>
</mgrwt>
</event>
<event>
 6    1  0.1375310E-005  0.1019702E+04  0.7818608E-02  0.9805618E-01
          4   -1    0    0  502    0 -0.00000000000E+00  0.00000000000E+00  0.38756921142E+03  0.38756921142E+03  0.00000000000E+00 0.  1.
         21   -1    0    0  501  502  0.00000000000E+00 -0.00000000000E+00 -0.92285842328E+03  0.92285842328E+03  0.00000000000E+00 0.  1.
    9000010    2    1    2  501    0  0.12692420744E+03 -0.11158531452E+03 -0.50801194411E+03  0.11392403181E+04  0.10055999852E+04 0.  0.
        -13    1    3    3    0    0 -0.23861497831E+03  0.26129979962E+03  0.69548994225E+02  0.36062690820E+03  0.10566000000E+00 0.  1.
          4    1    3    3  501    0  0.36553918575E+03 -0.37288511413E+03 -0.57756093834E+03  0.77861340995E+03  0.00000000000E+00 0.  1.
         13    1    1    2    0    0 -0.12692420744E+03  0.11158531452E+03 -0.27277267742E+02  0.17118731655E+03  0.10566000000E+00 0. -1.
<mgrwt>
<rscale>  1 0.65061901E+03</rscale>
<asrwt>0</asrwt>
<pdfrwt beam="2">  1       21 0.14197822E+00 0.10197021E+04</pdfrwt>
<pdfrwt beam="1">  1        4 0.59626034E-01 0.10197021E+04</pdfrwt>
<totfact> 0.33298469E+01</totfact>
</mgrwt>
</event>
<event>
 6    1  0.1375310E-005  0.1035557E+04  0.7818608E-02  0.9723341E-01
         21   -1    0    0  501  502  0.00000000000E+00  0.00000000000E+00  0.65052646632E+03  0.65052646632E+03  0.00000000000E+00 0. -1.
          4   -1    0    0  502    0 -0.00000000000E+00 -0.00000000000E+00 -0.69052765190E+03  0.69052765190E+03  0.00000000000E+00 0.  1.
    9000010    2    1    2  501    0 -0.12388840623E+03  0.17183780127E+03 -0.22509902948E+03  0.10597397209E+04  0.10136578002E+04 0.  0.
        -13    1    3    3    0    0  0.11027821400E+03  0.50617068373E+03  0.11240261019E+03  0.53009848471E+03  0.10566000000E+00 0.  1.
          4    1    3    3  501    0 -0.23416662024E+03 -0.33433288245E+03 -0.33750163967E+03  0.52964123622E+03  0.00000000000E+00 0.  1.
         13    1    1    2    0    0  0.12388840623E+03 -0.17183780127E+03  0.18509784390E+03  0.28131439730E+03  0.10566000000E+00 0. -1.
<mgrwt>
<rscale>  1 0.69643901E+03</rscale>
<asrwt>0</asrwt>
<pdfrwt beam="1">  1       21 0.10008100E+00 0.10355572E+04</pdfrwt>
<pdfrwt beam="2">  1        4 0.10623502E+00 0.10355572E+04</pdfrwt>
<totfact> 0.21831489E+01</totfact>
</mgrwt>
</event>
<event>
 6    1  0.1375310E-005  0.1395146E+04  0.7818608E-02  0.9053545E-01
          4   -1    0    0  502    0 -0.00000000000E+00  0.00000000000E+00  0.12773356387E+04  0.12773356387E+04  0.00000000000E+00 0.  1.
         21   -1    0    0  501  502  0.00000000000E+00 -0.00000000000E+00 -0.11094577387E+04  0.11094577387E+04  0.00000000000E+00 0. -1.
    9000010    2    1    2  501    0 -0.62471037981E+03  0.72701930975E+03  0.27593387266E+03  0.14221710473E+04  0.10137114236E+04 0.  0.
        -13    1    3    3    0    0  0.74435320072E+02 -0.20728925548E+03  0.10060576910E+03  0.24213835766E+03  0.10566000000E+00 0.  1.
          4    1    3    3  501    0 -0.69914569988E+03  0.93430856522E+03  0.17532810356E+03  0.11800326896E+04  0.00000000000E+00 0.  1.
         13    1    1    2    0    0  0.62471037981E+03 -0.72701930975E+03 -0.10805597258E+03  0.96462233012E+03  0.10566000000E+00 0. -1.
<mgrwt>
<rscale>  1 0.12701894E+04</rscale>
<asrwt>0</asrwt>
<pdfrwt beam="2">  1       21 0.17068581E+00 0.13951455E+04</pdfrwt>
<pdfrwt beam="1">  1        4 0.19651318E+00 0.13951455E+04</pdfrwt>
<totfact> 0.95388192E-01</totfact>
</mgrwt>
</event>
<event>
 6    1  0.1375310E-005  0.1082776E+04  0.7818608E-02  0.9476924E-01
         21   -1    0    0  501  502  0.00000000000E+00  0.00000000000E+00  0.88849281794E+03  0.88849281794E+03  0.00000000000E+00 0. -1.
          4   -1    0    0  502    0 -0.00000000000E+00 -0.00000000000E+00 -0.86195794358E+03  0.86195794358E+03  0.00000000000E+00 0.  1.
    9000010    2    1    2  501    0 -0.42310978779E+03  0.82273207904E+02 -0.39016418470E+03  0.11509268752E+04  0.99328435395E+03 0.  0.
        -13    1    3    3    0    0 -0.66545206280E+03 -0.97861008906E+02 -0.19573719116E+02  0.67289402330E+03  0.10566000000E+00 0.  1.
          4    1    3    3  501    0  0.24234227501E+03  0.18013421681E+03 -0.37059046558E+03  0.47803285191E+03  0.00000000000E+00 0.  1.
         13    1    1    2    0    0  0.42310978779E+03 -0.82273207904E+02  0.41669905906E+03  0.59952388631E+03  0.10566000000E+00 0. -1.
<mgrwt>
<rscale>  1 0.86006671E+03</rscale>
<asrwt>0</asrwt>
<pdfrwt beam="1">  1       21 0.13669120E+00 0.10827763E+04</pdfrwt>
<pdfrwt beam="2">  1        4 0.13260891E+00 0.10827763E+04</pdfrwt>
<totfact> 0.55601087E+00</totfact>
</mgrwt>
</event>
<event>
 6    1  0.1375310E-005  0.1012122E+04  0.7818608E-02  0.9792159E-01
         21   -1    0    0  501  502  0.00000000000E+00  0.00000000000E+00  0.37417561202E+03  0.37417561202E+03  0.00000000000E+00 0.  1.
          4   -1    0    0  502    0 -0.00000000000E+00 -0.00000000000E+00 -0.99131063254E+03  0.99131063254E+03  0.00000000000E+00 0.  1.
    9000010    2    1    2  501    0  0.15701854136E+03  0.89305141009E+02 -0.41364348932E+03  0.10933850778E+04  0.99587135789E+03 0.  0.
        -13    1    3    3    0    0  0.33671000567E+03 -0.37358077981E+03 -0.29428452221E+03  0.58270028156E+03  0.10566000000E+00 0.  1.
          4    1    3    3  501    0 -0.17969146431E+03  0.46288592082E+03 -0.11935896711E+03  0.51068479619E+03  0.00000000000E+00 0.  1.
         13    1    1    2    0    0 -0.15701854136E+03 -0.89305141009E+02 -0.20349153120E+03  0.27210116680E+03  0.10566000000E+00 0. -1.
<mgrwt>
<rscale>  1 0.65785023E+03</rscale>
<asrwt>0</asrwt>
<pdfrwt beam="1">  1       21 0.57565480E-01 0.10121215E+04</pdfrwt>
<pdfrwt beam="2">  1        4 0.15250932E+00 0.10121215E+04</pdfrwt>
<totfact> 0.31518218E+01</totfact>
</mgrwt>
</event>
<event>
 6    1  0.1375310E-005  0.1048114E+04  0.7818608E-02  0.9631653E-01
          4   -1    0    0  502    0 -0.00000000000E+00  0.00000000000E+00  0.10842800719E+04  0.10842800719E+04  0.00000000000E+00 0.  1.
         21   -1    0    0  501  502  0.00000000000E+00 -0.00000000000E+00 -0.94195211975E+03  0.94195211975E+03  0.00000000000E+00 0.  1.
    9000010    2    1    2  501    0  0.25140006901E+03 -0.11932006684E+03 -0.61788613192E+03  0.12166861844E+04  0.10104962772E+04 0.  0.
        -13    1    3    3    0    0  0.27422560237E+03  0.42181996960E+03 -0.24891784654E+03  0.56133044924E+03  0.10566000000E+00 0.  1.
          4    1    3    3  501    0 -0.22825533360E+02 -0.54114003644E+03 -0.36896828538E+03  0.65535573518E+03  0.00000000000E+00 0.  1.
         13    1    1    2    0    0 -0.25140006901E+03  0.11932006684E+03  0.76021408407E+03  0.80954600723E+03  0.10566000000E+00 0. -1.
<mgrwt>
<rscale>  1 0.75236124E+03</rscale>
<asrwt>0</asrwt>
<pdfrwt beam="2">  1       21 0.14491571E+00 0.10481135E+04</pdfrwt>
<pdfrwt beam="1">  1        4 0.16681232E+00 0.10481135E+04</pdfrwt>
<totfact> 0.25690878E+00</totfact>
</mgrwt>
</event>
<event>
 6    1  0.1375310E-005  0.1012738E+04  0.7818608E-02  0.9803486E-01
          4   -1    0    0  502    0 -0.00000000000E+00  0.00000000000E+00  0.46936201693E+03  0.46936201693E+03  0.00000000000E+00 0.  1.
         21   -1    0    0  501  502  0.00000000000E+00 -0.00000000000E+00 -0.82089757768E+03  0.82089757768E+03  0.00000000000E+00 0.  1.
    9000010    2    1    2  501    0  0.41814659138E+02 -0.16861392339E+03 -0.42924436814E+03  0.10999498713E+04  0.99772735297E+03 0.  0.
        -13    1    3    3    0    0 -0.98377398231E+02  0.15319965691E+03  0.26528611997E+03  0.32175298596E+03  0.10566000000E+00 0.  1.
          4    1    3    3  501    0  0.14019205737E+03 -0.32181358030E+03 -0.69453048811E+03  0.77819688533E+03  0.00000000000E+00 0.  1.
         13    1    1    2    0    0 -0.41814659138E+02  0.16861392339E+03  0.77708807401E+02  0.19030972333E+03  0.10566000000E+00 0. -1.
<mgrwt>
<rscale>  1 0.65175788E+03</rscale>
<asrwt>0</asrwt>
<pdfrwt beam="2">  1       21 0.12629194E+00 0.10127384E+04</pdfrwt>
<pdfrwt beam="1">  1        4 0.72209541E-01 0.10127384E+04</pdfrwt>
<totfact> 0.29856968E+01</totfact>
</mgrwt>
</event>
<event>
 6    1  0.1375310E-005  0.1020260E+04  0.7818608E-02  0.9530232E-01
          4   -1    0    0  502    0 -0.00000000000E+00  0.00000000000E+00  0.96402946514E+03  0.96402946514E+03  0.00000000000E+00 0.  1.
         21   -1    0    0  501  502  0.00000000000E+00 -0.00000000000E+00 -0.54806632842E+03  0.54806632842E+03  0.00000000000E+00 0.  1.
    9000010    2    1    2  501    0 -0.10876625967E+03  0.41355211617E+03  0.35446014543E+03  0.10800794963E+04  0.92632298445E+03 0.  0.
        -13    1    3    3    0    0 -0.31562701395E+03  0.62793412048E+03  0.14963453721E+03  0.71854866049E+03  0.10566000000E+00 0.  1.
          4    1    3    3  501    0  0.20686075428E+03 -0.21438200432E+03  0.20482560822E+03  0.36153083578E+03  0.00000000000E+00 0.  1.
         13    1    1    2    0    0  0.10876625967E+03 -0.41355211617E+03  0.61502991300E+02  0.43201629730E+03  0.10566000000E+00 0. -1.
<mgrwt>
<rscale>  1 0.82091195E+03</rscale>
<asrwt>0</asrwt>
<pdfrwt beam="2">  1       21 0.84317897E-01 0.10202596E+04</pdfrwt>
<pdfrwt beam="1">  1        4 0.14831222E+00 0.10202596E+04</pdfrwt>
<totfact> 0.14150960E+01</totfact>
</mgrwt>
</event>
<event>
 6    1  0.1375310E-005  0.1036938E+04  0.7818608E-02  0.9719514E-01
         21   -1    0    0  501  502  0.00000000000E+00  0.00000000000E+00  0.64612393948E+03  0.64612393948E+03  0.00000000000E+00 0.  1.
          4   -1    0    0  502    0 -0.00000000000E+00 -0.00000000000E+00 -0.64828766006E+03  0.64828766006E+03  0.00000000000E+00 0.  1.
    9000010    2    1    2  501    0  0.10109793869E+03 -0.18828418884E+03  0.12702439051E+03  0.10446891372E+04  0.10146765340E+04 0.  0.
        -13    1    3    3    0    0 -0.19325132264E+03 -0.75055799280E+02 -0.38849681469E+03  0.44035126081E+03  0.10566000000E+00 0.  1.
          4    1    3    3  501    0  0.29434926133E+03 -0.11322838956E+03  0.51552120520E+03  0.60433787641E+03  0.00000000000E+00 0.  1.
         13    1    1    2    0    0 -0.10109793869E+03  0.18828418884E+03 -0.12918811109E+03  0.24972246232E+03  0.10566000000E+00 0. -1.
<mgrwt>
<rscale>  1 0.69866744E+03</rscale>
<asrwt>0</asrwt>
<pdfrwt beam="1">  1       21 0.99403683E-01 0.10369379E+04</pdfrwt>
<pdfrwt beam="2">  1        4 0.99736563E-01 0.10369379E+04</pdfrwt>
<totfact> 0.25884656E+01</totfact>
</mgrwt>
</event>
<event>
 6    1  0.1375310E-005  0.1016607E+04  0.7818608E-02  0.9798650E-01
          4   -1    0    0  502    0 -0.00000000000E+00  0.00000000000E+00  0.52308761626E+03  0.52308761626E+03  0.00000000000E+00 0.  1.
         21   -1    0    0  501  502  0.00000000000E+00 -0.00000000000E+00 -0.80147616227E+03  0.80147616227E+03  0.00000000000E+00 0.  1.
    9000010    2    1    2  501    0  0.16690871445E+03 -0.50891046952E+02 -0.41988810293E+03  0.10999072554E+04  0.10015196123E+04 0.  0.
        -13    1    3    3    0    0  0.51431323458E+03  0.86486161089E+02  0.21088247370E+02  0.52196042442E+03  0.10566000000E+00 0.  1.
          4    1    3    3  501    0 -0.34740452013E+03 -0.13737720804E+03 -0.44097635030E+03  0.57794683097E+03  0.00000000000E+00 0.  1.
         13    1    1    2    0    0 -0.16690871445E+03  0.50891046952E+02  0.14149955692E+03  0.22465652314E+03  0.10566000000E+00 0. -1.
<mgrwt>
<rscale>  1 0.65435053E+03</rscale>
<asrwt>0</asrwt>
<pdfrwt beam="2">  1       21 0.12330402E+00 0.10166071E+04</pdfrwt>
<pdfrwt beam="1">  1        4 0.80475018E-01 0.10166071E+04</pdfrwt>
<totfact> 0.24835887E+01</totfact>
</mgrwt>
</event>
<event>
 6    1  0.1375310E-005  0.9252495E+03  0.7818608E-02  0.9626460E-01
         21   -1    0    0  501  502  0.00000000000E+00  0.00000000000E+00  0.42349848526E+03  0.42349848526E+03  0.00000000000E+00 0.  1.
          4   -1    0    0  502    0 -0.00000000000E+00 -0.00000000000E+00 -0.12646536934E+04  0.12646536934E+04  0.00000000000E+00 0.  1.
    9000010    2    1    2  501    0  0.22202100242E+03  0.34673319681E+03 -0.23368920138E+03  0.95430464967E+03  0.82859488669E+03 0.  0.
        -13    1    3    3    0    0 -0.13500649029E+03 -0.96813356187E+02 -0.33690371113E+03  0.37563772453E+03  0.10566000000E+00 0.  1.
          4    1    3    3  501    0  0.35702749271E+03  0.44354655300E+03  0.10321450975E+03  0.57866692514E+03  0.00000000000E+00 0.  1.
         13    1    1    2    0    0 -0.22202100242E+03 -0.34673319681E+03 -0.60746600676E+03  0.73384752900E+03  0.10566000000E+00 0. -1.
<mgrwt>
<rscale>  1 0.75569387E+03</rscale>
<asrwt>0</asrwt>
<pdfrwt beam="1">  1       21 0.65153614E-01 0.92524955E+03</pdfrwt>
<pdfrwt beam="2">  1        4 0.19456210E+00 0.92524955E+03</pdfrwt>
<totfact> 0.12079283E+01</totfact>
</mgrwt>
</event>
<event>
 6    1  0.1375310E-005  0.1105204E+04  0.7818608E-02  0.9528496E-01
         21   -1    0    0  501  502  0.00000000000E+00  0.00000000000E+00  0.29248401936E+03  0.29248401936E+03  0.00000000000E+00 0.  1.
          4   -1    0    0  502    0 -0.00000000000E+00 -0.00000000000E+00 -0.18066859666E+04  0.18066859666E+04  0.00000000000E+00 0.  1.
    9000010    2    1    2  501    0  0.10032899628E+03  0.32322491274E+03 -0.10480560848E+04  0.15231211791E+04  0.10521104113E+04 0.  0.
        -13    1    3    3    0    0 -0.16037672315E+03  0.58384968769E+03 -0.97440504230E+03  0.11471993501E+04  0.10566000000E+00 0.  1.
          4    1    3    3  501    0  0.26070571943E+03 -0.26062477495E+03 -0.73651042537E+02  0.37592182902E+03  0.00000000000E+00 0.  1.
         13    1    1    2    0    0 -0.10032899628E+03 -0.32322491274E+03 -0.46614586238E+03  0.57604880686E+03  0.10566000000E+00 0. -1.
<mgrwt>
<rscale>  1 0.82215121E+03</rscale>
<asrwt>0</asrwt>
<pdfrwt beam="1">  1       21 0.44997543E-01 0.11052043E+04</pdfrwt>
<pdfrwt beam="2">  1        4 0.27795168E+00 0.11052043E+04</pdfrwt>
<totfact> 0.79173627E+00</totfact>
</mgrwt>
</event>
<event>
 6    1  0.1375310E-005  0.1099923E+04  0.7818608E-02  0.9442880E-01
          4   -1    0    0  502    0 -0.00000000000E+00  0.00000000000E+00  0.18337803476E+04  0.18337803476E+04  0.00000000000E+00 0.  1.
         21   -1    0    0  501  502  0.00000000000E+00 -0.00000000000E+00 -0.40943645760E+03  0.40943645760E+03  0.00000000000E+00 0. -1.
    9000010    2    1    2  501    0 -0.46162607742E+03 -0.43634319561E+02  0.13979392311E+04  0.17787818728E+04  0.99741078203E+03 0.  0.
        -13    1    3    3    0    0 -0.30636903974E+03  0.11065274150E+02  0.15345465693E+04  0.15648698391E+04  0.10566000000E+00 0.  1.
          4    1    3    3  501    0 -0.15525703768E+03 -0.54699593711E+02 -0.13660733825E+03  0.21391203371E+03  0.00000000000E+00 0.  1.
         13    1    1    2    0    0  0.46162607742E+03  0.43634319561E+02  0.26404658893E+02  0.46443493234E+03  0.10566000000E+00 0. -1.
<mgrwt>
<rscale>  1 0.88629289E+03</rscale>
<asrwt>0</asrwt>
<pdfrwt beam="2">  1       21 0.62990225E-01 0.10999231E+04</pdfrwt>
<pdfrwt beam="1">  1        4 0.28212005E+00 0.10999231E+04</pdfrwt>
<totfact> 0.35751782E+00</totfact>
</mgrwt>
</event>
<event>
 6    1  0.1375310E-005  0.9604343E+03  0.7818608E-02  0.1027923E+00
         21   -1    0    0  501  502  0.00000000000E+00  0.00000000000E+00  0.73172186623E+03  0.73172186623E+03  0.00000000000E+00 0.  1.
          4   -1    0    0  502    0 -0.00000000000E+00 -0.00000000000E+00 -0.53177735483E+03  0.53177735483E+03  0.00000000000E+00 0.  1.
    9000010    2    1    2  501    0 -0.39960255695E+02 -0.22804455323E+02  0.41304705716E+03  0.10454864430E+04  0.95933162456E+03 0.  0.
        -13    1    3    3    0    0  0.27989493857E+03  0.31439103307E+03  0.39979114620E+03  0.58053067968E+03  0.10566000000E+00 0.  1.
          4    1    3    3  501    0 -0.31985519426E+03 -0.33719548839E+03  0.13255910968E+02  0.46495576334E+03  0.00000000000E+00 0.  1.
         13    1    1    2    0    0  0.39960255695E+02  0.22804455323E+02 -0.21310254576E+03  0.21801277804E+03  0.10566000000E+00 0. -1.
<mgrwt>
<rscale>  1 0.44932717E+03</rscale>
<asrwt>0</asrwt>
<pdfrwt beam="1">  1       21 0.11257259E+00 0.96043429E+03</pdfrwt>
<pdfrwt beam="2">  1        4 0.81811901E-01 0.96043429E+03</pdfrwt>
<totfact> 0.30407166E+01</totfact>
</mgrwt>
</event>
<event>
 6    1  0.1375310E-005  0.1000330E+04  0.7818608E-02  0.1006966E+00
         21   -1    0    0  501  502  0.00000000000E+00  0.00000000000E+00  0.18820552061E+03  0.18820552061E+03  0.00000000000E+00 0.  1.
          4   -1    0    0  502    0 -0.00000000000E+00 -0.00000000000E+00 -0.15440236188E+04  0.15440236188E+04  0.00000000000E+00 0.  1.
    9000010    2    1    2  501    0 -0.86312550106E+00 -0.77042480546E+02 -0.12748055689E+04  0.16204287375E+04  0.99735839403E+03 0.  0.
        -13    1    3    3    0    0  0.39215407666E+03 -0.33464460520E+03 -0.52693936217E+03  0.73718175113E+03  0.10566000000E+00 0.  1.
          4    1    3    3  501    0 -0.39301720216E+03  0.25760212466E+03 -0.74786620674E+03  0.88324698641E+03  0.00000000000E+00 0.  1.
         13    1    1    2    0    0  0.86312550106E+00  0.77042480546E+02 -0.81012529322E+02  0.11180040190E+03  0.10566000000E+00 0. -1.
<mgrwt>
<rscale>  1 0.52698347E+03</rscale>
<asrwt>0</asrwt>
<pdfrwt beam="1">  1       21 0.28954695E-01 0.10003300E+04</pdfrwt>
<pdfrwt beam="2">  1        4 0.23754210E+00 0.10003300E+04</pdfrwt>
<totfact> 0.35440114E+01</totfact>
</mgrwt>
</event>
<event>
 6    1  0.1375310E-005  0.9978506E+03  0.7818608E-02  0.9660851E-01
          4   -1    0    0  502    0 -0.00000000000E+00  0.00000000000E+00  0.12341983312E+04  0.12341983312E+04  0.00000000000E+00 0.  1.
         21   -1    0    0  501  502  0.00000000000E+00 -0.00000000000E+00 -0.49464048101E+03  0.49464048101E+03  0.00000000000E+00 0.  1.
    9000010    2    1    2  501    0 -0.29106285679E+03  0.24347992773E+02  0.72313908656E+02  0.10004674097E+04  0.95414638555E+03 0.  0.
        -13    1    3    3    0    0  0.10271424636E+03 -0.33243330515E+03 -0.20214948933E+03  0.40240097661E+03  0.10566000000E+00 0.  1.
          4    1    3    3  501    0 -0.39377710315E+03  0.35678129792E+03  0.27446339799E+03  0.59806643305E+03  0.00000000000E+00 0.  1.
         13    1    1    2    0    0  0.29106285679E+03 -0.24347992773E+02  0.66724394152E+03  0.72837140252E+03  0.10566000000E+00 0. -1.
<mgrwt>
<rscale>  1 0.73396338E+03</rscale>
<asrwt>0</asrwt>
<pdfrwt beam="2">  1       21 0.76098536E-01 0.99785056E+03</pdfrwt>
<pdfrwt beam="1">  1        4 0.18987666E+00 0.99785056E+03</pdfrwt>
<totfact> 0.90207175E+00</totfact>
</mgrwt>
</event>
<event>
 6    1  0.1375310E-005  0.1026559E+04  0.7818608E-02  0.9671491E-01
         21   -1    0    0  501  502  0.00000000000E+00  0.00000000000E+00  0.90432031620E+03  0.90432031620E+03  0.00000000000E+00 0.  1.
          4   -1    0    0  502    0 -0.00000000000E+00 -0.00000000000E+00 -0.46109949308E+03  0.46109949308E+03  0.00000000000E+00 0.  1.
    9000010    2    1    2  501    0 -0.78416816047E+02  0.24661723858E+03  0.29926501993E+03  0.10692905405E+04  0.99340497702E+03 0.  0.
        -13    1    3    3    0    0  0.23562790704E+03  0.24937082747E+03  0.56292274160E+03  0.65923314870E+03  0.10566000000E+00 0.  1.
          4    1    3    3  501    0 -0.31404472309E+03 -0.27535888864E+01 -0.26365772166E+03  0.41005739177E+03  0.00000000000E+00 0.  1.
         13    1    1    2    0    0  0.78416816047E+02 -0.24661723858E+03  0.14395580319E+03  0.29612926880E+03  0.10566000000E+00 0. -1.
<mgrwt>
<rscale>  1 0.72739839E+03</rscale>
<asrwt>0</asrwt>
<pdfrwt beam="1">  1       21 0.13912620E+00 0.10265587E+04</pdfrwt>
<pdfrwt beam="2">  1        4 0.70938383E-01 0.10265587E+04</pdfrwt>
<totfact> 0.23957553E+01</totfact>
</mgrwt>
</event>
<event>
 6    1  0.1375310E-005  0.1012391E+04  0.7818608E-02  0.9778283E-01
         21   -1    0    0  501  502  0.00000000000E+00  0.00000000000E+00  0.21680547658E+04  0.21680547658E+04  0.00000000000E+00 0.  1.
          4   -1    0    0  502    0 -0.00000000000E+00 -0.00000000000E+00 -0.21694203686E+03  0.21694203686E+03  0.00000000000E+00 0.  1.
    9000010    2    1    2  501    0 -0.14799179375E+02  0.18835615627E+03  0.19487640671E+04  0.21960455267E+04  0.99460419706E+03 0.  0.
        -13    1    3    3    0    0 -0.16287453560E+03  0.52491721036E+03  0.67598486822E+03  0.87121854050E+03  0.10566000000E+00 0.  1.
          4    1    3    3  501    0  0.14807535623E+03 -0.33656105410E+03  0.12727791989E+04  0.13248269862E+04  0.00000000000E+00 0.  1.
         13    1    1    2    0    0  0.14799179375E+02 -0.18835615627E+03  0.23486618351E+01  0.18895127597E+03  0.10566000000E+00 0. -1.
<mgrwt>
<rscale>  1 0.66541122E+03</rscale>
<asrwt>0</asrwt>
<pdfrwt beam="1">  1       21 0.33354687E+00 0.10123905E+04</pdfrwt>
<pdfrwt beam="2">  1        4 0.33375700E-01 0.10123905E+04</pdfrwt>
<totfact> 0.57347352E+00</totfact>
</mgrwt>
</event>
<event>
 6    1  0.1375310E-005  0.1015780E+04  0.7818608E-02  0.9939572E-01
          4   -1    0    0  502    0 -0.00000000000E+00  0.00000000000E+00  0.50586769923E+03  0.50586769923E+03  0.00000000000E+00 0.  1.
         21   -1    0    0  501  502  0.00000000000E+00 -0.00000000000E+00 -0.63572416770E+03  0.63572416770E+03  0.00000000000E+00 0.  1.
    9000010    2    1    2  501    0  0.86626717276E+02 -0.69145969021E+02 -0.15605835344E+03  0.10276976040E+04  0.10097142182E+04 0.  0.
        -13    1    3    3    0    0  0.44378982617E+03  0.27081646107E+03 -0.42021996792E+02  0.52159066784E+03  0.10566000000E+00 0.  1.
          4    1    3    3  501    0 -0.35716310890E+03 -0.33996243009E+03 -0.11403635665E+03  0.50610693620E+03  0.00000000000E+00 0.  1.
         13    1    1    2    0    0 -0.86626717276E+02  0.69145969021E+02  0.26201884970E+02  0.11389426288E+03  0.10566000000E+00 0. -1.
<mgrwt>
<rscale>  1 0.58381213E+03</rscale>
<asrwt>0</asrwt>
<pdfrwt beam="2">  1       21 0.97803718E-01 0.10157796E+04</pdfrwt>
<pdfrwt beam="1">  1        4 0.77825800E-01 0.10157796E+04</pdfrwt>
<totfact> 0.48282604E+01</totfact>
</mgrwt>
</event>
<event>
 6    1  0.1375310E-005  0.1010453E+04  0.7818608E-02  0.9946692E-01
         21   -1    0    0  501  502  0.00000000000E+00  0.00000000000E+00  0.52357285165E+03  0.52357285165E+03  0.00000000000E+00 0.  1.
          4   -1    0    0  502    0 -0.00000000000E+00 -0.00000000000E+00 -0.78163027407E+03  0.78163027407E+03  0.00000000000E+00 0.  1.
    9000010    2    1    2  501    0 -0.10971623312E+03 -0.88656647083E+01  0.15243729948E+02  0.10105681263E+04  0.10044398015E+04 0.  0.
        -13    1    3    3    0    0 -0.54182393741E+03 -0.68688588679E+02 -0.10912702098E+03  0.55695602990E+03  0.10566000000E+00 0.  1.
          4    1    3    3  501    0  0.43210770429E+03  0.59822923971E+02  0.12437075092E+03  0.45361209643E+03  0.00000000000E+00 0.  1.
         13    1    1    2    0    0  0.10971623312E+03  0.88656647083E+01 -0.27330115237E+03  0.29463499940E+03  0.10566000000E+00 0. -1.
<mgrwt>
<rscale>  1 0.58050802E+03</rscale>
<asrwt>0</asrwt>
<pdfrwt beam="1">  1       21 0.80549670E-01 0.10104531E+04</pdfrwt>
<pdfrwt beam="2">  1        4 0.12025081E+00 0.10104531E+04</pdfrwt>
<totfact> 0.27196848E+01</totfact>
</mgrwt>
</event>
<event>
 6    1  0.1375310E-005  0.1095013E+04  0.7818608E-02  0.9627658E-01
          4   -1    0    0  502    0 -0.00000000000E+00  0.00000000000E+00  0.58152824629E+03  0.58152824629E+03  0.00000000000E+00 0.  1.
         21   -1    0    0  501  502  0.00000000000E+00 -0.00000000000E+00 -0.82758991539E+03  0.82758991539E+03  0.00000000000E+00 0.  1.
    9000010    2    1    2  501    0  0.24123370851E+03 -0.54772579009E+02 -0.33678281576E+03  0.11456336742E+04  0.10667052606E+04 0.  0.
        -13    1    3    3    0    0 -0.29695456544E+03 -0.17342364769E+03  0.18172258916E+03  0.38894843629E+03  0.10566000000E+00 0.  1.
          4    1    3    3  501    0  0.53818827395E+03  0.11865106868E+03 -0.51850540492E+03  0.75668523790E+03  0.00000000000E+00 0.  1.
         13    1    1    2    0    0 -0.24123370851E+03  0.54772579009E+02  0.90721146659E+02  0.26348448749E+03  0.10566000000E+00 0. -1.
<mgrwt>
<rscale>  1 0.75492341E+03</rscale>
<asrwt>0</asrwt>
<pdfrwt beam="2">  1       21 0.12732153E+00 0.10950132E+04</pdfrwt>
<pdfrwt beam="1">  1        4 0.89465884E-01 0.10950132E+04</pdfrwt>
<totfact> 0.17703311E+01</totfact>
</mgrwt>
</event>
<event>
 6    1  0.1375310E-005  0.9964862E+03  0.7818608E-02  0.1010129E+00
         21   -1    0    0  501  502  0.00000000000E+00  0.00000000000E+00  0.57362403966E+03  0.57362403966E+03  0.00000000000E+00 0.  1.
          4   -1    0    0  502    0 -0.00000000000E+00 -0.00000000000E+00 -0.49968853605E+03  0.49968853605E+03  0.00000000000E+00 0.  1.
    9000010    2    1    2  501    0  0.25988803658E+02 -0.65717113912E+02  0.90936635153E+02  0.10006269058E+04  0.99397715063E+03 0.  0.
        -13    1    3    3    0    0  0.37476702006E+03 -0.14955717558E+03  0.36897759856E+03  0.54677431130E+03  0.10566000000E+00 0.  1.
          4    1    3    3  501    0 -0.34877821641E+03  0.83840061664E+02 -0.27804096340E+03  0.45385259447E+03  0.00000000000E+00 0.  1.
         13    1    1    2    0    0 -0.25988803658E+02  0.65717113912E+02 -0.17001131539E+02  0.72685669937E+02  0.10566000000E+00 0. -1.
<mgrwt>
<rscale>  1 0.51423468E+03</rscale>
<asrwt>0</asrwt>
<pdfrwt beam="1">  1       21 0.88249852E-01 0.99648619E+03</pdfrwt>
<pdfrwt beam="2">  1        4 0.76875159E-01 0.99648619E+03</pdfrwt>
<totfact> 0.63859495E+01</totfact>
</mgrwt>
</event>
<event>
 6    1  0.1375310E-005  0.1026815E+04  0.7818608E-02  0.9671293E-01
          4   -1    0    0  502    0 -0.00000000000E+00  0.00000000000E+00  0.33057290132E+03  0.33057290132E+03  0.00000000000E+00 0.  1.
         21   -1    0    0  501  502  0.00000000000E+00 -0.00000000000E+00 -0.13445608187E+04  0.13445608187E+04  0.00000000000E+00 0.  1.
    9000010    2    1    2  501    0 -0.15563661571E+02  0.25829533512E+03 -0.97024081402E+03  0.14126979604E+04  0.99367478707E+03 0.  0.
        -13    1    3    3    0    0 -0.23208404255E+03 -0.16703181869E+03 -0.88219334892E+03  0.92737680978E+03  0.10566000000E+00 0.  1.
          4    1    3    3  501    0  0.21652038098E+03  0.42532715380E+03 -0.88047465096E+02  0.48532115063E+03  0.00000000000E+00 0.  1.
         13    1    1    2    0    0  0.15563661571E+02 -0.25829533512E+03 -0.43747103360E+02  0.26243575961E+03  0.10566000000E+00 0. -1.
<mgrwt>
<rscale>  1 0.72751999E+03</rscale>
<asrwt>0</asrwt>
<pdfrwt beam="2">  1       21 0.20685551E+00 0.10268146E+04</pdfrwt>
<pdfrwt beam="1">  1        4 0.50857370E-01 0.10268146E+04</pdfrwt>
<totfact> 0.15389123E+01</totfact>
</mgrwt>
</event>
<event>
 6    1  0.1375310E-005  0.1054470E+04  0.7818608E-02  0.9564259E-01
          4   -1    0    0  502    0 -0.00000000000E+00  0.00000000000E+00  0.78918071056E+03  0.78918071056E+03  0.00000000000E+00 0.  1.
         21   -1    0    0  501  502  0.00000000000E+00 -0.00000000000E+00 -0.62985963730E+03  0.62985963730E+03  0.00000000000E+00 0.  1.
    9000010    2    1    2  501    0  0.22183879772E+03 -0.26326464555E+03  0.41914422451E+02  0.10553027246E+04  0.99668766218E+03 0.  0.
        -13    1    3    3    0    0 -0.39587019004E+03 -0.14596171901E+03  0.60746970894E+02  0.42627249080E+03  0.10566000000E+00 0.  1.
          4    1    3    3  501    0  0.61770898776E+03 -0.11730292654E+03 -0.18832548443E+02  0.62903023378E+03  0.00000000000E+00 0.  1.
         13    1    1    2    0    0 -0.22183879772E+03  0.26326464555E+03  0.11740665080E+03  0.36373762328E+03  0.10566000000E+00 0. -1.
<mgrwt>
<rscale>  1 0.79707644E+03</rscale>
<asrwt>0</asrwt>
<pdfrwt beam="2">  1       21 0.96901482E-01 0.10544700E+04</pdfrwt>
<pdfrwt beam="1">  1        4 0.12141242E+00 0.10544700E+04</pdfrwt>
<totfact> 0.16943109E+01</totfact>
</mgrwt>
</event>
<event>
 6    1  0.1375310E-005  0.9921120E+03  0.7818608E-02  0.9996354E-01
          4   -1    0    0  502    0 -0.00000000000E+00  0.00000000000E+00  0.48098847939E+03  0.48098847939E+03  0.00000000000E+00 0.  1.
         21   -1    0    0  501  502  0.00000000000E+00 -0.00000000000E+00 -0.78265256578E+03  0.78265256578E+03  0.00000000000E+00 0.  1.
    9000010    2    1    2  501    0 -0.96215093800E+02 -0.24769910577E+02 -0.44653884398E+03  0.10879720402E+04  0.98712477854E+03 0.  0.
        -13    1    3    3    0    0 -0.26170959627E+03  0.32644156580E+03  0.87765730231E+02  0.42750303301E+03  0.10566000000E+00 0.  1.
          4    1    3    3  501    0  0.16549450247E+03 -0.35121147638E+03 -0.53430457421E+03  0.66046900723E+03  0.00000000000E+00 0.  1.
         13    1    1    2    0    0  0.96215093800E+02  0.24769910577E+02  0.14487475759E+03  0.17566900494E+03  0.10566000000E+00 0. -1.
<mgrwt>
<rscale>  1 0.55810401E+03</rscale>
<asrwt>0</asrwt>
<pdfrwt beam="2">  1       21 0.12040809E+00 0.99211200E+03</pdfrwt>
<pdfrwt beam="1">  1        4 0.73998228E-01 0.99211200E+03</pdfrwt>
<totfact> 0.32080576E+01</totfact>
</mgrwt>
</event>
<event>
 6    1  0.1375310E-005  0.1023389E+04  0.7818608E-02  0.9687622E-01
         21   -1    0    0  501  502  0.00000000000E+00  0.00000000000E+00  0.10090806898E+04  0.10090806898E+04  0.00000000000E+00 0.  1.
          4   -1    0    0  502    0 -0.00000000000E+00 -0.00000000000E+00 -0.48483642030E+03  0.48483642030E+03  0.00000000000E+00 0.  1.
    9000010    2    1    2  501    0  0.39295929532E+02 -0.24424359152E+03  0.65405567806E+03  0.12145426034E+04  0.99303867165E+03 0.  0.
        -13    1    3    3    0    0  0.38424103393E+03 -0.14521233329E+03  0.73923548885E+03  0.84569315536E+03  0.10566000000E+00 0.  1.
          4    1    3    3  501    0 -0.34494510439E+03 -0.99031258232E+02 -0.85179810784E+02  0.36884944804E+03  0.00000000000E+00 0.  1.
         13    1    1    2    0    0 -0.39295929532E+02  0.24424359152E+03 -0.12981140851E+03  0.27937450674E+03  0.10566000000E+00 0. -1.
<mgrwt>
<rscale>  1 0.71758554E+03</rscale>
<asrwt>0</asrwt>
<pdfrwt beam="1">  1       21 0.15524318E+00 0.10233889E+04</pdfrwt>
<pdfrwt beam="2">  1        4 0.74590219E-01 0.10233889E+04</pdfrwt>
<totfact> 0.15794945E+01</totfact>
</mgrwt>
</event>
<event>
 6    1  0.1375310E-005  0.1084288E+04  0.7818608E-02  0.9493889E-01
         21   -1    0    0  501  502  0.00000000000E+00  0.00000000000E+00  0.10102690912E+04  0.10102690912E+04  0.00000000000E+00 0.  1.
          4   -1    0    0  502    0 -0.00000000000E+00 -0.00000000000E+00 -0.55626383198E+03  0.55626383198E+03  0.00000000000E+00 0.  1.
    9000010    2    1    2  501    0  0.25945298547E+03 -0.31022783878E+03  0.41204232691E+03  0.11599396836E+04  0.10060437499E+04 0.  0.
        -13    1    3    3    0    0  0.44416058112E+03  0.90510182143E+02 -0.11982627608E+03  0.46885932058E+03  0.10566000000E+00 0.  1.
          4    1    3    3  501    0 -0.18470759565E+03 -0.40073802092E+03  0.53186860300E+03  0.69108036302E+03  0.00000000000E+00 0.  1.
         13    1    1    2    0    0 -0.25945298547E+03  0.31022783878E+03  0.41962932301E+02  0.40659323958E+03  0.10566000000E+00 0. -1.
<mgrwt>
<rscale>  1 0.84735869E+03</rscale>
<asrwt>0</asrwt>
<pdfrwt beam="1">  1       21 0.15542601E+00 0.10842883E+04</pdfrwt>
<pdfrwt beam="2">  1        4 0.85579051E-01 0.10842883E+04</pdfrwt>
<totfact> 0.11400412E+01</totfact>
</mgrwt>
</event>
<event>
 6    1  0.1375310E-005  0.1038884E+04  0.7818608E-02  0.9701506E-01
          4   -1    0    0  502    0 -0.00000000000E+00  0.00000000000E+00  0.58342342834E+03  0.58342342834E+03  0.00000000000E+00 0.  1.
         21   -1    0    0  501  502  0.00000000000E+00 -0.00000000000E+00 -0.11391472323E+04  0.11391472323E+04  0.00000000000E+00 0.  1.
    9000010    2    1    2  501    0 -0.76881444097E+02 -0.21221293047E+03 -0.85656579887E+03  0.13464709380E+04  0.10140680129E+04 0.  0.
        -13    1    3    3    0    0  0.34024270801E+03 -0.37151381761E+03 -0.72151940955E+03  0.87998743545E+03  0.10566000000E+00 0.  1.
          4    1    3    3  501    0 -0.41712415210E+03  0.15930088714E+03 -0.13504638931E+03  0.46648350258E+03  0.00000000000E+00 0.  1.
         13    1    1    2    0    0  0.76881444097E+02  0.21221293047E+03  0.30084199489E+03  0.37609972263E+03  0.10566000000E+00 0. -1.
<mgrwt>
<rscale>  1 0.70927222E+03</rscale>
<asrwt>0</asrwt>
<pdfrwt beam="2">  1       21 0.17525342E+00 0.10388835E+04</pdfrwt>
<pdfrwt beam="1">  1        4 0.89757451E-01 0.10388835E+04</pdfrwt>
<totfact> 0.72354391E+00</totfact>
</mgrwt>
</event>
<event>
 6    1  0.1375310E-005  0.9961988E+03  0.7818608E-02  0.9765245E-01
          4   -1    0    0  502    0 -0.00000000000E+00  0.00000000000E+00  0.10986397697E+04  0.10986397697E+04  0.00000000000E+00 0.  1.
         21   -1    0    0  501  502  0.00000000000E+00 -0.00000000000E+00 -0.33465999406E+03  0.33465999406E+03  0.00000000000E+00 0. -1.
    9000010    2    1    2  501    0  0.19028672542E+03 -0.81556288288E+02  0.56067903413E+03  0.11431417573E+04  0.97444939941E+03 0.  0.
        -13    1    3    3    0    0  0.42979331886E+03  0.26423827658E+03  0.91048171615E+02  0.51267333114E+03  0.10566000000E+00 0.  1.
          4    1    3    3  501    0 -0.23950659344E+03 -0.34579456487E+03  0.46963086251E+03  0.63046842619E+03  0.00000000000E+00 0.  1.
         13    1    1    2    0    0 -0.19028672542E+03  0.81556288288E+02  0.20330074151E+03  0.29015800643E+03  0.10566000000E+00 0. -1.
<mgrwt>
<rscale>  1 0.67261515E+03</rscale>
<asrwt>0</asrwt>
<pdfrwt beam="2">  1       21 0.51486154E-01 0.99619882E+03</pdfrwt>
<pdfrwt beam="1">  1        4 0.16902150E+00 0.99619882E+03</pdfrwt>
<totfact> 0.30362781E+01</totfact>
</mgrwt>
</event>
<event>
 6    1  0.1375310E-005  0.1018596E+04  0.7818608E-02  0.9743478E-01
          4   -1    0    0  502    0 -0.00000000000E+00  0.00000000000E+00  0.11161267116E+04  0.11161267116E+04  0.00000000000E+00 0.  1.
         21   -1    0    0  501  502  0.00000000000E+00 -0.00000000000E+00 -0.45547871408E+03  0.45547871408E+03  0.00000000000E+00 0.  1.
    9000010    2    1    2  501    0 -0.52941270963E+02  0.20131853043E+03  0.16219070130E+03  0.10314280324E+04  0.99709880836E+03 0.  0.
        -13    1    3    3    0    0 -0.31125703749E+03  0.38822712776E+03  0.39608710812E+03  0.63599233840E+03  0.10566000000E+00 0.  1.
          4    1    3    3  501    0  0.25831576653E+03 -0.18690859733E+03 -0.23389640683E+03  0.39543569404E+03  0.00000000000E+00 0.  1.
         13    1    1    2    0    0  0.52941270963E+02 -0.20131853043E+03  0.49845729624E+03  0.54017739327E+03  0.10566000000E+00 0. -1.
<mgrwt>
<rscale>  1 0.68486113E+03</rscale>
<asrwt>0</asrwt>
<pdfrwt beam="2">  1       21 0.70073649E-01 0.10185961E+04</pdfrwt>
<pdfrwt beam="1">  1        4 0.17171180E+00 0.10185961E+04</pdfrwt>
<totfact> 0.14571550E+01</totfact>
</mgrwt>
</event>
<event>
 6    1  0.1375310E-005  0.1020534E+04  0.7818608E-02  0.1008937E+00
          4   -1    0    0  502    0 -0.00000000000E+00  0.00000000000E+00  0.10658015582E+04  0.10658015582E+04  0.00000000000E+00 0.  1.
         21   -1    0    0  501  502  0.00000000000E+00 -0.00000000000E+00 -0.30269294658E+03  0.30269294658E+03  0.00000000000E+00 0.  1.
    9000010    2    1    2  501    0  0.68258852678E+02 -0.18303340767E+00  0.58171621154E+03  0.11746839828E+04  0.10182482036E+04 0.  0.
        -13    1    3    3    0    0 -0.28200594750E+02 -0.50083434589E+03  0.21050258410E+03  0.54400520645E+03  0.10566000000E+00 0.  1.
          4    1    3    3  501    0  0.96459447428E+02  0.50065131249E+03  0.37121362744E+03  0.63067877631E+03  0.00000000000E+00 0.  1.
         13    1    1    2    0    0 -0.68258852678E+02  0.18303340767E+00  0.18139240009E+03  0.19381052202E+03  0.10566000000E+00 0. -1.
<mgrwt>
<rscale>  1 0.51899208E+03</rscale>
<asrwt>0</asrwt>
<pdfrwt beam="2">  1       21 0.46568146E-01 0.10205335E+04</pdfrwt>
<pdfrwt beam="1">  1        4 0.16396947E+00 0.10205335E+04</pdfrwt>
<totfact> 0.40949231E+01</totfact>
</mgrwt>
</event>
<event>
 6    1  0.1375310E-005  0.1100444E+04  0.7818608E-02  0.9465740E-01
         21   -1    0    0  501  502  0.00000000000E+00  0.00000000000E+00  0.91998859470E+03  0.91998859470E+03  0.00000000000E+00 0. -1.
          4   -1    0    0  502    0 -0.00000000000E+00 -0.00000000000E+00 -0.63472212906E+03  0.63472212906E+03  0.00000000000E+00 0.  1.
    9000010    2    1    2  501    0  0.37583239400E+03  0.20287998763E+03  0.22767756530E+03  0.11237504351E+04  0.10141832620E+04 0.  0.
        -13    1    3    3    0    0  0.53016081714E+03  0.17812185340E+02  0.52141641176E+03  0.74381640987E+03  0.10566000000E+00 0.  1.
          4    1    3    3  501    0 -0.15432842314E+03  0.18506780229E+03 -0.29373884646E+03  0.37993402526E+03  0.00000000000E+00 0.  1.
         13    1    1    2    0    0 -0.37583239400E+03 -0.20287998763E+03  0.57588900346E+02  0.43096028862E+03  0.10566000000E+00 0. -1.
<mgrwt>
<rscale>  1 0.86857486E+03</rscale>
<asrwt>0</asrwt>
<pdfrwt beam="1">  1       21 0.14153671E+00 0.11004444E+04</pdfrwt>
<pdfrwt beam="2">  1        4 0.97649559E-01 0.11004444E+04</pdfrwt>
<totfact> 0.10810329E+01</totfact>
</mgrwt>
</event>
<event>
 6    1  0.1375310E-005  0.1008308E+04  0.7818608E-02  0.9891995E-01
          4   -1    0    0  502    0 -0.00000000000E+00  0.00000000000E+00  0.69454608930E+03  0.69454608930E+03  0.00000000000E+00 0.  1.
         21   -1    0    0  501  502  0.00000000000E+00 -0.00000000000E+00 -0.48714353589E+03  0.48714353589E+03  0.00000000000E+00 0.  1.
    9000010    2    1    2  501    0  0.39312122542E+02  0.12600786371E+03  0.10331067352E+03  0.10135868134E+04  0.99963078605E+03 0.  0.
        -13    1    3    3    0    0  0.45313128816E+03 -0.39205065571E+02 -0.17601274398E+03  0.48769406259E+03  0.10566000000E+00 0.  1.
          4    1    3    3  501    0 -0.41381916562E+03  0.16521292928E+03  0.27932341749E+03  0.52589275085E+03  0.00000000000E+00 0.  1.
         13    1    1    2    0    0 -0.39312122542E+02 -0.12600786371E+03  0.10409187989E+03  0.16810281175E+03  0.10566000000E+00 0. -1.
<mgrwt>
<rscale>  1 0.60650817E+03</rscale>
<asrwt>0</asrwt>
<pdfrwt beam="2">  1       21 0.74945159E-01 0.10083081E+04</pdfrwt>
<pdfrwt beam="1">  1        4 0.10685324E+00 0.10083081E+04</pdfrwt>
<totfact> 0.43145913E+01</totfact>
</mgrwt>
</event>
<event>
 6    1  0.1375310E-005  0.1381350E+04  0.7818608E-02  0.9062144E-01
          4   -1    0    0  502    0 -0.00000000000E+00  0.00000000000E+00  0.90651481019E+03  0.90651481019E+03  0.00000000000E+00 0.  1.
         21   -1    0    0  501  502  0.00000000000E+00 -0.00000000000E+00 -0.15801401004E+04  0.15801401004E+04  0.00000000000E+00 0. -1.
    9000010    2    1    2  501    0  0.76765938030E+03 -0.56868257851E+03 -0.66067090451E+03  0.15312133234E+04  0.99771107965E+03 0.  0.
        -13    1    3    3    0    0  0.91581719025E+03 -0.55677716352E+03 -0.79216666230E+03  0.13327602814E+04  0.10566000000E+00 0.  1.
          4    1    3    3  501    0 -0.14815780994E+03 -0.11905414992E+02  0.13149575778E+03  0.19845304197E+03  0.00000000000E+00 0.  1.
         13    1    1    2    0    0 -0.76765938030E+03  0.56868257851E+03 -0.12954385719E+02  0.95544158719E+03  0.10566000000E+00 0. -1.
<mgrwt>
<rscale>  1 0.12597051E+04</rscale>
<asrwt>0</asrwt>
<pdfrwt beam="2">  1       21 0.24309847E+00 0.13813501E+04</pdfrwt>
<pdfrwt beam="1">  1        4 0.13946382E+00 0.13813501E+04</pdfrwt>
<totfact> 0.79498566E-01</totfact>
</mgrwt>
</event>
<event>
 6    1  0.1375310E-005  0.8347125E+03  0.7818608E-02  0.1001367E+00
          4   -1    0    0  502    0 -0.00000000000E+00  0.00000000000E+00  0.79583110810E+03  0.79583110810E+03  0.00000000000E+00 0.  1.
         21   -1    0    0  501  502  0.00000000000E+00 -0.00000000000E+00 -0.41072387261E+03  0.41072387261E+03  0.00000000000E+00 0.  1.
    9000010    2    1    2  501    0  0.64613760519E+02  0.14415106531E+03  0.50151814525E+02  0.83621781964E+03  0.81962831192E+03 0.  0.
        -13    1    3    3    0    0 -0.15711076168E+02  0.29821691721E+03 -0.31363599873E+03  0.43306779895E+03  0.10566000000E+00 0.  1.
          4    1    3    3  501    0  0.80324836687E+02 -0.15406585191E+03  0.36378781325E+03  0.40315002069E+03  0.00000000000E+00 0.  1.
         13    1    1    2    0    0 -0.64613760519E+02 -0.14415106531E+03  0.33495542096E+03  0.37033716107E+03  0.10566000000E+00 0. -1.
<mgrwt>
<rscale>  1 0.55054937E+03</rscale>
<asrwt>0</asrwt>
<pdfrwt beam="2">  1       21 0.63188288E-01 0.83471255E+03</pdfrwt>
<pdfrwt beam="1">  1        4 0.12243555E+00 0.83471255E+03</pdfrwt>
<totfact> 0.46136445E+01</totfact>
</mgrwt>
</event>
<event>
 6    1  0.1375310E-005  0.8163801E+03  0.7818608E-02  0.1017879E+00
          4   -1    0    0  502    0 -0.00000000000E+00  0.00000000000E+00  0.93286335409E+03  0.93286335409E+03  0.00000000000E+00 0.  1.
         21   -1    0    0  501  502  0.00000000000E+00 -0.00000000000E+00 -0.22571345738E+03  0.22571345738E+03  0.00000000000E+00 0.  1.
    9000010    2    1    2  501    0 -0.98538332752E+02 -0.23730585134E+02  0.62876467593E+03  0.10304471986E+04  0.81006386644E+03 0.  0.
        -13    1    3    3    0    0 -0.74275223500E+02 -0.91548293931E+02  0.81878784552E+03  0.82723119264E+03  0.10566000000E+00 0.  1.
          4    1    3    3  501    0 -0.24263109252E+02  0.67817708797E+02 -0.19002316959E+03  0.20321600596E+03  0.00000000000E+00 0.  1.
         13    1    1    2    0    0  0.98538332752E+02  0.23730585134E+02  0.78385220779E+02  0.12812961287E+03  0.10566000000E+00 0. -1.
<mgrwt>
<rscale>  1 0.48459755E+03</rscale>
<asrwt>0</asrwt>
<pdfrwt beam="2">  1       21 0.34725148E-01 0.81638007E+03</pdfrwt>
<pdfrwt beam="1">  1        4 0.14351744E+00 0.81638007E+03</pdfrwt>
<totfact> 0.11029084E+02</totfact>
</mgrwt>
</event>
<event>
 6    1  0.1375310E-005  0.1003807E+04  0.7818608E-02  0.9864100E-01
         21   -1    0    0  501  502  0.00000000000E+00  0.00000000000E+00  0.75245734190E+03  0.75245734190E+03  0.00000000000E+00 0.  1.
          4   -1    0    0  502    0 -0.00000000000E+00 -0.00000000000E+00 -0.59444781473E+03  0.59444781473E+03  0.00000000000E+00 0.  1.
    9000010    2    1    2  501    0 -0.14126892084E+03  0.38424193268E+02  0.38641010646E+03  0.10756116580E+04  0.99307318047E+03 0.  0.
        -13    1    3    3    0    0 -0.33390070653E+03  0.30707197094E+03 -0.12147874802E+03  0.46961683801E+03  0.10566000000E+00 0.  1.
          4    1    3    3  501    0  0.19263178569E+03 -0.26864777768E+03  0.50788885449E+03  0.60599481996E+03  0.00000000000E+00 0.  1.
         13    1    1    2    0    0  0.14126892084E+03 -0.38424193268E+02 -0.22840057929E+03  0.27129349865E+03  0.10566000000E+00 0. -1.
<mgrwt>
<rscale>  1 0.62033139E+03</rscale>
<asrwt>0</asrwt>
<pdfrwt beam="1">  1       21 0.11576267E+00 0.10038066E+04</pdfrwt>
<pdfrwt beam="2">  1        4 0.91453510E-01 0.10038066E+04</pdfrwt>
<totfact> 0.21742026E+01</totfact>
</mgrwt>
</event>
<event>
 6    1  0.1375310E-005  0.1025971E+04  0.7818608E-02  0.9693636E-01
         21   -1    0    0  501  502  0.00000000000E+00  0.00000000000E+00  0.38245397309E+03  0.38245397309E+03  0.00000000000E+00 0.  1.
          4   -1    0    0  502    0 -0.00000000000E+00 -0.00000000000E+00 -0.14870728543E+04  0.14870728543E+04  0.00000000000E+00 0.  1.
    9000010    2    1    2  501    0  0.15193561318E+03  0.18657148582E+03 -0.36048213088E+03  0.10874572242E+04  0.99735775823E+03 0.  0.
        -13    1    3    3    0    0 -0.35135094633E+03  0.33261244188E+03 -0.27492164824E+03  0.55647142588E+03  0.10566000000E+00 0.  1.
          4    1    3    3  501    0  0.50328655951E+03 -0.14604095606E+03 -0.85560482644E+02  0.53098579832E+03  0.00000000000E+00 0.  1.
         13    1    1    2    0    0 -0.15193561318E+03 -0.18657148582E+03 -0.74413675029E+03  0.78206960315E+03  0.10566000000E+00 0. -1.
<mgrwt>
<rscale>  1 0.71396975E+03</rscale>
<asrwt>0</asrwt>
<pdfrwt beam="1">  1       21 0.58839074E-01 0.10259707E+04</pdfrwt>
<pdfrwt beam="2">  1        4 0.22878044E+00 0.10259707E+04</pdfrwt>
<totfact> 0.90044431E+00</totfact>
</mgrwt>
</event>
<event>
 6    1  0.1375310E-005  0.1000684E+04  0.7818608E-02  0.1007045E+00
         21   -1    0    0  501  502  0.00000000000E+00  0.00000000000E+00  0.41477750291E+03  0.41477750291E+03  0.00000000000E+00 0.  1.
          4   -1    0    0  502    0 -0.00000000000E+00 -0.00000000000E+00 -0.73321084255E+03  0.73321084255E+03  0.00000000000E+00 0.  1.
    9000010    2    1    2  501    0  0.75311955696E+02 -0.14929187159E+02 -0.22251303335E+03  0.10251246502E+04  0.99773429682E+03 0.  0.
        -13    1    3    3    0    0 -0.28483881020E+03 -0.15250859786E+03 -0.46753771633E+03  0.56831641501E+03  0.10566000000E+00 0.  1.
          4    1    3    3  501    0  0.36015076590E+03  0.13757941070E+03  0.24502468298E+03  0.45680823515E+03  0.00000000000E+00 0.  1.
         13    1    1    2    0    0 -0.75311955696E+02  0.14929187159E+02 -0.95920306297E+02  0.12286369531E+03  0.10566000000E+00 0. -1.
<mgrwt>
<rscale>  1 0.52666104E+03</rscale>
<asrwt>0</asrwt>
<pdfrwt beam="1">  1       21 0.63811924E-01 0.10006840E+04</pdfrwt>
<pdfrwt beam="2">  1        4 0.11280167E+00 0.10006840E+04</pdfrwt>
<totfact> 0.54580747E+01</totfact>
</mgrwt>
</event>
<event>
 6    1  0.1375310E-005  0.1116843E+04  0.7818608E-02  0.9423818E-01
         21   -1    0    0  501  502  0.00000000000E+00  0.00000000000E+00  0.16207420951E+04  0.16207420951E+04  0.00000000000E+00 0.  1.
          4   -1    0    0  502    0 -0.00000000000E+00 -0.00000000000E+00 -0.74486413494E+03  0.74486413494E+03  0.00000000000E+00 0.  1.
    9000010    2    1    2  501    0  0.28772865242E+03 -0.37659525664E+03  0.13109978177E+04  0.17222237106E+04  0.10112998895E+04 0.  0.
        -13    1    3    3    0    0  0.23307946259E+03 -0.66973871141E+03  0.52725710580E+03  0.88367190983E+03  0.10566000000E+00 0.  1.
          4    1    3    3  501    0  0.54649189824E+02  0.29314345478E+03  0.78374071189E+03  0.83855180073E+03  0.00000000000E+00 0.  1.
         13    1    1    2    0    0 -0.28772865242E+03  0.37659525664E+03 -0.43511985755E+03  0.64338251945E+03  0.10566000000E+00 0. -1.
<mgrwt>
<rscale>  1 0.90141189E+03</rscale>
<asrwt>0</asrwt>
<pdfrwt beam="1">  1       21 0.24934494E+00 0.11168434E+04</pdfrwt>
<pdfrwt beam="2">  1        4 0.11459448E+00 0.11168434E+04</pdfrwt>
<totfact> 0.12471712E+00</totfact>
</mgrwt>
</event>
<event>
 6    1  0.1375310E-005  0.1067766E+04  0.7818608E-02  0.9560056E-01
          4   -1    0    0  502    0 -0.00000000000E+00  0.00000000000E+00  0.14389582542E+04  0.14389582542E+04  0.00000000000E+00 0.  1.
         21   -1    0    0  501  502  0.00000000000E+00 -0.00000000000E+00 -0.36011950281E+03  0.36011950281E+03  0.00000000000E+00 0.  1.
    9000010    2    1    2  501    0  0.80061128735E+02 -0.32674786555E+03  0.63557737088E+03  0.12426115724E+04  0.10133858957E+04 0.  0.
        -13    1    3    3    0    0 -0.42454808271E+03 -0.75537570534E+02  0.57210147116E+02  0.43499426570E+03  0.10566000000E+00 0.  1.
          4    1    3    3  501    0  0.50460921144E+03 -0.25121029501E+03  0.57836722376E+03  0.80761730672E+03  0.00000000000E+00 0.  1.
         13    1    1    2    0    0 -0.80061128735E+02  0.32674786555E+03  0.44326138049E+03  0.55646618457E+03  0.10566000000E+00 0. -1.
<mgrwt>
<rscale>  1 0.79997328E+03</rscale>
<asrwt>0</asrwt>
<pdfrwt beam="2">  1       21 0.55403001E-01 0.10677663E+04</pdfrwt>
<pdfrwt beam="1">  1        4 0.22137819E+00 0.10677663E+04</pdfrwt>
<totfact> 0.11405276E+01</totfact>
</mgrwt>
</event>
<event>
 6    1  0.1375310E-005  0.1071257E+04  0.7818608E-02  0.9581028E-01
         21   -1    0    0  501  502  0.00000000000E+00  0.00000000000E+00  0.10293464564E+04  0.10293464564E+04  0.00000000000E+00 0.  1.
          4   -1    0    0  502    0 -0.00000000000E+00 -0.00000000000E+00 -0.50478960693E+03  0.50478960693E+03  0.00000000000E+00 0.  1.
    9000010    2    1    2  501    0 -0.64694315474E+02  0.30307698716E+03  0.20824441181E+03  0.10913103821E+04  0.10254519006E+04 0.  0.
        -13    1    3    3    0    0 -0.19113528271E+03  0.64579128491E+03  0.26087605897E+03  0.72224331722E+03  0.10566000000E+00 0.  1.
          4    1    3    3  501    0  0.12644096724E+03 -0.34271429775E+03 -0.52631647168E+02  0.36906706486E+03  0.00000000000E+00 0.  1.
         13    1    1    2    0    0  0.64694315474E+02 -0.30307698716E+03  0.31631243771E+03  0.44282568129E+03  0.10566000000E+00 0. -1.
<mgrwt>
<rscale>  1 0.78564718E+03</rscale>
<asrwt>0</asrwt>
<pdfrwt beam="1">  1       21 0.15836099E+00 0.10712575E+04</pdfrwt>
<pdfrwt beam="2">  1        4 0.77659940E-01 0.10712575E+04</pdfrwt>
<totfact> 0.13544533E+01</totfact>
</mgrwt>
</event>
<event>
 6    1  0.1375310E-005  0.1098361E+04  0.7818608E-02  0.9428960E-01
          4   -1    0    0  502    0 -0.00000000000E+00  0.00000000000E+00  0.12492625948E+04  0.12492625948E+04  0.00000000000E+00 0.  1.
         21   -1    0    0  501  502  0.00000000000E+00 -0.00000000000E+00 -0.51222387953E+03  0.51222387953E+03  0.00000000000E+00 0. -1.
    9000010    2    1    2  501    0  0.41086885867E+03  0.26559435098E+03  0.40704181349E+03  0.11713580606E+04  0.98338349080E+03 0.  0.
        -13    1    3    3    0    0  0.35736024960E+03 -0.26606105979E+03 -0.74903761513E+02  0.45178027866E+03  0.10566000000E+00 0.  1.
          4    1    3    3  501    0  0.53508609069E+02  0.53165541076E+03  0.48194557500E+03  0.71957778197E+03  0.00000000000E+00 0.  1.
         13    1    1    2    0    0 -0.41086885867E+03 -0.26559435098E+03  0.32999690174E+03  0.59012841367E+03  0.10566000000E+00 0. -1.
<mgrwt>
<rscale>  1 0.89730232E+03</rscale>
<asrwt>0</asrwt>
<pdfrwt beam="2">  1       21 0.78803674E-01 0.10983609E+04</pdfrwt>
<pdfrwt beam="1">  1        4 0.19219424E+00 0.10983609E+04</pdfrwt>
<totfact> 0.79275197E+00</totfact>
</mgrwt>
</event>
<event>
 6    1  0.1375310E-005  0.1028232E+04  0.7818608E-02  0.9862889E-01
          4   -1    0    0  502    0 -0.00000000000E+00  0.00000000000E+00  0.40795601924E+03  0.40795601924E+03  0.00000000000E+00 0.  1.
         21   -1    0    0  501  502  0.00000000000E+00 -0.00000000000E+00 -0.87697766740E+03  0.87697766740E+03  0.00000000000E+00 0.  1.
    9000010    2    1    2  501    0  0.13481475978E+02 -0.13608349271E+03 -0.50204764171E+03  0.11442525060E+04  0.10190983739E+04 0.  0.
        -13    1    3    3    0    0  0.48535829024E+03 -0.22764618084E+03 -0.34946388547E+03  0.63993786571E+03  0.10566000000E+00 0.  1.
          4    1    3    3  501    0 -0.47187681426E+03  0.91562688122E+02 -0.15258375624E+03  0.50431464024E+03  0.00000000000E+00 0.  1.
         13    1    1    2    0    0 -0.13481475978E+02  0.13608349271E+03  0.33025993557E+02  0.14068118068E+03  0.10566000000E+00 0. -1.
<mgrwt>
<rscale>  1 0.62094061E+03</rscale>
<asrwt>0</asrwt>
<pdfrwt beam="2">  1       21 0.13491964E+00 0.10282324E+04</pdfrwt>
<pdfrwt beam="1">  1        4 0.62762465E-01 0.10282324E+04</pdfrwt>
<totfact> 0.34161041E+01</totfact>
</mgrwt>
</event>
<event>
 6    1  0.1375310E-005  0.1026216E+04  0.7818608E-02  0.9648912E-01
         21   -1    0    0  501  502  0.00000000000E+00  0.00000000000E+00  0.56535811854E+03  0.56535811854E+03  0.00000000000E+00 0.  1.
          4   -1    0    0  502    0 -0.00000000000E+00 -0.00000000000E+00 -0.80866981257E+03  0.80866981257E+03  0.00000000000E+00 0.  1.
    9000010    2    1    2  501    0 -0.19879443247E+03 -0.19661185051E+03 -0.37594963820E+02  0.10269042782E+04  0.98739230764E+03 0.  0.
        -13    1    3    3    0    0 -0.69159236838E+02  0.75293297829E+01  0.46446195653E+03  0.46964306774E+03  0.10566000000E+00 0.  1.
          4    1    3    3  501    0 -0.12963519563E+03 -0.20414118029E+03 -0.50205692035E+03  0.55726121048E+03  0.00000000000E+00 0.  1.
         13    1    1    2    0    0  0.19879443247E+03  0.19661185051E+03 -0.20571673021E+03  0.34712365288E+03  0.10566000000E+00 0. -1.
<mgrwt>
<rscale>  1 0.74141753E+03</rscale>
<asrwt>0</asrwt>
<pdfrwt beam="1">  1       21 0.86978173E-01 0.10262159E+04</pdfrwt>
<pdfrwt beam="2">  1        4 0.12441074E+00 0.10262159E+04</pdfrwt>
<totfact> 0.20757562E+01</totfact>
</mgrwt>
</event>
<event>
 6    1  0.1375310E-005  0.1147958E+04  0.7818608E-02  0.9417410E-01
          4   -1    0    0  502    0 -0.00000000000E+00  0.00000000000E+00  0.58735719470E+03  0.58735719470E+03  0.00000000000E+00 0.  1.
         21   -1    0    0  501  502  0.00000000000E+00 -0.00000000000E+00 -0.12927952730E+04  0.12927952730E+04  0.00000000000E+00 0. -1.
    9000010    2    1    2  501    0  0.44069481028E+03  0.71762897500E+02 -0.13517962712E+03  0.11558897104E+04  0.10575659137E+04 0.  0.
        -13    1    3    3    0    0 -0.66242299952E+02  0.42265102489E+03 -0.29417122110E+03  0.51919037899E+03  0.10566000000E+00 0.  1.
          4    1    3    3  501    0  0.50693711023E+03 -0.35088812739E+03  0.15899159398E+03  0.63669933142E+03  0.00000000000E+00 0.  1.
         13    1    1    2    0    0 -0.44069481028E+03 -0.71762897500E+02 -0.57025845113E+03  0.72426275723E+03  0.10566000000E+00 0. -1.
<mgrwt>
<rscale>  1 0.90656677E+03</rscale>
<asrwt>0</asrwt>
<pdfrwt beam="2">  1       21 0.19889158E+00 0.11479580E+04</pdfrwt>
<pdfrwt beam="1">  1        4 0.90362647E-01 0.11479580E+04</pdfrwt>
<totfact> 0.47632305E+00</totfact>
</mgrwt>
</event>
<event>
 6    1  0.1375310E-005  0.1116682E+04  0.7818608E-02  0.9420924E-01
          4   -1    0    0  502    0 -0.00000000000E+00  0.00000000000E+00  0.35070668757E+03  0.35070668757E+03  0.00000000000E+00 0.  1.
         21   -1    0    0  501  502  0.00000000000E+00 -0.00000000000E+00 -0.18816051368E+04  0.18816051368E+04  0.00000000000E+00 0.  1.
    9000010    2    1    2  501    0  0.32281530355E+03  0.35394081003E+03 -0.12534411541E+04  0.16787177682E+04  0.10087094732E+04 0.  0.
        -13    1    3    3    0    0 -0.36341529214E+03  0.81447849559E+02 -0.50383938996E+03  0.62654494556E+03  0.10566000000E+00 0.  1.
          4    1    3    3  501    0  0.68623059569E+03  0.27249296048E+03 -0.74960176415E+03  0.10521728227E+04  0.00000000000E+00 0.  1.
         13    1    1    2    0    0 -0.32281530355E+03 -0.35394081003E+03 -0.27745729514E+03  0.55359405615E+03  0.10566000000E+00 0. -1.
<mgrwt>
<rscale>  1 0.90373508E+03</rscale>
<asrwt>0</asrwt>
<pdfrwt beam="2">  1       21 0.28947771E+00 0.11166820E+04</pdfrwt>
<pdfrwt beam="1">  1        4 0.53954875E-01 0.11166820E+04</pdfrwt>
<totfact> 0.39450392E+00</totfact>
</mgrwt>
</event>
<event>
 6    1  0.1375310E-005  0.1045909E+04  0.7818608E-02  0.9612110E-01
          4   -1    0    0  502    0 -0.00000000000E+00  0.00000000000E+00  0.86949822407E+03  0.86949822407E+03  0.00000000000E+00 0.  1.
         21   -1    0    0  501  502  0.00000000000E+00 -0.00000000000E+00 -0.55271080683E+03  0.55271080683E+03  0.00000000000E+00 0.  1.
    9000010    2    1    2  501    0 -0.29149771464E+03  0.68054171743E+02  0.38619407304E+03  0.11149313341E+04  0.10021595331E+04 0.  0.
        -13    1    3    3    0    0 -0.48234987913E+03  0.37705298774E+03  0.43137840815E+03  0.74894439289E+03  0.10566000000E+00 0.  1.
          4    1    3    3  501    0  0.19085216449E+03 -0.30899881600E+03 -0.45184335113E+02  0.36598694119E+03  0.00000000000E+00 0.  1.
         13    1    1    2    0    0  0.29149771464E+03 -0.68054171743E+02 -0.69406655805E+02  0.30727769682E+03  0.10566000000E+00 0. -1.
<mgrwt>
<rscale>  1 0.76499823E+03</rscale>
<asrwt>0</asrwt>
<pdfrwt beam="2">  1       21 0.85032431E-01 0.10459092E+04</pdfrwt>
<pdfrwt beam="1">  1        4 0.13376896E+00 0.10459092E+04</pdfrwt>
<totfact> 0.18157682E+01</totfact>
</mgrwt>
</event>
<event>
 6    1  0.1375310E-005  0.1021957E+04  0.7818608E-02  0.9689274E-01
         21   -1    0    0  501  502  0.00000000000E+00  0.00000000000E+00  0.91195716889E+03  0.91195716889E+03  0.00000000000E+00 0.  1.
          4   -1    0    0  502    0 -0.00000000000E+00 -0.00000000000E+00 -0.74985906993E+03  0.74985906993E+03  0.00000000000E+00 0.  1.
    9000010    2    1    2  501    0  0.13060225975E+03  0.20970623077E+03  0.58094376390E+03  0.11755392029E+04  0.99164666452E+03 0.  0.
        -13    1    3    3    0    0 -0.42750664275E+03  0.17938500527E+02  0.29543149236E+03  0.51996490001E+03  0.10566000000E+00 0.  1.
          4    1    3    3  501    0  0.55810890250E+03  0.19176773024E+03  0.28551227154E+03  0.65557430289E+03  0.00000000000E+00 0.  1.
         13    1    1    2    0    0 -0.13060225975E+03 -0.20970623077E+03 -0.41884566493E+03  0.48627703592E+03  0.10566000000E+00 0. -1.
<mgrwt>
<rscale>  1 0.71659001E+03</rscale>
<asrwt>0</asrwt>
<pdfrwt beam="1">  1       21 0.14030110E+00 0.10219573E+04</pdfrwt>
<pdfrwt beam="2">  1        4 0.11536293E+00 0.10219573E+04</pdfrwt>
<totfact> 0.74309151E+00</totfact>
</mgrwt>
</event>
<event>
 6    1  0.1375310E-005  0.1077342E+04  0.7818608E-02  0.9585616E-01
          4   -1    0    0  502    0 -0.00000000000E+00  0.00000000000E+00  0.17601479347E+04  0.17601479347E+04  0.00000000000E+00 0.  1.
         21   -1    0    0  501  502  0.00000000000E+00 -0.00000000000E+00 -0.44221801039E+03  0.44221801039E+03  0.00000000000E+00 0.  1.
    9000010    2    1    2  501    0  0.24628820346E+03 -0.17114918715E+03  0.26763380033E+03  0.11100876460E+04  0.10347544672E+04 0.  0.
        -13    1    3    3    0    0 -0.21328148991E+03  0.22667298588E+02 -0.29080164565E+03  0.36134250877E+03  0.10566000000E+00 0.  1.
          4    1    3    3  501    0  0.45956969337E+03 -0.19381648574E+03  0.55843544599E+03  0.74874513724E+03  0.00000000000E+00 0.  1.
         13    1    1    2    0    0 -0.24628820346E+03  0.17114918715E+03  0.10502961239E+04  0.10922782990E+04  0.10566000000E+00 0. -1.
<mgrwt>
<rscale>  1 0.78255601E+03</rscale>
<asrwt>0</asrwt>
<pdfrwt beam="2">  1       21 0.68033541E-01 0.10773424E+04</pdfrwt>
<pdfrwt beam="1">  1        4 0.27079199E+00 0.10773424E+04</pdfrwt>
<totfact> 0.35366929E+00</totfact>
</mgrwt>
</event>
<event>
 6    1  0.1375310E-005  0.1058263E+04  0.7818608E-02  0.9620576E-01
          4   -1    0    0  502    0 -0.00000000000E+00  0.00000000000E+00  0.44733132361E+03  0.44733132361E+03  0.00000000000E+00 0.  1.
         21   -1    0    0  501  502  0.00000000000E+00 -0.00000000000E+00 -0.11330742438E+04  0.11330742438E+04  0.00000000000E+00 0.  1.
    9000010    2    1    2  501    0  0.27547932927E+03 -0.54119513569E+02 -0.74407535171E+03  0.12936644536E+04  0.10203439650E+04 0.  0.
        -13    1    3    3    0    0 -0.13957718199E+03 -0.33246155504E+03 -0.70565920754E+03  0.79244394355E+03  0.10566000000E+00 0.  1.
          4    1    3    3  501    0  0.41505651126E+03  0.27834204147E+03 -0.38416144165E+02  0.50122051007E+03  0.00000000000E+00 0.  1.
         13    1    1    2    0    0 -0.27547932927E+03  0.54119513569E+02  0.58332431528E+02  0.28674111378E+03  0.10566000000E+00 0. -1.
<mgrwt>
<rscale>  1 0.75949182E+03</rscale>
<asrwt>0</asrwt>
<pdfrwt beam="2">  1       21 0.17431911E+00 0.10582625E+04</pdfrwt>
<pdfrwt beam="1">  1        4 0.68820205E-01 0.10582625E+04</pdfrwt>
<totfact> 0.13481658E+01</totfact>
</mgrwt>
</event>
<event>
 6    1  0.1375310E-005  0.9910713E+03  0.7818608E-02  0.9938531E-01
         21   -1    0    0  501  502  0.00000000000E+00  0.00000000000E+00  0.20930429947E+04  0.20930429947E+04  0.00000000000E+00 0.  1.
          4   -1    0    0  502    0 -0.00000000000E+00 -0.00000000000E+00 -0.18561490401E+03  0.18561490401E+03  0.00000000000E+00 0.  1.
    9000010    2    1    2  501    0 -0.11968301960E+03  0.35199778318E+01  0.19175225555E+04  0.21584983181E+04  0.98381188396E+03 0.  0.
        -13    1    3    3    0    0 -0.36578006278E+03  0.27417821984E+03  0.43328456120E+03  0.62984464172E+03  0.10566000000E+00 0.  1.
          4    1    3    3  501    0  0.24609704318E+03 -0.27065824201E+03  0.14842379943E+04  0.15286536764E+04  0.00000000000E+00 0.  1.
         13    1    1    2    0    0  0.11968301960E+03 -0.35199778318E+01 -0.10094464805E+02  0.12015958059E+03  0.10566000000E+00 0. -1.
<mgrwt>
<rscale>  1 0.58429716E+03</rscale>
<asrwt>0</asrwt>
<pdfrwt beam="1">  1       21 0.32200660E+00 0.99107126E+03</pdfrwt>
<pdfrwt beam="2">  1        4 0.28556141E-01 0.99107126E+03</pdfrwt>
<totfact> 0.92353585E+00</totfact>
</mgrwt>
</event>
<event>
 6    1  0.1375310E-005  0.1092897E+04  0.7818608E-02  0.9463309E-01
          4   -1    0    0  502    0 -0.00000000000E+00  0.00000000000E+00  0.11469051887E+04  0.11469051887E+04  0.00000000000E+00 0.  1.
         21   -1    0    0  501  502  0.00000000000E+00 -0.00000000000E+00 -0.56974619265E+03  0.56974619265E+03  0.00000000000E+00 0.  1.
    9000010    2    1    2  501    0  0.43747014938E+03  0.44806947740E+02  0.14921501862E+03  0.11030359862E+04  0.10005176015E+04 0.  0.
        -13    1    3    3    0    0 -0.18947280802E+03  0.10004750506E+03  0.37706422084E+03  0.43368985007E+03  0.10566000000E+00 0.  1.
          4    1    3    3  501    0  0.62694295740E+03 -0.55240557317E+02 -0.22784920223E+03  0.66934613614E+03  0.00000000000E+00 0.  1.
         13    1    1    2    0    0 -0.43747014938E+03 -0.44806947740E+02  0.42794397743E+03  0.61361539513E+03  0.10566000000E+00 0. -1.
<mgrwt>
<rscale>  1 0.87043828E+03</rscale>
<asrwt>0</asrwt>
<pdfrwt beam="2">  1       21 0.87653261E-01 0.10928967E+04</pdfrwt>
<pdfrwt beam="1">  1        4 0.17644695E+00 0.10928967E+04</pdfrwt>
<totfact> 0.79116561E+00</totfact>
</mgrwt>
</event>
<event>
 6    1  0.1375310E-005  0.1052097E+04  0.7818608E-02  0.9654284E-01
          4   -1    0    0  502    0 -0.00000000000E+00  0.00000000000E+00  0.23130106741E+04  0.23130106741E+04  0.00000000000E+00 0.  1.
         21   -1    0    0  501  502  0.00000000000E+00 -0.00000000000E+00 -0.21279999489E+03  0.21279999489E+03  0.00000000000E+00 0.  1.
    9000010    2    1    2  501    0  0.13825377235E+03 -0.21401696278E+03  0.12275772031E+04  0.16167416063E+04  0.10207792445E+04 0.  0.
        -13    1    3    3    0    0  0.34244779337E+03 -0.43950478579E+01 -0.12400362076E+02  0.34270043446E+03  0.10566000000E+00 0.  1.
          4    1    3    3  501    0 -0.20419402102E+03 -0.20962191492E+03  0.12399775652E+04  0.12740411718E+04  0.00000000000E+00 0.  1.
         13    1    1    2    0    0 -0.13825377235E+03  0.21401696278E+03  0.87263347617E+03  0.90906906273E+03  0.10566000000E+00 0. -1.
<mgrwt>
<rscale>  1 0.73805188E+03</rscale>
<asrwt>0</asrwt>
<pdfrwt beam="2">  1       21 0.32738462E-01 0.10520968E+04</pdfrwt>
<pdfrwt beam="1">  1        4 0.35584778E+00 0.10520968E+04</pdfrwt>
<totfact> 0.49995966E+00</totfact>
</mgrwt>
</event>
<event>
 6    1  0.1375310E-005  0.1024531E+04  0.7818608E-02  0.9736771E-01
          4   -1    0    0  502    0 -0.00000000000E+00  0.00000000000E+00  0.27703010477E+03  0.27703010477E+03  0.00000000000E+00 0.  1.
         21   -1    0    0  501  502  0.00000000000E+00 -0.00000000000E+00 -0.13764516149E+04  0.13764516149E+04  0.00000000000E+00 0.  1.
    9000010    2    1    2  501    0 -0.94170825970E+02  0.18678431460E+03 -0.94081817669E+03  0.13909716185E+04  0.10029489904E+04 0.  0.
        -13    1    3    3    0    0 -0.45684871581E+03  0.38496886989E+03 -0.44183482527E+03  0.74305437480E+03  0.10566000000E+00 0.  1.
          4    1    3    3  501    0  0.36267788984E+03 -0.19818455529E+03 -0.49898335141E+03  0.64791724373E+03  0.00000000000E+00 0.  1.
         13    1    1    2    0    0  0.94170825970E+02 -0.18678431460E+03 -0.15860333339E+03  0.26251010109E+03  0.10566000000E+00 0. -1.
<mgrwt>
<rscale>  1 0.68869052E+03</rscale>
<asrwt>0</asrwt>
<pdfrwt beam="2">  1       21 0.21176178E+00 0.10245307E+04</pdfrwt>
<pdfrwt beam="1">  1        4 0.42620017E-01 0.10245307E+04</pdfrwt>
<totfact> 0.20629742E+01</totfact>
</mgrwt>
</event>
<event>
 6    1  0.1375310E-005  0.1026339E+04  0.7818608E-02  0.9718622E-01
         21   -1    0    0  501  502  0.00000000000E+00  0.00000000000E+00  0.96756140382E+03  0.96756140382E+03  0.00000000000E+00 0.  1.
          4   -1    0    0  502    0 -0.00000000000E+00 -0.00000000000E+00 -0.51948768234E+03  0.51948768234E+03  0.00000000000E+00 0.  1.
    9000010    2    1    2  501    0 -0.13359467778E+03 -0.17612063940E+03  0.62695529819E+03  0.12026819868E+04  0.10022499677E+04 0.  0.
        -13    1    3    3    0    0 -0.55408220797E+03 -0.29161704408E+01  0.45330772878E+03  0.71589350142E+03  0.10566000000E+00 0.  1.
          4    1    3    3  501    0  0.42048753019E+03 -0.17320446896E+03  0.17364756941E+03  0.48678848536E+03  0.00000000000E+00 0.  1.
         13    1    1    2    0    0  0.13359467778E+03  0.17612063940E+03 -0.17888157672E+03  0.28436709938E+03  0.10566000000E+00 0. -1.
<mgrwt>
<rscale>  1 0.69918788E+03</rscale>
<asrwt>0</asrwt>
<pdfrwt beam="1">  1       21 0.14885560E+00 0.10263386E+04</pdfrwt>
<pdfrwt beam="2">  1        4 0.79921182E-01 0.10263386E+04</pdfrwt>
<totfact> 0.15171099E+01</totfact>
</mgrwt>
</event>
<event>
 6    1  0.1375310E-005  0.1025803E+04  0.7818608E-02  0.9970467E-01
          4   -1    0    0  502    0 -0.00000000000E+00  0.00000000000E+00  0.40150615194E+03  0.40150615194E+03  0.00000000000E+00 0.  1.
         21   -1    0    0  501  502  0.00000000000E+00 -0.00000000000E+00 -0.79178462567E+03  0.79178462567E+03  0.00000000000E+00 0.  1.
    9000010    2    1    2  501    0  0.89814963158E+02  0.38065957833E+02 -0.38475442137E+03  0.10955857569E+04  0.10211544649E+04 0.  0.
        -13    1    3    3    0    0  0.49683290668E+03  0.19154744732E+03 -0.39088418019E+03  0.66054811726E+03  0.10566000000E+00 0.  1.
          4    1    3    3  501    0 -0.40701794352E+03 -0.15348148948E+03  0.61297588233E+01  0.43503763964E+03  0.00000000000E+00 0.  1.
         13    1    1    2    0    0 -0.89814963158E+02 -0.38065957833E+02 -0.55240523578E+01  0.97705020707E+02  0.10566000000E+00 0. -1.
<mgrwt>
<rscale>  1 0.56964389E+03</rscale>
<asrwt>0</asrwt>
<pdfrwt beam="2">  1       21 0.12181302E+00 0.10258032E+04</pdfrwt>
<pdfrwt beam="1">  1        4 0.61770178E-01 0.10258032E+04</pdfrwt>
<totfact> 0.46380772E+01</totfact>
</mgrwt>
</event>
<event>
 6    1  0.1375310E-005  0.9693269E+03  0.7818608E-02  0.9790716E-01
         21   -1    0    0  501  502  0.00000000000E+00  0.00000000000E+00  0.13058309967E+04  0.13058309967E+04  0.00000000000E+00 0.  1.
          4   -1    0    0  502    0 -0.00000000000E+00 -0.00000000000E+00 -0.63380373915E+03  0.63380373915E+03  0.00000000000E+00 0.  1.
    9000010    2    1    2  501    0  0.79348246995E+01 -0.20646153479E+03  0.10989386597E+04  0.14653535080E+04  0.94705089555E+03 0.  0.
        -13    1    3    3    0    0  0.35273479073E+03 -0.12301264749E+03  0.10408709561E+04  0.11058780685E+04  0.10566000000E+00 0.  1.
          4    1    3    3  501    0 -0.34479996603E+03 -0.83448887292E+02  0.58067703602E+02  0.35947543945E+03  0.00000000000E+00 0.  1.
         13    1    1    2    0    0 -0.79348246995E+01  0.20646153479E+03 -0.42691140208E+03  0.47428122794E+03  0.10566000000E+00 0. -1.
<mgrwt>
<rscale>  1 0.65863172E+03</rscale>
<asrwt>0</asrwt>
<pdfrwt beam="1">  1       21 0.20089708E+00 0.96932694E+03</pdfrwt>
<pdfrwt beam="2">  1        4 0.97508268E-01 0.96932694E+03</pdfrwt>
<totfact> 0.39483030E+00</totfact>
</mgrwt>
</event>
<event>
 6    1  0.1375310E-005  0.9810387E+03  0.7818608E-02  0.9739353E-01
          4   -1    0    0  502    0 -0.00000000000E+00  0.00000000000E+00  0.20288469733E+03  0.20288469733E+03  0.00000000000E+00 0.  1.
         21   -1    0    0  501  502  0.00000000000E+00 -0.00000000000E+00 -0.18888580148E+04  0.18888580148E+04  0.00000000000E+00 0.  1.
    9000010    2    1    2  501    0 -0.13793344036E+03 -0.19176006035E+03 -0.14942290620E+04  0.17875003328E+04  0.95217613666E+03 0.  0.
        -13    1    3    3    0    0 -0.39997726812E+03 -0.18911735037E+03 -0.23437155346E+03  0.50067676545E+03  0.10566000000E+00 0.  1.
          4    1    3    3  501    0  0.26204382776E+03 -0.26427099799E+01 -0.12598575086E+04  0.12868235673E+04  0.00000000000E+00 0.  1.
         13    1    1    2    0    0  0.13793344036E+03  0.19176006035E+03 -0.19174425545E+03  0.30424237933E+03  0.10566000000E+00 0. -1.
<mgrwt>
<rscale>  1 0.68721323E+03</rscale>
<asrwt>0</asrwt>
<pdfrwt beam="2">  1       21 0.29059354E+00 0.98103871E+03</pdfrwt>
<pdfrwt beam="1">  1        4 0.31213031E-01 0.98103871E+03</pdfrwt>
<totfact> 0.12188225E+01</totfact>
</mgrwt>
</event>
<event>
 6    1  0.1375310E-005  0.9784986E+03  0.7818608E-02  0.1013410E+00
         21   -1    0    0  501  502  0.00000000000E+00  0.00000000000E+00  0.42639590691E+03  0.42639590691E+03  0.00000000000E+00 0.  1.
          4   -1    0    0  502    0 -0.00000000000E+00 -0.00000000000E+00 -0.94840914058E+03  0.94840914058E+03  0.00000000000E+00 0.  1.
    9000010    2    1    2  501    0  0.51930917156E+02  0.43075137048E+02 -0.14188084898E+03  0.98873131276E+03  0.97616962969E+03 0.  0.
        -13    1    3    3    0    0  0.39248173208E+02 -0.10827331613E+03 -0.54547790341E+03  0.55750308013E+03  0.10566000000E+00 0.  1.
          4    1    3    3  501    0  0.12682743948E+02  0.15134845318E+03  0.40359705443E+03  0.43122823263E+03  0.00000000000E+00 0.  1.
         13    1    1    2    0    0 -0.51930917156E+02 -0.43075137048E+02 -0.38013238470E+03  0.38607373473E+03  0.10566000000E+00 0. -1.
<mgrwt>
<rscale>  1 0.50141692E+03</rscale>
<asrwt>0</asrwt>
<pdfrwt beam="1">  1       21 0.65599371E-01 0.97849856E+03</pdfrwt>
<pdfrwt beam="2">  1        4 0.14590910E+00 0.97849856E+03</pdfrwt>
<totfact> 0.26569077E+01</totfact>
</mgrwt>
</event>
<event>
 6    1  0.1375310E-005  0.1018295E+04  0.7818608E-02  0.9826436E-01
          4   -1    0    0  502    0 -0.00000000000E+00  0.00000000000E+00  0.20093199329E+03  0.20093199329E+03  0.00000000000E+00 0.  1.
         21   -1    0    0  501  502  0.00000000000E+00 -0.00000000000E+00 -0.19490854453E+04  0.19490854453E+04  0.00000000000E+00 0.  1.
    9000010    2    1    2  501    0 -0.11961492198E+03  0.10402840552E+03 -0.11726096238E+04  0.15530414357E+04  0.10058800785E+04 0.  0.
        -13    1    3    3    0    0 -0.40410583260E+03 -0.22478203707E+03 -0.23320497100E+03  0.51789290185E+03  0.10566000000E+00 0.  1.
          4    1    3    3  501    0  0.28449091061E+03  0.32881044258E+03 -0.93940465282E+03  0.10351485338E+04  0.00000000000E+00 0.  1.
         13    1    1    2    0    0  0.11961492198E+03 -0.10402840552E+03 -0.57554382822E+03  0.59697600293E+03  0.10566000000E+00 0. -1.
<mgrwt>
<rscale>  1 0.63962954E+03</rscale>
<asrwt>0</asrwt>
<pdfrwt beam="2">  1       21 0.29985930E+00 0.10182948E+04</pdfrwt>
<pdfrwt beam="1">  1        4 0.30912614E-01 0.10182948E+04</pdfrwt>
<totfact> 0.10811688E+01</totfact>
</mgrwt>
</event>
<event>
 6    1  0.1375310E-005  0.1039421E+04  0.7818608E-02  0.9872966E-01
         21   -1    0    0  501  502  0.00000000000E+00  0.00000000000E+00  0.10647666413E+04  0.10647666413E+04  0.00000000000E+00 0.  1.
          4   -1    0    0  502    0 -0.00000000000E+00 -0.00000000000E+00 -0.46198777469E+03  0.46198777469E+03  0.00000000000E+00 0.  1.
    9000010    2    1    2  501    0  0.12452701722E+03  0.30174371334E+02  0.78602015739E+03  0.13031591287E+04  0.10314933622E+04 0.  0.
        -13    1    3    3    0    0 -0.37132425132E+03 -0.27053688274E+03  0.33916903608E+03  0.57105827263E+03  0.10566000000E+00 0.  1.
          4    1    3    3  501    0  0.49585126853E+03  0.30071125408E+03  0.44685112131E+03  0.73210085606E+03  0.00000000000E+00 0.  1.
         13    1    1    2    0    0 -0.12452701722E+03 -0.30174371334E+02 -0.18324129076E+03  0.22359528731E+03  0.10566000000E+00 0. -1.
<mgrwt>
<rscale>  1 0.61589536E+03</rscale>
<asrwt>0</asrwt>
<pdfrwt beam="1">  1       21 0.16381025E+00 0.10394210E+04</pdfrwt>
<pdfrwt beam="2">  1        4 0.71075042E-01 0.10394210E+04</pdfrwt>
<totfact> 0.15076487E+01</totfact>
</mgrwt>
</event>
<event>
 6    1  0.1375310E-005  0.1016086E+04  0.7818608E-02  0.9741097E-01
         21   -1    0    0  501  502  0.00000000000E+00  0.00000000000E+00  0.12091065845E+04  0.12091065845E+04  0.00000000000E+00 0.  1.
          4   -1    0    0  502    0 -0.00000000000E+00 -0.00000000000E+00 -0.61713874958E+03  0.61713874958E+03  0.00000000000E+00 0.  1.
    9000010    2    1    2  501    0  0.19697095867E+03 -0.76694444706E+02  0.96254931858E+03  0.13996187484E+04  0.99385705897E+03 0.  0.
        -13    1    3    3    0    0  0.22409176968E+03 -0.96953135793E+02 -0.14999594381E+03  0.28655859104E+03  0.10566000000E+00 0.  1.
          4    1    3    3  501    0 -0.27120811007E+02  0.20258691087E+02  0.11125452624E+04  0.11130601573E+04  0.00000000000E+00 0.  1.
         13    1    1    2    0    0 -0.19697095867E+03  0.76694444706E+02 -0.37058148368E+03  0.42662658569E+03  0.10566000000E+00 0. -1.
<mgrwt>
<rscale>  1 0.68621725E+03</rscale>
<asrwt>0</asrwt>
<pdfrwt beam="1">  1       21 0.18601640E+00 0.10160863E+04</pdfrwt>
<pdfrwt beam="2">  1        4 0.94944423E-01 0.10160863E+04</pdfrwt>
<totfact> 0.53090829E+00</totfact>
</mgrwt>
</event>
<event>
 6    1  0.1375310E-005  0.1007635E+04  0.7818608E-02  0.9875226E-01
          4   -1    0    0  502    0 -0.00000000000E+00  0.00000000000E+00  0.15329317536E+04  0.15329317536E+04  0.00000000000E+00 0.  1.
         21   -1    0    0  501  502  0.00000000000E+00 -0.00000000000E+00 -0.21584002663E+03  0.21584002663E+03  0.00000000000E+00 0.  1.
    9000010    2    1    2  501    0  0.13038106497E+03 -0.49942272149E+02  0.11115002125E+04  0.15002535020E+04  0.99791502400E+03 0.  0.
        -13    1    3    3    0    0  0.31806791207E+03  0.25803730973E+03  0.10594385956E+04  0.11358523667E+04  0.10566000000E+00 0.  1.
          4    1    3    3  501    0 -0.18768684710E+03 -0.30797958188E+03  0.52061616890E+02  0.36440113526E+03  0.00000000000E+00 0.  1.
         13    1    1    2    0    0 -0.13038106497E+03  0.49942272149E+02  0.20559151447E+03  0.24851827827E+03  0.10566000000E+00 0. -1.
<mgrwt>
<rscale>  1 0.61477116E+03</rscale>
<asrwt>0</asrwt>
<pdfrwt beam="2">  1       21 0.33206159E-01 0.10076348E+04</pdfrwt>
<pdfrwt beam="1">  1        4 0.23583565E+00 0.10076348E+04</pdfrwt>
<totfact> 0.27496700E+01</totfact>
</mgrwt>
</event>
<event>
 6    1  0.1375310E-005  0.1241483E+04  0.7818608E-02  0.9215171E-01
          4   -1    0    0  502    0 -0.00000000000E+00  0.00000000000E+00  0.49448411393E+03  0.49448411393E+03  0.00000000000E+00 0.  1.
         21   -1    0    0  501  502  0.00000000000E+00 -0.00000000000E+00 -0.21073289791E+04  0.21073289791E+04  0.00000000000E+00 0. -1.
    9000010    2    1    2  501    0 -0.68085562040E+03  0.28271118445E+03 -0.68895151200E+03  0.14198363890E+04  0.99889498749E+03 0.  0.
        -13    1    3    3    0    0 -0.77491756363E+03  0.38765534432E+02 -0.81870915351E+03  0.11279559771E+04  0.10566000000E+00 0.  1.
          4    1    3    3  501    0  0.94061943230E+02  0.24394565001E+03  0.12975764151E+03  0.29188041191E+03  0.00000000000E+00 0.  1.
         13    1    1    2    0    0  0.68085562040E+03 -0.28271118445E+03 -0.92389335319E+03  0.11819767040E+04  0.10566000000E+00 0. -1.
<mgrwt>
<rscale>  1 0.10898198E+04</rscale>
<asrwt>0</asrwt>
<pdfrwt beam="2">  1       21 0.32420446E+00 0.12414835E+04</pdfrwt>
<pdfrwt beam="1">  1        4 0.76074479E-01 0.12414835E+04</pdfrwt>
<totfact> 0.10966574E+00</totfact>
</mgrwt>
</event>
<event>
 6    1  0.1375310E-005  0.1045729E+04  0.7818608E-02  0.9588317E-01
          4   -1    0    0  502    0 -0.00000000000E+00  0.00000000000E+00  0.74573502459E+03  0.74573502459E+03  0.00000000000E+00 0.  1.
         21   -1    0    0  501  502  0.00000000000E+00 -0.00000000000E+00 -0.81775701866E+03  0.81775701866E+03  0.00000000000E+00 0.  1.
    9000010    2    1    2  501    0  0.18287279881E+03  0.26857027649E+03 -0.38307457287E+03  0.11136852271E+04  0.99396992038E+03 0.  0.
        -13    1    3    3    0    0  0.49037619254E+03 -0.11903153084E+03 -0.29330214459E+02  0.50546769252E+03  0.10566000000E+00 0.  1.
          4    1    3    3  501    0 -0.30750339373E+03  0.38760180733E+03 -0.35374435841E+03  0.60821753453E+03  0.00000000000E+00 0.  1.
         13    1    1    2    0    0 -0.18287279881E+03 -0.26857027649E+03  0.31105257879E+03  0.44980681620E+03  0.10566000000E+00 0. -1.
<mgrwt>
<rscale>  1 0.78074305E+03</rscale>
<asrwt>0</asrwt>
<pdfrwt beam="2">  1       21 0.12580877E+00 0.10457288E+04</pdfrwt>
<pdfrwt beam="1">  1        4 0.11472847E+00 0.10457288E+04</pdfrwt>
<totfact> 0.10058539E+01</totfact>
</mgrwt>
</event>
<event>
 6    1  0.1375310E-005  0.9810134E+03  0.7818608E-02  0.1016690E+00
          4   -1    0    0  502    0 -0.00000000000E+00  0.00000000000E+00  0.57094189418E+03  0.57094189418E+03  0.00000000000E+00 0.  1.
         21   -1    0    0  501  502  0.00000000000E+00 -0.00000000000E+00 -0.92890442517E+03  0.92890442517E+03  0.00000000000E+00 0.  1.
    9000010    2    1    2  501    0  0.59036383319E+02  0.13518225012E+02 -0.66612094619E+03  0.11857927300E+04  0.97914209726E+03 0.  0.
        -13    1    3    3    0    0  0.73692693577E+02  0.20106661349E+03 -0.87725178144E+03  0.90301112692E+03  0.10566000000E+00 0.  1.
          4    1    3    3  501    0 -0.14656310257E+02 -0.18754838848E+03  0.21113083525E+03  0.28278160309E+03  0.00000000000E+00 0.  1.
         13    1    1    2    0    0 -0.59036383319E+02 -0.13518225012E+02  0.30815841520E+03  0.31405358935E+03  0.10566000000E+00 0. -1.
<mgrwt>
<rscale>  1 0.48900194E+03</rscale>
<asrwt>0</asrwt>
<pdfrwt beam="2">  1       21 0.14290837E+00 0.98101340E+03</pdfrwt>
<pdfrwt beam="1">  1        4 0.87837216E-01 0.98101340E+03</pdfrwt>
<totfact> 0.13710628E+01</totfact>
</mgrwt>
</event>
<event>
 6    1  0.1375310E-005  0.1009217E+04  0.7818608E-02  0.9799773E-01
          4   -1    0    0  502    0 -0.00000000000E+00  0.00000000000E+00  0.16706752002E+04  0.16706752002E+04  0.00000000000E+00 0.  1.
         21   -1    0    0  501  502  0.00000000000E+00 -0.00000000000E+00 -0.43633281181E+03  0.43633281181E+03  0.00000000000E+00 0.  1.
    9000010    2    1    2  501    0 -0.17765743343E+03  0.38590909328E+01  0.16453329221E+03  0.10225410601E+04  0.99344952524E+03 0.  0.
        -13    1    3    3    0    0  0.74695126510E+02  0.28396852151E+01  0.55369636657E+03  0.55871916313E+03  0.10566000000E+00 0.  1.
          4    1    3    3  501    0 -0.25235255994E+03  0.10194057177E+01 -0.38916307436E+03  0.46382189701E+03  0.00000000000E+00 0.  1.
         13    1    1    2    0    0  0.17765743343E+03 -0.38590909328E+01  0.10698090961E+04  0.10844669518E+04  0.10566000000E+00 0. -1.
<mgrwt>
<rscale>  1 0.65374729E+03</rscale>
<asrwt>0</asrwt>
<pdfrwt beam="2">  1       21 0.67128126E-01 0.10092170E+04</pdfrwt>
<pdfrwt beam="1">  1        4 0.25702695E+00 0.10092170E+04</pdfrwt>
<totfact> 0.44745360E+00</totfact>
</mgrwt>
</event>
<event>
 6    1  0.1375310E-005  0.9869383E+03  0.7818608E-02  0.9748163E-01
          4   -1    0    0  502    0 -0.00000000000E+00  0.00000000000E+00  0.79555591668E+03  0.79555591668E+03  0.00000000000E+00 0.  1.
         21   -1    0    0  501  502  0.00000000000E+00 -0.00000000000E+00 -0.11641506922E+04  0.11641506922E+04  0.00000000000E+00 0.  1.
    9000010    2    1    2  501    0 -0.21778558918E+03  0.57743160273E+02 -0.92919336484E+03  0.13555248276E+04  0.96087585754E+03 0.  0.
        -13    1    3    3    0    0 -0.41772423912E+03 -0.29499595086E+03 -0.26151366792E+03  0.57437405986E+03  0.10566000000E+00 0.  1.
          4    1    3    3  501    0  0.19993864994E+03  0.35273911114E+03 -0.66767969692E+03  0.78115076775E+03  0.00000000000E+00 0.  1.
         13    1    1    2    0    0  0.21778558918E+03 -0.57743160273E+02  0.56059858928E+03  0.60418178132E+03  0.10566000000E+00 0. -1.
<mgrwt>
<rscale>  1 0.68220185E+03</rscale>
<asrwt>0</asrwt>
<pdfrwt beam="2">  1       21 0.17910011E+00 0.98693832E+03</pdfrwt>
<pdfrwt beam="1">  1        4 0.12239322E+00 0.98693832E+03</pdfrwt>
<totfact> 0.32076344E+00</totfact>
</mgrwt>
</event>
<event>
 6    1  0.1375310E-005  0.9990012E+03  0.7818608E-02  0.1022973E+00
         21   -1    0    0  501  502  0.00000000000E+00  0.00000000000E+00  0.14905747610E+04  0.14905747610E+04  0.00000000000E+00 0.  1.
          4   -1    0    0  502    0 -0.00000000000E+00 -0.00000000000E+00 -0.20110719834E+03  0.20110719834E+03  0.00000000000E+00 0.  1.
    9000010    2    1    2  501    0 -0.37355346173E+02  0.29203113436E+02  0.13034476553E+04  0.16422481867E+04  0.99787527922E+03 0.  0.
        -13    1    3    3    0    0  0.83712269696E+02  0.29092396875E+03 -0.46284822491E+01  0.30276382496E+03  0.10566000000E+00 0.  1.
          4    1    3    3  501    0 -0.12106761587E+03 -0.26172085532E+03  0.13080761375E+04  0.13394843617E+04  0.00000000000E+00 0.  1.
         13    1    1    2    0    0  0.37355346173E+02 -0.29203113436E+02 -0.13980092647E+02  0.49433772631E+02  0.10566000000E+00 0. -1.
<mgrwt>
<rscale>  1 0.46628902E+03</rscale>
<asrwt>0</asrwt>
<pdfrwt beam="1">  1       21 0.22931919E+00 0.99900116E+03</pdfrwt>
<pdfrwt beam="2">  1        4 0.30939570E-01 0.99900116E+03</pdfrwt>
<totfact> 0.30172707E+01</totfact>
</mgrwt>
</event>
<event>
 6    1  0.1375310E-005  0.1015309E+04  0.7818608E-02  0.9790911E-01
          4   -1    0    0  502    0 -0.00000000000E+00  0.00000000000E+00  0.33045298202E+03  0.33045298202E+03  0.00000000000E+00 0.  1.
         21   -1    0    0  501  502  0.00000000000E+00 -0.00000000000E+00 -0.10952488371E+04  0.10952488371E+04  0.00000000000E+00 0.  1.
    9000010    2    1    2  501    0 -0.34079040807E+02  0.17641784134E+03 -0.70601441095E+03  0.12366518123E+04  0.99928310329E+03 0.  0.
        -13    1    3    3    0    0 -0.14778751044E+03  0.20898618721E+03 -0.94013107048E+03  0.97435251092E+03  0.10566000000E+00 0.  1.
          4    1    3    3  501    0  0.11370846963E+03 -0.32568345876E+02  0.23411665952E+03  0.26229930134E+03  0.00000000000E+00 0.  1.
         13    1    1    2    0    0  0.34079040807E+02 -0.17641784134E+03 -0.58781444147E+02  0.18905000689E+03  0.10566000000E+00 0. -1.
<mgrwt>
<rscale>  1 0.65852615E+03</rscale>
<asrwt>0</asrwt>
<pdfrwt beam="2">  1       21 0.16849982E+00 0.10153085E+04</pdfrwt>
<pdfrwt beam="1">  1        4 0.50838919E-01 0.10153085E+04</pdfrwt>
<totfact> 0.28916507E+01</totfact>
</mgrwt>
</event>
<event>
 6    1  0.1375310E-005  0.1024702E+04  0.7818608E-02  0.9756639E-01
         21   -1    0    0  501  502  0.00000000000E+00  0.00000000000E+00  0.38064833910E+03  0.38064833910E+03  0.00000000000E+00 0.  1.
          4   -1    0    0  502    0 -0.00000000000E+00 -0.00000000000E+00 -0.11262330354E+04  0.11262330354E+04  0.00000000000E+00 0.  1.
    9000010    2    1    2  501    0 -0.18689004337E+03 -0.58144751482E+02 -0.38130073860E+03  0.10933459910E+04  0.10058362204E+04 0.  0.
        -13    1    3    3    0    0 -0.57660876752E+01  0.37178179511E+03 -0.48923948332E+03  0.61449998710E+03  0.10566000000E+00 0.  1.
          4    1    3    3  501    0 -0.18112395570E+03 -0.42992654659E+03  0.10793874472E+03  0.47884600385E+03  0.00000000000E+00 0.  1.
         13    1    1    2    0    0  0.18689004337E+03  0.58144751482E+02 -0.36428395770E+03  0.41353538354E+03  0.10566000000E+00 0. -1.
<mgrwt>
<rscale>  1 0.67742394E+03</rscale>
<asrwt>0</asrwt>
<pdfrwt beam="1">  1       21 0.58561284E-01 0.10247025E+04</pdfrwt>
<pdfrwt beam="2">  1        4 0.17326662E+00 0.10247025E+04</pdfrwt>
<totfact> 0.21281839E+01</totfact>
</mgrwt>
</event>
<event>
 6    1  0.1375310E-005  0.1034802E+04  0.7818608E-02  0.9671108E-01
          4   -1    0    0  502    0 -0.00000000000E+00  0.00000000000E+00  0.88245431868E+03  0.88245431868E+03  0.00000000000E+00 0.  1.
         21   -1    0    0  501  502  0.00000000000E+00 -0.00000000000E+00 -0.73890851256E+03  0.73890851256E+03  0.00000000000E+00 0.  1.
    9000010    2    1    2  501    0 -0.23663090310E+03 -0.89456982192E+02 -0.32859352069E+03  0.10857208883E+04  0.10034039114E+04 0.  0.
        -13    1    3    3    0    0 -0.43928440165E+03  0.34272179390E+03 -0.19016633686E+03  0.58872086797E+03  0.10566000000E+00 0.  1.
          4    1    3    3  501    0  0.20265349855E+03 -0.43217877609E+03 -0.13842718383E+03  0.49700002032E+03  0.00000000000E+00 0.  1.
         13    1    1    2    0    0  0.23663090310E+03  0.89456982192E+02  0.47213932681E+03  0.53564194296E+03  0.10566000000E+00 0. -1.
<mgrwt>
<rscale>  1 0.72763374E+03</rscale>
<asrwt>0</asrwt>
<pdfrwt beam="2">  1       21 0.11367823E+00 0.10348025E+04</pdfrwt>
<pdfrwt beam="1">  1        4 0.13576220E+00 0.10348025E+04</pdfrwt>
<totfact> 0.85393760E+00</totfact>
</mgrwt>
</event>
<event>
 6    1  0.1375310E-005  0.9547468E+03  0.7818608E-02  0.9654962E-01
          4   -1    0    0  502    0 -0.00000000000E+00  0.00000000000E+00  0.26872131726E+04  0.26872131726E+04  0.00000000000E+00 0.  1.
         21   -1    0    0  501  502  0.00000000000E+00 -0.00000000000E+00 -0.27239020876E+03  0.27239020876E+03  0.00000000000E+00 0.  1.
    9000010    2    1    2  501    0  0.33915959293E+03 -0.26090054001E+02  0.63282516486E+03  0.11454297163E+04  0.89209395538E+03 0.  0.
        -13    1    3    3    0    0 -0.72211240689E+02  0.11979340305E+03 -0.17692418184E+03  0.22553735828E+03  0.10566000000E+00 0.  1.
          4    1    3    3  501    0  0.41137083362E+03 -0.14588345705E+03  0.80974934670E+03  0.91989235799E+03  0.00000000000E+00 0.  1.
         13    1    1    2    0    0 -0.33915959293E+03  0.26090054001E+02  0.17819977989E+04  0.18141736650E+04  0.10566000000E+00 0. -1.
<mgrwt>
<rscale>  1 0.73762819E+03</rscale>
<asrwt>0</asrwt>
<pdfrwt beam="2">  1       21 0.41906188E-01 0.95474685E+03</pdfrwt>
<pdfrwt beam="1">  1        4 0.41341739E+00 0.95474685E+03</pdfrwt>
<totfact> 0.12405848E+00</totfact>
</mgrwt>
</event>
<event>
 6    1  0.1375310E-005  0.1017941E+04  0.7818608E-02  0.9783765E-01
         21   -1    0    0  501  502  0.00000000000E+00  0.00000000000E+00  0.46688595598E+03  0.46688595598E+03  0.00000000000E+00 0.  1.
          4   -1    0    0  502    0 -0.00000000000E+00 -0.00000000000E+00 -0.79534259855E+03  0.79534259855E+03  0.00000000000E+00 0.  1.
    9000010    2    1    2  501    0  0.15278581377E+03 -0.99874296174E+02 -0.19584749537E+03  0.10366103438E+04  0.10014421518E+04 0.  0.
        -13    1    3    3    0    0  0.40660659003E+03 -0.20299364014E+03 -0.46665809303E+03  0.65138707690E+03  0.10566000000E+00 0.  1.
          4    1    3    3  501    0 -0.25382077626E+03  0.10311934397E+03  0.27081059765E+03  0.38522326690E+03  0.00000000000E+00 0.  1.
         13    1    1    2    0    0 -0.15278581377E+03  0.99874296174E+02 -0.13260914720E+03  0.22561821073E+03  0.10566000000E+00 0. -1.
<mgrwt>
<rscale>  1 0.66241109E+03</rscale>
<asrwt>0</asrwt>
<pdfrwt beam="1">  1       21 0.71828609E-01 0.10179414E+04</pdfrwt>
<pdfrwt beam="2">  1        4 0.12236040E+00 0.10179414E+04</pdfrwt>
<totfact> 0.33965999E+01</totfact>
</mgrwt>
</event>
<event>
 6    1  0.1375310E-005  0.1121676E+04  0.7818608E-02  0.9402700E-01
         21   -1    0    0  501  502  0.00000000000E+00  0.00000000000E+00  0.51532828159E+03  0.51532828159E+03  0.00000000000E+00 0.  1.
          4   -1    0    0  502    0 -0.00000000000E+00 -0.00000000000E+00 -0.14914386199E+04  0.14914386199E+04  0.00000000000E+00 0.  1.
    9000010    2    1    2  501    0  0.48104403173E+03 -0.15175660541E+03 -0.29610279664E+03  0.11601006770E+04  0.10018599138E+04 0.  0.
        -13    1    3    3    0    0  0.63131024432E+03 -0.23560224835E+03 -0.53867800929E+03  0.86269058930E+03  0.10566000000E+00 0.  1.
          4    1    3    3  501    0 -0.15026621259E+03  0.83845642947E+02  0.24257521265E+03  0.29741008773E+03  0.00000000000E+00 0.  1.
         13    1    1    2    0    0 -0.48104403173E+03  0.15175660541E+03 -0.68000754170E+03  0.84666622448E+03  0.10566000000E+00 0. -1.
<mgrwt>
<rscale>  1 0.91853837E+03</rscale>
<asrwt>0</asrwt>
<pdfrwt beam="1">  1       21 0.79281275E-01 0.11216759E+04</pdfrwt>
<pdfrwt beam="2">  1        4 0.22945209E+00 0.11216759E+04</pdfrwt>
<totfact> 0.44591886E+00</totfact>
</mgrwt>
</event>
<event>
 6    1  0.1375310E-005  0.1036400E+04  0.7818608E-02  0.9662681E-01
         21   -1    0    0  501  502  0.00000000000E+00  0.00000000000E+00  0.37545951155E+03  0.37545951155E+03  0.00000000000E+00 0.  1.
          4   -1    0    0  502    0 -0.00000000000E+00 -0.00000000000E+00 -0.15711797159E+04  0.15711797159E+04  0.00000000000E+00 0.  1.
    9000010    2    1    2  501    0  0.88477485487E+01 -0.25892525294E+03 -0.40187533696E+03  0.11115881788E+04  0.10034958512E+04 0.  0.
        -13    1    3    3    0    0  0.16331435661E+03 -0.11896140564E+03 -0.71077634394E+03  0.73893600358E+03  0.10566000000E+00 0.  1.
          4    1    3    3  501    0 -0.15446660806E+03 -0.13996384730E+03  0.30890100698E+03  0.37265217519E+03  0.00000000000E+00 0.  1.
         13    1    1    2    0    0 -0.88477485487E+01  0.25892525294E+03 -0.79384486736E+03  0.83505104865E+03  0.10566000000E+00 0. -1.
<mgrwt>
<rscale>  1 0.73282866E+03</rscale>
<asrwt>0</asrwt>
<pdfrwt beam="1">  1       21 0.57763001E-01 0.10363998E+04</pdfrwt>
<pdfrwt beam="2">  1        4 0.24171996E+00 0.10363998E+04</pdfrwt>
<totfact> 0.77728477E+00</totfact>
</mgrwt>
</event>
<event>
 6    1  0.1375310E-005  0.7382443E+03  0.7818608E-02  0.1028603E+00
         21   -1    0    0  501  502  0.00000000000E+00  0.00000000000E+00  0.93168069341E+02  0.93168069341E+02  0.00000000000E+00 0.  1.
          4   -1    0    0  502    0 -0.00000000000E+00 -0.00000000000E+00 -0.26068135625E+04  0.26068135625E+04  0.00000000000E+00 0.  1.
    9000010    2    1    2  501    0  0.81879860589E+02 -0.56139797652E+02 -0.24910835358E+04  0.25981727838E+04  0.73153854560E+03 0.  0.
        -13    1    3    3    0    0  0.34237193255E+02 -0.17128205216E+03 -0.24645975769E+04  0.24707794223E+04  0.10566000000E+00 0.  1.
          4    1    3    3  501    0  0.47642667334E+02  0.11514225451E+03 -0.26485958936E+02  0.12739336146E+03  0.00000000000E+00 0.  1.
         13    1    1    2    0    0 -0.81879860589E+02  0.56139797652E+02 -0.22561957329E+02  0.10180884801E+03  0.10566000000E+00 0. -1.
<mgrwt>
<rscale>  1 0.44705681E+03</rscale>
<asrwt>0</asrwt>
<pdfrwt beam="1">  1       21 0.14333550E-01 0.73824429E+03</pdfrwt>
<pdfrwt beam="2">  1        4 0.40104823E+00 0.73824429E+03</pdfrwt>
<totfact> 0.13072837E+01</totfact>
</mgrwt>
</event>
<event>
 6    1  0.1375310E-005  0.1017382E+04  0.7818608E-02  0.9773851E-01
          4   -1    0    0  502    0 -0.00000000000E+00  0.00000000000E+00  0.35795210583E+03  0.35795210583E+03  0.00000000000E+00 0.  1.
         21   -1    0    0  501  502  0.00000000000E+00 -0.00000000000E+00 -0.14761075677E+04  0.14761075677E+04  0.00000000000E+00 0.  1.
    9000010    2    1    2  501    0  0.60706047940E+02 -0.17889325223E+03 -0.12440157362E+04  0.16070600265E+04  0.99968933011E+03 0.  0.
        -13    1    3    3    0    0  0.98489553461E+02 -0.18662197112E+03 -0.14155765253E+04  0.14312179646E+04  0.10566000000E+00 0.  1.
          4    1    3    3  501    0 -0.37783505521E+02  0.77287188879E+01  0.17156078902E+03  0.17584206185E+03  0.00000000000E+00 0.  1.
         13    1    1    2    0    0 -0.60706047940E+02  0.17889325223E+03  0.12586027435E+03  0.22699964708E+03  0.10566000000E+00 0. -1.
<mgrwt>
<rscale>  1 0.66784928E+03</rscale>
<asrwt>0</asrwt>
<pdfrwt beam="2">  1       21 0.22709347E+00 0.10173823E+04</pdfrwt>
<pdfrwt beam="1">  1        4 0.55069555E-01 0.10173823E+04</pdfrwt>
<totfact> 0.95389753E+00</totfact>
</mgrwt>
</event>
<event>
 6    1  0.1375310E-005  0.1091660E+04  0.7818608E-02  0.9455408E-01
          4   -1    0    0  502    0 -0.00000000000E+00  0.00000000000E+00  0.55998987295E+03  0.55998987295E+03  0.00000000000E+00 0.  1.
         21   -1    0    0  501  502  0.00000000000E+00 -0.00000000000E+00 -0.11931350868E+04  0.11931350868E+04  0.00000000000E+00 0.  1.
    9000010    2    1    2  501    0  0.13368470527E+03 -0.43359248289E+03 -0.17010224238E+03  0.11048327060E+04  0.99289802790E+03 0.  0.
        -13    1    3    3    0    0  0.14869435249E+02 -0.87292857369E+02 -0.56176324332E+03  0.56869947755E+03  0.10566000000E+00 0.  1.
          4    1    3    3  501    0  0.11881527002E+03 -0.34629962552E+03  0.39166100094E+03  0.53613322849E+03  0.00000000000E+00 0.  1.
         13    1    1    2    0    0 -0.13368470527E+03  0.43359248289E+03 -0.46304297146E+03  0.64829225372E+03  0.10566000000E+00 0. -1.
<mgrwt>
<rscale>  1 0.87652774E+03</rscale>
<asrwt>0</asrwt>
<pdfrwt beam="2">  1       21 0.18355924E+00 0.10916595E+04</pdfrwt>
<pdfrwt beam="1">  1        4 0.86152288E-01 0.10916595E+04</pdfrwt>
<totfact> 0.68834238E+00</totfact>
</mgrwt>
</event>
<event>
 6    1  0.1375310E-005  0.1021082E+04  0.7818608E-02  0.9701810E-01
          4   -1    0    0  502    0 -0.00000000000E+00  0.00000000000E+00  0.69091451997E+03  0.69091451997E+03  0.00000000000E+00 0.  1.
         21   -1    0    0  501  502  0.00000000000E+00 -0.00000000000E+00 -0.67602359407E+03  0.67602359407E+03  0.00000000000E+00 0.  1.
    9000010    2    1    2  501    0 -0.40054019097E+02  0.23407806366E+03 -0.20708412295E+03  0.10418692016E+04  0.99308143423E+03 0.  0.
        -13    1    3    3    0    0 -0.40257380916E+03  0.39414884940E+03 -0.29498287566E+03  0.63595117375E+03  0.10566000000E+00 0.  1.
          4    1    3    3  501    0  0.36251979006E+03 -0.16007078574E+03  0.87898752715E+02  0.40591802789E+03  0.00000000000E+00 0.  1.
         13    1    1    2    0    0  0.40054019097E+02 -0.23407806366E+03  0.22197504885E+03  0.32506891240E+03  0.10566000000E+00 0. -1.
<mgrwt>
<rscale>  1 0.70909139E+03</rscale>
<asrwt>0</asrwt>
<pdfrwt beam="2">  1       21 0.10400363E+00 0.10210816E+04</pdfrwt>
<pdfrwt beam="1">  1        4 0.10629454E+00 0.10210816E+04</pdfrwt>
<totfact> 0.19832199E+01</totfact>
</mgrwt>
</event>
<event>
 6    1  0.1375310E-005  0.1084409E+04  0.7818608E-02  0.9479571E-01
          4   -1    0    0  502    0 -0.00000000000E+00  0.00000000000E+00  0.13995920920E+04  0.13995920920E+04  0.00000000000E+00 0.  1.
         21   -1    0    0  501  502  0.00000000000E+00 -0.00000000000E+00 -0.41898690067E+03  0.41898690067E+03  0.00000000000E+00 0. -1.
    9000010    2    1    2  501    0  0.15510508150E+03 -0.39581210611E+03  0.83701241426E+03  0.13698656026E+04  0.99760572265E+03 0.  0.
        -13    1    3    3    0    0  0.86015710098E+02  0.20069523136E+02 -0.21720543213E+03  0.23447750223E+03  0.10566000000E+00 0.  1.
          4    1    3    3  501    0  0.69089371401E+02 -0.41588162924E+03  0.10542178464E+04  0.11353881004E+04  0.00000000000E+00 0.  1.
         13    1    1    2    0    0 -0.15510508150E+03  0.39581210611E+03  0.14359277704E+03  0.44871339007E+03  0.10566000000E+00 0. -1.
<mgrwt>
<rscale>  1 0.85806856E+03</rscale>
<asrwt>0</asrwt>
<pdfrwt beam="2">  1       21 0.64459524E-01 0.10844086E+04</pdfrwt>
<pdfrwt beam="1">  1        4 0.21532186E+00 0.10844086E+04</pdfrwt>
<totfact> 0.88809944E+00</totfact>
</mgrwt>
</event>
<event>
 6    1  0.1375310E-005  0.1034586E+04  0.7818608E-02  0.9706088E-01
         21   -1    0    0  501  502  0.00000000000E+00  0.00000000000E+00  0.17077861182E+04  0.17077861182E+04  0.00000000000E+00 0. -1.
          4   -1    0    0  502    0 -0.00000000000E+00 -0.00000000000E+00 -0.23487835070E+03  0.23487835070E+03  0.00000000000E+00 0.  1.
    9000010    2    1    2  501    0 -0.21968259790E+03 -0.48868715819E+02  0.12831873681E+04  0.16483135961E+04  0.10098115142E+04 0.  0.
        -13    1    3    3    0    0 -0.44847547888E+02  0.61297760060E+02  0.14059169049E+04  0.14079669998E+04  0.10566000000E+00 0.  1.
          4    1    3    3  501    0 -0.17483505001E+03 -0.11016647588E+03 -0.12272953683E+03  0.24034659625E+03  0.00000000000E+00 0.  1.
         13    1    1    2    0    0  0.21968259790E+03  0.48868715819E+02  0.18972039942E+03  0.29435087281E+03  0.10566000000E+00 0. -1.
<mgrwt>
<rscale>  1 0.70655478E+03</rscale>
<asrwt>0</asrwt>
<pdfrwt beam="1">  1       21 0.26273632E+00 0.10345859E+04</pdfrwt>
<pdfrwt beam="2">  1        4 0.36135132E-01 0.10345859E+04</pdfrwt>
<totfact> 0.13487736E+01</totfact>
</mgrwt>
</event>
<event>
 6    1  0.1375310E-005  0.9355140E+03  0.7818608E-02  0.9936111E-01
          4   -1    0    0  502    0 -0.00000000000E+00  0.00000000000E+00  0.97399604725E+03  0.97399604725E+03  0.00000000000E+00 0.  1.
         21   -1    0    0  501  502  0.00000000000E+00 -0.00000000000E+00 -0.30077110867E+03  0.30077110867E+03  0.00000000000E+00 0.  1.
    9000010    2    1    2  501    0  0.12951161705E+03 -0.61711541313E+02  0.61711596591E+03  0.11207223532E+04  0.92444843241E+03 0.  0.
        -13    1    3    3    0    0  0.15179458304E+03 -0.10866517961E+03 -0.21628193336E+03  0.28570544720E+03  0.10566000000E+00 0.  1.
          4    1    3    3  501    0 -0.22282965986E+02  0.46953638295E+02  0.83339789927E+03  0.83501690595E+03  0.00000000000E+00 0.  1.
         13    1    1    2    0    0 -0.12951161705E+03  0.61711541313E+02  0.56108972668E+02  0.15404480277E+03  0.10566000000E+00 0. -1.
<mgrwt>
<rscale>  1 0.58542684E+03</rscale>
<asrwt>0</asrwt>
<pdfrwt beam="2">  1       21 0.46272479E-01 0.93551402E+03</pdfrwt>
<pdfrwt beam="1">  1        4 0.14984554E+00 0.93551402E+03</pdfrwt>
<totfact> 0.53459420E+01</totfact>
</mgrwt>
</event>
<event>
 6    1  0.1375310E-005  0.1084451E+04  0.7818608E-02  0.9487810E-01
         21   -1    0    0  501  502  0.00000000000E+00  0.00000000000E+00  0.15227656193E+04  0.15227656193E+04  0.00000000000E+00 0.  1.
          4   -1    0    0  502    0 -0.00000000000E+00 -0.00000000000E+00 -0.36811371490E+03  0.36811371490E+03  0.00000000000E+00 0.  1.
    9000010    2    1    2  501    0 -0.86219205477E+02 -0.40384619017E+03  0.83701924884E+03  0.13699033158E+04  0.10027504052E+04 0.  0.
        -13    1    3    3    0    0 -0.19635587986E+03 -0.71138428943E+03  0.69490349296E+03  0.10136637088E+04  0.10566000000E+00 0.  1.
          4    1    3    3  501    0  0.11013667438E+03  0.30753809927E+03  0.14211575588E+03  0.35623960703E+03  0.00000000000E+00 0.  1.
         13    1    1    2    0    0  0.86219205477E+02  0.40384619017E+03  0.31763265560E+03  0.52097601842E+03  0.10566000000E+00 0. -1.
<mgrwt>
<rscale>  1 0.85188526E+03</rscale>
<asrwt>0</asrwt>
<pdfrwt beam="1">  1       21 0.23427163E+00 0.10844510E+04</pdfrwt>
<pdfrwt beam="2">  1        4 0.56632880E-01 0.10844510E+04</pdfrwt>
<totfact> 0.79896159E+00</totfact>
</mgrwt>
</event>
<event>
 6    1  0.1375310E-005  0.1232404E+04  0.7818608E-02  0.9214933E-01
          4   -1    0    0  502    0 -0.00000000000E+00  0.00000000000E+00  0.10044713293E+04  0.10044713293E+04  0.00000000000E+00 0.  1.
         21   -1    0    0  501  502  0.00000000000E+00 -0.00000000000E+00 -0.11572302557E+04  0.11572302557E+04  0.00000000000E+00 0. -1.
    9000010    2    1    2  501    0 -0.34126911310E+03  0.67268500429E+03 -0.50168755902E+03  0.13306053665E+04  0.97460274568E+03 0.  0.
        -13    1    3    3    0    0 -0.66325458757E+03  0.45055804378E+03 -0.17437611486E+03  0.82055849234E+03  0.10566000000E+00 0.  1.
          4    1    3    3  501    0  0.32198547446E+03  0.22212696051E+03 -0.32731144415E+03  0.51004687414E+03  0.00000000000E+00 0.  1.
         13    1    1    2    0    0  0.34126911310E+03 -0.67268500429E+03  0.34892863271E+03  0.83109621852E+03  0.10566000000E+00 0. -1.
<mgrwt>
<rscale>  1 0.10900616E+04</rscale>
<asrwt>0</asrwt>
<pdfrwt beam="2">  1       21 0.17803542E+00 0.12324042E+04</pdfrwt>
<pdfrwt beam="1">  1        4 0.15453405E+00 0.12324042E+04</pdfrwt>
<totfact> 0.17126418E+00</totfact>
</mgrwt>
</event>
<event>
 6    1  0.1375310E-005  0.1030798E+04  0.7818608E-02  0.9666277E-01
         21   -1    0    0  501  502  0.00000000000E+00  0.00000000000E+00  0.98869004285E+03  0.98869004285E+03  0.00000000000E+00 0.  1.
          4   -1    0    0  502    0 -0.00000000000E+00 -0.00000000000E+00 -0.42161336430E+03  0.42161336430E+03  0.00000000000E+00 0.  1.
    9000010    2    1    2  501    0  0.68276300934E+02  0.25102387726E+03  0.46548538958E+03  0.11310267676E+04  0.99743183273E+03 0.  0.
        -13    1    3    3    0    0 -0.10022704915E+02  0.42948388224E+03  0.70295181684E+03  0.82383137090E+03  0.10566000000E+00 0.  1.
          4    1    3    3  501    0  0.78299005849E+02 -0.17846000497E+03 -0.23746642726E+03  0.30719539672E+03  0.00000000000E+00 0.  1.
         13    1    1    2    0    0 -0.68276300934E+02 -0.25102387726E+03  0.10159128898E+03  0.27927663953E+03  0.10566000000E+00 0. -1.
<mgrwt>
<rscale>  1 0.73060643E+03</rscale>
<asrwt>0</asrwt>
<pdfrwt beam="1">  1       21 0.15210616E+00 0.10307982E+04</pdfrwt>
<pdfrwt beam="2">  1        4 0.64863595E-01 0.10307982E+04</pdfrwt>
<totfact> 0.22849423E+01</totfact>
</mgrwt>
</event>
<event>
 6    1  0.1375310E-005  0.1073549E+04  0.7818608E-02  0.9510389E-01
         21   -1    0    0  501  502  0.00000000000E+00  0.00000000000E+00  0.41916141939E+03  0.41916141939E+03  0.00000000000E+00 0. -1.
          4   -1    0    0  502    0 -0.00000000000E+00 -0.00000000000E+00 -0.12864042286E+04  0.12864042286E+04  0.00000000000E+00 0.  1.
    9000010    2    1    2  501    0 -0.16447834708E+03  0.35727305485E+03 -0.67116461978E+03  0.12660843288E+04  0.99890460925E+03 0.  0.
        -13    1    3    3    0    0 -0.54849008299E+02  0.62140095090E+03 -0.74405933017E+03  0.97096439351E+03  0.10566000000E+00 0.  1.
          4    1    3    3  501    0 -0.10962933878E+03 -0.26412789605E+03  0.72894710388E+02  0.29511993528E+03  0.00000000000E+00 0.  1.
         13    1    1    2    0    0  0.16447834708E+03 -0.35727305485E+03 -0.19607818938E+03  0.43948131916E+03  0.10566000000E+00 0. -1.
<mgrwt>
<rscale>  1 0.83522171E+03</rscale>
<asrwt>0</asrwt>
<pdfrwt beam="1">  1       21 0.64486374E-01 0.10735491E+04</pdfrwt>
<pdfrwt beam="2">  1        4 0.19790834E+00 0.10735491E+04</pdfrwt>
<totfact> 0.11548535E+01</totfact>
</mgrwt>
</event>
<event>
 6    1  0.1375310E-005  0.1050674E+04  0.7818608E-02  0.9574200E-01
          4   -1    0    0  502    0 -0.00000000000E+00  0.00000000000E+00  0.65517116886E+03  0.65517116886E+03  0.00000000000E+00 0.  1.
         21   -1    0    0  501  502  0.00000000000E+00 -0.00000000000E+00 -0.76331167388E+03  0.76331167388E+03  0.00000000000E+00 0.  1.
    9000010    2    1    2  501    0 -0.32798707144E+03 -0.74254014179E+02  0.39036549996E+02  0.10513993722E+04  0.99540323990E+03 0.  0.
        -13    1    3    3    0    0 -0.27585410934E+03 -0.41196970972E+03 -0.29219724960E+03  0.57549437461E+03  0.10566000000E+00 0.  1.
          4    1    3    3  501    0 -0.52132962095E+02  0.33771569554E+03  0.33123379959E+03  0.47590499760E+03  0.00000000000E+00 0.  1.
         13    1    1    2    0    0  0.32798707144E+03  0.74254014179E+02 -0.14717705501E+03  0.36708347053E+03  0.10566000000E+00 0. -1.
<mgrwt>
<rscale>  1 0.79027604E+03</rscale>
<asrwt>0</asrwt>
<pdfrwt beam="2">  1       21 0.11743257E+00 0.10506744E+04</pdfrwt>
<pdfrwt beam="1">  1        4 0.10079556E+00 0.10506744E+04</pdfrwt>
<totfact> 0.16536663E+01</totfact>
</mgrwt>
</event>
<event>
 6    1  0.1375310E-005  0.1014265E+04  0.7818608E-02  0.9860950E-01
          4   -1    0    0  502    0 -0.00000000000E+00  0.00000000000E+00  0.56672886697E+03  0.56672886697E+03  0.00000000000E+00 0.  1.
         21   -1    0    0  501  502  0.00000000000E+00 -0.00000000000E+00 -0.70462660555E+03  0.70462660555E+03  0.00000000000E+00 0.  1.
    9000010    2    1    2  501    0 -0.13549137641E+03 -0.46889181853E+02 -0.29731941035E+03  0.10569451438E+04  0.10040805231E+04 0.  0.
        -13    1    3    3    0    0  0.43940067599E+02 -0.86207148391E+01  0.36599581691E+03  0.36872482345E+03  0.10566000000E+00 0.  1.
          4    1    3    3  501    0 -0.17943144401E+03 -0.38268467014E+02 -0.66331522726E+03  0.68822032038E+03  0.00000000000E+00 0.  1.
         13    1    1    2    0    0  0.13549137641E+03  0.46889181853E+02  0.15942167177E+03  0.21441032869E+03  0.10566000000E+00 0. -1.
<mgrwt>
<rscale>  1 0.62191695E+03</rscale>
<asrwt>0</asrwt>
<pdfrwt beam="2">  1       21 0.10840409E+00 0.10142654E+04</pdfrwt>
<pdfrwt beam="1">  1        4 0.87189057E-01 0.10142654E+04</pdfrwt>
<totfact> 0.28714041E+01</totfact>
</mgrwt>
</event>
<event>
 6    1  0.1375310E-005  0.1099120E+04  0.7818608E-02  0.9569282E-01
          4   -1    0    0  502    0 -0.00000000000E+00  0.00000000000E+00  0.19405364774E+04  0.19405364774E+04  0.00000000000E+00 0.  1.
         21   -1    0    0  501  502  0.00000000000E+00 -0.00000000000E+00 -0.25411744600E+03  0.25411744600E+03  0.00000000000E+00 0.  1.
    9000010    2    1    2  501    0 -0.21840069444E+03  0.20387596245E+03  0.12343992980E+04  0.16528180424E+04  0.10577341741E+04 0.  0.
        -13    1    3    3    0    0  0.26967580332E+03 -0.12621834986E+03  0.95570155824E+03  0.10010102848E+04  0.10566000000E+00 0.  1.
          4    1    3    3  501    0 -0.48807649776E+03  0.33009431231E+03  0.27869773976E+03  0.65180775757E+03  0.00000000000E+00 0.  1.
         13    1    1    2    0    0  0.21840069444E+03 -0.20387596245E+03  0.45201973341E+03  0.54183588101E+03  0.10566000000E+00 0. -1.
<mgrwt>
<rscale>  1 0.79363113E+03</rscale>
<asrwt>0</asrwt>
<pdfrwt beam="2">  1       21 0.39094993E-01 0.10991205E+04</pdfrwt>
<pdfrwt beam="1">  1        4 0.29854406E+00 0.10991205E+04</pdfrwt>
<totfact> 0.79532212E+00</totfact>
</mgrwt>
</event>
<event>
 6    1  0.1375310E-005  0.1005325E+04  0.7818608E-02  0.9802512E-01
         21   -1    0    0  501  502  0.00000000000E+00  0.00000000000E+00  0.15102121235E+03  0.15102121235E+03  0.00000000000E+00 0.  1.
          4   -1    0    0  502    0 -0.00000000000E+00 -0.00000000000E+00 -0.23554621580E+04  0.23554621580E+04  0.00000000000E+00 0.  1.
    9000010    2    1    2  501    0  0.11980278853E+03 -0.13186687447E+03 -0.17475993334E+04  0.20161305886E+04  0.98941272452E+03 0.  0.
        -13    1    3    3    0    0  0.50295625784E+03  0.12425328179E+03 -0.69319405928E+03  0.86540273302E+03  0.10566000000E+00 0.  1.
          4    1    3    3  501    0 -0.38315346932E+03 -0.25612015626E+03 -0.10544052741E+04  0.11507278555E+04  0.00000000000E+00 0.  1.
         13    1    1    2    0    0 -0.11980278853E+03  0.13186687447E+03 -0.45684161225E+03  0.49035278175E+03  0.10566000000E+00 0. -1.
<mgrwt>
<rscale>  1 0.65227926E+03</rscale>
<asrwt>0</asrwt>
<pdfrwt beam="1">  1       21 0.23234033E-01 0.10053254E+04</pdfrwt>
<pdfrwt beam="2">  1        4 0.36237878E+00 0.10053254E+04</pdfrwt>
<totfact> 0.90548949E+00</totfact>
</mgrwt>
</event>
<event>
 6    1  0.1375310E-005  0.1008992E+04  0.7818608E-02  0.9796581E-01
         21   -1    0    0  501  502  0.00000000000E+00  0.00000000000E+00  0.25445301686E+03  0.25445301686E+03  0.00000000000E+00 0.  1.
          4   -1    0    0  502    0 -0.00000000000E+00 -0.00000000000E+00 -0.15164855658E+04  0.15164855658E+04  0.00000000000E+00 0.  1.
    9000010    2    1    2  501    0  0.17068381751E+03 -0.56183800481E+02 -0.84229205721E+03  0.13143515958E+04  0.99286183470E+03 0.  0.
        -13    1    3    3    0    0 -0.34479514109E+03  0.18043252865E+03 -0.14448935877E+03  0.41511055477E+03  0.10566000000E+00 0.  1.
          4    1    3    3  501    0  0.51547895860E+03 -0.23661632913E+03 -0.69780269844E+03  0.89924104106E+03  0.00000000000E+00 0.  1.
         13    1    1    2    0    0 -0.17068381751E+03  0.56183800481E+02 -0.41974049175E+03  0.45658698687E+03  0.10566000000E+00 0. -1.
<mgrwt>
<rscale>  1 0.65546350E+03</rscale>
<asrwt>0</asrwt>
<pdfrwt beam="1">  1       21 0.39146618E-01 0.10089917E+04</pdfrwt>
<pdfrwt beam="2">  1        4 0.23330547E+00 0.10089917E+04</pdfrwt>
<totfact> 0.20302332E+01</totfact>
</mgrwt>
</event>
<event>
 6    1  0.1375310E-005  0.1028504E+04  0.7818608E-02  0.9665050E-01
         21   -1    0    0  501  502  0.00000000000E+00  0.00000000000E+00  0.11973266479E+04  0.11973266479E+04  0.00000000000E+00 0.  1.
          4   -1    0    0  502    0 -0.00000000000E+00 -0.00000000000E+00 -0.35337478712E+03  0.35337478712E+03  0.00000000000E+00 0.  1.
    9000010    2    1    2  501    0 -0.25729308288E+03  0.54374898765E+02  0.74390960109E+03  0.12693389908E+04  0.99431565357E+03 0.  0.
        -13    1    3    3    0    0  0.21571926449E+03 -0.27636769698E+03  0.56524477736E+03  0.66514327367E+03  0.10566000000E+00 0.  1.
          4    1    3    3  501    0 -0.47301234737E+03  0.33074259574E+03  0.17866482373E+03  0.60419571716E+03  0.00000000000E+00 0.  1.
         13    1    1    2    0    0  0.25729308288E+03 -0.54374898765E+02  0.10004225970E+03  0.28136244419E+03  0.10566000000E+00 0. -1.
<mgrwt>
<rscale>  1 0.73136376E+03</rscale>
<asrwt>0</asrwt>
<pdfrwt beam="1">  1       21 0.18420410E+00 0.10285038E+04</pdfrwt>
<pdfrwt beam="2">  1        4 0.54365353E-01 0.10285038E+04</pdfrwt>
<totfact> 0.19194000E+01</totfact>
</mgrwt>
</event>
<event>
 6    1  0.1375310E-005  0.1010183E+04  0.7818608E-02  0.9854954E-01
          4   -1    0    0  502    0 -0.00000000000E+00  0.00000000000E+00  0.14888279039E+04  0.14888279039E+04  0.00000000000E+00 0.  1.
         21   -1    0    0  501  502  0.00000000000E+00 -0.00000000000E+00 -0.28041470708E+03  0.28041470708E+03  0.00000000000E+00 0.  1.
    9000010    2    1    2  501    0 -0.18655589739E+02  0.14679143755E+03  0.67319184259E+03  0.12139429924E+04  0.99928703323E+03 0.  0.
        -13    1    3    3    0    0  0.41613832229E+03 -0.58423491089E+02  0.59256153952E+03  0.72643898359E+03  0.10566000000E+00 0.  1.
          4    1    3    3  501    0 -0.43479391202E+03  0.20521492864E+03  0.80630303067E+02  0.48750400885E+03  0.00000000000E+00 0.  1.
         13    1    1    2    0    0  0.18655589739E+02 -0.14679143755E+03  0.53522135422E+03  0.55529961853E+03  0.10566000000E+00 0. -1.
<mgrwt>
<rscale>  1 0.62494985E+03</rscale>
<asrwt>0</asrwt>
<pdfrwt beam="2">  1       21 0.43140725E-01 0.10101833E+04</pdfrwt>
<pdfrwt beam="1">  1        4 0.22905044E+00 0.10101833E+04</pdfrwt>
<totfact> 0.17602191E+01</totfact>
</mgrwt>
</event>
<event>
 6    1  0.1375310E-005  0.1023239E+04  0.7818608E-02  0.9792136E-01
          4   -1    0    0  502    0 -0.00000000000E+00  0.00000000000E+00  0.21415128776E+04  0.21415128776E+04  0.00000000000E+00 0.  1.
         21   -1    0    0  501  502  0.00000000000E+00 -0.00000000000E+00 -0.16794578091E+03  0.16794578091E+03  0.00000000000E+00 0.  1.
    9000010    2    1    2  501    0  0.26589286725E+02 -0.17279369396E+03  0.17228988654E+04  0.20038457920E+04  0.10081928421E+04 0.  0.
        -13    1    3    3    0    0  0.10620784761E+02  0.36124748785E+03  0.25657980115E+03  0.44322201443E+03  0.10566000000E+00 0.  1.
          4    1    3    3  501    0  0.15968501964E+02 -0.53404118182E+03  0.14663190642E+04  0.15606237775E+04  0.00000000000E+00 0.  1.
         13    1    1    2    0    0 -0.26589286725E+02  0.17279369396E+03  0.25066823130E+03  0.30561286653E+03  0.10566000000E+00 0. -1.
<mgrwt>
<rscale>  1 0.65786264E+03</rscale>
<asrwt>0</asrwt>
<pdfrwt beam="2">  1       21 0.25837814E-01 0.10232387E+04</pdfrwt>
<pdfrwt beam="1">  1        4 0.32946350E+00 0.10232387E+04</pdfrwt>
<totfact> 0.11940813E+01</totfact>
</mgrwt>
</event>
<event>
 6    1  0.1375310E-005  0.1100214E+04  0.7818608E-02  0.9509109E-01
         21   -1    0    0  501  502  0.00000000000E+00  0.00000000000E+00  0.35495597824E+03  0.35495597824E+03  0.00000000000E+00 0.  1.
          4   -1    0    0  502    0 -0.00000000000E+00 -0.00000000000E+00 -0.17649955386E+04  0.17649955386E+04  0.00000000000E+00 0.  1.
    9000010    2    1    2  501    0 -0.84417536608E+01 -0.36694667205E+03 -0.65500862276E+03  0.12804321000E+04  0.10371831774E+04 0.  0.
        -13    1    3    3    0    0  0.10567385695E+03  0.34106883171E+03 -0.92118046650E+02  0.36875555275E+03  0.10566000000E+00 0.  1.
          4    1    3    3  501    0 -0.11411561061E+03 -0.70801550375E+03 -0.56289057611E+03  0.91167654725E+03  0.00000000000E+00 0.  1.
         13    1    1    2    0    0  0.84417536608E+01  0.36694667205E+03 -0.75503093764E+03  0.83951941686E+03  0.10566000000E+00 0. -1.
<mgrwt>
<rscale>  1 0.83615586E+03</rscale>
<asrwt>0</asrwt>
<pdfrwt beam="1">  1       21 0.54608612E-01 0.11002136E+04</pdfrwt>
<pdfrwt beam="2">  1        4 0.27153777E+00 0.11002136E+04</pdfrwt>
<totfact> 0.57078690E+00</totfact>
</mgrwt>
</event>
<event>
 6    1  0.1375310E-005  0.1018708E+04  0.7818608E-02  0.1012082E+00
          4   -1    0    0  502    0 -0.00000000000E+00  0.00000000000E+00  0.13703101815E+04  0.13703101815E+04  0.00000000000E+00 0.  1.
         21   -1    0    0  501  502  0.00000000000E+00 -0.00000000000E+00 -0.26260053839E+03  0.26260053839E+03  0.00000000000E+00 0.  1.
    9000010    2    1    2  501    0 -0.47764141924E+02 -0.39969880913E+02  0.73786775681E+03  0.12578613409E+04  0.10168024989E+04 0.  0.
        -13    1    3    3    0    0 -0.31427223512E+03 -0.37246875924E+03  0.66671340671E+03  0.82583702522E+03  0.10566000000E+00 0.  1.
          4    1    3    3  501    0  0.26650809320E+03  0.33249887833E+03  0.71154350094E+02  0.43202431571E+03  0.00000000000E+00 0.  1.
         13    1    1    2    0    0  0.47764141924E+02  0.39969880913E+02  0.36984188632E+03  0.37504937898E+03  0.10566000000E+00 0. -1.
<mgrwt>
<rscale>  1 0.50655608E+03</rscale>
<asrwt>0</asrwt>
<pdfrwt beam="2">  1       21 0.40400084E-01 0.10187082E+04</pdfrwt>
<pdfrwt beam="1">  1        4 0.21081695E+00 0.10187082E+04</pdfrwt>
<totfact> 0.26405005E+01</totfact>
</mgrwt>
</event>
<event>
 6    1  0.1375310E-005  0.1027367E+04  0.7818608E-02  0.9673315E-01
         21   -1    0    0  501  502  0.00000000000E+00  0.00000000000E+00  0.76456311301E+03  0.76456311301E+03  0.00000000000E+00 0.  1.
          4   -1    0    0  502    0 -0.00000000000E+00 -0.00000000000E+00 -0.53988983538E+03  0.53988983538E+03  0.00000000000E+00 0.  1.
    9000010    2    1    2  501    0 -0.14627517350E+03  0.21081386321E+03  0.20026519368E+03  0.10467036961E+04  0.99480830738E+03 0.  0.
        -13    1    3    3    0    0 -0.11049654667E+03 -0.39802702975E+03  0.33567639260E+02  0.41444155294E+03  0.10566000000E+00 0.  1.
          4    1    3    3  501    0 -0.35778626829E+02  0.60884089296E+03  0.16669755442E+03  0.63226214320E+03  0.00000000000E+00 0.  1.
         13    1    1    2    0    0  0.14627517350E+03 -0.21081386321E+03  0.24408083948E+02  0.25774925224E+03  0.10566000000E+00 0. -1.
<mgrwt>
<rscale>  1 0.72628065E+03</rscale>
<asrwt>0</asrwt>
<pdfrwt beam="1">  1       21 0.11762509E+00 0.10273668E+04</pdfrwt>
<pdfrwt beam="2">  1        4 0.83059975E-01 0.10273668E+04</pdfrwt>
<totfact> 0.26077702E+01</totfact>
</mgrwt>
</event>
<event>
 6    1  0.1375310E-005  0.1038278E+04  0.7818608E-02  0.9629146E-01
          4   -1    0    0  502    0 -0.00000000000E+00  0.00000000000E+00  0.43277459129E+03  0.43277459129E+03  0.00000000000E+00 0.  1.
         21   -1    0    0  501  502  0.00000000000E+00 -0.00000000000E+00 -0.12100980595E+04  0.12100980595E+04  0.00000000000E+00 0.  1.
    9000010    2    1    2  501    0  0.57020740199E+02 -0.28302888678E+03 -0.85374933124E+03  0.13442129125E+04  0.99732829001E+03 0.  0.
        -13    1    3    3    0    0  0.50873000164E+03 -0.27954381555E+03 -0.40742998329E+03  0.70918979253E+03  0.10566000000E+00 0.  1.
          4    1    3    3  501    0 -0.45170926144E+03 -0.34850712289E+01 -0.44631934795E+03  0.63502312001E+03  0.00000000000E+00 0.  1.
         13    1    1    2    0    0 -0.57020740199E+02  0.28302888678E+03  0.76425863010E+02  0.29865973827E+03  0.10566000000E+00 0. -1.
<mgrwt>
<rscale>  1 0.75396764E+03</rscale>
<asrwt>0</asrwt>
<pdfrwt beam="2">  1       21 0.18616893E+00 0.10382776E+04</pdfrwt>
<pdfrwt beam="1">  1        4 0.66580706E-01 0.10382776E+04</pdfrwt>
<totfact> 0.11931333E+01</totfact>
</mgrwt>
</event>
<event>
 6    1  0.1375310E-005  0.1020859E+04  0.7818608E-02  0.9844759E-01
         21   -1    0    0  501  502  0.00000000000E+00  0.00000000000E+00  0.84383819502E+03  0.84383819502E+03  0.00000000000E+00 0.  1.
          4   -1    0    0  502    0 -0.00000000000E+00 -0.00000000000E+00 -0.42570411136E+03  0.42570411136E+03  0.00000000000E+00 0.  1.
    9000010    2    1    2  501    0  0.23212065883E+02 -0.14637958054E+03  0.45368099346E+03  0.11171304448E+04  0.10100436650E+04 0.  0.
        -13    1    3    3    0    0 -0.11518426237E+03 -0.34257406427E+03 -0.20537968396E+03  0.41569848395E+03  0.10566000000E+00 0.  1.
          4    1    3    3  501    0  0.13839632825E+03  0.19619448373E+03  0.65906067742E+03  0.70143196081E+03  0.00000000000E+00 0.  1.
         13    1    1    2    0    0 -0.23212065883E+02  0.14637958054E+03 -0.35546909805E+02  0.15241186162E+03  0.10566000000E+00 0. -1.
<mgrwt>
<rscale>  1 0.63014837E+03</rscale>
<asrwt>0</asrwt>
<pdfrwt beam="1">  1       21 0.12982126E+00 0.10208594E+04</pdfrwt>
<pdfrwt beam="2">  1        4 0.65492940E-01 0.10208594E+04</pdfrwt>
<totfact> 0.34490483E+01</totfact>
</mgrwt>
</event>
<event>
 6    1  0.1375310E-005  0.1187884E+04  0.7818608E-02  0.9297521E-01
          4   -1    0    0  502    0 -0.00000000000E+00  0.00000000000E+00  0.21899779809E+04  0.21899779809E+04  0.00000000000E+00 0.  1.
         21   -1    0    0  501  502  0.00000000000E+00 -0.00000000000E+00 -0.39813784504E+03  0.39813784504E+03  0.00000000000E+00 0.  1.
    9000010    2    1    2  501    0 -0.61617247402E+03 -0.78055913143E+02  0.14656174515E+04  0.18865586335E+04  0.10125747973E+04 0.  0.
        -13    1    3    3    0    0 -0.36118307209E+02  0.14035313211E+03  0.12058266482E+04  0.12145046111E+04  0.10566000000E+00 0.  1.
          4    1    3    3  501    0 -0.58005416681E+03 -0.21840904525E+03  0.25979080336E+03  0.67205402238E+03  0.00000000000E+00 0.  1.
         13    1    1    2    0    0  0.61617247402E+03  0.78055913143E+02  0.32622268429E+03  0.70155719241E+03  0.10566000000E+00 0. -1.
<mgrwt>
<rscale>  1 0.10101142E+04</rscale>
<asrwt>0</asrwt>
<pdfrwt beam="2">  1       21 0.61251977E-01 0.11878842E+04</pdfrwt>
<pdfrwt beam="1">  1        4 0.33691968E+00 0.11878842E+04</pdfrwt>
<totfact> 0.17068627E+00</totfact>
</mgrwt>
</event>
<event>
 6    1  0.1375310E-005  0.1108357E+04  0.7818608E-02  0.9412057E-01
         21   -1    0    0  501  502  0.00000000000E+00  0.00000000000E+00  0.44829393957E+03  0.44829393957E+03  0.00000000000E+00 0.  1.
          4   -1    0    0  502    0 -0.00000000000E+00 -0.00000000000E+00 -0.16143350896E+04  0.16143350896E+04  0.00000000000E+00 0.  1.
    9000010    2    1    2  501    0 -0.45946828819E+03 -0.21110432012E+03 -0.47379858069E+03  0.12053799826E+04  0.98629593209E+03 0.  0.
        -13    1    3    3    0    0 -0.12548309511E+02 -0.27012706344E+03  0.23972579254E+03  0.36137868953E+03  0.10566000000E+00 0.  1.
          4    1    3    3  501    0 -0.44691997868E+03  0.59022743328E+02 -0.71352437323E+03  0.84400129311E+03  0.00000000000E+00 0.  1.
         13    1    1    2    0    0  0.45946828819E+03  0.21110432012E+03 -0.69224256935E+03  0.85724904655E+03  0.10566000000E+00 0. -1.
<mgrwt>
<rscale>  1 0.91090084E+03</rscale>
<asrwt>0</asrwt>
<pdfrwt beam="1">  1       21 0.68968299E-01 0.11083573E+04</pdfrwt>
<pdfrwt beam="2">  1        4 0.24835924E+00 0.11083573E+04</pdfrwt>
<totfact> 0.46993590E+00</totfact>
</mgrwt>
</event>
<event>
 6    1  0.1375310E-005  0.1051545E+04  0.7818608E-02  0.9704058E-01
          4   -1    0    0  502    0 -0.00000000000E+00  0.00000000000E+00  0.25084009609E+03  0.25084009609E+03  0.00000000000E+00 0.  1.
         21   -1    0    0  501  502  0.00000000000E+00 -0.00000000000E+00 -0.22961122352E+04  0.22961122352E+04  0.00000000000E+00 0.  1.
    9000010    2    1    2  501    0 -0.16257779587E+03  0.14190991950E+03 -0.20777812162E+04  0.23287166416E+04  0.10291629851E+04 0.  0.
        -13    1    3    3    0    0 -0.61139669612E+02  0.47967493244E+03 -0.44126042677E+03  0.65462727976E+03  0.10566000000E+00 0.  1.
          4    1    3    3  501    0 -0.10143812626E+03 -0.33776501293E+03 -0.16365207894E+04  0.16740893619E+04  0.00000000000E+00 0.  1.
         13    1    1    2    0    0  0.16257779587E+03 -0.14190991950E+03  0.32509077104E+02  0.21823568962E+03  0.10566000000E+00 0. -1.
<mgrwt>
<rscale>  1 0.70775685E+03</rscale>
<asrwt>0</asrwt>
<pdfrwt beam="2">  1       21 0.35324802E+00 0.10515448E+04</pdfrwt>
<pdfrwt beam="1">  1        4 0.38590786E-01 0.10515448E+04</pdfrwt>
<totfact> 0.31956065E+00</totfact>
</mgrwt>
</event>
<event>
 6    1  0.1375310E-005  0.9879701E+03  0.7818608E-02  0.9727884E-01
         21   -1    0    0  501  502  0.00000000000E+00  0.00000000000E+00  0.16836008759E+04  0.16836008759E+04  0.00000000000E+00 0.  1.
          4   -1    0    0  502    0 -0.00000000000E+00 -0.00000000000E+00 -0.23258521278E+03  0.23258521278E+03  0.00000000000E+00 0.  1.
    9000010    2    1    2  501    0  0.33466663180E+02  0.23793955002E+03  0.12983714383E+04  0.16315187081E+04  0.95830561732E+03 0.  0.
        -13    1    3    3    0    0 -0.13102863812E+03 -0.33921795231E+03  0.32341541921E+03  0.48665682747E+03  0.10566000000E+00 0.  1.
          4    1    3    3  501    0  0.16449530130E+03  0.57715750233E+03  0.97495601907E+03  0.11448618806E+04  0.00000000000E+00 0.  1.
         13    1    1    2    0    0 -0.33466663180E+02 -0.23793955002E+03  0.15264422481E+03  0.28466738054E+03  0.10566000000E+00 0. -1.
<mgrwt>
<rscale>  1 0.69380590E+03</rscale>
<asrwt>0</asrwt>
<pdfrwt beam="1">  1       21 0.25901551E+00 0.98797009E+03</pdfrwt>
<pdfrwt beam="2">  1        4 0.35782342E-01 0.98797009E+03</pdfrwt>
<totfact> 0.14621046E+01</totfact>
</mgrwt>
</event>
<event>
 6    1  0.1375310E-005  0.1009440E+04  0.7818608E-02  0.9947553E-01
          4   -1    0    0  502    0 -0.00000000000E+00  0.00000000000E+00  0.27916771982E+03  0.27916771982E+03  0.00000000000E+00 0.  1.
         21   -1    0    0  501  502  0.00000000000E+00 -0.00000000000E+00 -0.16693469653E+04  0.16693469653E+04  0.00000000000E+00 0.  1.
    9000010    2    1    2  501    0 -0.10298722424E+03 -0.38939622667E+02 -0.14901045960E+04  0.17998279358E+04  0.10034172756E+04 0.  0.
        -13    1    3    3    0    0 -0.80475348707E+02  0.41659032597E+03 -0.28452394450E+03  0.51085973378E+03  0.10566000000E+00 0.  1.
          4    1    3    3  501    0 -0.22511875533E+02 -0.45552994864E+03 -0.12055806515E+04  0.12889682021E+04  0.00000000000E+00 0.  1.
         13    1    1    2    0    0  0.10298722424E+03  0.38939622667E+02  0.99925350522E+02  0.14868674928E+03  0.10566000000E+00 0. -1.
<mgrwt>
<rscale>  1 0.58010973E+03</rscale>
<asrwt>0</asrwt>
<pdfrwt beam="2">  1       21 0.25682261E+00 0.10094399E+04</pdfrwt>
<pdfrwt beam="1">  1        4 0.42948881E-01 0.10094399E+04</pdfrwt>
<totfact> 0.10381015E+01</totfact>
</mgrwt>
</event>
<event>
 6    1  0.1375310E-005  0.9908908E+03  0.7818608E-02  0.1018641E+00
         21   -1    0    0  501  502  0.00000000000E+00  0.00000000000E+00  0.59939359259E+03  0.59939359259E+03  0.00000000000E+00 0.  1.
          4   -1    0    0  502    0 -0.00000000000E+00 -0.00000000000E+00 -0.50890674152E+03  0.50890674152E+03  0.00000000000E+00 0.  1.
    9000010    2    1    2  501    0  0.41256395951E+02  0.36952981704E+02  0.17601735099E+03  0.10064028825E+04  0.98934172104E+03 0.  0.
        -13    1    3    3    0    0 -0.18435970712E+03  0.46693385669E+03  0.48429564490E+02  0.50434230639E+03  0.10566000000E+00 0.  1.
          4    1    3    3  501    0  0.22561610307E+03 -0.42998087499E+03  0.12758778650E+03  0.50206057611E+03  0.00000000000E+00 0.  1.
         13    1    1    2    0    0 -0.41256395951E+02 -0.36952981704E+02 -0.85530499919E+02  0.10189745161E+03  0.10566000000E+00 0. -1.
<mgrwt>
<rscale>  1 0.48180314E+03</rscale>
<asrwt>0</asrwt>
<pdfrwt beam="1">  1       21 0.92214399E-01 0.99089084E+03</pdfrwt>
<pdfrwt beam="2">  1        4 0.78293345E-01 0.99089084E+03</pdfrwt>
<totfact> 0.55105771E+01</totfact>
</mgrwt>
</event>
<event>
 6    1  0.1375310E-005  0.1003324E+04  0.7818608E-02  0.1004453E+00
         21   -1    0    0  501  502  0.00000000000E+00  0.00000000000E+00  0.26897713806E+03  0.26897713806E+03  0.00000000000E+00 0.  1.
          4   -1    0    0  502    0 -0.00000000000E+00 -0.00000000000E+00 -0.11041837165E+04  0.11041837165E+04  0.00000000000E+00 0.  1.
    9000010    2    1    2  501    0 -0.52786670666E+02 -0.63503280218E+02 -0.73741134447E+03  0.12451646900E+04  0.99992025433E+03 0.  0.
        -13    1    3    3    0    0  0.24543667951E+03 -0.10693263886E+03 -0.87414852654E+03  0.91422612658E+03  0.10566000000E+00 0.  1.
          4    1    3    3  501    0 -0.29822335018E+03  0.43429358644E+02  0.13673718207E+03  0.33093856340E+03  0.00000000000E+00 0.  1.
         13    1    1    2    0    0  0.52786670666E+02  0.63503280218E+02 -0.97795233973E+02  0.12799616459E+03  0.10566000000E+00 0. -1.
<mgrwt>
<rscale>  1 0.53739913E+03</rscale>
<asrwt>0</asrwt>
<pdfrwt beam="1">  1       21 0.41381098E-01 0.10033243E+04</pdfrwt>
<pdfrwt beam="2">  1        4 0.16987442E+00 0.10033243E+04</pdfrwt>
<totfact> 0.47723119E+01</totfact>
</mgrwt>
</event>
<event>
 6    1  0.1375310E-005  0.1012585E+04  0.7818608E-02  0.9778501E-01
          4   -1    0    0  502    0 -0.00000000000E+00  0.00000000000E+00  0.27600780974E+03  0.27600780974E+03  0.00000000000E+00 0.  1.
         21   -1    0    0  501  502  0.00000000000E+00 -0.00000000000E+00 -0.14022019083E+04  0.14022019083E+04  0.00000000000E+00 0. -1.
    9000010    2    1    2  501    0 -0.86173545439E+01 -0.18849537412E+03 -0.75933782822E+03  0.12656708725E+04  0.99484875994E+03 0.  0.
        -13    1    3    3    0    0  0.34611713643E+03 -0.21990677634E+02 -0.79976314226E+03  0.87172344062E+03  0.10566000000E+00 0.  1.
          4    1    3    3  501    0 -0.35473449098E+03 -0.16650469649E+03  0.40425314039E+02  0.39394743184E+03  0.00000000000E+00 0.  1.
         13    1    1    2    0    0  0.86173545439E+01  0.18849537412E+03 -0.36685627031E+03  0.41253884556E+03  0.10566000000E+00 0. -1.
<mgrwt>
<rscale>  1 0.66529196E+03</rscale>
<asrwt>0</asrwt>
<pdfrwt beam="2">  1       21 0.21572337E+00 0.10125852E+04</pdfrwt>
<pdfrwt beam="1">  1        4 0.42462739E-01 0.10125852E+04</pdfrwt>
<totfact> 0.19586222E+01</totfact>
</mgrwt>
</event>
<event>
 6    1  0.1375310E-005  0.1039435E+04  0.7818608E-02  0.9672703E-01
          4   -1    0    0  502    0 -0.00000000000E+00  0.00000000000E+00  0.85580232605E+03  0.85580232605E+03  0.00000000000E+00 0.  1.
         21   -1    0    0  501  502  0.00000000000E+00 -0.00000000000E+00 -0.53935753791E+03  0.53935753791E+03  0.00000000000E+00 0.  1.
    9000010    2    1    2  501    0 -0.24683829599E+03 -0.26609994750E+02  0.64482431434E+02  0.10414335905E+04  0.10093506344E+04 0.  0.
        -13    1    3    3    0    0  0.83870620818E+02  0.41071069300E+03 -0.16039155633E+03  0.44882403777E+03  0.10566000000E+00 0.  1.
          4    1    3    3  501    0 -0.33070891681E+03 -0.43732068775E+03  0.22487398777E+03  0.59260955271E+03  0.00000000000E+00 0.  1.
         13    1    1    2    0    0  0.24683829599E+03  0.26609994750E+02  0.25196235671E+03  0.35372627348E+03  0.10566000000E+00 0. -1.
<mgrwt>
<rscale>  1 0.72665544E+03</rscale>
<asrwt>0</asrwt>
<pdfrwt beam="2">  1       21 0.82978083E-01 0.10394354E+04</pdfrwt>
<pdfrwt beam="1">  1        4 0.13166190E+00 0.10394354E+04</pdfrwt>
<totfact> 0.20063714E+01</totfact>
</mgrwt>
</event>
<event>
 6    1  0.1375310E-005  0.1146339E+04  0.7818608E-02  0.9341407E-01
          4   -1    0    0  502    0 -0.00000000000E+00  0.00000000000E+00  0.18014543375E+04  0.18014543375E+04  0.00000000000E+00 0.  1.
         21   -1    0    0  501  502  0.00000000000E+00 -0.00000000000E+00 -0.55026199365E+03  0.55026199365E+03  0.00000000000E+00 0.  1.
    9000010    2    1    2  501    0 -0.17223745462E+03 -0.56337121128E+03  0.22464912185E+03  0.11681438322E+04  0.98338188019E+03 0.  0.
        -13    1    3    3    0    0 -0.46064167893E+03  0.22932845318E+02 -0.40519431004E+02  0.46298866856E+03  0.10566000000E+00 0.  1.
          4    1    3    3  501    0  0.28840422431E+03 -0.58630405659E+03  0.26516855285E+03  0.70515516363E+03  0.00000000000E+00 0.  1.
         13    1    1    2    0    0  0.17223745462E+03  0.56337121128E+03  0.10265432220E+04  0.11835724990E+04  0.10566000000E+00 0. -1.
<mgrwt>
<rscale>  1 0.97058643E+03</rscale>
<asrwt>0</asrwt>
<pdfrwt beam="2">  1       21 0.84655692E-01 0.11463389E+04</pdfrwt>
<pdfrwt beam="1">  1        4 0.27714682E+00 0.11463389E+04</pdfrwt>
<totfact> 0.19222044E+00</totfact>
</mgrwt>
</event>
<event>
 6    1  0.1375310E-005  0.1151817E+04  0.7818608E-02  0.9332344E-01
          4   -1    0    0  502    0 -0.00000000000E+00  0.00000000000E+00  0.75968382146E+03  0.75968382146E+03  0.00000000000E+00 0.  1.
         21   -1    0    0  501  502  0.00000000000E+00 -0.00000000000E+00 -0.13715851093E+04  0.13715851093E+04  0.00000000000E+00 0. -1.
    9000010    2    1    2  501    0  0.56189715777E+03 -0.21080093745E+03  0.14983594168E+03  0.11615220209E+04  0.98311603819E+03 0.  0.
        -13    1    3    3    0    0 -0.14517161704E+03 -0.60373814502E+02  0.37315103216E+03  0.40492159715E+03  0.10566000000E+00 0.  1.
          4    1    3    3  501    0  0.70706877481E+03 -0.15042712294E+03 -0.22331509048E+03  0.75660042378E+03  0.00000000000E+00 0.  1.
         13    1    1    2    0    0 -0.56189715777E+03  0.21080093745E+03 -0.76173722954E+03  0.96974690985E+03  0.10566000000E+00 0. -1.
<mgrwt>
<rscale>  1 0.97858927E+03</rscale>
<asrwt>0</asrwt>
<pdfrwt beam="2">  1       21 0.21101309E+00 0.11518171E+04</pdfrwt>
<pdfrwt beam="1">  1        4 0.11687444E+00 0.11518171E+04</pdfrwt>
<totfact> 0.21049095E+00</totfact>
</mgrwt>
</event>
<event>
 6    1  0.1375310E-005  0.1003175E+04  0.7818608E-02  0.9838033E-01
         21   -1    0    0  501  502  0.00000000000E+00  0.00000000000E+00  0.40454584989E+03  0.40454584989E+03  0.00000000000E+00 0.  1.
          4   -1    0    0  502    0 -0.00000000000E+00 -0.00000000000E+00 -0.84393243233E+03  0.84393243233E+03  0.00000000000E+00 0.  1.
    9000010    2    1    2  501    0  0.92027942736E+02 -0.13044972621E+03 -0.33455092884E+03  0.10574892806E+04  0.99039031763E+03 0.  0.
        -13    1    3    3    0    0 -0.13896301570E+03 -0.50925177575E+03 -0.31212928315E+03  0.61324774064E+03  0.10566000000E+00 0.  1.
          4    1    3    3  501    0  0.23099095844E+03  0.37880204954E+03 -0.22421645683E+02  0.44424153994E+03  0.00000000000E+00 0.  1.
         13    1    1    2    0    0 -0.92027942736E+02  0.13044972621E+03 -0.10483565361E+03  0.19098900163E+03  0.10566000000E+00 0. -1.
<mgrwt>
<rscale>  1 0.63360808E+03</rscale>
<asrwt>0</asrwt>
<pdfrwt beam="1">  1       21 0.62237824E-01 0.10031746E+04</pdfrwt>
<pdfrwt beam="2">  1        4 0.12983576E+00 0.10031746E+04</pdfrwt>
<totfact> 0.40491269E+01</totfact>
</mgrwt>
</event>
<event>
 6    1  0.1375310E-005  0.1096908E+04  0.7818608E-02  0.9429335E-01
         21   -1    0    0  501  502  0.00000000000E+00  0.00000000000E+00  0.18375026433E+04  0.18375026433E+04  0.00000000000E+00 0.  1.
          4   -1    0    0  502    0 -0.00000000000E+00 -0.00000000000E+00 -0.40189641110E+03  0.40189641110E+03  0.00000000000E+00 0.  1.
    9000010    2    1    2  501    0 -0.48561340397E+03 -0.69272191225E+02  0.13532901359E+04  0.17420109107E+04  0.98111610243E+03 0.  0.
        -13    1    3    3    0    0 -0.70024149781E+03  0.11143068779E+03  0.56926226931E+03  0.90929340472E+03  0.10566000000E+00 0.  1.
          4    1    3    3  501    0  0.21462809384E+03 -0.18070287902E+03  0.78402786662E+03  0.83271750600E+03  0.00000000000E+00 0.  1.
         13    1    1    2    0    0  0.48561340397E+03  0.69272191225E+02  0.82316096251E+02  0.49738814367E+03  0.10566000000E+00 0. -1.
<mgrwt>
<rscale>  1 0.89700319E+03</rscale>
<asrwt>0</asrwt>
<pdfrwt beam="1">  1       21 0.28269271E+00 0.10969083E+04</pdfrwt>
<pdfrwt beam="2">  1        4 0.61830218E-01 0.10969083E+04</pdfrwt>
<totfact> 0.32481077E+00</totfact>
</mgrwt>
</event>
<event>
 6    1  0.1375310E-005  0.1177451E+04  0.7818608E-02  0.9304310E-01
         21   -1    0    0  501  502  0.00000000000E+00  0.00000000000E+00  0.55978841645E+03  0.55978841645E+03  0.00000000000E+00 0.  1.
          4   -1    0    0  502    0 -0.00000000000E+00 -0.00000000000E+00 -0.14815960504E+04  0.14815960504E+04  0.00000000000E+00 0.  1.
    9000010    2    1    2  501    0  0.22973496973E+03  0.57816109812E+03 -0.74977214407E+03  0.13959043102E+04  0.99967102760E+03 0.  0.
        -13    1    3    3    0    0 -0.35481758211E+03  0.44302778100E+03 -0.45487046605E+03  0.72737630107E+03  0.10566000000E+00 0.  1.
          4    1    3    3  501    0  0.58455255183E+03  0.13513331712E+03 -0.29490167802E+03  0.66852800910E+03  0.00000000000E+00 0.  1.
         13    1    1    2    0    0 -0.22973496973E+03 -0.57816109812E+03 -0.17203548984E+03  0.64548015664E+03  0.10566000000E+00 0. -1.
<mgrwt>
<rscale>  1 0.10038708E+04</rscale>
<asrwt>0</asrwt>
<pdfrwt beam="1">  1       21 0.86121297E-01 0.11774509E+04</pdfrwt>
<pdfrwt beam="2">  1        4 0.22793785E+00 0.11774509E+04</pdfrwt>
<totfact> 0.37200988E+00</totfact>
</mgrwt>
</event>
<event>
 6    1  0.1375310E-005  0.1073464E+04  0.7818608E-02  0.9505257E-01
         21   -1    0    0  501  502  0.00000000000E+00  0.00000000000E+00  0.13326202226E+04  0.13326202226E+04  0.00000000000E+00 0.  1.
          4   -1    0    0  502    0 -0.00000000000E+00 -0.00000000000E+00 -0.47495871178E+03  0.47495871178E+03  0.00000000000E+00 0.  1.
    9000010    2    1    2  501    0 -0.28031581512E+03  0.28608366042E+03  0.90528542555E+03  0.14042318563E+04  0.99594406843E+03 0.  0.
        -13    1    3    3    0    0 -0.45301412021E+03  0.57645655067E+03  0.57481774990E+03  0.93163265544E+03  0.10566000000E+00 0.  1.
          4    1    3    3  501    0  0.17269830509E+03 -0.29037289024E+03  0.33046767565E+03  0.47259920082E+03  0.00000000000E+00 0.  1.
         13    1    1    2    0    0  0.28031581512E+03 -0.28608366042E+03 -0.47623914779E+02  0.40334707807E+03  0.10566000000E+00 0. -1.
<mgrwt>
<rscale>  1 0.83897355E+03</rscale>
<asrwt>0</asrwt>
<pdfrwt beam="1">  1       21 0.20501849E+00 0.10734642E+04</pdfrwt>
<pdfrwt beam="2">  1        4 0.73070571E-01 0.10734642E+04</pdfrwt>
<totfact> 0.71274287E+00</totfact>
</mgrwt>
</event>
<event>
 6    1  0.1375310E-005  0.1019683E+04  0.7818608E-02  0.9768613E-01
         21   -1    0    0  501  502  0.00000000000E+00  0.00000000000E+00  0.46130315236E+03  0.46130315236E+03  0.00000000000E+00 0.  1.
          4   -1    0    0  502    0 -0.00000000000E+00 -0.00000000000E+00 -0.90919733110E+03  0.90919733110E+03  0.00000000000E+00 0.  1.
    9000010    2    1    2  501    0  0.13572598030E+03  0.13426081772E+03 -0.17062292998E+03  0.10338599252E+04  0.10016519614E+04 0.  0.
        -13    1    3    3    0    0  0.65567198801E+02 -0.43222508318E+03 -0.15166635923E+03  0.46273132137E+03  0.10566000000E+00 0.  1.
          4    1    3    3  501    0  0.70158781500E+02  0.56648590090E+03 -0.18956570747E+02  0.57112860384E+03  0.00000000000E+00 0.  1.
         13    1    1    2    0    0 -0.13572598030E+03 -0.13426081772E+03 -0.27727124876E+03  0.33664055825E+03  0.10566000000E+00 0. -1.
<mgrwt>
<rscale>  1 0.67074508E+03</rscale>
<asrwt>0</asrwt>
<pdfrwt beam="1">  1       21 0.70969716E-01 0.10196834E+04</pdfrwt>
<pdfrwt beam="2">  1        4 0.13987651E+00 0.10196834E+04</pdfrwt>
<totfact> 0.24735244E+01</totfact>
</mgrwt>
</event>
<event>
 6    1  0.1375310E-005  0.1020425E+04  0.7818608E-02  0.9726659E-01
          4   -1    0    0  502    0 -0.00000000000E+00  0.00000000000E+00  0.18783146460E+03  0.18783146460E+03  0.00000000000E+00 0.  1.
         21   -1    0    0  501  502  0.00000000000E+00 -0.00000000000E+00 -0.33053939129E+04  0.33053939129E+04  0.00000000000E+00 0.  1.
    9000010    2    1    2  501    0  0.21551081559E+03  0.38762498095E+02 -0.31110865398E+04  0.32741605664E+04  0.99665466115E+03 0.  0.
        -13    1    3    3    0    0  0.52130322646E+03 -0.20661321393E+03 -0.23735374126E+04  0.24388780072E+04  0.10566000000E+00 0.  1.
          4    1    3    3  501    0 -0.30579241087E+03  0.24537571203E+03 -0.73754912722E+03  0.83528255918E+03  0.00000000000E+00 0.  1.
         13    1    1    2    0    0 -0.21551081559E+03 -0.38762498095E+02 -0.64759084841E+01  0.21906481107E+03  0.10566000000E+00 0. -1.
<mgrwt>
<rscale>  1 0.69451500E+03</rscale>
<asrwt>0</asrwt>
<pdfrwt beam="2">  1       21 0.50852217E+00 0.10204254E+04</pdfrwt>
<pdfrwt beam="1">  1        4 0.28897147E-01 0.10204254E+04</pdfrwt>
<totfact> 0.50916236E-01</totfact>
</mgrwt>
</event>
<event>
 6    1  0.1375310E-005  0.1051526E+04  0.7818608E-02  0.9593065E-01
         21   -1    0    0  501  502  0.00000000000E+00  0.00000000000E+00  0.34484800391E+03  0.34484800391E+03  0.00000000000E+00 0.  1.
          4   -1    0    0  502    0 -0.00000000000E+00 -0.00000000000E+00 -0.18727690041E+04  0.18727690041E+04  0.00000000000E+00 0.  1.
    9000010    2    1    2  501    0 -0.27099230843E+03 -0.15942669587E+03 -0.54243494657E+03  0.11831913337E+04  0.10034203298E+04 0.  0.
        -13    1    3    3    0    0 -0.64395569531E+03 -0.17286372178E+02 -0.40566827449E+03  0.76127821214E+03  0.10566000000E+00 0.  1.
          4    1    3    3  501    0  0.37296338687E+03 -0.14214032369E+03 -0.13676667208E+03  0.42191312158E+03  0.00000000000E+00 0.  1.
         13    1    1    2    0    0  0.27099230843E+03  0.15942669587E+03 -0.98548605361E+03  0.10344256743E+04  0.10566000000E+00 0. -1.
<mgrwt>
<rscale>  1 0.77756912E+03</rscale>
<asrwt>0</asrwt>
<pdfrwt beam="1">  1       21 0.53053539E-01 0.10515256E+04</pdfrwt>
<pdfrwt beam="2">  1        4 0.28811831E+00 0.10515256E+04</pdfrwt>
<totfact> 0.48350674E+00</totfact>
</mgrwt>
</event>
<event>
 6    1  0.1375310E-005  0.9998053E+03  0.7818608E-02  0.9878577E-01
         21   -1    0    0  501  502  0.00000000000E+00  0.00000000000E+00  0.41559670664E+03  0.41559670664E+03  0.00000000000E+00 0.  1.
          4   -1    0    0  502    0 -0.00000000000E+00 -0.00000000000E+00 -0.10528251835E+04  0.10528251835E+04  0.00000000000E+00 0.  1.
    9000010    2    1    2  501    0  0.77147431482E+02 -0.11848209864E+03 -0.21433722773E+03  0.10225219533E+04  0.98975803304E+03 0.  0.
        -13    1    3    3    0    0  0.51602090396E+03 -0.19992546533E+03 -0.12332020572E+03  0.56697058947E+03  0.10566000000E+00 0.  1.
          4    1    3    3  501    0 -0.43887347248E+03  0.81443366688E+02 -0.91017022003E+02  0.45555136386E+03  0.00000000000E+00 0.  1.
         13    1    1    2    0    0 -0.77147431482E+02  0.11848209864E+03 -0.42289124914E+03  0.44589993681E+03  0.10566000000E+00 0. -1.
<mgrwt>
<rscale>  1 0.61310872E+03</rscale>
<asrwt>0</asrwt>
<pdfrwt beam="1">  1       21 0.63937957E-01 0.99980533E+03</pdfrwt>
<pdfrwt beam="2">  1        4 0.16197310E+00 0.99980533E+03</pdfrwt>
<totfact> 0.21169054E+01</totfact>
</mgrwt>
</event>
<event>
 6    1  0.1375310E-005  0.1013132E+04  0.7818608E-02  0.9793205E-01
         21   -1    0    0  501  502  0.00000000000E+00  0.00000000000E+00  0.87267416792E+03  0.87267416792E+03  0.00000000000E+00 0.  1.
          4   -1    0    0  502    0 -0.00000000000E+00 -0.00000000000E+00 -0.41649386444E+03  0.41649386444E+03  0.00000000000E+00 0.  1.
    9000010    2    1    2  501    0  0.17803943337E+03  0.22691303985E+02  0.45265251238E+03  0.11096537110E+04  0.99710788090E+03 0.  0.
        -13    1    3    3    0    0 -0.18147976462E+03 -0.16034346085E+03 -0.21876937221E+03  0.32635100703E+03  0.10566000000E+00 0.  1.
          4    1    3    3  501    0  0.35951919800E+03  0.18303476484E+03  0.67142188459E+03  0.78330270393E+03  0.00000000000E+00 0.  1.
         13    1    1    2    0    0 -0.17803943337E+03 -0.22691303985E+02  0.35277910990E+01  0.17951432140E+03  0.10566000000E+00 0. -1.
<mgrwt>
<rscale>  1 0.65728456E+03</rscale>
<asrwt>0</asrwt>
<pdfrwt beam="1">  1       21 0.13425756E+00 0.10131323E+04</pdfrwt>
<pdfrwt beam="2">  1        4 0.64075980E-01 0.10131323E+04</pdfrwt>
<totfact> 0.33120267E+01</totfact>
</mgrwt>
</event>
<event>
 6    1  0.1375310E-005  0.9998176E+03  0.7818608E-02  0.9924938E-01
         21   -1    0    0  501  502  0.00000000000E+00  0.00000000000E+00  0.80839369753E+03  0.80839369753E+03  0.00000000000E+00 0.  1.
          4   -1    0    0  502    0 -0.00000000000E+00 -0.00000000000E+00 -0.39226464768E+03  0.39226464768E+03  0.00000000000E+00 0.  1.
    9000010    2    1    2  501    0 -0.11612403332E+03  0.36741107099E+02  0.40364322231E+03  0.10782222103E+04  0.99237119260E+03 0.  0.
        -13    1    3    3    0    0  0.25390633401E+03 -0.32674007053E+03 -0.11343510362E+02  0.41395191331E+03  0.10566000000E+00 0.  1.
          4    1    3    3  501    0 -0.37003036734E+03  0.36348117763E+03  0.41498673267E+03  0.66427029704E+03  0.00000000000E+00 0.  1.
         13    1    1    2    0    0  0.11612403332E+03 -0.36741107099E+02  0.12485827545E+02  0.12243613486E+03  0.10566000000E+00 0. -1.
<mgrwt>
<rscale>  1 0.59067757E+03</rscale>
<asrwt>0</asrwt>
<pdfrwt beam="1">  1       21 0.12436826E+00 0.99981763E+03</pdfrwt>
<pdfrwt beam="2">  1        4 0.60348408E-01 0.99981763E+03</pdfrwt>
<totfact> 0.46323433E+01</totfact>
</mgrwt>
</event>
<event>
 6    1  0.1375310E-005  0.1036238E+04  0.7818608E-02  0.9598298E-01
          4   -1    0    0  502    0 -0.00000000000E+00  0.00000000000E+00  0.93460042007E+03  0.93460042007E+03  0.00000000000E+00 0.  1.
         21   -1    0    0  501  502  0.00000000000E+00 -0.00000000000E+00 -0.55751917882E+03  0.55751917882E+03  0.00000000000E+00 0.  1.
    9000010    2    1    2  501    0  0.68212739183E+02  0.31539841083E+03  0.57303039835E+02  0.10378209696E+04  0.98471294860E+03 0.  0.
        -13    1    3    3    0    0  0.17428230952E+03  0.52472433511E+03 -0.28559410546E+03  0.62231339011E+03  0.10566000000E+00 0.  1.
          4    1    3    3  501    0 -0.10606957034E+03 -0.20932592429E+03  0.34289714530E+03  0.41550757945E+03  0.00000000000E+00 0.  1.
         13    1    1    2    0    0 -0.68212739183E+02 -0.31539841083E+03  0.31977820141E+03  0.45429862932E+03  0.10566000000E+00 0. -1.
<mgrwt>
<rscale>  1 0.77408937E+03</rscale>
<asrwt>0</asrwt>
<pdfrwt beam="2">  1       21 0.85772182E-01 0.10362378E+04</pdfrwt>
<pdfrwt beam="1">  1        4 0.14378468E+00 0.10362378E+04</pdfrwt>
<totfact> 0.14731224E+01</totfact>
</mgrwt>
</event>
<event>
 6    1  0.1375310E-005  0.1076312E+04  0.7818608E-02  0.9414780E-01
          4   -1    0    0  502    0 -0.00000000000E+00  0.00000000000E+00  0.16192630509E+04  0.16192630509E+04  0.00000000000E+00 0.  1.
         21   -1    0    0  501  502  0.00000000000E+00 -0.00000000000E+00 -0.47629634990E+03  0.47629634990E+03  0.00000000000E+00 0.  1.
    9000010    2    1    2  501    0 -0.51686996629E+03 -0.17851947381E+03  0.34895930175E+03  0.11314683648E+04  0.92705140179E+03 0.  0.
        -13    1    3    3    0    0 -0.18526200990E+03 -0.98289251008E+02 -0.31880151144E+03  0.38159822331E+03  0.10566000000E+00 0.  1.
          4    1    3    3  501    0 -0.33160795639E+03 -0.80230222801E+02  0.66776081319E+03  0.74987014144E+03  0.00000000000E+00 0.  1.
         13    1    1    2    0    0  0.51686996629E+03  0.17851947381E+03  0.79400739930E+03  0.96409103610E+03  0.10566000000E+00 0. -1.
<mgrwt>
<rscale>  1 0.90869247E+03</rscale>
<asrwt>0</asrwt>
<pdfrwt beam="2">  1       21 0.73276362E-01 0.10763123E+04</pdfrwt>
<pdfrwt beam="1">  1        4 0.24911739E+00 0.10763123E+04</pdfrwt>
<totfact> 0.40596646E+00</totfact>
</mgrwt>
</event>
<event>
 6    1  0.1375310E-005  0.1001994E+04  0.7818608E-02  0.9878694E-01
          4   -1    0    0  502    0 -0.00000000000E+00  0.00000000000E+00  0.20690316574E+04  0.20690316574E+04  0.00000000000E+00 0.  1.
         21   -1    0    0  501  502  0.00000000000E+00 -0.00000000000E+00 -0.15969247262E+03  0.15969247262E+03  0.00000000000E+00 0.  1.
    9000010    2    1    2  501    0  0.67922348307E+02  0.12288508636E+03  0.15830839171E+04  0.18735386845E+04  0.99210802029E+03 0.  0.
        -13    1    3    3    0    0  0.22129916097E+03 -0.36706333219E+03  0.41046154991E+03  0.59345387656E+03  0.10566000000E+00 0.  1.
          4    1    3    3  501    0 -0.15337681266E+03  0.48994841855E+03  0.11726223672E+04  0.12800848080E+04  0.00000000000E+00 0.  1.
         13    1    1    2    0    0 -0.67922348307E+02 -0.12288508636E+03  0.32625526761E+03  0.35518544544E+03  0.10566000000E+00 0. -1.
<mgrwt>
<rscale>  1 0.61305061E+03</rscale>
<asrwt>0</asrwt>
<pdfrwt beam="2">  1       21 0.24568074E-01 0.10019943E+04</pdfrwt>
<pdfrwt beam="1">  1        4 0.31831254E+00 0.10019943E+04</pdfrwt>
<totfact> 0.15550505E+01</totfact>
</mgrwt>
</event>
<event>
 6    1  0.1375310E-005  0.8334175E+03  0.7818608E-02  0.1046177E+00
         21   -1    0    0  501  502  0.00000000000E+00  0.00000000000E+00  0.90169852693E+03  0.90169852693E+03  0.00000000000E+00 0.  1.
          4   -1    0    0  502    0 -0.00000000000E+00 -0.00000000000E+00 -0.26426850539E+03  0.26426850539E+03  0.00000000000E+00 0.  1.
    9000010    2    1    2  501    0 -0.41017781511E+02  0.45664427460E+01  0.70177155134E+03  0.10895265037E+04  0.83239496701E+03 0.  0.
        -13    1    3    3    0    0  0.34273994472E+02  0.38940385128E+03  0.16387807873E+03  0.42387038342E+03  0.10566000000E+00 0.  1.
          4    1    3    3  501    0 -0.75291775983E+02 -0.38483740853E+03  0.53789347262E+03  0.66565612024E+03  0.00000000000E+00 0.  1.
         13    1    1    2    0    0  0.41017781511E+02 -0.45664427460E+01 -0.64341529809E+02  0.76440528659E+02  0.10566000000E+00 0. -1.
<mgrwt>
<rscale>  1 0.39315069E+03</rscale>
<asrwt>0</asrwt>
<pdfrwt beam="1">  1       21 0.13872285E+00 0.83341748E+03</pdfrwt>
<pdfrwt beam="2">  1        4 0.40656693E-01 0.83341748E+03</pdfrwt>
<totfact> 0.80887020E+01</totfact>
</mgrwt>
</event>
<event>
 6    1  0.1375310E-005  0.1009161E+04  0.7818608E-02  0.9873060E-01
         21   -1    0    0  501  502  0.00000000000E+00  0.00000000000E+00  0.20073779990E+03  0.20073779990E+03  0.00000000000E+00 0.  1.
          4   -1    0    0  502    0 -0.00000000000E+00 -0.00000000000E+00 -0.17074163438E+04  0.17074163438E+04  0.00000000000E+00 0.  1.
    9000010    2    1    2  501    0 -0.13939654759E+03 -0.12581758170E+02 -0.14248523982E+04  0.17460269486E+04  0.99940784986E+03 0.  0.
        -13    1    3    3    0    0  0.25480713069E+03  0.37534004636E+03 -0.58207457060E+03  0.73798214148E+03  0.10566000000E+00 0.  1.
          4    1    3    3  501    0 -0.39420367828E+03 -0.38792180453E+03 -0.84277782764E+03  0.10080448071E+04  0.00000000000E+00 0.  1.
         13    1    1    2    0    0  0.13939654759E+03  0.12581758170E+02 -0.81826145712E+02  0.16212719514E+03  0.10566000000E+00 0. -1.
<mgrwt>
<rscale>  1 0.61584847E+03</rscale>
<asrwt>0</asrwt>
<pdfrwt beam="1">  1       21 0.30882739E-01 0.10091609E+04</pdfrwt>
<pdfrwt beam="2">  1        4 0.26267943E+00 0.10091609E+04</pdfrwt>
<totfact> 0.21721451E+01</totfact>
</mgrwt>
</event>
<event>
 6    1  0.1375310E-005  0.1013366E+04  0.7818608E-02  0.1009802E+00
          4   -1    0    0  502    0 -0.00000000000E+00  0.00000000000E+00  0.33022141323E+03  0.33022141323E+03  0.00000000000E+00 0.  1.
         21   -1    0    0  501  502  0.00000000000E+00 -0.00000000000E+00 -0.89053213225E+03  0.89053213225E+03  0.00000000000E+00 0.  1.
    9000010    2    1    2  501    0  0.26448345771E+02 -0.62512988942E+02 -0.54703649846E+03  0.11515899360E+04  0.10110900362E+04 0.  0.
        -13    1    3    3    0    0  0.12143759204E+03  0.29859981342E+03  0.15404990833E+03  0.35726785855E+03  0.10566000000E+00 0.  1.
          4    1    3    3  501    0 -0.94989246265E+02 -0.36111280236E+03 -0.70108640679E+03  0.79432207745E+03  0.00000000000E+00 0.  1.
         13    1    1    2    0    0 -0.26448345771E+02  0.62512988942E+02 -0.13274220561E+02  0.69163609478E+02  0.10566000000E+00 0. -1.
<mgrwt>
<rscale>  1 0.51553328E+03</rscale>
<asrwt>0</asrwt>
<pdfrwt beam="2">  1       21 0.13700494E+00 0.10133659E+04</pdfrwt>
<pdfrwt beam="1">  1        4 0.50803294E-01 0.10133659E+04</pdfrwt>
<totfact> 0.51777052E+01</totfact>
</mgrwt>
</event>
<event>
 6    1  0.1375310E-005  0.1014530E+04  0.7818608E-02  0.9779983E-01
          4   -1    0    0  502    0 -0.00000000000E+00  0.00000000000E+00  0.48246416291E+03  0.48246416291E+03  0.00000000000E+00 0.  1.
         21   -1    0    0  501  502  0.00000000000E+00 -0.00000000000E+00 -0.75399355827E+03  0.75399355827E+03  0.00000000000E+00 0.  1.
    9000010    2    1    2  501    0 -0.18641955416E+03 -0.10115515325E+02 -0.18744049872E+03  0.10317004807E+04  0.99720477711E+03 0.  0.
        -13    1    3    3    0    0 -0.32380147342E+03 -0.42386801923E+03 -0.25382603521E+03  0.59071072381E+03  0.10566000000E+00 0.  1.
          4    1    3    3  501    0  0.13738191926E+03  0.41375250390E+03  0.66385536493E+02  0.44098975689E+03  0.00000000000E+00 0.  1.
         13    1    1    2    0    0  0.18641955416E+03  0.10115515325E+02 -0.84088896648E+02  0.20475724048E+03  0.10566000000E+00 0. -1.
<mgrwt>
<rscale>  1 0.66447913E+03</rscale>
<asrwt>0</asrwt>
<pdfrwt beam="2">  1       21 0.11599901E+00 0.10145304E+04</pdfrwt>
<pdfrwt beam="1">  1        4 0.74225256E-01 0.10145304E+04</pdfrwt>
<totfact> 0.35005257E+01</totfact>
</mgrwt>
</event>
<event>
 6    1  0.1375310E-005  0.1018287E+04  0.7818608E-02  0.9775263E-01
          4   -1    0    0  502    0 -0.00000000000E+00  0.00000000000E+00  0.20859867567E+04  0.20859867567E+04  0.00000000000E+00 0.  1.
         21   -1    0    0  501  502  0.00000000000E+00 -0.00000000000E+00 -0.19842755884E+03  0.19842755884E+03  0.00000000000E+00 0.  1.
    9000010    2    1    2  501    0  0.16528369827E+03 -0.88600270706E+02  0.12103849633E+04  0.15817524737E+04  0.10008698316E+04 0.  0.
        -13    1    3    3    0    0 -0.14293173695E+03 -0.48714055682E+03  0.69867913023E+03  0.86364804273E+03  0.10566000000E+00 0.  1.
          4    1    3    3  501    0  0.30821543522E+03  0.39854028611E+03  0.51170583307E+03  0.71810443096E+03  0.00000000000E+00 0.  1.
         13    1    1    2    0    0 -0.16528369827E+03  0.88600270706E+02  0.67717423456E+03  0.70266184186E+03  0.10566000000E+00 0. -1.
<mgrwt>
<rscale>  1 0.66707142E+03</rscale>
<asrwt>0</asrwt>
<pdfrwt beam="2">  1       21 0.30527318E-01 0.10182874E+04</pdfrwt>
<pdfrwt beam="1">  1        4 0.32092102E+00 0.10182874E+04</pdfrwt>
<totfact> 0.96847591E+00</totfact>
</mgrwt>
</event>
<event>
 6    1  0.1375310E-005  0.1004128E+04  0.7818608E-02  0.9954367E-01
         21   -1    0    0  501  502  0.00000000000E+00  0.00000000000E+00  0.40723206915E+03  0.40723206915E+03  0.00000000000E+00 0.  1.
          4   -1    0    0  502    0 -0.00000000000E+00 -0.00000000000E+00 -0.79079565508E+03  0.79079565508E+03  0.00000000000E+00 0.  1.
    9000010    2    1    2  501    0  0.61044437203E+02  0.90856372101E+02 -0.26890793009E+03  0.10395120018E+04  0.99814449026E+03 0.  0.
        -13    1    3    3    0    0  0.33167732255E+03  0.29557433762E+03  0.17780458215E+03  0.47852744535E+03  0.10566000000E+00 0.  1.
          4    1    3    3  501    0 -0.27063288535E+03 -0.20471796552E+03 -0.44671251223E+03  0.56098455649E+03  0.00000000000E+00 0.  1.
         13    1    1    2    0    0 -0.61044437203E+02 -0.90856372101E+02 -0.11465565584E+03  0.15851572239E+03  0.10566000000E+00 0. -1.
<mgrwt>
<rscale>  1 0.57697232E+03</rscale>
<asrwt>0</asrwt>
<pdfrwt beam="1">  1       21 0.62651088E-01 0.10041283E+04</pdfrwt>
<pdfrwt beam="2">  1        4 0.12166087E+00 0.10041283E+04</pdfrwt>
<totfact> 0.47084339E+01</totfact>
</mgrwt>
</event>
<event>
 6    1  0.1375310E-005  0.1046691E+04  0.7818608E-02  0.9571461E-01
         21   -1    0    0  501  502  0.00000000000E+00  0.00000000000E+00  0.52914257824E+03  0.52914257824E+03  0.00000000000E+00 0.  1.
          4   -1    0    0  502    0 -0.00000000000E+00 -0.00000000000E+00 -0.97370229654E+03  0.97370229654E+03  0.00000000000E+00 0.  1.
    9000010    2    1    2  501    0  0.10597181936E+03  0.32660381069E+03 -0.16405877266E+03  0.10594704649E+04  0.98876807668E+03 0.  0.
        -13    1    3    3    0    0  0.32886173166E+03  0.56967550853E+03  0.60382312401E+02  0.66054996661E+03  0.10566000000E+00 0.  1.
          4    1    3    3  501    0 -0.22288991230E+03 -0.24307169784E+03 -0.22444108506E+03  0.39892049829E+03  0.00000000000E+00 0.  1.
         13    1    1    2    0    0 -0.10597181936E+03 -0.32660381069E+03 -0.28050094564E+03  0.44337440987E+03  0.10566000000E+00 0. -1.
<mgrwt>
<rscale>  1 0.79214226E+03</rscale>
<asrwt>0</asrwt>
<pdfrwt beam="1">  1       21 0.81406551E-01 0.10466912E+04</pdfrwt>
<pdfrwt beam="2">  1        4 0.14980035E+00 0.10466912E+04</pdfrwt>
<totfact> 0.14934410E+01</totfact>
</mgrwt>
</event>
<event>
 6    1  0.1375310E-005  0.1018919E+04  0.7818608E-02  0.1038988E+00
         21   -1    0    0  501  502  0.00000000000E+00  0.00000000000E+00  0.13383774808E+04  0.13383774808E+04  0.00000000000E+00 0.  1.
          4   -1    0    0  502    0 -0.00000000000E+00 -0.00000000000E+00 -0.25095723211E+03  0.25095723211E+03  0.00000000000E+00 0.  1.
    9000010    2    1    2  501    0  0.18837889171E+02 -0.20457462830E+02  0.11405324810E+04  0.15293822798E+04  0.10185393677E+04 0.  0.
        -13    1    3    3    0    0  0.23831491909E+03  0.19546609353E+03 -0.38679159319E+02  0.31063979609E+03  0.10566000000E+00 0.  1.
          4    1    3    3  501    0 -0.21947702992E+03 -0.21592355636E+03  0.11792116403E+04  0.12187424837E+04  0.00000000000E+00 0.  1.
         13    1    1    2    0    0 -0.18837889171E+02  0.20457462830E+02 -0.53112232310E+02  0.59952433135E+02  0.10566000000E+00 0. -1.
<mgrwt>
<rscale>  1 0.41414669E+03</rscale>
<asrwt>0</asrwt>
<pdfrwt beam="1">  1       21 0.20590422E+00 0.10189189E+04</pdfrwt>
<pdfrwt beam="2">  1        4 0.38608806E-01 0.10189189E+04</pdfrwt>
<totfact> 0.27673054E+01</totfact>
</mgrwt>
</event>
<event>
 6    1  0.1375310E-005  0.8699613E+03  0.7818608E-02  0.9886111E-01
         21   -1    0    0  501  502  0.00000000000E+00  0.00000000000E+00  0.42216696801E+03  0.42216696801E+03  0.00000000000E+00 0.  1.
          4   -1    0    0  502    0 -0.00000000000E+00 -0.00000000000E+00 -0.74641441388E+03  0.74641441388E+03  0.00000000000E+00 0.  1.
    9000010    2    1    2  501    0 -0.12387257760E+03 -0.16889639463E+03 -0.12390455249E+03  0.87874057440E+03  0.84437092049E+03 0.  0.
        -13    1    3    3    0    0 -0.34346385831E+03 -0.33445863824E+03 -0.28725047785E+03  0.55887641822E+03  0.10566000000E+00 0.  1.
          4    1    3    3  501    0  0.21959128071E+03  0.16556224361E+03  0.16334592536E+03  0.31986415617E+03  0.00000000000E+00 0.  1.
         13    1    1    2    0    0  0.12387257760E+03  0.16889639463E+03 -0.20034289338E+03  0.28984080750E+03  0.10566000000E+00 0. -1.
<mgrwt>
<rscale>  1 0.60939154E+03</rscale>
<asrwt>0</asrwt>
<pdfrwt beam="1">  1       21 0.64948764E-01 0.86996130E+03</pdfrwt>
<pdfrwt beam="2">  1        4 0.11483299E+00 0.86996130E+03</pdfrwt>
<totfact> 0.50740349E+01</totfact>
</mgrwt>
</event>
<event>
 6    1  0.1375310E-005  0.1032624E+04  0.7818608E-02  0.9815776E-01
         21   -1    0    0  501  502  0.00000000000E+00  0.00000000000E+00  0.61506197626E+03  0.61506197626E+03  0.00000000000E+00 0.  1.
          4   -1    0    0  502    0 -0.00000000000E+00 -0.00000000000E+00 -0.69031899086E+03  0.69031899086E+03  0.00000000000E+00 0.  1.
    9000010    2    1    2  501    0  0.12314482495E+03 -0.98043155319E+02  0.13641626127E+03  0.10415956470E+04  0.10205562147E+04 0.  0.
        -13    1    3    3    0    0  0.54358212738E+03 -0.22970648198E+03  0.10954860055E+03  0.60020621799E+03  0.10566000000E+00 0.  1.
          4    1    3    3  501    0 -0.42043730243E+03  0.13166332666E+03  0.26867660721E+02  0.44138942902E+03  0.00000000000E+00 0.  1.
         13    1    1    2    0    0 -0.12314482495E+03  0.98043155319E+02 -0.21167327588E+03  0.26378532010E+03  0.10566000000E+00 0. -1.
<mgrwt>
<rscale>  1 0.64522766E+03</rscale>
<asrwt>0</asrwt>
<pdfrwt beam="1">  1       21 0.94624919E-01 0.10326239E+04</pdfrwt>
<pdfrwt beam="2">  1        4 0.10620292E+00 0.10326239E+04</pdfrwt>
<totfact> 0.25085375E+01</totfact>
</mgrwt>
</event>
<event>
 6    1  0.1375310E-005  0.1003048E+04  0.7818608E-02  0.9714322E-01
         21   -1    0    0  501  502  0.00000000000E+00  0.00000000000E+00  0.12684708755E+04  0.12684708755E+04  0.00000000000E+00 0.  1.
          4   -1    0    0  502    0 -0.00000000000E+00 -0.00000000000E+00 -0.30707211955E+03  0.30707211955E+03  0.00000000000E+00 0.  1.
    9000010    2    1    2  501    0 -0.15870567701E+03 -0.18035888024E+03  0.82864843608E+03  0.13010626202E+04  0.97385260354E+03 0.  0.
        -13    1    3    3    0    0 -0.12402887922E+03  0.27178173653E+03  0.79158468374E+03  0.84608202787E+03  0.10566000000E+00 0.  1.
          4    1    3    3  501    0 -0.34676797787E+02 -0.45214061677E+03  0.37063752342E+02  0.45498059231E+03  0.00000000000E+00 0.  1.
         13    1    1    2    0    0  0.15870567701E+03  0.18035888024E+03  0.13275031985E+03  0.27448037486E+03  0.10566000000E+00 0. -1.
<mgrwt>
<rscale>  1 0.70170434E+03</rscale>
<asrwt>0</asrwt>
<pdfrwt beam="1">  1       21 0.19514936E+00 0.10030482E+04</pdfrwt>
<pdfrwt beam="2">  1        4 0.47241865E-01 0.10030482E+04</pdfrwt>
<totfact> 0.21692692E+01</totfact>
</mgrwt>
</event>
<event>
 6    1  0.1375310E-005  0.1369153E+04  0.7818608E-02  0.9037835E-01
          4   -1    0    0  502    0 -0.00000000000E+00  0.00000000000E+00  0.58796911451E+03  0.58796911451E+03  0.00000000000E+00 0.  1.
         21   -1    0    0  501  502  0.00000000000E+00 -0.00000000000E+00 -0.26069480517E+04  0.26069480517E+04  0.00000000000E+00 0. -1.
    9000010    2    1    2  501    0 -0.25742495558E+03 -0.10464933713E+04 -0.13701721193E+04  0.19369957529E+04  0.84449092718E+03 0.  0.
        -13    1    3    3    0    0 -0.37823563936E+03 -0.81764249831E+03 -0.50250192918E+03  0.10315569077E+04  0.10566000000E+00 0.  1.
          4    1    3    3  501    0  0.12081068379E+03 -0.22885087302E+03 -0.86767019016E+03  0.90543884514E+03  0.00000000000E+00 0.  1.
         13    1    1    2    0    0  0.25742495558E+03  0.10464933713E+04 -0.64880681782E+03  0.12579214133E+04  0.10566000000E+00 0. -1.
<mgrwt>
<rscale>  1 0.12896223E+04</rscale>
<asrwt>0</asrwt>
<pdfrwt beam="2">  1       21 0.40106894E+00 0.13691534E+04</pdfrwt>
<pdfrwt beam="1">  1        4 0.90456785E-01 0.13691534E+04</pdfrwt>
<totfact> 0.22993683E-01</totfact>
</mgrwt>
</event>
<event>
 6    1  0.1375310E-005  0.1068188E+04  0.7818608E-02  0.9469940E-01
         21   -1    0    0  501  502  0.00000000000E+00  0.00000000000E+00  0.23502946811E+04  0.23502946811E+04  0.00000000000E+00 0. -1.
          4   -1    0    0  502    0 -0.00000000000E+00 -0.00000000000E+00 -0.25150065774E+03  0.25150065774E+03  0.00000000000E+00 0.  1.
    9000010    2    1    2  501    0  0.39386618804E+03  0.23784281952E+03  0.15935350254E+04  0.19184312726E+04  0.96401498412E+03 0.  0.
        -13    1    3    3    0    0  0.27939440436E+03 -0.35482554955E+03  0.83212104329E+03  0.94677761151E+03  0.10566000000E+00 0.  1.
          4    1    3    3  501    0  0.11447178368E+03  0.59266836906E+03  0.76141398206E+03  0.97165366105E+03  0.00000000000E+00 0.  1.
         13    1    1    2    0    0 -0.39386618804E+03 -0.23784281952E+03  0.50525899804E+03  0.68336406632E+03  0.10566000000E+00 0. -1.
<mgrwt>
<rscale>  1 0.86536772E+03</rscale>
<asrwt>0</asrwt>
<pdfrwt beam="1">  1       21 0.36158378E+00 0.10681876E+04</pdfrwt>
<pdfrwt beam="2">  1        4 0.38692411E-01 0.10681876E+04</pdfrwt>
<totfact> 0.28047729E+00</totfact>
</mgrwt>
</event>
<event>
 6    1  0.1375310E-005  0.1054793E+04  0.7818608E-02  0.9582799E-01
          4   -1    0    0  502    0 -0.00000000000E+00  0.00000000000E+00  0.41919291820E+03  0.41919291820E+03  0.00000000000E+00 0.  1.
         21   -1    0    0  501  502  0.00000000000E+00 -0.00000000000E+00 -0.16500212190E+04  0.16500212190E+04  0.00000000000E+00 0.  1.
    9000010    2    1    2  501    0 -0.11943585866E+03  0.29975527750E+03 -0.13604688243E+04  0.17214716646E+04  0.10042266275E+04 0.  0.
        -13    1    3    3    0    0  0.10194409086E+03 -0.33199284455E+03 -0.69826146411E+03  0.77985955782E+03  0.10566000000E+00 0.  1.
          4    1    3    3  501    0 -0.22137994952E+03  0.63174812206E+03 -0.66220736022E+03  0.94161210681E+03  0.00000000000E+00 0.  1.
         13    1    1    2    0    0  0.11943585866E+03 -0.29975527750E+03  0.12964052353E+03  0.34774247257E+03  0.10566000000E+00 0. -1.
<mgrwt>
<rscale>  1 0.78445202E+03</rscale>
<asrwt>0</asrwt>
<pdfrwt beam="2">  1       21 0.25384942E+00 0.10547935E+04</pdfrwt>
<pdfrwt beam="1">  1        4 0.64491219E-01 0.10547935E+04</pdfrwt>
<totfact> 0.45255198E+00</totfact>
</mgrwt>
</event>
<event>
 6    1  0.1375310E-005  0.1204700E+04  0.7818608E-02  0.9164225E-01
         21   -1    0    0  501  502  0.00000000000E+00  0.00000000000E+00  0.89295666623E+03  0.89295666623E+03  0.00000000000E+00 0. -1.
          4   -1    0    0  502    0 -0.00000000000E+00 -0.00000000000E+00 -0.14865026847E+04  0.14865026847E+04  0.00000000000E+00 0.  1.
    9000010    2    1    2  501    0  0.96807106958E+03 -0.12702821706E+03 -0.70649148164E+03  0.13965786600E+04  0.70569396790E+03 0.  0.
        -13    1    3    3    0    0  0.21536398562E+02  0.19290041842E+03 -0.19091819639E+03  0.27225751921E+03  0.10566000000E+00 0.  1.
          4    1    3    3  501    0  0.94653467102E+03 -0.31992863548E+03 -0.51557328525E+03  0.11243211408E+04  0.00000000000E+00 0.  1.
         13    1    1    2    0    0 -0.96807106958E+03  0.12702821706E+03  0.11294546318E+03  0.98288069088E+03  0.10566000000E+00 0. -1.
<mgrwt>
<rscale>  1 0.11430435E+04</rscale>
<asrwt>0</asrwt>
<pdfrwt beam="1">  1       21 0.13737795E+00 0.12046999E+04</pdfrwt>
<pdfrwt beam="2">  1        4 0.22869272E+00 0.12046999E+04</pdfrwt>
<totfact> 0.11171555E+00</totfact>
</mgrwt>
</event>
<event>
 6    1  0.1375310E-005  0.1005180E+04  0.7818608E-02  0.1004632E+00
          4   -1    0    0  502    0 -0.00000000000E+00  0.00000000000E+00  0.36695175859E+03  0.36695175859E+03  0.00000000000E+00 0.  1.
         21   -1    0    0  501  502  0.00000000000E+00 -0.00000000000E+00 -0.11643295521E+04  0.11643295521E+04  0.00000000000E+00 0.  1.
    9000010    2    1    2  501    0  0.39106316188E+02 -0.71693508174E+02 -0.93398781969E+03  0.13721223539E+04  0.10018568978E+04 0.  0.
        -13    1    3    3    0    0 -0.27068173663E+03  0.27240053058E+03 -0.67803252297E+02  0.38995890013E+03  0.10566000000E+00 0.  1.
          4    1    3    3  501    0  0.30978805282E+03 -0.34409403875E+03 -0.86618456739E+03  0.98216345379E+03  0.00000000000E+00 0.  1.
         13    1    1    2    0    0 -0.39106316188E+02  0.71693508174E+02  0.13661002622E+03  0.15915895673E+03  0.10566000000E+00 0. -1.
<mgrwt>
<rscale>  1 0.53665187E+03</rscale>
<asrwt>0</asrwt>
<pdfrwt beam="2">  1       21 0.17912762E+00 0.10051798E+04</pdfrwt>
<pdfrwt beam="1">  1        4 0.56454118E-01 0.10051798E+04</pdfrwt>
<totfact> 0.19313501E+01</totfact>
</mgrwt>
</event>
<event>
 6    1  0.1375310E-005  0.1040750E+04  0.7818608E-02  0.9606579E-01
          4   -1    0    0  502    0 -0.00000000000E+00  0.00000000000E+00  0.21245574109E+03  0.21245574109E+03  0.00000000000E+00 0.  1.
         21   -1    0    0  501  502  0.00000000000E+00 -0.00000000000E+00 -0.22253307757E+04  0.22253307757E+04  0.00000000000E+00 0.  1.
    9000010    2    1    2  501    0  0.29062661844E+03 -0.10673989756E+03 -0.13365866635E+04  0.16939967554E+04  0.99363165267E+03 0.  0.
        -13    1    3    3    0    0 -0.23403923424E+03  0.12540179289E+03 -0.30264443445E+02  0.26723757319E+03  0.10566000000E+00 0.  1.
          4    1    3    3  501    0  0.52466585268E+03 -0.23214169045E+03 -0.13063222201E+04  0.14267591822E+04  0.00000000000E+00 0.  1.
         13    1    1    2    0    0 -0.29062661844E+03  0.10673989756E+03 -0.67628837113E+03  0.74378976140E+03  0.10566000000E+00 0. -1.
<mgrwt>
<rscale>  1 0.76862246E+03</rscale>
<asrwt>0</asrwt>
<pdfrwt beam="2">  1       21 0.34235860E+00 0.10407503E+04</pdfrwt>
<pdfrwt beam="1">  1        4 0.32685497E-01 0.10407503E+04</pdfrwt>
<totfact> 0.52341689E+00</totfact>
</mgrwt>
</event>
<event>
 6    1  0.1375310E-005  0.1025579E+04  0.7818608E-02  0.1001036E+00
         21   -1    0    0  501  502  0.00000000000E+00  0.00000000000E+00  0.15522127999E+03  0.15522127999E+03  0.00000000000E+00 0.  1.
          4   -1    0    0  502    0 -0.00000000000E+00 -0.00000000000E+00 -0.19910889061E+04  0.19910889061E+04  0.00000000000E+00 0.  1.
    9000010    2    1    2  501    0 -0.37782420008E+01  0.85976349131E+02 -0.16819056635E+04  0.19699284840E+04  0.10219615275E+04 0.  0.
        -13    1    3    3    0    0  0.61262313570E+02  0.50024919627E+03 -0.47618390954E+03  0.69336387005E+03  0.10566000000E+00 0.  1.
          4    1    3    3  501    0 -0.65040555571E+02 -0.41427284713E+03 -0.12057217540E+04  0.12765646140E+04  0.00000000000E+00 0.  1.
         13    1    1    2    0    0  0.37782420008E+01 -0.85976349131E+02 -0.15396196267E+03  0.17638170210E+03  0.10566000000E+00 0. -1.
<mgrwt>
<rscale>  1 0.55198376E+03</rscale>
<asrwt>0</asrwt>
<pdfrwt beam="1">  1       21 0.23880197E-01 0.10255787E+04</pdfrwt>
<pdfrwt beam="2">  1        4 0.30632137E+00 0.10255787E+04</pdfrwt>
<totfact> 0.19483939E+01</totfact>
</mgrwt>
</event>
<event>
 6    1  0.1375310E-005  0.8895468E+03  0.7818608E-02  0.9869731E-01
          4   -1    0    0  502    0 -0.00000000000E+00  0.00000000000E+00  0.12325130100E+04  0.12325130100E+04  0.00000000000E+00 0.  1.
         21   -1    0    0  501  502  0.00000000000E+00 -0.00000000000E+00 -0.24934741469E+03  0.24934741469E+03  0.00000000000E+00 0.  1.
    9000010    2    1    2  501    0  0.30517850687E+02 -0.20430358030E+03  0.87875821414E+03  0.12504037234E+04  0.86522955368E+03 0.  0.
        -13    1    3    3    0    0 -0.38596856106E+03  0.64828923597E+02  0.34332172081E+03  0.52061918387E+03  0.10566000000E+00 0.  1.
          4    1    3    3  501    0  0.41648641175E+03 -0.26913250390E+03  0.53543649332E+03  0.72978453958E+03  0.00000000000E+00 0.  1.
         13    1    1    2    0    0 -0.30517850687E+02  0.20430358030E+03  0.10440738113E+03  0.23145670121E+03  0.10566000000E+00 0. -1.
<mgrwt>
<rscale>  1 0.61750949E+03</rscale>
<asrwt>0</asrwt>
<pdfrwt beam="2">  1       21 0.38361142E-01 0.88954678E+03</pdfrwt>
<pdfrwt beam="1">  1        4 0.18961738E+00 0.88954678E+03</pdfrwt>
<totfact> 0.41139516E+01</totfact>
</mgrwt>
</event>
<event>
 6    1  0.1375310E-005  0.9262155E+03  0.7818608E-02  0.9794984E-01
         21   -1    0    0  501  502  0.00000000000E+00  0.00000000000E+00  0.54007060375E+03  0.54007060375E+03  0.00000000000E+00 0. -1.
          4   -1    0    0  502    0 -0.00000000000E+00 -0.00000000000E+00 -0.83865173577E+03  0.83865173577E+03  0.00000000000E+00 0.  1.
    9000010    2    1    2  501    0 -0.18436368754E+03 -0.14333532167E+03 -0.51548722117E+03  0.10600010719E+04  0.89629248218E+03 0.  0.
        -13    1    3    3    0    0 -0.38047988643E+03 -0.22640743575E+03 -0.66561884101E+03  0.79942086764E+03  0.10566000000E+00 0.  1.
          4    1    3    3  501    0  0.19611619889E+03  0.83072114080E+02  0.15013161983E+03  0.26058020431E+03  0.00000000000E+00 0.  1.
         13    1    1    2    0    0  0.18436368754E+03  0.14333532167E+03  0.21690608915E+03  0.31872126757E+03  0.10566000000E+00 0. -1.
<mgrwt>
<rscale>  1 0.65632433E+03</rscale>
<asrwt>0</asrwt>
<pdfrwt beam="1">  1       21 0.83087785E-01 0.92621552E+03</pdfrwt>
<pdfrwt beam="2">  1        4 0.12902334E+00 0.92621552E+03</pdfrwt>
<totfact> 0.21306784E+01</totfact>
</mgrwt>
</event>
<event>
 6    1  0.1375310E-005  0.1057338E+04  0.7818608E-02  0.9589495E-01
          4   -1    0    0  502    0 -0.00000000000E+00  0.00000000000E+00  0.30509540413E+03  0.30509540413E+03  0.00000000000E+00 0.  1.
         21   -1    0    0  501  502  0.00000000000E+00 -0.00000000000E+00 -0.15406028089E+04  0.15406028089E+04  0.00000000000E+00 0.  1.
    9000010    2    1    2  501    0  0.62904997924E+02  0.30667954011E+03 -0.92685182474E+03  0.14060646641E+04  0.10099277972E+04 0.  0.
        -13    1    3    3    0    0 -0.13347793407E+03  0.18308842070E+03 -0.10958370133E+04  0.11190158621E+04  0.10566000000E+00 0.  1.
          4    1    3    3  501    0  0.19638293199E+03  0.12359111941E+03  0.16898518859E+03  0.28704880201E+03  0.00000000000E+00 0.  1.
         13    1    1    2    0    0 -0.62904997924E+02 -0.30667954011E+03 -0.30865558000E+03  0.43963354889E+03  0.10566000000E+00 0. -1.
<mgrwt>
<rscale>  1 0.77995380E+03</rscale>
<asrwt>0</asrwt>
<pdfrwt beam="2">  1       21 0.23701582E+00 0.10573379E+04</pdfrwt>
<pdfrwt beam="1">  1        4 0.46937754E-01 0.10573379E+04</pdfrwt>
<totfact> 0.11470155E+01</totfact>
</mgrwt>
</event>
<event>
 6    1  0.1375310E-005  0.9372861E+03  0.7818608E-02  0.1014250E+00
         21   -1    0    0  501  502  0.00000000000E+00  0.00000000000E+00  0.44418984538E+03  0.44418984538E+03  0.00000000000E+00 0.  1.
          4   -1    0    0  502    0 -0.00000000000E+00 -0.00000000000E+00 -0.64753842126E+03  0.64753842126E+03  0.00000000000E+00 0.  1.
    9000010    2    1    2  501    0  0.74809605933E+02 -0.10509725058E+01 -0.71346292563E+02  0.93999759851E+03  0.93429524780E+03 0.  0.
        -13    1    3    3    0    0  0.87446163378E+02 -0.22725037502E+03 -0.44255383134E+03  0.50511728265E+03  0.10566000000E+00 0.  1.
          4    1    3    3  501    0 -0.12636557445E+02  0.22619940252E+03  0.37120753877E+03  0.43488031586E+03  0.00000000000E+00 0.  1.
         13    1    1    2    0    0 -0.74809605933E+02  0.10509725058E+01 -0.13200228332E+03  0.15173066812E+03  0.10566000000E+00 0. -1.
<mgrwt>
<rscale>  1 0.49820065E+03</rscale>
<asrwt>0</asrwt>
<pdfrwt beam="1">  1       21 0.68336900E-01 0.93728608E+03</pdfrwt>
<pdfrwt beam="2">  1        4 0.99621295E-01 0.93728608E+03</pdfrwt>
<totfact> 0.63627773E+01</totfact>
</mgrwt>
</event>
<event>
 6    1  0.1375310E-005  0.1124972E+04  0.7818608E-02  0.9388219E-01
          4   -1    0    0  502    0 -0.00000000000E+00  0.00000000000E+00  0.77861935733E+03  0.77861935733E+03  0.00000000000E+00 0.  1.
         21   -1    0    0  501  502  0.00000000000E+00 -0.00000000000E+00 -0.87727629685E+03  0.87727629685E+03  0.00000000000E+00 0. -1.
    9000010    2    1    2  501    0  0.52451356406E+03  0.46669918931E+02 -0.98883956256E+02  0.11293098369E+04  0.99411775499E+03 0.  0.
        -13    1    3    3    0    0  0.61816855647E+03 -0.27664218402E+03 -0.29614355152E+03  0.73916458009E+03  0.10566000000E+00 0.  1.
          4    1    3    3  501    0 -0.93654992411E+02  0.32331210295E+03  0.19725959527E+03  0.39014525685E+03  0.00000000000E+00 0.  1.
         13    1    1    2    0    0 -0.52451356406E+03 -0.46669918931E+02  0.22701673495E+00  0.52658581724E+03  0.10566000000E+00 0. -1.
<mgrwt>
<rscale>  1 0.93051558E+03</rscale>
<asrwt>0</asrwt>
<pdfrwt beam="2">  1       21 0.13496558E+00 0.11249723E+04</pdfrwt>
<pdfrwt beam="1">  1        4 0.11978759E+00 0.11249723E+04</pdfrwt>
<totfact> 0.74252726E+00</totfact>
</mgrwt>
</event>
<event>
 6    1  0.1375310E-005  0.9809209E+03  0.7818608E-02  0.9806353E-01
          4   -1    0    0  502    0 -0.00000000000E+00  0.00000000000E+00  0.28495230408E+03  0.28495230408E+03  0.00000000000E+00 0.  1.
         21   -1    0    0  501  502  0.00000000000E+00 -0.00000000000E+00 -0.12679818984E+04  0.12679818984E+04  0.00000000000E+00 0.  1.
    9000010    2    1    2  501    0 -0.77783877135E+02  0.17267995726E+03 -0.94023948037E+03  0.13587700858E+04  0.96246411176E+03 0.  0.
        -13    1    3    3    0    0 -0.43687077496E+03 -0.29310955597E+02 -0.14170046790E+03  0.46021108189E+03  0.10566000000E+00 0.  1.
          4    1    3    3  501    0  0.35908689782E+03  0.20199091286E+03 -0.79853901247E+03  0.89855900390E+03  0.00000000000E+00 0.  1.
         13    1    1    2    0    0  0.77783877135E+02 -0.17267995726E+03 -0.42790113926E+02  0.19416411666E+03  0.10566000000E+00 0. -1.
<mgrwt>
<rscale>  1 0.65022696E+03</rscale>
<asrwt>0</asrwt>
<pdfrwt beam="2">  1       21 0.19507414E+00 0.98092093E+03</pdfrwt>
<pdfrwt beam="1">  1        4 0.43838816E-01 0.98092093E+03</pdfrwt>
<totfact> 0.25440200E+01</totfact>
</mgrwt>
</event>
<event>
 6    1  0.1375310E-005  0.1016316E+04  0.7818608E-02  0.9757650E-01
          4   -1    0    0  502    0 -0.00000000000E+00  0.00000000000E+00  0.61838930278E+03  0.61838930278E+03  0.00000000000E+00 0.  1.
         21   -1    0    0  501  502  0.00000000000E+00 -0.00000000000E+00 -0.74271546665E+03  0.74271546665E+03  0.00000000000E+00 0.  1.
    9000010    2    1    2  501    0 -0.96240402098E+02 -0.17525408423E+03 -0.33553245241E+03  0.10702709397E+04  0.99645453922E+03 0.  0.
        -13    1    3    3    0    0  0.45572099342E+02  0.31501435034E+03 -0.44615256207E+03  0.54805380846E+03  0.10566000000E+00 0.  1.
          4    1    3    3  501    0 -0.14181250144E+03 -0.49026843457E+03  0.11062010967E+03  0.52221713124E+03  0.00000000000E+00 0.  1.
         13    1    1    2    0    0  0.96240402098E+02  0.17525408423E+03  0.21120628853E+03  0.29083382973E+03  0.10566000000E+00 0. -1.
<mgrwt>
<rscale>  1 0.67685670E+03</rscale>
<asrwt>0</asrwt>
<pdfrwt beam="2">  1       21 0.11426392E+00 0.10163158E+04</pdfrwt>
<pdfrwt beam="1">  1        4 0.95136816E-01 0.10163158E+04</pdfrwt>
<totfact> 0.20443482E+01</totfact>
</mgrwt>
</event>
<event>
 6    1  0.1375310E-005  0.1038845E+04  0.7818608E-02  0.9651140E-01
          4   -1    0    0  502    0 -0.00000000000E+00  0.00000000000E+00  0.52199430631E+03  0.52199430631E+03  0.00000000000E+00 0.  1.
         21   -1    0    0  501  502  0.00000000000E+00 -0.00000000000E+00 -0.91391039011E+03  0.91391039011E+03  0.00000000000E+00 0.  1.
    9000010    2    1    2  501    0  0.26509567501E+03  0.35768657269E+02 -0.49306984191E+03  0.11499200680E+04  0.10038143155E+04 0.  0.
        -13    1    3    3    0    0  0.42132964438E+03  0.39240796239E+03 -0.49691165877E+03  0.76054183709E+03  0.10566000000E+00 0.  1.
          4    1    3    3  501    0 -0.15623396937E+03 -0.35663930512E+03  0.38418168545E+01  0.38937823091E+03  0.00000000000E+00 0.  1.
         13    1    1    2    0    0 -0.26509567501E+03 -0.35768657269E+02  0.10115375811E+03  0.28598462842E+03  0.10566000000E+00 0. -1.
<mgrwt>
<rscale>  1 0.74001933E+03</rscale>
<asrwt>0</asrwt>
<pdfrwt beam="2">  1       21 0.14060160E+00 0.10388447E+04</pdfrwt>
<pdfrwt beam="1">  1        4 0.80306816E-01 0.10388447E+04</pdfrwt>
<totfact> 0.17536104E+01</totfact>
</mgrwt>
</event>
<event>
 6    1  0.1375310E-005  0.1076354E+04  0.7818608E-02  0.9543807E-01
          4   -1    0    0  502    0 -0.00000000000E+00  0.00000000000E+00  0.81899819576E+03  0.81899819576E+03  0.00000000000E+00 0.  1.
         21   -1    0    0  501  502  0.00000000000E+00 -0.00000000000E+00 -0.61888869809E+03  0.61888869809E+03  0.00000000000E+00 0.  1.
    9000010    2    1    2  501    0  0.23482129322E+03 -0.25604617004E+03  0.15929646361E+03  0.10880778090E+04  0.10187429873E+04 0.  0.
        -13    1    3    3    0    0  0.34365802336E+03 -0.11870492438E+03 -0.37707255356E+03  0.52380856990E+03  0.10566000000E+00 0.  1.
          4    1    3    3  501    0 -0.10883673014E+03 -0.13734124567E+03  0.53636901717E+03  0.56426923908E+03  0.00000000000E+00 0.  1.
         13    1    1    2    0    0 -0.23482129322E+03  0.25604617004E+03  0.40813034051E+02  0.34980908487E+03  0.10566000000E+00 0. -1.
<mgrwt>
<rscale>  1 0.81129747E+03</rscale>
<asrwt>0</asrwt>
<pdfrwt beam="2">  1       21 0.95213646E-01 0.10763540E+04</pdfrwt>
<pdfrwt beam="1">  1        4 0.12599972E+00 0.10763540E+04</pdfrwt>
<totfact> 0.16063451E+01</totfact>
</mgrwt>
</event>
<event>
 6    1  0.1375310E-005  0.1009156E+04  0.7818608E-02  0.9752996E-01
         21   -1    0    0  501  502  0.00000000000E+00  0.00000000000E+00  0.90146806528E+03  0.90146806528E+03  0.00000000000E+00 0.  1.
          4   -1    0    0  502    0 -0.00000000000E+00 -0.00000000000E+00 -0.46724444667E+03  0.46724444667E+03  0.00000000000E+00 0.  1.
    9000010    2    1    2  501    0 -0.98853297254E+02 -0.18232784122E+03  0.53044922837E+03  0.11400756925E+04  0.98761368194E+03 0.  0.
        -13    1    3    3    0    0 -0.23476762415E+03  0.23993811244E+03  0.60342513286E+03  0.69051287988E+03  0.10566000000E+00 0.  1.
          4    1    3    3  501    0  0.13591432689E+03 -0.42226595366E+03 -0.72975904495E+02  0.44956281264E+03  0.00000000000E+00 0.  1.
         13    1    1    2    0    0  0.98853297254E+02  0.18232784122E+03 -0.96225609752E+02  0.22863681942E+03  0.10566000000E+00 0. -1.
<mgrwt>
<rscale>  1 0.67947240E+03</rscale>
<asrwt>0</asrwt>
<pdfrwt beam="1">  1       21 0.13868739E+00 0.10091562E+04</pdfrwt>
<pdfrwt beam="2">  1        4 0.71883761E-01 0.10091562E+04</pdfrwt>
<totfact> 0.23497753E+01</totfact>
</mgrwt>
</event>
<event>
 6    1  0.1375310E-005  0.1037007E+04  0.7818608E-02  0.9679800E-01
         21   -1    0    0  501  502  0.00000000000E+00  0.00000000000E+00  0.18981957298E+04  0.18981957298E+04  0.00000000000E+00 0.  1.
          4   -1    0    0  502    0 -0.00000000000E+00 -0.00000000000E+00 -0.22994908174E+03  0.22994908174E+03  0.00000000000E+00 0.  1.
    9000010    2    1    2  501    0 -0.94750366259E+02  0.22496850133E+03  0.15278591753E+04  0.18465473822E+04  0.10078666166E+04 0.  0.
        -13    1    3    3    0    0 -0.19821802408E+03  0.44069829156E+03  0.15328735993E+04  0.16072357798E+04  0.10566000000E+00 0.  1.
          4    1    3    3  501    0  0.10346765782E+03 -0.21572979023E+03 -0.50144240529E+01  0.23931160242E+03  0.00000000000E+00 0.  1.
         13    1    1    2    0    0  0.94750366259E+02 -0.22496850133E+03  0.14038747277E+03  0.28159742927E+03  0.10566000000E+00 0. -1.
<mgrwt>
<rscale>  1 0.72232318E+03</rscale>
<asrwt>0</asrwt>
<pdfrwt beam="1">  1       21 0.29203010E+00 0.10370070E+04</pdfrwt>
<pdfrwt beam="2">  1        4 0.35376783E-01 0.10370070E+04</pdfrwt>
<totfact> 0.92259518E+00</totfact>
</mgrwt>
</event>
<event>
 6    1  0.1375310E-005  0.1014025E+04  0.7818608E-02  0.9705708E-01
         21   -1    0    0  501  502  0.00000000000E+00  0.00000000000E+00  0.39128028199E+03  0.39128028199E+03  0.00000000000E+00 0.  1.
          4   -1    0    0  502    0 -0.00000000000E+00 -0.00000000000E+00 -0.10867979075E+04  0.10867979075E+04  0.00000000000E+00 0.  1.
    9000010    2    1    2  501    0 -0.13179649650E+03 -0.19976683561E+03 -0.38185878198E+03  0.10835417699E+04  0.98537786285E+03 0.  0.
        -13    1    3    3    0    0 -0.10490231997E+03 -0.51284603352E+03  0.75247242051E+02  0.52884563856E+03  0.10566000000E+00 0.  1.
          4    1    3    3  501    0 -0.26894176528E+02  0.31307919790E+03 -0.45710602403E+03  0.55469613131E+03  0.00000000000E+00 0.  1.
         13    1    1    2    0    0  0.13179649650E+03  0.19976683561E+03 -0.31365884350E+03  0.39453641957E+03  0.10566000000E+00 0. -1.
<mgrwt>
<rscale>  1 0.70677980E+03</rscale>
<asrwt>0</asrwt>
<pdfrwt beam="1">  1       21 0.60196967E-01 0.10140250E+04</pdfrwt>
<pdfrwt beam="2">  1        4 0.16719968E+00 0.10140250E+04</pdfrwt>
<totfact> 0.22153467E+01</totfact>
</mgrwt>
</event>
<event>
 6    1  0.1375310E-005  0.1006467E+04  0.7818608E-02  0.1003915E+00
         21   -1    0    0  501  502  0.00000000000E+00  0.00000000000E+00  0.99888201349E+03  0.99888201349E+03  0.00000000000E+00 0.  1.
          4   -1    0    0  502    0 -0.00000000000E+00 -0.00000000000E+00 -0.47592689622E+03  0.47592689622E+03  0.00000000000E+00 0.  1.
    9000010    2    1    2  501    0 -0.73333711058E+02  0.39288391638E+02  0.73549502014E+03  0.12465664238E+04  0.10030221899E+04 0.  0.
        -13    1    3    3    0    0 -0.24805483030E+02 -0.46584822511E+03  0.51023861903E+03  0.69135616027E+03  0.10566000000E+00 0.  1.
          4    1    3    3  501    0 -0.48528228028E+02  0.50513661675E+03  0.22525640111E+03  0.55521026354E+03  0.00000000000E+00 0.  1.
         13    1    1    2    0    0  0.73333711058E+02 -0.39288391638E+02 -0.21253990287E+03  0.22824248591E+03  0.10566000000E+00 0. -1.
<mgrwt>
<rscale>  1 0.53966460E+03</rscale>
<asrwt>0</asrwt>
<pdfrwt beam="1">  1       21 0.15367416E+00 0.10064666E+04</pdfrwt>
<pdfrwt beam="2">  1        4 0.73219523E-01 0.10064666E+04</pdfrwt>
<totfact> 0.16982013E+01</totfact>
</mgrwt>
</event>
<event>
 6    1  0.1375310E-005  0.9978803E+03  0.7818608E-02  0.1011431E+00
          4   -1    0    0  502    0 -0.00000000000E+00  0.00000000000E+00  0.10904339994E+04  0.10904339994E+04  0.00000000000E+00 0.  1.
         21   -1    0    0  501  502  0.00000000000E+00 -0.00000000000E+00 -0.26030271497E+03  0.26030271497E+03  0.00000000000E+00 0.  1.
    9000010    2    1    2  501    0 -0.16376668079E+02  0.65590977961E+02  0.77412833941E+03  0.12629488299E+04  0.99558761010E+03 0.  0.
        -13    1    3    3    0    0  0.36106317016E+01 -0.25162977636E+03  0.88980246769E+03  0.92470483057E+03  0.10566000000E+00 0.  1.
          4    1    3    3  501    0 -0.19987299781E+02  0.31722075432E+03 -0.11567412828E+03  0.33824399932E+03  0.00000000000E+00 0.  1.
         13    1    1    2    0    0  0.16376668079E+02 -0.65590977961E+02  0.56002945016E+02  0.87787884482E+02  0.10566000000E+00 0. -1.
<mgrwt>
<rscale>  1 0.50909977E+03</rscale>
<asrwt>0</asrwt>
<pdfrwt beam="2">  1       21 0.40046572E-01 0.99788028E+03</pdfrwt>
<pdfrwt beam="1">  1        4 0.16775907E+00 0.99788028E+03</pdfrwt>
<totfact> 0.52977226E+01</totfact>
</mgrwt>
</event>
<event>
 6    1  0.1375310E-005  0.1019752E+04  0.7818608E-02  0.9722540E-01
         21   -1    0    0  501  502  0.00000000000E+00  0.00000000000E+00  0.34711487846E+03  0.34711487846E+03  0.00000000000E+00 0.  1.
          4   -1    0    0  502    0 -0.00000000000E+00 -0.00000000000E+00 -0.14042844320E+04  0.14042844320E+04  0.00000000000E+00 0.  1.
    9000010    2    1    2  501    0  0.21954987215E+03 -0.35734034245E+02 -0.46872900473E+03  0.11223195395E+04  0.99519606177E+03 0.  0.
        -13    1    3    3    0    0 -0.22078942893E+03 -0.46290205679E+02 -0.61749273804E+03  0.65741010622E+03  0.10566000000E+00 0.  1.
          4    1    3    3  501    0  0.44033930107E+03  0.10556171434E+02  0.14876373331E+03  0.46490943330E+03  0.00000000000E+00 0.  1.
         13    1    1    2    0    0 -0.21954987215E+03  0.35734034245E+02 -0.58844054882E+03  0.62907977096E+03  0.10566000000E+00 0. -1.
<mgrwt>
<rscale>  1 0.69690510E+03</rscale>
<asrwt>0</asrwt>
<pdfrwt beam="1">  1       21 0.53402288E-01 0.10197521E+04</pdfrwt>
<pdfrwt beam="2">  1        4 0.21604376E+00 0.10197521E+04</pdfrwt>
<totfact> 0.13444545E+01</totfact>
</mgrwt>
</event>
<event>
 6    1  0.1375310E-005  0.1008911E+04  0.7818608E-02  0.9684181E-01
          4   -1    0    0  502    0 -0.00000000000E+00  0.00000000000E+00  0.21762638392E+04  0.21762638392E+04  0.00000000000E+00 0.  1.
         21   -1    0    0  501  502  0.00000000000E+00 -0.00000000000E+00 -0.18576454860E+03  0.18576454860E+03  0.00000000000E+00 0. -1.
    9000010    2    1    2  501    0  0.21312224309E+03  0.15100055178E+03  0.16267924291E+04  0.19142505976E+04  0.97451500033E+03 0.  0.
        -13    1    3    3    0    0 -0.27139211641E+03 -0.22302744073E+03  0.88729090609E+03  0.95429559538E+03  0.10566000000E+00 0.  1.
          4    1    3    3  501    0  0.48451435951E+03  0.37402799250E+03  0.73950152302E+03  0.95995500222E+03  0.00000000000E+00 0.  1.
         13    1    1    2    0    0 -0.21312224309E+03 -0.15100055178E+03  0.36370686150E+03  0.44777779021E+03  0.10566000000E+00 0. -1.
<mgrwt>
<rscale>  1 0.71966523E+03</rscale>
<asrwt>0</asrwt>
<pdfrwt beam="2">  1       21 0.28579163E-01 0.10089112E+04</pdfrwt>
<pdfrwt beam="1">  1        4 0.33480980E+00 0.10089112E+04</pdfrwt>
<totfact> 0.90472397E+00</totfact>
</mgrwt>
</event>
<event>
 6    1  0.1375310E-005  0.1015270E+04  0.7818608E-02  0.9799711E-01
         21   -1    0    0  501  502  0.00000000000E+00  0.00000000000E+00  0.19522679558E+04  0.19522679558E+04  0.00000000000E+00 0.  1.
          4   -1    0    0  502    0 -0.00000000000E+00 -0.00000000000E+00 -0.18182965177E+03  0.18182965177E+03  0.00000000000E+00 0.  1.
    9000010    2    1    2  501    0 -0.15474173418E+03 -0.80817472832E+02  0.14677600580E+04  0.17846829542E+04  0.10001485844E+04 0.  0.
        -13    1    3    3    0    0  0.25739368826E+03 -0.35280157015E+03  0.10524442223E+04  0.11394557082E+04  0.10566000000E+00 0.  1.
          4    1    3    3  501    0 -0.41213542244E+03  0.27198409732E+03  0.41531583567E+03  0.64522724600E+03  0.00000000000E+00 0.  1.
         13    1    1    2    0    0  0.15474173418E+03  0.80817472832E+02  0.30267824599E+03  0.34941465335E+03  0.10566000000E+00 0. -1.
<mgrwt>
<rscale>  1 0.65378040E+03</rscale>
<asrwt>0</asrwt>
<pdfrwt beam="1">  1       21 0.30034890E+00 0.10152702E+04</pdfrwt>
<pdfrwt beam="2">  1        4 0.27973794E-01 0.10152702E+04</pdfrwt>
<totfact> 0.13055625E+01</totfact>
</mgrwt>
</event>
<event>
 6    1  0.1375310E-005  0.1095039E+04  0.7818608E-02  0.9465071E-01
          4   -1    0    0  502    0 -0.00000000000E+00  0.00000000000E+00  0.62841110569E+03  0.62841110569E+03  0.00000000000E+00 0.  1.
         21   -1    0    0  501  502  0.00000000000E+00 -0.00000000000E+00 -0.93386975341E+03  0.93386975341E+03  0.00000000000E+00 0.  1.
    9000010    2    1    2  501    0 -0.64885634532E+02 -0.42960182240E+03 -0.25962276241E+03  0.11253955069E+04  0.10051582945E+04 0.  0.
        -13    1    3    3    0    0 -0.29549449915E+03  0.96494798277E+02 -0.42600913891E+03  0.52736329292E+03  0.10566000000E+00 0.  1.
          4    1    3    3  501    0  0.23060886462E+03 -0.52609662067E+03  0.16638637650E+03  0.59803221402E+03  0.00000000000E+00 0.  1.
         13    1    1    2    0    0  0.64885634532E+02  0.42960182240E+03 -0.45835885307E+02  0.43688535215E+03  0.10566000000E+00 0. -1.
<mgrwt>
<rscale>  1 0.86908708E+03</rscale>
<asrwt>0</asrwt>
<pdfrwt beam="2">  1       21 0.14367227E+00 0.10950393E+04</pdfrwt>
<pdfrwt beam="1">  1        4 0.96678633E-01 0.10950393E+04</pdfrwt>
<totfact> 0.10631597E+01</totfact>
</mgrwt>
</event>
<event>
 6    1  0.1375310E-005  0.1154782E+04  0.7818608E-02  0.9351103E-01
          4   -1    0    0  502    0 -0.00000000000E+00  0.00000000000E+00  0.37921114437E+03  0.37921114437E+03  0.00000000000E+00 0.  1.
         21   -1    0    0  501  502  0.00000000000E+00 -0.00000000000E+00 -0.19542493215E+04  0.19542493215E+04  0.00000000000E+00 0. -1.
    9000010    2    1    2  501    0  0.21742223429E+03 -0.51218415531E+03 -0.11802259308E+04  0.16511982304E+04  0.10118879935E+04 0.  0.
        -13    1    3    3    0    0  0.12740250950E+03  0.21496510202E+03  0.13827708461E+02  0.25026508186E+03  0.10566000000E+00 0.  1.
          4    1    3    3  501    0  0.90019724792E+02 -0.72714925733E+03 -0.11940536393E+04  0.14009331486E+04  0.00000000000E+00 0.  1.
         13    1    1    2    0    0 -0.21742223429E+03  0.51218415531E+03 -0.39481224636E+03  0.68226223548E+03  0.10566000000E+00 0. -1.
<mgrwt>
<rscale>  1 0.96211307E+03</rscale>
<asrwt>0</asrwt>
<pdfrwt beam="2">  1       21 0.30065374E+00 0.11547824E+04</pdfrwt>
<pdfrwt beam="1">  1        4 0.58340176E-01 0.11547824E+04</pdfrwt>
<totfact> 0.28211481E+00</totfact>
</mgrwt>
</event>
<event>
 6    1  0.1375310E-005  0.1024951E+04  0.7818608E-02  0.9817800E-01
         21   -1    0    0  501  502  0.00000000000E+00  0.00000000000E+00  0.57380596963E+03  0.57380596963E+03  0.00000000000E+00 0.  1.
          4   -1    0    0  502    0 -0.00000000000E+00 -0.00000000000E+00 -0.61723218524E+03  0.61723218524E+03  0.00000000000E+00 0.  1.
    9000010    2    1    2  501    0  0.11063983148E+03 -0.11545047942E+03  0.14596281846E+01  0.10249516243E+04  0.10123999783E+04 0.  0.
        -13    1    3    3    0    0 -0.34116057881E+03  0.25898663453E+03  0.70569970175E+02  0.43410223364E+03  0.10566000000E+00 0.  1.
          4    1    3    3  501    0  0.45180041029E+03 -0.37443711395E+03 -0.69110341991E+02  0.59084939063E+03  0.00000000000E+00 0.  1.
         13    1    1    2    0    0 -0.11063983148E+03  0.11545047942E+03 -0.44885843798E+02  0.16608653060E+03  0.10566000000E+00 0. -1.
<mgrwt>
<rscale>  1 0.64415967E+03</rscale>
<asrwt>0</asrwt>
<pdfrwt beam="1">  1       21 0.88277842E-01 0.10249506E+04</pdfrwt>
<pdfrwt beam="2">  1        4 0.94958798E-01 0.10249506E+04</pdfrwt>
<totfact> 0.38925655E+01</totfact>
</mgrwt>
</event>
<event>
 6    1  0.1375310E-005  0.1100222E+04  0.7818608E-02  0.9446500E-01
          4   -1    0    0  502    0 -0.00000000000E+00  0.00000000000E+00  0.49163159510E+03  0.49163159510E+03  0.00000000000E+00 0.  1.
         21   -1    0    0  501  502  0.00000000000E+00 -0.00000000000E+00 -0.12353756249E+04  0.12353756249E+04  0.00000000000E+00 0. -1.
    9000010    2    1    2  501    0  0.43106934732E+03  0.15296502106E+03 -0.49659842825E+03  0.12071033448E+04  0.10006345019E+04 0.  0.
        -13    1    3    3    0    0  0.62855762224E+03  0.31320485771E+03 -0.63860746503E+02  0.70516676998E+03  0.10566000000E+00 0.  1.
          4    1    3    3  501    0 -0.19748827493E+03 -0.16023983665E+03 -0.43273768175E+03  0.50193657487E+03  0.00000000000E+00 0.  1.
         13    1    1    2    0    0 -0.43106934732E+03 -0.15296502106E+03 -0.24714560154E+03  0.51990387514E+03  0.10566000000E+00 0. -1.
<mgrwt>
<rscale>  1 0.88345710E+03</rscale>
<asrwt>0</asrwt>
<pdfrwt beam="2">  1       21 0.19005779E+00 0.11002220E+04</pdfrwt>
<pdfrwt beam="1">  1        4 0.75635631E-01 0.11002220E+04</pdfrwt>
<totfact> 0.83436401E+00</totfact>
</mgrwt>
</event>
<event>
 6    1  0.1375310E-005  0.1050937E+04  0.7818608E-02  0.9627243E-01
         21   -1    0    0  501  502  0.00000000000E+00  0.00000000000E+00  0.21938653176E+04  0.21938653176E+04  0.00000000000E+00 0.  1.
          4   -1    0    0  502    0 -0.00000000000E+00 -0.00000000000E+00 -0.20256317920E+03  0.20256317920E+03  0.00000000000E+00 0.  1.
    9000010    2    1    2  501    0  0.27493375121E+03 -0.54155302483E+02  0.15153502849E+04  0.18441137837E+04  0.10128908119E+04 0.  0.
        -13    1    3    3    0    0  0.62591178112E+03  0.13699631859E+03  0.10565962664E+04  0.12356897792E+04  0.10566000000E+00 0.  1.
          4    1    3    3  501    0 -0.35097802991E+03 -0.19115162107E+03  0.45875401853E+03  0.60842400449E+03  0.00000000000E+00 0.  1.
         13    1    1    2    0    0 -0.27493375121E+03  0.54155302483E+02  0.47595185345E+03  0.55231471310E+03  0.10566000000E+00 0. -1.
<mgrwt>
<rscale>  1 0.75518984E+03</rscale>
<asrwt>0</asrwt>
<pdfrwt beam="1">  1       21 0.33751773E+00 0.10509373E+04</pdfrwt>
<pdfrwt beam="2">  1        4 0.31163567E-01 0.10509373E+04</pdfrwt>
<totfact> 0.61574866E+00</totfact>
</mgrwt>
</event>
<event>
 6    1  0.1375310E-005  0.9938405E+03  0.7818608E-02  0.9811732E-01
         21   -1    0    0  501  502  0.00000000000E+00  0.00000000000E+00  0.16755808006E+03  0.16755808006E+03  0.00000000000E+00 0.  1.
          4   -1    0    0  502    0 -0.00000000000E+00 -0.00000000000E+00 -0.25233647643E+04  0.25233647643E+04  0.00000000000E+00 0.  1.
    9000010    2    1    2  501    0  0.10064086451E+03 -0.14792886208E+03 -0.13903783132E+04  0.17090554996E+04  0.97760284123E+03 0.  0.
        -13    1    3    3    0    0  0.47634455862E+03 -0.25031550655E+03 -0.48878052307E+03  0.72695832221E+03  0.10566000000E+00 0.  1.
          4    1    3    3  501    0 -0.37570369411E+03  0.10238664447E+03 -0.90159779014E+03  0.98209717743E+03  0.00000000000E+00 0.  1.
         13    1    1    2    0    0 -0.10064086451E+03  0.14792886208E+03 -0.96542837100E+03  0.98186734467E+03  0.10566000000E+00 0. -1.
<mgrwt>
<rscale>  1 0.64736740E+03</rscale>
<asrwt>0</asrwt>
<pdfrwt beam="1">  1       21 0.25778166E-01 0.99384045E+03</pdfrwt>
<pdfrwt beam="2">  1        4 0.38820996E+00 0.99384045E+03</pdfrwt>
<totfact> 0.49654506E+00</totfact>
</mgrwt>
</event>
<event>
 6    1  0.1375310E-005  0.1034758E+04  0.7818608E-02  0.9815813E-01
         21   -1    0    0  501  502  0.00000000000E+00  0.00000000000E+00  0.93200048658E+03  0.93200048658E+03  0.00000000000E+00 0.  1.
          4   -1    0    0  502    0 -0.00000000000E+00 -0.00000000000E+00 -0.43995277768E+03  0.43995277768E+03  0.00000000000E+00 0.  1.
    9000010    2    1    2  501    0 -0.13426448238E+03 -0.80243846736E+02  0.21960914738E+03  0.10578055170E+04  0.10228676884E+04 0.  0.
        -13    1    3    3    0    0 -0.84538177144E+02 -0.31038394837E+03  0.55887298653E+03  0.64484410910E+03  0.10566000000E+00 0.  1.
          4    1    3    3  501    0 -0.49726305241E+02  0.23014010164E+03 -0.33926383916E+03  0.41296140785E+03  0.00000000000E+00 0.  1.
         13    1    1    2    0    0  0.13426448238E+03  0.80243846736E+02  0.27243856152E+03  0.31414774730E+03  0.10566000000E+00 0. -1.
<mgrwt>
<rscale>  1 0.64520784E+03</rscale>
<asrwt>0</asrwt>
<pdfrwt beam="1">  1       21 0.14338469E+00 0.10347581E+04</pdfrwt>
<pdfrwt beam="2">  1        4 0.67685043E-01 0.10347581E+04</pdfrwt>
<totfact> 0.24481061E+01</totfact>
</mgrwt>
</event>
<event>
 6    1  0.1375310E-005  0.1003125E+04  0.7818608E-02  0.9810417E-01
         21   -1    0    0  501  502  0.00000000000E+00  0.00000000000E+00  0.73140033393E+03  0.73140033393E+03  0.00000000000E+00 0.  1.
          4   -1    0    0  502    0 -0.00000000000E+00 -0.00000000000E+00 -0.52273420240E+03  0.52273420240E+03  0.00000000000E+00 0.  1.
    9000010    2    1    2  501    0 -0.16109059880E+03 -0.67722137789E+02  0.31273778820E+03  0.10507447877E+04  0.98778702953E+03 0.  0.
        -13    1    3    3    0    0 -0.47633328350E+03 -0.85723256032E+02  0.48992475910E+03  0.68867129629E+03  0.10566000000E+00 0.  1.
          4    1    3    3  501    0  0.31524268470E+03  0.18001118242E+02 -0.17718697090E+03  0.36207349140E+03  0.00000000000E+00 0.  1.
         13    1    1    2    0    0  0.16109059880E+03  0.67722137789E+02 -0.10407165666E+03  0.20338974864E+03  0.10566000000E+00 0. -1.
<mgrwt>
<rscale>  1 0.64806512E+03</rscale>
<asrwt>0</asrwt>
<pdfrwt beam="1">  1       21 0.11252313E+00 0.10031250E+04</pdfrwt>
<pdfrwt beam="2">  1        4 0.80420647E-01 0.10031250E+04</pdfrwt>
<totfact> 0.31538592E+01</totfact>
</mgrwt>
</event>
<event>
 6    1  0.1375310E-005  0.7644543E+03  0.7818608E-02  0.1015508E+00
         21   -1    0    0  501  502  0.00000000000E+00  0.00000000000E+00  0.34341547304E+03  0.34341547304E+03  0.00000000000E+00 0.  1.
          4   -1    0    0  502    0 -0.00000000000E+00 -0.00000000000E+00 -0.68380624816E+03  0.68380624816E+03  0.00000000000E+00 0.  1.
    9000010    2    1    2  501    0  0.21147681315E+02 -0.13099869938E+03 -0.12553564303E+03  0.77469326218E+03  0.75284963249E+03 0.  0.
        -13    1    3    3    0    0  0.31019384367E+03 -0.29737796007E+02  0.16494564169E+03  0.35257854875E+03  0.10566000000E+00 0.  1.
          4    1    3    3  501    0 -0.28904616236E+03 -0.10126090338E+03 -0.29048128471E+03  0.42211471343E+03  0.00000000000E+00 0.  1.
         13    1    1    2    0    0 -0.21147681315E+02  0.13099869938E+03 -0.21485513210E+03  0.25252845902E+03  0.10566000000E+00 0. -1.
<mgrwt>
<rscale>  1 0.49343176E+03</rscale>
<asrwt>0</asrwt>
<pdfrwt beam="1">  1       21 0.52833150E-01 0.76445435E+03</pdfrwt>
<pdfrwt beam="2">  1        4 0.10520096E+00 0.76445435E+03</pdfrwt>
<totfact> 0.10019515E+02</totfact>
</mgrwt>
</event>
<event>
 6    1  0.1375310E-005  0.1033429E+04  0.7818608E-02  0.9901228E-01
         21   -1    0    0  501  502  0.00000000000E+00  0.00000000000E+00  0.87182715658E+03  0.87182715658E+03  0.00000000000E+00 0.  1.
          4   -1    0    0  502    0 -0.00000000000E+00 -0.00000000000E+00 -0.38690096589E+03  0.38690096589E+03  0.00000000000E+00 0.  1.
    9000010    2    1    2  501    0  0.51037653856E+02 -0.10751410429E+03  0.38327968757E+03  0.11022156709E+04  0.10265534285E+04 0.  0.
        -13    1    3    3    0    0  0.40148582460E+03  0.27052309033E+03  0.46240288053E+02  0.48632477333E+03  0.10566000000E+00 0.  1.
          4    1    3    3  501    0 -0.35044817074E+03 -0.37803719462E+03  0.33703939951E+03  0.61589089758E+03  0.00000000000E+00 0.  1.
         13    1    1    2    0    0 -0.51037653856E+02  0.10751410429E+03  0.10164650312E+03  0.15651245156E+03  0.10566000000E+00 0. -1.
<mgrwt>
<rscale>  1 0.60201787E+03</rscale>
<asrwt>0</asrwt>
<pdfrwt beam="1">  1       21 0.13412725E+00 0.10334293E+04</pdfrwt>
<pdfrwt beam="2">  1        4 0.59523226E-01 0.10334293E+04</pdfrwt>
<totfact> 0.38947664E+01</totfact>
</mgrwt>
</event>
<event>
 6    1  0.1375310E-005  0.9668789E+03  0.7818608E-02  0.9588994E-01
          4   -1    0    0  502    0 -0.00000000000E+00  0.00000000000E+00  0.39213244351E+03  0.39213244351E+03  0.00000000000E+00 0.  1.
         21   -1    0    0  501  502  0.00000000000E+00 -0.00000000000E+00 -0.12119873925E+04  0.12119873925E+04  0.00000000000E+00 0.  1.
    9000010    2    1    2  501    0 -0.73058225005E+02  0.40355568196E+03 -0.61259176914E+03  0.11446062567E+04  0.87559129427E+03 0.  0.
        -13    1    3    3    0    0  0.40141375514E+03  0.19834308769E+03 -0.24603900853E+03  0.51088960464E+03  0.10566000000E+00 0.  1.
          4    1    3    3  501    0 -0.47447198015E+03  0.20521259427E+03 -0.36655276061E+03  0.63371665206E+03  0.00000000000E+00 0.  1.
         13    1    1    2    0    0  0.73058225005E+02 -0.40355568196E+03 -0.20726317984E+03  0.45951357930E+03  0.10566000000E+00 0. -1.
<mgrwt>
<rscale>  1 0.78028921E+03</rscale>
<asrwt>0</asrwt>
<pdfrwt beam="2">  1       21 0.18645960E+00 0.96687890E+03</pdfrwt>
<pdfrwt beam="1">  1        4 0.60328068E-01 0.96687890E+03</pdfrwt>
<totfact> 0.14884682E+01</totfact>
</mgrwt>
</event>
<event>
 6    1  0.1375310E-005  0.1010548E+04  0.7818608E-02  0.1013492E+00
          4   -1    0    0  502    0 -0.00000000000E+00  0.00000000000E+00  0.13283050405E+04  0.13283050405E+04  0.00000000000E+00 0.  1.
         21   -1    0    0  501  502  0.00000000000E+00 -0.00000000000E+00 -0.25421415162E+03  0.25421415162E+03  0.00000000000E+00 0.  1.
    9000010    2    1    2  501    0 -0.21791262085E+02  0.57080991191E+02  0.76501040247E+03  0.12674575205E+04  0.10086994358E+04 0.  0.
        -13    1    3    3    0    0  0.32271904549E+03 -0.34655111606E+03  0.29027387000E+03  0.55543153416E+03  0.10566000000E+00 0.  1.
          4    1    3    3  501    0 -0.34451030758E+03  0.40363210725E+03  0.47473653247E+03  0.71202598639E+03  0.00000000000E+00 0.  1.
         13    1    1    2    0    0  0.21791262085E+02 -0.57080991191E+02  0.30908048636E+03  0.31506167154E+03  0.10566000000E+00 0. -1.
<mgrwt>
<rscale>  1 0.50110256E+03</rscale>
<asrwt>0</asrwt>
<pdfrwt beam="2">  1       21 0.39109870E-01 0.10105482E+04</pdfrwt>
<pdfrwt beam="1">  1        4 0.20435462E+00 0.10105482E+04</pdfrwt>
<totfact> 0.31161236E+01</totfact>
</mgrwt>
</event>
<event>
 6    1  0.1375310E-005  0.1011490E+04  0.7818608E-02  0.9689509E-01
          4   -1    0    0  502    0 -0.00000000000E+00  0.00000000000E+00  0.16834263637E+04  0.16834263637E+04  0.00000000000E+00 0.  1.
         21   -1    0    0  501  502  0.00000000000E+00 -0.00000000000E+00 -0.65007049956E+03  0.65007049956E+03  0.00000000000E+00 0.  1.
    9000010    2    1    2  501    0 -0.11991421411E+03  0.22459136101E+03 -0.23616846749E+03  0.10386946630E+04  0.97892306114E+03 0.  0.
        -13    1    3    3    0    0  0.37474962828E+03 -0.12862411474E+03 -0.32020911507E+02  0.39750068771E+03  0.10566000000E+00 0.  1.
          4    1    3    3  501    0 -0.49466384239E+03  0.35321547575E+03 -0.20414755598E+03  0.64119397525E+03  0.00000000000E+00 0.  1.
         13    1    1    2    0    0  0.11991421411E+03 -0.22459136101E+03  0.12695243316E+04  0.12948022003E+04  0.10566000000E+00 0. -1.
<mgrwt>
<rscale>  1 0.71644897E+03</rscale>
<asrwt>0</asrwt>
<pdfrwt beam="2">  1       21 0.10001085E+00 0.10114895E+04</pdfrwt>
<pdfrwt beam="1">  1        4 0.25898867E+00 0.10114895E+04</pdfrwt>
<totfact> 0.16921096E+00</totfact>
</mgrwt>
</event>
<event>
 6    1  0.1375310E-005  0.1009058E+04  0.7818608E-02  0.9870843E-01
         21   -1    0    0  501  502  0.00000000000E+00  0.00000000000E+00  0.40194684295E+03  0.40194684295E+03  0.00000000000E+00 0.  1.
          4   -1    0    0  502    0 -0.00000000000E+00 -0.00000000000E+00 -0.82504887221E+03  0.82504887221E+03  0.00000000000E+00 0.  1.
    9000010    2    1    2  501    0  0.83643021821E+02 -0.11352888581E+03 -0.39245115445E+03  0.10826889229E+04  0.99915585973E+03 0.  0.
        -13    1    3    3    0    0 -0.29795411616E+03  0.26828719349E+03 -0.36496427748E+03  0.54217488740E+03  0.10566000000E+00 0.  1.
          4    1    3    3  501    0  0.38159713798E+03 -0.38181607930E+03 -0.27486876978E+02  0.54051403546E+03  0.00000000000E+00 0.  1.
         13    1    1    2    0    0 -0.83643021821E+02  0.11352888581E+03 -0.30650874810E+02  0.14430679230E+03  0.10566000000E+00 0. -1.
<mgrwt>
<rscale>  1 0.61695385E+03</rscale>
<asrwt>0</asrwt>
<pdfrwt beam="1">  1       21 0.61837976E-01 0.10090577E+04</pdfrwt>
<pdfrwt beam="2">  1        4 0.12693060E+00 0.10090577E+04</pdfrwt>
<totfact> 0.43510747E+01</totfact>
</mgrwt>
</event>
<event>
 6    1  0.1375310E-005  0.1022756E+04  0.7818608E-02  0.9728555E-01
          4   -1    0    0  502    0 -0.00000000000E+00  0.00000000000E+00  0.26249340930E+03  0.26249340930E+03  0.00000000000E+00 0.  1.
         21   -1    0    0  501  502  0.00000000000E+00 -0.00000000000E+00 -0.16621200977E+04  0.16621200977E+04  0.00000000000E+00 0.  1.
    9000010    2    1    2  501    0 -0.18740490153E+03  0.10761349277E+03 -0.13651529337E+04  0.17057763258E+04  0.99966448384E+03 0.  0.
        -13    1    3    3    0    0 -0.58621060319E+03 -0.42637294099E+01 -0.96959711448E+03  0.11330399932E+04  0.10566000000E+00 0.  1.
          4    1    3    3  501    0  0.39880570165E+03  0.11187722218E+03 -0.39555581925E+03  0.57273633258E+03  0.00000000000E+00 0.  1.
         13    1    1    2    0    0  0.18740490153E+03 -0.10761349277E+03 -0.34473754647E+02  0.21883718118E+03  0.10566000000E+00 0. -1.
<mgrwt>
<rscale>  1 0.69341813E+03</rscale>
<asrwt>0</asrwt>
<pdfrwt beam="2">  1       21 0.25571078E+00 0.10227562E+04</pdfrwt>
<pdfrwt beam="1">  1        4 0.40383602E-01 0.10227562E+04</pdfrwt>
<totfact> 0.11947327E+01</totfact>
</mgrwt>
</event>
<event>
 6    1  0.1375310E-005  0.1030245E+04  0.7818608E-02  0.9699365E-01
          4   -1    0    0  502    0 -0.00000000000E+00  0.00000000000E+00  0.56604902805E+03  0.56604902805E+03  0.00000000000E+00 0.  1.
         21   -1    0    0  501  502  0.00000000000E+00 -0.00000000000E+00 -0.72385258005E+03  0.72385258005E+03  0.00000000000E+00 0.  1.
    9000010    2    1    2  501    0  0.22923070867E+03  0.42311404124E+02 -0.45738112288E+02  0.10312596806E+04  0.10035275687E+04 0.  0.
        -13    1    3    3    0    0  0.45990282476E+03  0.39428053177E+03  0.15662222201E+02  0.60598107423E+03  0.10566000000E+00 0.  1.
          4    1    3    3  501    0 -0.23067211609E+03 -0.35196912765E+03 -0.61400334489E+02  0.42527860637E+03  0.00000000000E+00 0.  1.
         13    1    1    2    0    0 -0.22923070867E+03 -0.42311404124E+02 -0.11206543971E+03  0.25864192750E+03  0.10566000000E+00 0. -1.
<mgrwt>
<rscale>  1 0.71054625E+03</rscale>
<asrwt>0</asrwt>
<pdfrwt beam="2">  1       21 0.11136194E+00 0.10302449E+04</pdfrwt>
<pdfrwt beam="1">  1        4 0.87084466E-01 0.10302449E+04</pdfrwt>
<totfact> 0.26855491E+01</totfact>
</mgrwt>
</event>
<event>
 6    1  0.1375310E-005  0.1229044E+04  0.7818608E-02  0.9235274E-01
         21   -1    0    0  501  502  0.00000000000E+00  0.00000000000E+00  0.34378480747E+03  0.34378480747E+03  0.00000000000E+00 0. -1.
          4   -1    0    0  502    0 -0.00000000000E+00 -0.00000000000E+00 -0.28063190130E+04  0.28063190130E+04  0.00000000000E+00 0.  1.
    9000010    2    1    2  501    0 -0.30189160670E+03  0.63726978896E+03 -0.18199362290E+04  0.21960684455E+04  0.10066267499E+04 0.  0.
        -13    1    3    3    0    0  0.23804738910E+03  0.47086388809E+03 -0.13879330604E+04  0.14848358670E+04  0.10566000000E+00 0.  1.
          4    1    3    3  501    0 -0.53993899581E+03  0.16640590087E+03 -0.43200316857E+03  0.71123257848E+03  0.00000000000E+00 0.  1.
         13    1    1    2    0    0  0.30189160670E+03 -0.63726978896E+03 -0.64259797658E+03  0.95403537502E+03  0.10566000000E+00 0. -1.
<mgrwt>
<rscale>  1 0.10696645E+04</rscale>
<asrwt>0</asrwt>
<pdfrwt beam="1">  1       21 0.52889969E-01 0.12290438E+04</pdfrwt>
<pdfrwt beam="2">  1        4 0.43174139E+00 0.12290438E+04</pdfrwt>
<totfact> 0.53087157E-01</totfact>
</mgrwt>
</event>
<event>
 6    1  0.1375310E-005  0.1050065E+04  0.7818608E-02  0.9580390E-01
          4   -1    0    0  502    0 -0.00000000000E+00  0.00000000000E+00  0.10580531071E+04  0.10580531071E+04  0.00000000000E+00 0.  1.
         21   -1    0    0  501  502  0.00000000000E+00 -0.00000000000E+00 -0.44988840494E+03  0.44988840494E+03  0.00000000000E+00 0.  1.
    9000010    2    1    2  501    0  0.39300484232E+02  0.32742138909E+03  0.46681404356E+03  0.11491528362E+04  0.99693911326E+03 0.  0.
        -13    1    3    3    0    0  0.93679704170E+02 -0.32817069351E+03 -0.21104917012E+01  0.34128632611E+03  0.10566000000E+00 0.  1.
          4    1    3    3  501    0 -0.54379219937E+02  0.65559208260E+03  0.46892453527E+03  0.80786651007E+03  0.00000000000E+00 0.  1.
         13    1    1    2    0    0 -0.39300484232E+02 -0.32742138909E+03  0.14135065864E+03  0.35878867590E+03  0.10566000000E+00 0. -1.
<mgrwt>
<rscale>  1 0.78607785E+03</rscale>
<asrwt>0</asrwt>
<pdfrwt beam="2">  1       21 0.69213601E-01 0.10500652E+04</pdfrwt>
<pdfrwt beam="1">  1        4 0.16277740E+00 0.10500652E+04</pdfrwt>
<totfact> 0.17354015E+01</totfact>
</mgrwt>
</event>
<event>
 6    1  0.1375310E-005  0.1003479E+04  0.7818608E-02  0.9768498E-01
         21   -1    0    0  501  502  0.00000000000E+00  0.00000000000E+00  0.87505445518E+03  0.87505445518E+03  0.00000000000E+00 0.  1.
          4   -1    0    0  502    0 -0.00000000000E+00 -0.00000000000E+00 -0.51057795067E+03  0.51057795067E+03  0.00000000000E+00 0.  1.
    9000010    2    1    2  501    0 -0.20036554421E+03  0.29409758238E+01  0.52164173860E+03  0.11309641459E+04  0.98326740781E+03 0.  0.
        -13    1    3    3    0    0 -0.28100230728E+01 -0.47993467963E+03  0.21605358722E+03  0.52633103334E+03  0.10566000000E+00 0.  1.
          4    1    3    3  501    0 -0.19755552114E+03  0.48287565546E+03  0.30558815138E+03  0.60463311258E+03  0.00000000000E+00 0.  1.
         13    1    1    2    0    0  0.20036554421E+03 -0.29409758238E+01 -0.15716523409E+03  0.25466825993E+03  0.10566000000E+00 0. -1.
<mgrwt>
<rscale>  1 0.67080862E+03</rscale>
<asrwt>0</asrwt>
<pdfrwt beam="1">  1       21 0.13462376E+00 0.10034788E+04</pdfrwt>
<pdfrwt beam="2">  1        4 0.78550454E-01 0.10034788E+04</pdfrwt>
<totfact> 0.20830487E+01</totfact>
</mgrwt>
</event>
<event>
 6    1  0.1375310E-005  0.1093247E+04  0.7818608E-02  0.9452844E-01
         21   -1    0    0  501  502  0.00000000000E+00  0.00000000000E+00  0.85462223927E+03  0.85462223927E+03  0.00000000000E+00 0.  1.
          4   -1    0    0  502    0 -0.00000000000E+00 -0.00000000000E+00 -0.73860053430E+03  0.73860053430E+03  0.00000000000E+00 0.  1.
    9000010    2    1    2  501    0 -0.14806068789E+03  0.43115785465E+03  0.24314384255E+03  0.11199584585E+04  0.99366440894E+03 0.  0.
        -13    1    3    3    0    0 -0.10460974643E+03  0.51013447220E+03 -0.27852703094E+03  0.59055710723E+03  0.10566000000E+00 0.  1.
          4    1    3    3  501    0 -0.43450941459E+02 -0.78976617551E+02  0.52167087349E+03  0.52940135123E+03  0.00000000000E+00 0.  1.
         13    1    1    2    0    0  0.14806068789E+03 -0.43115785465E+03 -0.12712213758E+03  0.47326431510E+03  0.10566000000E+00 0. -1.
<mgrwt>
<rscale>  1 0.87851516E+03</rscale>
<asrwt>0</asrwt>
<pdfrwt beam="1">  1       21 0.13148035E+00 0.10932466E+04</pdfrwt>
<pdfrwt beam="2">  1        4 0.11363085E+00 0.10932466E+04</pdfrwt>
<totfact> 0.91166219E+00</totfact>
</mgrwt>
</event>
<event>
 6    1  0.1375310E-005  0.1607435E+04  0.7818608E-02  0.8876248E-01
          4   -1    0    0  502    0 -0.00000000000E+00  0.00000000000E+00  0.12731426651E+04  0.12731426651E+04  0.00000000000E+00 0.  1.
         21   -1    0    0  501  502  0.00000000000E+00 -0.00000000000E+00 -0.18925817169E+04  0.18925817169E+04  0.00000000000E+00 0. -1.
    9000010    2    1    2  501    0  0.37535788127E+03 -0.12024797924E+04 -0.94499349930E+03  0.18646337243E+04  0.99849638044E+03 0.  0.
        -13    1    3    3    0    0 -0.33649082597E+03 -0.25765758782E+03 -0.22595193104E+03  0.48027887194E+03  0.10566000000E+00 0.  1.
          4    1    3    3  501    0  0.71184870724E+03 -0.94482220460E+03 -0.71904156826E+03  0.13843548523E+04  0.00000000000E+00 0.  1.
         13    1    1    2    0    0 -0.37535788127E+03  0.12024797924E+04  0.32555444756E+03  0.13010906578E+04  0.10566000000E+00 0. -1.
<mgrwt>
<rscale>  1 0.15124012E+04</rscale>
<asrwt>0</asrwt>
<pdfrwt beam="2">  1       21 0.29116642E+00 0.16074347E+04</pdfrwt>
<pdfrwt beam="1">  1        4 0.19586810E+00 0.16074347E+04</pdfrwt>
<totfact> 0.14567447E-01</totfact>
</mgrwt>
</event>
<event>
 6    1  0.1375310E-005  0.1004985E+04  0.7818608E-02  0.9699061E-01
          4   -1    0    0  502    0 -0.00000000000E+00  0.00000000000E+00  0.16999907988E+04  0.16999907988E+04  0.00000000000E+00 0.  1.
         21   -1    0    0  501  502  0.00000000000E+00 -0.00000000000E+00 -0.24253373049E+03  0.24253373049E+03  0.00000000000E+00 0.  1.
    9000010    2    1    2  501    0 -0.75152209801E+02 -0.23988464237E+03  0.98418012177E+03  0.14066294131E+04  0.97303817879E+03 0.  0.
        -13    1    3    3    0    0 -0.51849639888E+03 -0.18729488109E+03  0.62689423617E+03  0.83481392096E+03  0.10566000000E+00 0.  1.
          4    1    3    3  501    0  0.44334418908E+03 -0.52589761286E+02  0.35728588560E+03  0.57181549212E+03  0.00000000000E+00 0.  1.
         13    1    1    2    0    0  0.75152209801E+02  0.23988464237E+03  0.47327694653E+03  0.53589511620E+03  0.10566000000E+00 0. -1.
<mgrwt>
<rscale>  1 0.71072736E+03</rscale>
<asrwt>0</asrwt>
<pdfrwt beam="2">  1       21 0.37312883E-01 0.10049855E+04</pdfrwt>
<pdfrwt beam="1">  1        4 0.26153704E+00 0.10049855E+04</pdfrwt>
<totfact> 0.14991225E+01</totfact>
</mgrwt>
</event>
<event>
 6    1  0.1375310E-005  0.1047736E+04  0.7818608E-02  0.9599330E-01
          4   -1    0    0  502    0 -0.00000000000E+00  0.00000000000E+00  0.89982040363E+03  0.89982040363E+03  0.00000000000E+00 0.  1.
         21   -1    0    0  501  502  0.00000000000E+00 -0.00000000000E+00 -0.51317345268E+03  0.51317345268E+03  0.00000000000E+00 0.  1.
    9000010    2    1    2  501    0  0.80325880435E+02 -0.30053036636E+03  0.30943197368E+03  0.10924741033E+04  0.10004902658E+04 0.  0.
        -13    1    3    3    0    0  0.50056750296E+01 -0.57288427170E+03 -0.11329210341E+03  0.58400047722E+03  0.10566000000E+00 0.  1.
          4    1    3    3  501    0  0.75320205405E+02  0.27235390534E+03  0.42272407709E+03  0.50847362611E+03  0.00000000000E+00 0.  1.
         13    1    1    2    0    0 -0.80325880435E+02  0.30053036636E+03  0.77214977261E+02  0.32051975297E+03  0.10566000000E+00 0. -1.
<mgrwt>
<rscale>  1 0.77340521E+03</rscale>
<asrwt>0</asrwt>
<pdfrwt beam="2">  1       21 0.78949762E-01 0.10477364E+04</pdfrwt>
<pdfrwt beam="1">  1        4 0.13843391E+00 0.10477364E+04</pdfrwt>
<totfact> 0.19793504E+01</totfact>
</mgrwt>
</event>
<event>
 6    1  0.1375310E-005  0.1054133E+04  0.7818608E-02  0.9639821E-01
         21   -1    0    0  501  502  0.00000000000E+00  0.00000000000E+00  0.33939788080E+03  0.33939788080E+03  0.00000000000E+00 0.  1.
          4   -1    0    0  502    0 -0.00000000000E+00 -0.00000000000E+00 -0.16420746469E+04  0.16420746469E+04  0.00000000000E+00 0.  1.
    9000010    2    1    2  501    0  0.75911589865E+02 -0.25498944047E+03 -0.56226576044E+03  0.11947129376E+04  0.10200068792E+04 0.  0.
        -13    1    3    3    0    0  0.28950283696E+03 -0.55744189031E+03 -0.16043397302E+03  0.64829964101E+03  0.10566000000E+00 0.  1.
          4    1    3    3  501    0 -0.21359124709E+03  0.30245244984E+03 -0.40183178742E+03  0.54641329654E+03  0.00000000000E+00 0.  1.
         13    1    1    2    0    0 -0.75911589865E+02  0.25498944047E+03 -0.74041100568E+03  0.78675959017E+03  0.10566000000E+00 0. -1.
<mgrwt>
<rscale>  1 0.74715729E+03</rscale>
<asrwt>0</asrwt>
<pdfrwt beam="1">  1       21 0.52215058E-01 0.10541329E+04</pdfrwt>
<pdfrwt beam="2">  1        4 0.25262687E+00 0.10541329E+04</pdfrwt>
<totfact> 0.82841155E+00</totfact>
</mgrwt>
</event>
<event>
 6    1  0.1375310E-005  0.1054214E+04  0.7818608E-02  0.9761453E-01
         21   -1    0    0  501  502  0.00000000000E+00  0.00000000000E+00  0.86487414673E+03  0.86487414673E+03  0.00000000000E+00 0.  1.
          4   -1    0    0  502    0 -0.00000000000E+00 -0.00000000000E+00 -0.84514235166E+03  0.84514235166E+03  0.00000000000E+00 0.  1.
    9000010    2    1    2  501    0  0.45451829425E+02  0.17096233552E+03  0.52281732382E+03  0.11767351005E+04  0.10392658724E+04 0.  0.
        -13    1    3    3    0    0 -0.48546261808E+03 -0.22751530078E+01  0.32526542136E+03  0.58436010761E+03  0.10566000000E+00 0.  1.
          4    1    3    3  501    0  0.53091444750E+03  0.17323748853E+03  0.19755190246E+03  0.59237499286E+03  0.00000000000E+00 0.  1.
         13    1    1    2    0    0 -0.45451829425E+02 -0.17096233552E+03 -0.50308552875E+03  0.53328139792E+03  0.10566000000E+00 0. -1.
<mgrwt>
<rscale>  1 0.67472884E+03</rscale>
<asrwt>0</asrwt>
<pdfrwt beam="1">  1       21 0.13305756E+00 0.10542142E+04</pdfrwt>
<pdfrwt beam="2">  1        4 0.13002190E+00 0.10542142E+04</pdfrwt>
<totfact> 0.63096388E+00</totfact>
</mgrwt>
</event>
<event>
 6    1  0.1375310E-005  0.1050299E+04  0.7818608E-02  0.9600239E-01
         21   -1    0    0  501  502  0.00000000000E+00  0.00000000000E+00  0.42244909025E+03  0.42244909025E+03  0.00000000000E+00 0.  1.
          4   -1    0    0  502    0 -0.00000000000E+00 -0.00000000000E+00 -0.11525621997E+04  0.11525621997E+04  0.00000000000E+00 0.  1.
    9000010    2    1    2  501    0  0.30251103516E+03  0.57079321972E+02 -0.70743001392E+03  0.12663277799E+04  0.10041702277E+04 0.  0.
        -13    1    3    3    0    0  0.35566021909E+03 -0.17548722668E+03  0.11262322354E+03  0.41227898299E+03  0.10566000000E+00 0.  1.
          4    1    3    3  501    0 -0.53149183935E+02  0.23256654865E+03 -0.82005323746E+03  0.85404879695E+03  0.00000000000E+00 0.  1.
         13    1    1    2    0    0 -0.30251103516E+03 -0.57079321972E+02 -0.22683095585E+02  0.30868351005E+03  0.10566000000E+00 0. -1.
<mgrwt>
<rscale>  1 0.77280392E+03</rscale>
<asrwt>0</asrwt>
<pdfrwt beam="1">  1       21 0.64992167E-01 0.10502994E+04</pdfrwt>
<pdfrwt beam="2">  1        4 0.17731726E+00 0.10502994E+04</pdfrwt>
<totfact> 0.15730777E+01</totfact>
</mgrwt>
</event>
<event>
 6    1  0.1375310E-005  0.1014934E+04  0.7818608E-02  0.9821571E-01
          4   -1    0    0  502    0 -0.00000000000E+00  0.00000000000E+00  0.32948544637E+03  0.32948544637E+03  0.00000000000E+00 0.  1.
         21   -1    0    0  501  502  0.00000000000E+00 -0.00000000000E+00 -0.11955282691E+04  0.11955282691E+04  0.00000000000E+00 0.  1.
    9000010    2    1    2  501    0 -0.15411440373E+03 -0.52056348815E+02 -0.90266958904E+03  0.13582724666E+04  0.10018136522E+04 0.  0.
        -13    1    3    3    0    0  0.15485596218E+03  0.34035600363E+03 -0.74660077402E+03  0.83500617073E+03  0.10566000000E+00 0.  1.
          4    1    3    3  501    0 -0.30897036591E+03 -0.39241235244E+03 -0.15606881502E+03  0.52326629586E+03  0.00000000000E+00 0.  1.
         13    1    1    2    0    0  0.15411440373E+03  0.52056348815E+02  0.36626766339E+02  0.16674124884E+03  0.10566000000E+00 0. -1.
<mgrwt>
<rscale>  1 0.64217663E+03</rscale>
<asrwt>0</asrwt>
<pdfrwt beam="2">  1       21 0.18392742E+00 0.10149343E+04</pdfrwt>
<pdfrwt beam="1">  1        4 0.50690070E-01 0.10149343E+04</pdfrwt>
<totfact> 0.22415858E+01</totfact>
</mgrwt>
</event>
<event>
 6    1  0.1375310E-005  0.1074770E+04  0.7818608E-02  0.9502597E-01
          4   -1    0    0  502    0 -0.00000000000E+00  0.00000000000E+00  0.10169956870E+04  0.10169956870E+04  0.00000000000E+00 0.  1.
         21   -1    0    0  501  502  0.00000000000E+00 -0.00000000000E+00 -0.70248888471E+03  0.70248888471E+03  0.00000000000E+00 0.  1.
    9000010    2    1    2  501    0 -0.40057262764E+03 -0.42263674243E+02 -0.17138226227E+03  0.10883484197E+04  0.99643652814E+03 0.  0.
        -13    1    3    3    0    0  0.26098092753E+03 -0.21788959274E+03 -0.21538867065E+03  0.40246640825E+03  0.10566000000E+00 0.  1.
          4    1    3    3  501    0 -0.66155355518E+03  0.17562591849E+03  0.44006408378E+02  0.68588201142E+03  0.00000000000E+00 0.  1.
         13    1    1    2    0    0  0.40057262764E+03  0.42263674243E+02  0.48588906455E+03  0.63113615202E+03  0.10566000000E+00 0. -1.
<mgrwt>
<rscale>  1 0.84092629E+03</rscale>
<asrwt>0</asrwt>
<pdfrwt beam="2">  1       21 0.10807521E+00 0.10747699E+04</pdfrwt>
<pdfrwt beam="1">  1        4 0.15646088E+00 0.10747699E+04</pdfrwt>
<totfact> 0.66208179E+00</totfact>
</mgrwt>
</event>
<event>
 6    1  0.1375310E-005  0.1084690E+04  0.7818608E-02  0.9501733E-01
         21   -1    0    0  501  502  0.00000000000E+00  0.00000000000E+00  0.10878591155E+04  0.10878591155E+04  0.00000000000E+00 0.  1.
          4   -1    0    0  502    0 -0.00000000000E+00 -0.00000000000E+00 -0.53908636691E+03  0.53908636691E+03  0.00000000000E+00 0.  1.
    9000010    2    1    2  501    0 -0.24734155116E+03  0.30544453156E+03  0.58475423202E+03  0.12322698142E+04  0.10109783273E+04 0.  0.
        -13    1    3    3    0    0 -0.31876987278E+03  0.57878834034E+03  0.66612750286E+03  0.93826224262E+03  0.10566000000E+00 0.  1.
          4    1    3    3  501    0  0.71428321621E+02 -0.27334380877E+03 -0.81373270840E+02  0.29400757155E+03  0.00000000000E+00 0.  1.
         13    1    1    2    0    0  0.24734155116E+03 -0.30544453156E+03 -0.35981483424E+02  0.39467566825E+03  0.10566000000E+00 0. -1.
<mgrwt>
<rscale>  1 0.84156194E+03</rscale>
<asrwt>0</asrwt>
<pdfrwt beam="1">  1       21 0.16736294E+00 0.10846895E+04</pdfrwt>
<pdfrwt beam="2">  1        4 0.82936364E-01 0.10846895E+04</pdfrwt>
<totfact> 0.99103092E+00</totfact>
</mgrwt>
</event>
<event>
 6    1  0.1375310E-005  0.1031284E+04  0.7818608E-02  0.9689939E-01
         21   -1    0    0  501  502  0.00000000000E+00  0.00000000000E+00  0.31716286307E+03  0.31716286307E+03  0.00000000000E+00 0.  1.
          4   -1    0    0  502    0 -0.00000000000E+00 -0.00000000000E+00 -0.13081277250E+04  0.13081277250E+04  0.00000000000E+00 0.  1.
    9000010    2    1    2  501    0 -0.10245913527E+03 -0.21688762474E+03 -0.89991815173E+03  0.13687216290E+04  0.10029995522E+04 0.  0.
        -13    1    3    3    0    0 -0.23970180985E+03  0.27571689579E+03 -0.39046880045E+02  0.36742541321E+03  0.10566000000E+00 0.  1.
          4    1    3    3  501    0  0.13724267458E+03 -0.49260452052E+03 -0.86087127168E+03  0.10012962158E+04  0.00000000000E+00 0.  1.
         13    1    1    2    0    0  0.10245913527E+03  0.21688762474E+03 -0.91046710247E+02  0.25656895910E+03  0.10566000000E+00 0. -1.
<mgrwt>
<rscale>  1 0.71618984E+03</rscale>
<asrwt>0</asrwt>
<pdfrwt beam="1">  1       21 0.48794287E-01 0.10312838E+04</pdfrwt>
<pdfrwt beam="2">  1        4 0.20125042E+00 0.10312838E+04</pdfrwt>
<totfact> 0.20387612E+01</totfact>
</mgrwt>
</event>
<event>
 6    1  0.1375310E-005  0.1005249E+04  0.7818608E-02  0.1009698E+00
         21   -1    0    0  501  502  0.00000000000E+00  0.00000000000E+00  0.14939647273E+04  0.14939647273E+04  0.00000000000E+00 0.  1.
          4   -1    0    0  502    0 -0.00000000000E+00 -0.00000000000E+00 -0.19684274957E+03  0.19684274957E+03  0.00000000000E+00 0.  1.
    9000010    2    1    2  501    0  0.23356188715E+02  0.65733065397E+02  0.12597285921E+04  0.16116580998E+04  0.10028256865E+04 0.  0.
        -13    1    3    3    0    0  0.45446318968E+03 -0.22660844522E+02  0.27149734900E+03  0.52986897091E+03  0.10566000000E+00 0.  1.
          4    1    3    3  501    0 -0.43110700096E+03  0.88393909918E+02  0.98823124305E+03  0.10817891289E+04  0.00000000000E+00 0.  1.
         13    1    1    2    0    0 -0.23356188715E+02 -0.65733065397E+02  0.37393385647E+02  0.79149377079E+02  0.10566000000E+00 0. -1.
<mgrwt>
<rscale>  1 0.51594781E+03</rscale>
<asrwt>0</asrwt>
<pdfrwt beam="1">  1       21 0.22984072E+00 0.10052491E+04</pdfrwt>
<pdfrwt beam="2">  1        4 0.30283501E-01 0.10052491E+04</pdfrwt>
<totfact> 0.31198793E+01</totfact>
</mgrwt>
</event>
<event>
 6    1  0.1375310E-005  0.1024098E+04  0.7818608E-02  0.9729120E-01
          4   -1    0    0  502    0 -0.00000000000E+00  0.00000000000E+00  0.55655686258E+03  0.55655686258E+03  0.00000000000E+00 0.  1.
         21   -1    0    0  501  502  0.00000000000E+00 -0.00000000000E+00 -0.69571038176E+03  0.69571038176E+03  0.00000000000E+00 0.  1.
    9000010    2    1    2  501    0  0.69444625941E+02  0.20331905244E+03 -0.15954098293E+03  0.10364505328E+04  0.10013067404E+04 0.  0.
        -13    1    3    3    0    0 -0.10322322996E+03 -0.18042557500E+03  0.33055936258E+03  0.39048422077E+03  0.10566000000E+00 0.  1.
          4    1    3    3  501    0  0.17266785590E+03  0.38374462745E+03 -0.49010034551E+03  0.64596631199E+03  0.00000000000E+00 0.  1.
         13    1    1    2    0    0 -0.69444625941E+02 -0.20331905244E+03  0.20387463757E+02  0.21581671159E+03  0.10566000000E+00 0. -1.
<mgrwt>
<rscale>  1 0.69309175E+03</rscale>
<asrwt>0</asrwt>
<pdfrwt beam="2">  1       21 0.10703237E+00 0.10240978E+04</pdfrwt>
<pdfrwt beam="1">  1        4 0.85624133E-01 0.10240978E+04</pdfrwt>
<totfact> 0.30904443E+01</totfact>
</mgrwt>
</event>
<event>
 6    1  0.1375310E-005  0.1143151E+04  0.7818608E-02  0.9358296E-01
         21   -1    0    0  501  502  0.00000000000E+00  0.00000000000E+00  0.38490105891E+03  0.38490105891E+03  0.00000000000E+00 0.  1.
          4   -1    0    0  502    0 -0.00000000000E+00 -0.00000000000E+00 -0.20182454777E+04  0.20182454777E+04  0.00000000000E+00 0.  1.
    9000010    2    1    2  501    0  0.28977927501E+03  0.47788091784E+03 -0.78304375451E+03  0.13856233523E+04  0.99722231873E+03 0.  0.
        -13    1    3    3    0    0  0.14259568952E+03 -0.30745825881E+03 -0.29521775569E+03  0.44946373160E+03  0.10566000000E+00 0.  1.
          4    1    3    3  501    0  0.14718358549E+03  0.78533917665E+03 -0.48782599882E+03  0.93615962065E+03  0.00000000000E+00 0.  1.
         13    1    1    2    0    0 -0.28977927501E+03 -0.47788091784E+03 -0.85030066427E+03  0.10175231843E+04  0.10566000000E+00 0. -1.
<mgrwt>
<rscale>  1 0.95588705E+03</rscale>
<asrwt>0</asrwt>
<pdfrwt beam="1">  1       21 0.59215546E-01 0.11431512E+04</pdfrwt>
<pdfrwt beam="2">  1        4 0.31049931E+00 0.11431512E+04</pdfrwt>
<totfact> 0.27215543E+00</totfact>
</mgrwt>
</event>
<event>
 6    1  0.1375310E-005  0.1013932E+04  0.7818608E-02  0.9826875E-01
          4   -1    0    0  502    0 -0.00000000000E+00  0.00000000000E+00  0.63654488175E+03  0.63654488175E+03  0.00000000000E+00 0.  1.
         21   -1    0    0  501  502  0.00000000000E+00 -0.00000000000E+00 -0.88415721158E+03  0.88415721158E+03  0.00000000000E+00 0.  1.
    9000010    2    1    2  501    0 -0.14518327319E+03 -0.68068275330E+02 -0.56817373623E+03  0.11622734402E+04  0.10011726537E+04 0.  0.
        -13    1    3    3    0    0 -0.18600504667E+03  0.25759921917E+03 -0.73013335971E+03  0.79627254707E+03  0.10566000000E+00 0.  1.
          4    1    3    3  501    0  0.40821773474E+02 -0.32566749450E+03  0.16195962348E+03  0.36600089317E+03  0.00000000000E+00 0.  1.
         13    1    1    2    0    0  0.14518327319E+03  0.68068275330E+02  0.32056140639E+03  0.35842865309E+03  0.10566000000E+00 0. -1.
<mgrwt>
<rscale>  1 0.63939984E+03</rscale>
<asrwt>0</asrwt>
<pdfrwt beam="2">  1       21 0.13602419E+00 0.10139320E+04</pdfrwt>
<pdfrwt beam="1">  1        4 0.97929982E-01 0.10139320E+04</pdfrwt>
<totfact> 0.12076362E+01</totfact>
</mgrwt>
</event>
<event>
 6    1  0.1375310E-005  0.1048114E+04  0.7818608E-02  0.9805077E-01
         21   -1    0    0  501  502  0.00000000000E+00  0.00000000000E+00  0.16785688673E+04  0.16785688673E+04  0.00000000000E+00 0.  1.
          4   -1    0    0  502    0 -0.00000000000E+00 -0.00000000000E+00 -0.25725849422E+03  0.25725849422E+03  0.00000000000E+00 0.  1.
    9000010    2    1    2  501    0  0.15110655846E+03 -0.38371693440E+02  0.14375614250E+04  0.17790801551E+04  0.10364544219E+04 0.  0.
        -13    1    3    3    0    0  0.17510638234E+03  0.43126181793E+03  0.31506434141E+03  0.56206276441E+03  0.10566000000E+00 0.  1.
          4    1    3    3  501    0 -0.23999823883E+02 -0.46963351137E+03  0.11224970836E+04  0.12170173907E+04  0.00000000000E+00 0.  1.
         13    1    1    2    0    0 -0.15110655846E+03  0.38371693440E+02 -0.16251051938E+02  0.15674720642E+03  0.10566000000E+00 0. -1.
<mgrwt>
<rscale>  1 0.65090817E+03</rscale>
<asrwt>0</asrwt>
<pdfrwt beam="1">  1       21 0.25824136E+00 0.10481142E+04</pdfrwt>
<pdfrwt beam="2">  1        4 0.39578231E-01 0.10481142E+04</pdfrwt>
<totfact> 0.11952790E+01</totfact>
</mgrwt>
</event>
<event>
 6    1  0.1375310E-005  0.1017234E+04  0.7818608E-02  0.9806307E-01
          4   -1    0    0  502    0 -0.00000000000E+00  0.00000000000E+00  0.48654833159E+03  0.48654833159E+03  0.00000000000E+00 0.  1.
         21   -1    0    0  501  502  0.00000000000E+00 -0.00000000000E+00 -0.72748880215E+03  0.72748880215E+03  0.00000000000E+00 0.  1.
    9000010    2    1    2  501    0  0.13343128848E+03 -0.10509458664E+03 -0.23530593415E+03  0.10440943785E+04  0.10029533427E+04 0.  0.
        -13    1    3    3    0    0  0.56387286025E+03 -0.87409282116E+02 -0.22441570105E+03  0.61315202288E+03  0.10566000000E+00 0.  1.
          4    1    3    3  501    0 -0.43044157177E+03 -0.17685304524E+02 -0.10890233107E+02  0.43094235564E+03  0.00000000000E+00 0.  1.
         13    1    1    2    0    0 -0.13343128848E+03  0.10509458664E+03 -0.56345364054E+01  0.16994275522E+03  0.10566000000E+00 0. -1.
<mgrwt>
<rscale>  1 0.65025167E+03</rscale>
<asrwt>0</asrwt>
<pdfrwt beam="2">  1       21 0.11192135E+00 0.10172336E+04</pdfrwt>
<pdfrwt beam="1">  1        4 0.74853589E-01 0.10172336E+04</pdfrwt>
<totfact> 0.37615722E+01</totfact>
</mgrwt>
</event>
<event>
 6    1  0.1375310E-005  0.1010204E+04  0.7818608E-02  0.9686599E-01
          4   -1    0    0  502    0 -0.00000000000E+00  0.00000000000E+00  0.48836181393E+03  0.48836181393E+03  0.00000000000E+00 0.  1.
         21   -1    0    0  501  502  0.00000000000E+00 -0.00000000000E+00 -0.11845461058E+04  0.11845461058E+04  0.00000000000E+00 0.  1.
    9000010    2    1    2  501    0  0.37931333073E+02 -0.25528185035E+03 -0.89301762581E+03  0.13483297601E+04  0.97668062995E+03 0.  0.
        -13    1    3    3    0    0 -0.20925446703E+03  0.39755156235E+02 -0.93701949717E+03  0.96092322985E+03  0.10566000000E+00 0.  1.
          4    1    3    3  501    0  0.24718580010E+03 -0.29503700658E+03  0.44001871364E+02  0.38740653029E+03  0.00000000000E+00 0.  1.
         13    1    1    2    0    0 -0.37931333073E+02  0.25528185035E+03  0.19683333397E+03  0.32457815957E+03  0.10566000000E+00 0. -1.
<mgrwt>
<rscale>  1 0.71820329E+03</rscale>
<asrwt>0</asrwt>
<pdfrwt beam="2">  1       21 0.18223786E+00 0.10102043E+04</pdfrwt>
<pdfrwt beam="1">  1        4 0.75132588E-01 0.10102043E+04</pdfrwt>
<totfact> 0.97411388E+00</totfact>
</mgrwt>
</event>
<event>
 6    1  0.1375310E-005  0.1011199E+04  0.7818608E-02  0.9826652E-01
         21   -1    0    0  501  502  0.00000000000E+00  0.00000000000E+00  0.69848674768E+03  0.69848674768E+03  0.00000000000E+00 0.  1.
          4   -1    0    0  502    0 -0.00000000000E+00 -0.00000000000E+00 -0.68298088703E+03  0.68298088703E+03  0.00000000000E+00 0.  1.
    9000010    2    1    2  501    0  0.15910525272E+03 -0.29240826893E+02  0.29950981709E+03  0.10546224637E+04  0.99817478575E+03 0.  0.
        -13    1    3    3    0    0  0.37111824416E+03 -0.10452112358E+03  0.57912764081E+03  0.69573145102E+03  0.10566000000E+00 0.  1.
          4    1    3    3  501    0 -0.21201299144E+03  0.75280296685E+02 -0.27961782372E+03  0.35889101263E+03  0.00000000000E+00 0.  1.
         13    1    1    2    0    0 -0.15910525272E+03  0.29240826893E+02 -0.28400395645E+03  0.32684517106E+03  0.10566000000E+00 0. -1.
<mgrwt>
<rscale>  1 0.63951654E+03</rscale>
<asrwt>0</asrwt>
<pdfrwt beam="1">  1       21 0.10745950E+00 0.10111985E+04</pdfrwt>
<pdfrwt beam="2">  1        4 0.10507398E+00 0.10111985E+04</pdfrwt>
<totfact> 0.18807977E+01</totfact>
</mgrwt>
</event>
<event>
 6    1  0.1375310E-005  0.1044156E+04  0.7818608E-02  0.9634239E-01
          4   -1    0    0  502    0 -0.00000000000E+00  0.00000000000E+00  0.52265269976E+03  0.52265269976E+03  0.00000000000E+00 0.  1.
         21   -1    0    0  501  502  0.00000000000E+00 -0.00000000000E+00 -0.98772327512E+03  0.98772327512E+03  0.00000000000E+00 0. -1.
    9000010    2    1    2  501    0 -0.48716245833E+02 -0.27470367816E+03 -0.97188477179E+02  0.10486697558E+04  0.10061944510E+04 0.  0.
        -13    1    3    3    0    0 -0.47484726650E+03  0.40554366128E+01  0.12811465945E+03  0.49184321709E+03  0.10566000000E+00 0.  1.
          4    1    3    3  501    0  0.42613102067E+03 -0.27875911477E+03 -0.22530313663E+03  0.55682653871E+03  0.00000000000E+00 0.  1.
         13    1    1    2    0    0  0.48716245833E+02  0.27470367816E+03 -0.36788209819E+03  0.46170621907E+03  0.10566000000E+00 0. -1.
<mgrwt>
<rscale>  1 0.75070857E+03</rscale>
<asrwt>0</asrwt>
<pdfrwt beam="2">  1       21 0.15195743E+00 0.10441564E+04</pdfrwt>
<pdfrwt beam="1">  1        4 0.80408108E-01 0.10441564E+04</pdfrwt>
<totfact> 0.14096056E+01</totfact>
</mgrwt>
</event>
<event>
 6    1  0.1375310E-005  0.9921885E+03  0.7818608E-02  0.1052444E+00
         21   -1    0    0  501  502  0.00000000000E+00  0.00000000000E+00  0.66184570333E+03  0.66184570333E+03  0.00000000000E+00 0.  1.
          4   -1    0    0  502    0 -0.00000000000E+00 -0.00000000000E+00 -0.45060140657E+03  0.45060140657E+03  0.00000000000E+00 0.  1.
    9000010    2    1    2  501    0 -0.20315355048E+02 -0.23411083639E+01  0.28789718052E+03  0.10331131941E+04  0.99197776734E+03 0.  0.
        -13    1    3    3    0    0  0.35981207691E+03 -0.30887929374E+03  0.26729891809E+03  0.54435270879E+03  0.10566000000E+00 0.  1.
          4    1    3    3  501    0 -0.38012743195E+03  0.30653818537E+03  0.20598262427E+02  0.48876048534E+03  0.00000000000E+00 0.  1.
         13    1    1    2    0    0  0.20315355048E+02  0.23411083639E+01 -0.76652883759E+02  0.79333915772E+02  0.10566000000E+00 0. -1.
<mgrwt>
<rscale>  1 0.37594073E+03</rscale>
<asrwt>0</asrwt>
<pdfrwt beam="1">  1       21 0.10182242E+00 0.99218853E+03</pdfrwt>
<pdfrwt beam="2">  1        4 0.69323293E-01 0.99218853E+03</pdfrwt>
<totfact> 0.56866263E+01</totfact>
</mgrwt>
</event>
<event>
 6    1  0.1375310E-005  0.9783491E+03  0.7818608E-02  0.1018819E+00
          4   -1    0    0  502    0 -0.00000000000E+00  0.00000000000E+00  0.53466403343E+03  0.53466403343E+03  0.00000000000E+00 0.  1.
         21   -1    0    0  501  502  0.00000000000E+00 -0.00000000000E+00 -0.85208193472E+03  0.85208193472E+03  0.00000000000E+00 0.  1.
    9000010    2    1    2  501    0 -0.48525088846E+02 -0.30346465356E+02 -0.56693839908E+03  0.11307458076E+04  0.97667361022E+03 0.  0.
        -13    1    3    3    0    0  0.37973709238E+03  0.13594061687E+03 -0.29802689500E+01  0.40334724966E+03  0.10566000000E+00 0.  1.
          4    1    3    3  501    0 -0.42826218123E+03 -0.16628708222E+03 -0.56395813013E+03  0.72739855796E+03  0.00000000000E+00 0.  1.
         13    1    1    2    0    0  0.48525088846E+02  0.30346465356E+02  0.24952049779E+03  0.25600016053E+03  0.10566000000E+00 0. -1.
<mgrwt>
<rscale>  1 0.48115145E+03</rscale>
<asrwt>0</asrwt>
<pdfrwt beam="2">  1       21 0.13108953E+00 0.97834909E+03</pdfrwt>
<pdfrwt beam="1">  1        4 0.82256006E-01 0.97834909E+03</pdfrwt>
<totfact> 0.20167570E+01</totfact>
</mgrwt>
</event>
<event>
 6    1  0.1375310E-005  0.1010516E+04  0.7818608E-02  0.9747268E-01
          4   -1    0    0  502    0 -0.00000000000E+00  0.00000000000E+00  0.89622808559E+03  0.89622808559E+03  0.00000000000E+00 0.  1.
         21   -1    0    0  501  502  0.00000000000E+00 -0.00000000000E+00 -0.42698743582E+03  0.42698743582E+03  0.00000000000E+00 0.  1.
    9000010    2    1    2  501    0 -0.52629438459E+02 -0.20384472079E+03  0.30300212119E+03  0.10549660339E+04  0.98834230878E+03 0.  0.
        -13    1    3    3    0    0 -0.13480954355E+03 -0.46918561692E+03  0.51193919835E+03  0.70738285965E+03  0.10566000000E+00 0.  1.
          4    1    3    3  501    0  0.82180105096E+02  0.26534089613E+03 -0.20893707716E+03  0.34758317429E+03  0.00000000000E+00 0.  1.
         13    1    1    2    0    0  0.52629438459E+02  0.20384472079E+03  0.16623852857E+03  0.26824948748E+03  0.10566000000E+00 0. -1.
<mgrwt>
<rscale>  1 0.68270887E+03</rscale>
<asrwt>0</asrwt>
<pdfrwt beam="2">  1       21 0.65690375E-01 0.10105162E+04</pdfrwt>
<pdfrwt beam="1">  1        4 0.13788124E+00 0.10105162E+04</pdfrwt>
<totfact> 0.30667100E+01</totfact>
</mgrwt>
</event>
<event>
 6    1  0.1375310E-005  0.9756095E+03  0.7818608E-02  0.9835883E-01
         21   -1    0    0  501  502  0.00000000000E+00  0.00000000000E+00  0.52327481756E+03  0.52327481756E+03  0.00000000000E+00 0.  1.
          4   -1    0    0  502    0 -0.00000000000E+00 -0.00000000000E+00 -0.63404264574E+03  0.63404264574E+03  0.00000000000E+00 0.  1.
    9000010    2    1    2  501    0  0.23447110069E+02 -0.17320248486E+03 -0.71828740537E+02  0.97825006972E+03  0.95982548581E+03 0.  0.
        -13    1    3    3    0    0 -0.40653595948E+03 -0.59389089223E+02  0.20002937676E+03  0.45695767090E+03  0.10566000000E+00 0.  1.
          4    1    3    3  501    0  0.42998306955E+03 -0.11381339564E+03 -0.27185811729E+03  0.52129239882E+03  0.00000000000E+00 0.  1.
         13    1    1    2    0    0 -0.23447110069E+02  0.17320248486E+03 -0.38939087643E+02  0.17906739358E+03  0.10566000000E+00 0. -1.
<mgrwt>
<rscale>  1 0.63471888E+03</rscale>
<asrwt>0</asrwt>
<pdfrwt beam="1">  1       21 0.80503819E-01 0.97560947E+03</pdfrwt>
<pdfrwt beam="2">  1        4 0.97545022E-01 0.97560947E+03</pdfrwt>
<totfact> 0.45651656E+01</totfact>
</mgrwt>
</event>
<event>
 6    1  0.1375310E-005  0.1087134E+04  0.7818608E-02  0.9345625E-01
         21   -1    0    0  501  502  0.00000000000E+00  0.00000000000E+00  0.14893735613E+04  0.14893735613E+04  0.00000000000E+00 0. -1.
          4   -1    0    0  502    0 -0.00000000000E+00 -0.00000000000E+00 -0.55006409390E+03  0.55006409390E+03  0.00000000000E+00 0.  1.
    9000010    2    1    2  501    0  0.65138745281E+03 -0.19598341340E+03  0.35772754616E+03  0.11444780727E+04  0.84802473409E+03 0.  0.
        -13    1    3    3    0    0 -0.37258737617E+02  0.15871614731E+03 -0.14733627619E+03  0.21974307359E+03  0.10566000000E+00 0.  1.
          4    1    3    3  501    0  0.68864619043E+03 -0.35469956071E+03  0.50506382235E+03  0.92473499912E+03  0.00000000000E+00 0.  1.
         13    1    1    2    0    0 -0.65138745281E+03  0.19598341340E+03  0.58158192127E+03  0.89495958251E+03  0.10566000000E+00 0. -1.
<mgrwt>
<rscale>  1 0.96688912E+03</rscale>
<asrwt>0</asrwt>
<pdfrwt beam="1">  1       21 0.22913439E+00 0.10871343E+04</pdfrwt>
<pdfrwt beam="2">  1        4 0.84625246E-01 0.10871343E+04</pdfrwt>
<totfact> 0.35092559E+00</totfact>
</mgrwt>
</event>
<event>
 6    1  0.1375310E-005  0.8201518E+03  0.7818608E-02  0.9746746E-01
         21   -1    0    0  501  502  0.00000000000E+00  0.00000000000E+00  0.95774964282E+03  0.95774964282E+03  0.00000000000E+00 0.  1.
          4   -1    0    0  502    0 -0.00000000000E+00 -0.00000000000E+00 -0.45879102599E+03  0.45879102599E+03  0.00000000000E+00 0.  1.
    9000010    2    1    2  501    0  0.32684349596E+02 -0.39311149137E+03  0.59170309625E+03  0.10113167048E+04  0.71905772509E+03 0.  0.
        -13    1    3    3    0    0 -0.59747379095E+02 -0.56305650326E+02 -0.16144907295E+03  0.18112396276E+03  0.10566000000E+00 0.  1.
          4    1    3    3  501    0  0.92431728691E+02 -0.33680584104E+03  0.75315216919E+03  0.83019274207E+03  0.00000000000E+00 0.  1.
         13    1    1    2    0    0 -0.32684349596E+02  0.39311149137E+03 -0.92744479409E+02  0.40522396397E+03  0.10566000000E+00 0. -1.
<mgrwt>
<rscale>  1 0.68300453E+03</rscale>
<asrwt>0</asrwt>
<pdfrwt beam="1">  1       21 0.14734610E+00 0.82015177E+03</pdfrwt>
<pdfrwt beam="2">  1        4 0.70583235E-01 0.82015177E+03</pdfrwt>
<totfact> 0.21200476E+01</totfact>
</mgrwt>
</event>
<event>
 6    1  0.1375310E-005  0.1053254E+04  0.7818608E-02  0.9598398E-01
         21   -1    0    0  501  502  0.00000000000E+00  0.00000000000E+00  0.13086931775E+04  0.13086931775E+04  0.00000000000E+00 0.  1.
          4   -1    0    0  502    0 -0.00000000000E+00 -0.00000000000E+00 -0.35575516675E+03  0.35575516675E+03  0.00000000000E+00 0.  1.
    9000010    2    1    2  501    0 -0.70678891656E+02 -0.29895583334E+03  0.79084136101E+03  0.13171078326E+04  0.10074586286E+04 0.  0.
        -13    1    3    3    0    0 -0.14491861892E+03  0.19525154970E+03 -0.12528718940E+03  0.27353512528E+03  0.10566000000E+00 0.  1.
          4    1    3    3  501    0  0.74239727261E+02 -0.49420738304E+03  0.91612855040E+03  0.10435727073E+04  0.00000000000E+00 0.  1.
         13    1    1    2    0    0  0.70678891656E+02  0.29895583334E+03  0.16209664971E+03  0.34734051164E+03  0.10566000000E+00 0. -1.
<mgrwt>
<rscale>  1 0.77402323E+03</rscale>
<asrwt>0</asrwt>
<pdfrwt beam="1">  1       21 0.20133741E+00 0.10532535E+04</pdfrwt>
<pdfrwt beam="2">  1        4 0.54731565E-01 0.10532535E+04</pdfrwt>
<totfact> 0.14304086E+01</totfact>
</mgrwt>
</event>
<event>
 6    1  0.1375310E-005  0.1085043E+04  0.7818608E-02  0.9481675E-01
         21   -1    0    0  501  502  0.00000000000E+00  0.00000000000E+00  0.10042076473E+04  0.10042076473E+04  0.00000000000E+00 0. -1.
          4   -1    0    0  502    0 -0.00000000000E+00 -0.00000000000E+00 -0.57657424751E+03  0.57657424751E+03  0.00000000000E+00 0.  1.
    9000010    2    1    2  501    0  0.33977051560E+03  0.24900796091E+03  0.40754535974E+03  0.11590562631E+04  0.99993461436E+03 0.  0.
        -13    1    3    3    0    0 -0.18420538817E+03 -0.28236519399E+03  0.15657789965E+03  0.37172352311E+03  0.10566000000E+00 0.  1.
          4    1    3    3  501    0  0.52397590378E+03  0.53137315491E+03  0.25096746009E+03  0.78733274003E+03  0.00000000000E+00 0.  1.
         13    1    1    2    0    0 -0.33977051560E+03 -0.24900796091E+03  0.20088040035E+02  0.42172563165E+03  0.10566000000E+00 0. -1.
<mgrwt>
<rscale>  1 0.85648426E+03</rscale>
<asrwt>0</asrwt>
<pdfrwt beam="1">  1       21 0.15449348E+00 0.10850429E+04</pdfrwt>
<pdfrwt beam="2">  1        4 0.88703731E-01 0.10850429E+04</pdfrwt>
<totfact> 0.10661724E+01</totfact>
</mgrwt>
</event>
<event>
 6    1  0.1375310E-005  0.1002836E+04  0.7818608E-02  0.9992654E-01
          4   -1    0    0  502    0 -0.00000000000E+00  0.00000000000E+00  0.13658874267E+04  0.13658874267E+04  0.00000000000E+00 0.  1.
         21   -1    0    0  501  502  0.00000000000E+00 -0.00000000000E+00 -0.22169551155E+03  0.22169551155E+03  0.00000000000E+00 0.  1.
    9000010    2    1    2  501    0 -0.65988941269E+02 -0.71542435257E+02  0.10304525593E+04  0.14378848666E+04  0.99810197492E+03 0.  0.
        -13    1    3    3    0    0  0.10198707978E+02 -0.51978021257E+03  0.71698617099E+03  0.88563235237E+03  0.10566000000E+00 0.  1.
          4    1    3    3  501    0 -0.76187649247E+02  0.44823777731E+03  0.31346638828E+03  0.55225251424E+03  0.00000000000E+00 0.  1.
         13    1    1    2    0    0  0.65988941269E+02  0.71542435257E+02  0.11373935588E+03  0.14969807164E+03  0.10566000000E+00 0. -1.
<mgrwt>
<rscale>  1 0.55973531E+03</rscale>
<asrwt>0</asrwt>
<pdfrwt beam="2">  1       21 0.34107003E-01 0.10028362E+04</pdfrwt>
<pdfrwt beam="1">  1        4 0.21013652E+00 0.10028362E+04</pdfrwt>
<totfact> 0.37943929E+01</totfact>
</mgrwt>
</event>
<event>
 6    1  0.1375310E-005  0.1048619E+04  0.7818608E-02  0.9634209E-01
          4   -1    0    0  502    0 -0.00000000000E+00  0.00000000000E+00  0.14634572892E+04  0.14634572892E+04  0.00000000000E+00 0.  1.
         21   -1    0    0  501  502  0.00000000000E+00 -0.00000000000E+00 -0.33431948463E+03  0.33431948463E+03  0.00000000000E+00 0.  1.
    9000010    2    1    2  501    0  0.15086890461E+03  0.23048514643E+03  0.61812303356E+03  0.12172417306E+04  0.10117887709E+04 0.  0.
        -13    1    3    3    0    0  0.17537762706E+03 -0.16681830621E+03  0.75770007358E+03  0.79542131731E+03  0.10566000000E+00 0.  1.
          4    1    3    3  501    0 -0.24508722450E+02  0.39730345264E+03 -0.13957704002E+03  0.42182041327E+03  0.00000000000E+00 0.  1.
         13    1    1    2    0    0 -0.15086890461E+03 -0.23048514643E+03  0.51101477101E+03  0.58053504326E+03  0.10566000000E+00 0. -1.
<mgrwt>
<rscale>  1 0.75072798E+03</rscale>
<asrwt>0</asrwt>
<pdfrwt beam="2">  1       21 0.51433768E-01 0.10486188E+04</pdfrwt>
<pdfrwt beam="1">  1        4 0.22514727E+00 0.10486188E+04</pdfrwt>
<totfact> 0.12724628E+01</totfact>
</mgrwt>
</event>
<event>
 6    1  0.1375310E-005  0.1013372E+04  0.7818608E-02  0.9857122E-01
         21   -1    0    0  501  502  0.00000000000E+00  0.00000000000E+00  0.98585085201E+03  0.98585085201E+03  0.00000000000E+00 0.  1.
          4   -1    0    0  502    0 -0.00000000000E+00 -0.00000000000E+00 -0.38061236684E+03  0.38061236684E+03  0.00000000000E+00 0.  1.
    9000010    2    1    2  501    0  0.84399054498E+02 -0.11858314068E+03  0.66177420025E+03  0.12103175820E+04  0.10028650934E+04 0.  0.
        -13    1    3    3    0    0  0.20648226898E+03 -0.50147274383E+03  0.59123990563E+03  0.80229326146E+03  0.10566000000E+00 0.  1.
          4    1    3    3  501    0 -0.12208321448E+03  0.38288960315E+03  0.70534294613E+02  0.40802432057E+03  0.00000000000E+00 0.  1.
         13    1    1    2    0    0 -0.84399054498E+02  0.11858314068E+03 -0.56535715084E+02  0.15614563682E+03  0.10566000000E+00 0. -1.
<mgrwt>
<rscale>  1 0.62385088E+03</rscale>
<asrwt>0</asrwt>
<pdfrwt beam="1">  1       21 0.15166936E+00 0.10133724E+04</pdfrwt>
<pdfrwt beam="2">  1        4 0.58555749E-01 0.10133724E+04</pdfrwt>
<totfact> 0.28868173E+01</totfact>
</mgrwt>
</event>
<event>
 6    1  0.1375310E-005  0.9969607E+03  0.7818608E-02  0.1014921E+00
         21   -1    0    0  501  502  0.00000000000E+00  0.00000000000E+00  0.28051331556E+03  0.28051331556E+03  0.00000000000E+00 0.  1.
          4   -1    0    0  502    0 -0.00000000000E+00 -0.00000000000E+00 -0.10142499276E+04  0.10142499276E+04  0.00000000000E+00 0.  1.
    9000010    2    1    2  501    0 -0.16820192037E+02  0.58537934710E+02 -0.64600323708E+03  0.11879607858E+04  0.99509850644E+03 0.  0.
        -13    1    3    3    0    0 -0.12916425101E+03 -0.19036560364E+03  0.19634887394E+03  0.30244893495E+03  0.10566000000E+00 0.  1.
          4    1    3    3  501    0  0.11234405898E+03  0.24890353835E+03 -0.84235211102E+03  0.88551185081E+03  0.00000000000E+00 0.  1.
         13    1    1    2    0    0  0.16820192037E+02 -0.58537934710E+02 -0.87733374921E+02  0.10680245737E+03  0.10566000000E+00 0. -1.
<mgrwt>
<rscale>  1 0.49564954E+03</rscale>
<asrwt>0</asrwt>
<pdfrwt beam="1">  1       21 0.43155895E-01 0.99696070E+03</pdfrwt>
<pdfrwt beam="2">  1        4 0.15603845E+00 0.99696070E+03</pdfrwt>
<totfact> 0.55301778E+01</totfact>
</mgrwt>
</event>
<event>
 6    1  0.1375310E-005  0.1018639E+04  0.7818608E-02  0.9838324E-01
         21   -1    0    0  501  502  0.00000000000E+00  0.00000000000E+00  0.14913932687E+04  0.14913932687E+04  0.00000000000E+00 0.  1.
          4   -1    0    0  502    0 -0.00000000000E+00 -0.00000000000E+00 -0.26655267050E+03  0.26655267050E+03  0.00000000000E+00 0.  1.
    9000010    2    1    2  501    0  0.14721887470E+03  0.39162059495E+02  0.12401189193E+04  0.16048430253E+04  0.10071837657E+04 0.  0.
        -13    1    3    3    0    0 -0.26328710820E+03  0.23115922620E+03  0.10613272402E+04  0.11176628343E+04  0.10566000000E+00 0.  1.
          4    1    3    3  501    0  0.41050598290E+03 -0.19199716671E+03  0.17879167911E+03  0.48718019104E+03  0.00000000000E+00 0.  1.
         13    1    1    2    0    0 -0.14721887470E+03 -0.39162059495E+02 -0.15278321126E+02  0.15310291386E+03  0.10566000000E+00 0. -1.
<mgrwt>
<rscale>  1 0.63345811E+03</rscale>
<asrwt>0</asrwt>
<pdfrwt beam="1">  1       21 0.22944511E+00 0.10186394E+04</pdfrwt>
<pdfrwt beam="2">  1        4 0.41008104E-01 0.10186394E+04</pdfrwt>
<totfact> 0.17074417E+01</totfact>
</mgrwt>
</event>
<event>
 6    1  0.1375310E-005  0.1035549E+04  0.7818608E-02  0.9663281E-01
          4   -1    0    0  502    0 -0.00000000000E+00  0.00000000000E+00  0.28002946242E+03  0.28002946242E+03  0.00000000000E+00 0.  1.
         21   -1    0    0  501  502  0.00000000000E+00 -0.00000000000E+00 -0.16269761592E+04  0.16269761592E+04  0.00000000000E+00 0.  1.
    9000010    2    1    2  501    0 -0.22279845045E+03 -0.13243863444E+03 -0.12657713554E+04  0.16354018870E+04  0.10025881840E+04 0.  0.
        -13    1    3    3    0    0 -0.58626094745E+03 -0.11671468496E+03 -0.10613297157E+04  0.12180907162E+04  0.10566000000E+00 0.  1.
          4    1    3    3  501    0  0.36346249700E+03 -0.15723949478E+02 -0.20444163964E+03  0.41731117087E+03  0.00000000000E+00 0.  1.
         13    1    1    2    0    0  0.22279845045E+03  0.13243863444E+03 -0.81175341420E+02  0.27160373458E+03  0.10566000000E+00 0. -1.
<mgrwt>
<rscale>  1 0.73245741E+03</rscale>
<asrwt>0</asrwt>
<pdfrwt beam="2">  1       21 0.25030403E+00 0.10355492E+04</pdfrwt>
<pdfrwt beam="1">  1        4 0.43081455E-01 0.10355492E+04</pdfrwt>
<totfact> 0.11300808E+01</totfact>
</mgrwt>
</event>
<event>
 6    1  0.1375310E-005  0.1007586E+04  0.7818608E-02  0.1021925E+00
         21   -1    0    0  501  502  0.00000000000E+00  0.00000000000E+00  0.17130818345E+04  0.17130818345E+04  0.00000000000E+00 0.  1.
          4   -1    0    0  502    0 -0.00000000000E+00 -0.00000000000E+00 -0.21745359354E+03  0.21745359354E+03  0.00000000000E+00 0.  1.
    9000010    2    1    2  501    0  0.18061463778E+02 -0.44143667722E+02  0.15559090908E+04  0.18536675420E+04  0.10064568434E+04 0.  0.
        -13    1    3    3    0    0  0.29546930935E+03  0.14661166293E+02  0.15416066068E+04  0.15697350107E+04  0.10566000000E+00 0.  1.
          4    1    3    3  501    0 -0.27740784558E+03 -0.58804834015E+02  0.14302484014E+02  0.28393253132E+03  0.00000000000E+00 0.  1.
         13    1    1    2    0    0 -0.18061463778E+02  0.44143667722E+02 -0.60280849866E+02  0.76867886002E+02  0.10566000000E+00 0. -1.
<mgrwt>
<rscale>  1 0.46998260E+03</rscale>
<asrwt>0</asrwt>
<pdfrwt beam="1">  1       21 0.26355104E+00 0.10075864E+04</pdfrwt>
<pdfrwt beam="2">  1        4 0.33454400E-01 0.10075864E+04</pdfrwt>
<totfact> 0.15611918E+01</totfact>
</mgrwt>
</event>
<event>
 6    1  0.1375310E-005  0.1037326E+04  0.7818608E-02  0.9651561E-01
         21   -1    0    0  501  502  0.00000000000E+00  0.00000000000E+00  0.10249011533E+04  0.10249011533E+04  0.00000000000E+00 0.  1.
          4   -1    0    0  502    0 -0.00000000000E+00 -0.00000000000E+00 -0.51379834382E+03  0.51379834382E+03  0.00000000000E+00 0.  1.
    9000010    2    1    2  501    0  0.24395109615E+03 -0.11166170470E+03  0.66231061637E+03  0.12307315027E+04  0.10020300422E+04 0.  0.
        -13    1    3    3    0    0 -0.12079857634E+03 -0.29861589215E+03 -0.12306944474E+03  0.34483307046E+03  0.10566000000E+00 0.  1.
          4    1    3    3  501    0  0.36474967249E+03  0.18695418745E+03  0.78538006110E+03  0.88589843219E+03  0.00000000000E+00 0.  1.
         13    1    1    2    0    0 -0.24395109615E+03  0.11166170470E+03 -0.15120780687E+03  0.30796799449E+03  0.10566000000E+00 0. -1.
<mgrwt>
<rscale>  1 0.73975551E+03</rscale>
<asrwt>0</asrwt>
<pdfrwt beam="1">  1       21 0.15767710E+00 0.10373257E+04</pdfrwt>
<pdfrwt beam="2">  1        4 0.79045899E-01 0.10373257E+04</pdfrwt>
<totfact> 0.13218224E+01</totfact>
</mgrwt>
</event>
<event>
 6    1  0.1375310E-005  0.1063505E+04  0.7818608E-02  0.9619197E-01
          4   -1    0    0  502    0 -0.00000000000E+00  0.00000000000E+00  0.27721608591E+03  0.27721608591E+03  0.00000000000E+00 0.  1.
         21   -1    0    0  501  502  0.00000000000E+00 -0.00000000000E+00 -0.16556916429E+04  0.16556916429E+04  0.00000000000E+00 0.  1.
    9000010    2    1    2  501    0  0.27286735842E+03 -0.52738896469E+02 -0.11959145531E+04  0.16003922889E+04  0.10265504729E+04 0.  0.
        -13    1    3    3    0    0  0.12500622810E+03  0.48121014022E+03 -0.68743216554E+03  0.84838243116E+03  0.10566000000E+00 0.  1.
          4    1    3    3  501    0  0.14786113032E+03 -0.53394903669E+03 -0.50848238760E+03  0.75200985774E+03  0.00000000000E+00 0.  1.
         13    1    1    2    0    0 -0.27286735842E+03  0.52738896469E+02 -0.18256100386E+03  0.33251543993E+03  0.10566000000E+00 0. -1.
<mgrwt>
<rscale>  1 0.76038522E+03</rscale>
<asrwt>0</asrwt>
<pdfrwt beam="2">  1       21 0.25472179E+00 0.10635055E+04</pdfrwt>
<pdfrwt beam="1">  1        4 0.42648628E-01 0.10635055E+04</pdfrwt>
<totfact> 0.10773099E+01</totfact>
</mgrwt>
</event>
<event>
 6    1  0.1622824E-005  0.7938986E+03  0.7818608E-02  0.1023378E+00
          4   -1    0    0  502    0 -0.00000000000E+00  0.00000000000E+00  0.23817799983E+03  0.23817799983E+03  0.00000000000E+00 0.  1.
         21   -1    0    0  501  502  0.00000000000E+00 -0.00000000000E+00 -0.10950356240E+04  0.10950356240E+04  0.00000000000E+00 0.  1.
    9000010    2    1    2  501    0  0.59344667390E+02 -0.72037518622E+02 -0.92401645708E+03  0.12182287829E+04  0.78839315130E+03 0.  0.
        -13    1    3    3    0    0  0.26266176683E+03 -0.72796780489E+02 -0.97185962454E+03  0.10093570805E+04  0.10566000000E+00 0.  1.
          4    1    3    3  501    0 -0.20331709944E+03  0.75926186636E+00  0.47843167465E+02  0.20887170243E+03  0.00000000000E+00 0.  1.
         13    1    1    2    0    0 -0.59344667390E+02  0.72037518622E+02  0.67158832888E+02  0.11498484090E+03  0.10566000000E+00 0. -1.
<mgrwt>
<rscale>  1 0.46487217E+03</rscale>
<asrwt>0</asrwt>
<pdfrwt beam="2">  1       21 0.16846702E+00 0.79389858E+03</pdfrwt>
<pdfrwt beam="1">  1        4 0.36642769E-01 0.79389858E+03</pdfrwt>
<totfact> 0.58256586E+01</totfact>
</mgrwt>
</event>
<event>
 6    1  0.1375310E-005  0.1124781E+04  0.7818608E-02  0.9471796E-01
          4   -1    0    0  502    0 -0.00000000000E+00  0.00000000000E+00  0.16124595123E+04  0.16124595123E+04  0.00000000000E+00 0.  1.
         21   -1    0    0  501  502  0.00000000000E+00 -0.00000000000E+00 -0.66468914467E+03  0.66468914467E+03  0.00000000000E+00 0.  1.
    9000010    2    1    2  501    0 -0.25493905553E+03 -0.29715186450E+03 -0.12828945353E+03  0.11320731562E+04  0.10544374303E+04 0.  0.
        -13    1    3    3    0    0  0.11781307227E+03 -0.60444582420E+03 -0.19140406607E+03  0.64487999043E+03  0.10566000000E+00 0.  1.
          4    1    3    3  501    0 -0.37275212780E+03  0.30729395970E+03  0.63114612542E+02  0.48719316576E+03  0.00000000000E+00 0.  1.
         13    1    1    2    0    0  0.25493905553E+03  0.29715186450E+03  0.10760598212E+04  0.11450755008E+04  0.10566000000E+00 0. -1.
<mgrwt>
<rscale>  1 0.86395519E+03</rscale>
<asrwt>0</asrwt>
<pdfrwt beam="2">  1       21 0.10225987E+00 0.11247806E+04</pdfrwt>
<pdfrwt beam="1">  1        4 0.24807069E+00 0.11247806E+04</pdfrwt>
<totfact> 0.18392622E+00</totfact>
</mgrwt>
</event>
<event>
 6    1  0.1375310E-005  0.1107101E+04  0.7818608E-02  0.9438427E-01
          4   -1    0    0  502    0 -0.00000000000E+00  0.00000000000E+00  0.54538964698E+03  0.54538964698E+03  0.00000000000E+00 0.  1.
         21   -1    0    0  501  502  0.00000000000E+00 -0.00000000000E+00 -0.11577949456E+04  0.11577949456E+04  0.00000000000E+00 0.  1.
    9000010    2    1    2  501    0 -0.24368925050E+03 -0.39245270325E+03 -0.55266666966E+03  0.12373817480E+04  0.10061160805E+04 0.  0.
        -13    1    3    3    0    0 -0.32252306172E+02  0.29875826882E+03 -0.39713939521E+03  0.49801247458E+03  0.10566000000E+00 0.  1.
          4    1    3    3  501    0 -0.21143694433E+03 -0.69121097207E+03 -0.15552727444E+03  0.73936927339E+03  0.00000000000E+00 0.  1.
         13    1    1    2    0    0  0.24368925050E+03  0.39245270325E+03 -0.59738628957E+02  0.46580284462E+03  0.10566000000E+00 0. -1.
<mgrwt>
<rscale>  1 0.88979655E+03</rscale>
<asrwt>0</asrwt>
<pdfrwt beam="2">  1       21 0.17812230E+00 0.11071012E+04</pdfrwt>
<pdfrwt beam="1">  1        4 0.83906100E-01 0.11071012E+04</pdfrwt>
<totfact> 0.80019301E+00</totfact>
</mgrwt>
</event>
<event>
 6    1  0.1375310E-005  0.1019159E+04  0.7818608E-02  0.9669405E-01
         21   -1    0    0  501  502  0.00000000000E+00  0.00000000000E+00  0.33093158787E+03  0.33093158787E+03  0.00000000000E+00 0.  1.
          4   -1    0    0  502    0 -0.00000000000E+00 -0.00000000000E+00 -0.13852538870E+04  0.13852538870E+04  0.00000000000E+00 0.  1.
    9000010    2    1    2  501    0  0.26631029521E+03  0.32957112878E+01 -0.58115232193E+03  0.11732104538E+04  0.98374423125E+03 0.  0.
        -13    1    3    3    0    0  0.52907200900E+03  0.27863744872E+03 -0.51022592707E+03  0.78605758463E+03  0.10566000000E+00 0.  1.
          4    1    3    3  501    0 -0.26276171379E+03 -0.27534173743E+03 -0.70926394864E+02  0.38715286915E+03  0.00000000000E+00 0.  1.
         13    1    1    2    0    0 -0.26631029521E+03 -0.32957112878E+01 -0.47316997722E+03  0.54297502111E+03  0.10566000000E+00 0. -1.
<mgrwt>
<rscale>  1 0.72867978E+03</rscale>
<asrwt>0</asrwt>
<pdfrwt beam="1">  1       21 0.50912552E-01 0.10191588E+04</pdfrwt>
<pdfrwt beam="2">  1        4 0.21311598E+00 0.10191588E+04</pdfrwt>
<totfact> 0.15580326E+01</totfact>
</mgrwt>
</event>
<event>
 6    1  0.1375310E-005  0.1069678E+04  0.7818608E-02  0.9527194E-01
          4   -1    0    0  502    0 -0.00000000000E+00  0.00000000000E+00  0.13144942244E+04  0.13144942244E+04  0.00000000000E+00 0.  1.
         21   -1    0    0  501  502  0.00000000000E+00 -0.00000000000E+00 -0.51755110316E+03  0.51755110316E+03  0.00000000000E+00 0.  1.
    9000010    2    1    2  501    0  0.37176583680E+03  0.49032682637E+02  0.14432970149E+03  0.10793712094E+04  0.10017969373E+04 0.  0.
        -13    1    3    3    0    0  0.11485974386E+03 -0.47357862510E+03  0.69550940590E+02  0.49224670584E+03  0.10566000000E+00 0.  1.
          4    1    3    3  501    0  0.25690609294E+03  0.52261130774E+03  0.74778760898E+02  0.58712450353E+03  0.00000000000E+00 0.  1.
         13    1    1    2    0    0 -0.37176583680E+03 -0.49032682637E+02  0.65261341976E+03  0.75267411820E+03  0.10566000000E+00 0. -1.
<mgrwt>
<rscale>  1 0.82308257E+03</rscale>
<asrwt>0</asrwt>
<pdfrwt beam="2">  1       21 0.79623247E-01 0.10696781E+04</pdfrwt>
<pdfrwt beam="1">  1        4 0.20222988E+00 0.10696781E+04</pdfrwt>
<totfact> 0.66514813E+00</totfact>
</mgrwt>
</event>
<event>
 6    1  0.1375310E-005  0.9561384E+03  0.7818608E-02  0.1009583E+00
         21   -1    0    0  501  502  0.00000000000E+00  0.00000000000E+00  0.56806818213E+03  0.56806818213E+03  0.00000000000E+00 0.  1.
          4   -1    0    0  502    0 -0.00000000000E+00 -0.00000000000E+00 -0.58538415208E+03  0.58538415208E+03  0.00000000000E+00 0.  1.
    9000010    2    1    2  501    0 -0.66812743425E+02 -0.46427097809E+02  0.14959280854E+03  0.96776989132E+03  0.95267052861E+03 0.  0.
        -13    1    3    3    0    0 -0.38412210670E+03  0.29070791460E+03  0.15085064797E+03  0.50479383279E+03  0.10566000000E+00 0.  1.
          4    1    3    3  501    0  0.31730936328E+03 -0.33713501241E+03 -0.12578394347E+01  0.46297605853E+03  0.00000000000E+00 0.  1.
         13    1    1    2    0    0  0.66812743425E+02  0.46427097809E+02 -0.16690877849E+03  0.18568244288E+03  0.10566000000E+00 0. -1.
<mgrwt>
<rscale>  1 0.51640819E+03</rscale>
<asrwt>0</asrwt>
<pdfrwt beam="1">  1       21 0.87395105E-01 0.95613836E+03</pdfrwt>
<pdfrwt beam="2">  1        4 0.90059100E-01 0.95613836E+03</pdfrwt>
<totfact> 0.45467500E+01</totfact>
</mgrwt>
</event>
<event>
 6    1  0.1375310E-005  0.1050909E+04  0.7818608E-02  0.9577458E-01
         21   -1    0    0  501  502  0.00000000000E+00  0.00000000000E+00  0.45313548161E+03  0.45313548161E+03  0.00000000000E+00 0.  1.
          4   -1    0    0  502    0 -0.00000000000E+00 -0.00000000000E+00 -0.11032761216E+04  0.11032761216E+04  0.00000000000E+00 0.  1.
    9000010    2    1    2  501    0  0.24578363563E+03  0.22365798203E+03 -0.62598828396E+03  0.12232212132E+04  0.99698360890E+03 0.  0.
        -13    1    3    3    0    0 -0.55774783031E+02  0.57881679077E+03 -0.29775079217E+03  0.65329568276E+03  0.10566000000E+00 0.  1.
          4    1    3    3  501    0  0.30155841867E+03 -0.35515880874E+03 -0.32823749178E+03  0.56992553049E+03  0.00000000000E+00 0.  1.
         13    1    1    2    0    0 -0.24578363563E+03 -0.22365798203E+03 -0.24152355995E+02  0.33319038992E+03  0.10566000000E+00 0. -1.
<mgrwt>
<rscale>  1 0.78806287E+03</rscale>
<asrwt>0</asrwt>
<pdfrwt beam="1">  1       21 0.69713151E-01 0.10509086E+04</pdfrwt>
<pdfrwt beam="2">  1        4 0.16973479E+00 0.10509086E+04</pdfrwt>
<totfact> 0.15184412E+01</totfact>
</mgrwt>
</event>
<event>
 6    1  0.1375310E-005  0.1051987E+04  0.7818608E-02  0.9613624E-01
         21   -1    0    0  501  502  0.00000000000E+00  0.00000000000E+00  0.30569424404E+03  0.30569424404E+03  0.00000000000E+00 0.  1.
          4   -1    0    0  502    0 -0.00000000000E+00 -0.00000000000E+00 -0.15864960993E+04  0.15864960993E+04  0.00000000000E+00 0.  1.
    9000010    2    1    2  501    0  0.27817476650E+03 -0.90936570807E+02 -0.77068266584E+03  0.13040812895E+04  0.10104581028E+04 0.  0.
        -13    1    3    3    0    0 -0.33680585549E+03  0.14150171754E+03 -0.42792790743E+03  0.56265728954E+03  0.10566000000E+00 0.  1.
          4    1    3    3  501    0  0.61498062199E+03 -0.23243828834E+03 -0.34275475841E+03  0.74142399996E+03  0.00000000000E+00 0.  1.
         13    1    1    2    0    0 -0.27817476650E+03  0.90936570807E+02 -0.51011918938E+03  0.58810905380E+03  0.10566000000E+00 0. -1.
<mgrwt>
<rscale>  1 0.76401004E+03</rscale>
<asrwt>0</asrwt>
<pdfrwt beam="1">  1       21 0.47029884E-01 0.10519868E+04</pdfrwt>
<pdfrwt beam="2">  1        4 0.24407632E+00 0.10519868E+04</pdfrwt>
<totfact> 0.11738516E+01</totfact>
</mgrwt>
</event>
<event>
 6    1  0.1375310E-005  0.8009999E+03  0.7818608E-02  0.9841907E-01
         21   -1    0    0  501  502  0.00000000000E+00  0.00000000000E+00  0.49470002555E+03  0.49470002555E+03  0.00000000000E+00 0.  1.
          4   -1    0    0  502    0 -0.00000000000E+00 -0.00000000000E+00 -0.16020268304E+04  0.16020268304E+04  0.00000000000E+00 0.  1.
    9000010    2    1    2  501    0  0.16295750681E+03  0.26333124102E+03  0.13859056909E+03  0.81290108686E+03  0.73871668429E+03 0.  0.
        -13    1    3    3    0    0 -0.97417932795E+00 -0.12813930091E+03 -0.22177684190E+03  0.25613591749E+03  0.10566000000E+00 0.  1.
          4    1    3    3  501    0  0.16393168614E+03  0.39147054193E+03  0.36036741099E+03  0.55676516936E+03  0.00000000000E+00 0.  1.
         13    1    1    2    0    0 -0.16295750681E+03 -0.26333124102E+03 -0.12459173740E+04  0.12838257691E+04  0.10566000000E+00 0. -1.
<mgrwt>
<rscale>  1 0.63161265E+03</rscale>
<asrwt>0</asrwt>
<pdfrwt beam="1">  1       21 0.76107697E-01 0.80099989E+03</pdfrwt>
<pdfrwt beam="2">  1        4 0.24646566E+00 0.80099989E+03</pdfrwt>
<totfact> 0.40251484E+00</totfact>
</mgrwt>
</event>
<event>
 6    1  0.1375310E-005  0.1133960E+04  0.7818608E-02  0.9562592E-01
          4   -1    0    0  502    0 -0.00000000000E+00  0.00000000000E+00  0.67705123045E+03  0.67705123045E+03  0.00000000000E+00 0.  1.
         21   -1    0    0  501  502  0.00000000000E+00 -0.00000000000E+00 -0.78536309543E+03  0.78536309543E+03  0.00000000000E+00 0.  1.
    9000010    2    1    2  501    0  0.27662075873E+03  0.31627892371E+02  0.62654440647E+02  0.11356898907E+04  0.10992481890E+04 0.  0.
        -13    1    3    3    0    0  0.31190234878E+03  0.43073286507E+03 -0.28665398149E+03  0.60413938168E+03  0.10566000000E+00 0.  1.
          4    1    3    3  501    0 -0.35281590049E+02 -0.39910497270E+03  0.34930842214E+03  0.53155050899E+03  0.00000000000E+00 0.  1.
         13    1    1    2    0    0 -0.27662075873E+03 -0.31627892371E+02 -0.17096630563E+03  0.32672443520E+03  0.10566000000E+00 0. -1.
<mgrwt>
<rscale>  1 0.79822390E+03</rscale>
<asrwt>0</asrwt>
<pdfrwt beam="2">  1       21 0.12082509E+00 0.11339603E+04</pdfrwt>
<pdfrwt beam="1">  1        4 0.10416173E+00 0.11339603E+04</pdfrwt>
<totfact> 0.14062122E+01</totfact>
</mgrwt>
</event>
<event>
 6    1  0.1375310E-005  0.1081883E+04  0.7818608E-02  0.9518598E-01
         21   -1    0    0  501  502  0.00000000000E+00  0.00000000000E+00  0.69796246263E+03  0.69796246263E+03  0.00000000000E+00 0.  1.
          4   -1    0    0  502    0 -0.00000000000E+00 -0.00000000000E+00 -0.13537620430E+04  0.13537620430E+04  0.00000000000E+00 0.  1.
    9000010    2    1    2  501    0 -0.35293598760E+03  0.12206683887E+03  0.21606359929E+03  0.11032470206E+04  0.10153848457E+04 0.  0.
        -13    1    3    3    0    0 -0.61650544734E+03 -0.20771452476E+03  0.20065792001E+03  0.68079945830E+03  0.10566000000E+00 0.  1.
          4    1    3    3  501    0  0.26356945974E+03  0.32978136363E+03  0.15405679285E+02  0.42244756226E+03  0.00000000000E+00 0.  1.
         13    1    1    2    0    0  0.35293598760E+03 -0.12206683887E+03 -0.87186317967E+03  0.94847748509E+03  0.10566000000E+00 0. -1.
<mgrwt>
<rscale>  1 0.82926435E+03</rscale>
<asrwt>0</asrwt>
<pdfrwt beam="1">  1       21 0.10737884E+00 0.10818829E+04</pdfrwt>
<pdfrwt beam="2">  1        4 0.20827108E+00 0.10818829E+04</pdfrwt>
<totfact> 0.29250841E+00</totfact>
</mgrwt>
</event>
<event>
 6    1  0.1375310E-005  0.1176923E+04  0.7818608E-02  0.9654461E-01
          4   -1    0    0  502    0 -0.00000000000E+00  0.00000000000E+00  0.87812705358E+03  0.87812705358E+03  0.00000000000E+00 0.  1.
         21   -1    0    0  501  502  0.00000000000E+00 -0.00000000000E+00 -0.15175675967E+04  0.15175675967E+04  0.00000000000E+00 0.  1.
    9000010    2    1    2  501    0  0.17943517252E+03 -0.29867446502E+02 -0.12746805174E+04  0.17349232212E+04  0.11627807688E+04 0.  0.
        -13    1    3    3    0    0 -0.18246642408E+03  0.49586275780E+03 -0.69238410391E+03  0.87095902831E+03  0.10566000000E+00 0.  1.
          4    1    3    3  501    0  0.36190159660E+03 -0.52573020430E+03 -0.58229641352E+03  0.86396419285E+03  0.00000000000E+00 0.  1.
         13    1    1    2    0    0 -0.17943517252E+03  0.29867446502E+02  0.63523997427E+03  0.66077142914E+03  0.10566000000E+00 0. -1.
<mgrwt>
<rscale>  1 0.73794099E+03</rscale>
<asrwt>0</asrwt>
<pdfrwt beam="2">  1       21 0.23347194E+00 0.11769232E+04</pdfrwt>
<pdfrwt beam="1">  1        4 0.13509647E+00 0.11769232E+04</pdfrwt>
<totfact> 0.10281672E+00</totfact>
</mgrwt>
</event>
<event>
 6    1  0.1375310E-005  0.1018795E+04  0.7818608E-02  0.9780843E-01
         21   -1    0    0  501  502  0.00000000000E+00  0.00000000000E+00  0.39531185030E+03  0.39531185030E+03  0.00000000000E+00 0.  1.
          4   -1    0    0  502    0 -0.00000000000E+00 -0.00000000000E+00 -0.15351422916E+04  0.15351422916E+04  0.00000000000E+00 0.  1.
    9000010    2    1    2  501    0 -0.10917509023E+03  0.14790882977E+03 -0.28758498528E+03  0.10586063623E+04  0.10020708979E+04 0.  0.
        -13    1    3    3    0    0 -0.50848419270E+03 -0.88990074407E+02 -0.72880529511E+01  0.51626401622E+03  0.10566000000E+00 0.  1.
          4    1    3    3  501    0  0.39930910247E+03  0.23689890417E+03 -0.28029693232E+03  0.54234234611E+03  0.00000000000E+00 0.  1.
         13    1    1    2    0    0  0.10917509023E+03 -0.14790882977E+03 -0.85224545601E+03  0.87184777955E+03  0.10566000000E+00 0. -1.
<mgrwt>
<rscale>  1 0.66400828E+03</rscale>
<asrwt>0</asrwt>
<pdfrwt beam="1">  1       21 0.60817208E-01 0.10187945E+04</pdfrwt>
<pdfrwt beam="2">  1        4 0.23617574E+00 0.10187945E+04</pdfrwt>
<totfact> 0.75219861E+00</totfact>
</mgrwt>
</event>
<event>
 6    1  0.1375310E-005  0.1041820E+04  0.7818608E-02  0.9607283E-01
          4   -1    0    0  502    0 -0.00000000000E+00  0.00000000000E+00  0.13269293392E+04  0.13269293392E+04  0.00000000000E+00 0.  1.
         21   -1    0    0  501  502  0.00000000000E+00 -0.00000000000E+00 -0.35414091488E+03  0.35414091488E+03  0.00000000000E+00 0.  1.
    9000010    2    1    2  501    0  0.17545012685E+03 -0.25303767232E+03  0.86732553101E+03  0.13555963786E+04  0.99527742575E+03 0.  0.
        -13    1    3    3    0    0  0.55418473322E+03  0.40527500464E+02  0.38723600343E+03  0.67728496982E+03  0.10566000000E+00 0.  1.
          4    1    3    3  501    0 -0.37873460638E+03 -0.29356517278E+03  0.48008952758E+03  0.67831140874E+03  0.00000000000E+00 0.  1.
         13    1    1    2    0    0 -0.17545012685E+03  0.25303767232E+03  0.10546289332E+03  0.32547387553E+03  0.10566000000E+00 0. -1.
<mgrwt>
<rscale>  1 0.76815996E+03</rscale>
<asrwt>0</asrwt>
<pdfrwt beam="2">  1       21 0.54483218E-01 0.10418195E+04</pdfrwt>
<pdfrwt beam="1">  1        4 0.20414297E+00 0.10418195E+04</pdfrwt>
<totfact> 0.15336347E+01</totfact>
</mgrwt>
</event>
<event>
 6    1  0.1375310E-005  0.1327679E+04  0.7818608E-02  0.9115392E-01
         21   -1    0    0  501  502  0.00000000000E+00  0.00000000000E+00  0.48668351038E+03  0.48668351038E+03  0.00000000000E+00 0. -1.
          4   -1    0    0  502    0 -0.00000000000E+00 -0.00000000000E+00 -0.25466444679E+04  0.25466444679E+04  0.00000000000E+00 0.  1.
    9000010    2    1    2  501    0  0.42366639339E+03 -0.76846515842E+03 -0.14415751954E+04  0.19598137145E+04  0.99634273164E+03 0.  0.
        -13    1    3    3    0    0  0.66323737126E+03 -0.80888241081E+03 -0.13310796122E+04  0.16929109576E+04  0.10566000000E+00 0.  1.
          4    1    3    3  501    0 -0.23957097786E+03  0.40417252385E+02 -0.11049558316E+03  0.26690275686E+03  0.00000000000E+00 0.  1.
         13    1    1    2    0    0 -0.42366639339E+03  0.76846515842E+03 -0.61838576212E+03  0.10735142638E+04  0.10566000000E+00 0. -1.
<mgrwt>
<rscale>  1 0.11971082E+04</rscale>
<asrwt>0</asrwt>
<pdfrwt beam="1">  1       21 0.74874387E-01 0.13276787E+04</pdfrwt>
<pdfrwt beam="2">  1        4 0.39179145E+00 0.13276787E+04</pdfrwt>
<totfact> 0.45727207E-01</totfact>
</mgrwt>
</event>
<event>
 6    1  0.1375310E-005  0.1024000E+04  0.7818608E-02  0.9787980E-01
         21   -1    0    0  501  502  0.00000000000E+00  0.00000000000E+00  0.18220661993E+04  0.18220661993E+04  0.00000000000E+00 0.  1.
          4   -1    0    0  502    0 -0.00000000000E+00 -0.00000000000E+00 -0.23482620537E+03  0.23482620537E+03  0.00000000000E+00 0.  1.
    9000010    2    1    2  501    0  0.12450043766E+03 -0.12558657512E+03  0.15763094802E+04  0.18797149961E+04  0.10086151606E+04 0.  0.
        -13    1    3    3    0    0  0.39859559204E+03 -0.21015681878E+03  0.23524315557E+03  0.50831455604E+03  0.10566000000E+00 0.  1.
          4    1    3    3  501    0 -0.27409515438E+03  0.84570243656E+02  0.13410663247E+04  0.13714004400E+04  0.00000000000E+00 0.  1.
         13    1    1    2    0    0 -0.12450043766E+03  0.12558657512E+03  0.10930513704E+02  0.17717740861E+03  0.10566000000E+00 0. -1.
<mgrwt>
<rscale>  1 0.66011589E+03</rscale>
<asrwt>0</asrwt>
<pdfrwt beam="1">  1       21 0.28031787E+00 0.10240004E+04</pdfrwt>
<pdfrwt beam="2">  1        4 0.36127110E-01 0.10240004E+04</pdfrwt>
<totfact> 0.10487236E+01</totfact>
</mgrwt>
</event>
<event>
 6    1  0.1375310E-005  0.1128422E+04  0.7818608E-02  0.9385939E-01
         21   -1    0    0  501  502  0.00000000000E+00  0.00000000000E+00  0.90428785221E+03  0.90428785221E+03  0.00000000000E+00 0.  1.
          4   -1    0    0  502    0 -0.00000000000E+00 -0.00000000000E+00 -0.87769123321E+03  0.87769123321E+03  0.00000000000E+00 0.  1.
    9000010    2    1    2  501    0 -0.22946161980E+03  0.47337070490E+03  0.32873638771E+03  0.11753318154E+04  0.99830095886E+03 0.  0.
        -13    1    3    3    0    0 -0.48640859881E+03  0.33460193658E+02  0.43672985428E+03  0.65455777923E+03  0.10566000000E+00 0.  1.
          4    1    3    3  501    0  0.25694697901E+03  0.43991051125E+03 -0.10799346657E+03  0.52077403617E+03  0.00000000000E+00 0.  1.
         13    1    1    2    0    0  0.22946161980E+03 -0.47337070490E+03 -0.30213976872E+03  0.60664727002E+03  0.10566000000E+00 0. -1.
<mgrwt>
<rscale>  1 0.93241942E+03</rscale>
<asrwt>0</asrwt>
<pdfrwt beam="1">  1       21 0.13912121E+00 0.11284225E+04</pdfrwt>
<pdfrwt beam="2">  1        4 0.13502942E+00 0.11284225E+04</pdfrwt>
<totfact> 0.50301470E+00</totfact>
</mgrwt>
</event>
<event>
 6    1  0.1375310E-005  0.1352394E+04  0.7818608E-02  0.9097081E-01
          4   -1    0    0  502    0 -0.00000000000E+00  0.00000000000E+00  0.11437725832E+04  0.11437725832E+04  0.00000000000E+00 0.  1.
         21   -1    0    0  501  502  0.00000000000E+00 -0.00000000000E+00 -0.17838784188E+04  0.17838784188E+04  0.00000000000E+00 0. -1.
    9000010    2    1    2  501    0  0.39665408878E+03  0.79709380100E+03 -0.12555043823E+04  0.18453347930E+04  0.10179765471E+04 0.  0.
        -13    1    3    3    0    0 -0.53166261302E+02  0.75870119529E+03 -0.11548427260E+04  0.13827927856E+04  0.10566000000E+00 0.  1.
          4    1    3    3  501    0  0.44982035008E+03  0.38392605706E+02 -0.10066165631E+03  0.46254200736E+03  0.00000000000E+00 0.  1.
         13    1    1    2    0    0 -0.39665408878E+03 -0.79709380100E+03  0.61539854672E+03  0.10823162090E+04  0.10566000000E+00 0. -1.
<mgrwt>
<rscale>  1 0.12181914E+04</rscale>
<asrwt>0</asrwt>
<pdfrwt beam="2">  1       21 0.27444283E+00 0.13523939E+04</pdfrwt>
<pdfrwt beam="1">  1        4 0.17596501E+00 0.13523939E+04</pdfrwt>
<totfact> 0.26546610E-01</totfact>
</mgrwt>
</event>
<event>
 6    1  0.1375310E-005  0.1016011E+04  0.7818608E-02  0.9809269E-01
         21   -1    0    0  501  502  0.00000000000E+00  0.00000000000E+00  0.44306569791E+03  0.44306569791E+03  0.00000000000E+00 0.  1.
          4   -1    0    0  502    0 -0.00000000000E+00 -0.00000000000E+00 -0.84252670385E+03  0.84252670385E+03  0.00000000000E+00 0.  1.
    9000010    2    1    2  501    0  0.20904598370E+02 -0.16751635209E+03 -0.44732033411E+03  0.11101237239E+04  0.10018884522E+04 0.  0.
        -13    1    3    3    0    0 -0.47457131924E+03 -0.52734850615E+02 -0.83362264628E+02  0.48471453438E+03  0.10566000000E+00 0.  1.
          4    1    3    3  501    0  0.49547591761E+03 -0.11478150147E+03 -0.36395806948E+03  0.62540918953E+03  0.00000000000E+00 0.  1.
         13    1    1    2    0    0 -0.20904598370E+02  0.16751635209E+03  0.47859328173E+02  0.17546867785E+03  0.10566000000E+00 0. -1.
<mgrwt>
<rscale>  1 0.64867507E+03</rscale>
<asrwt>0</asrwt>
<pdfrwt beam="1">  1       21 0.68163955E-01 0.10160114E+04</pdfrwt>
<pdfrwt beam="2">  1        4 0.12961949E+00 0.10160114E+04</pdfrwt>
<totfact> 0.33066937E+01</totfact>
</mgrwt>
</event>
<event>
 6    1  0.1375310E-005  0.1006999E+04  0.7818608E-02  0.1002785E+00
          4   -1    0    0  502    0 -0.00000000000E+00  0.00000000000E+00  0.18450793494E+04  0.18450793494E+04  0.00000000000E+00 0.  1.
         21   -1    0    0  501  502  0.00000000000E+00 -0.00000000000E+00 -0.16637774925E+03  0.16637774925E+03  0.00000000000E+00 0.  1.
    9000010    2    1    2  501    0  0.13017873424E+02  0.85063792036E+02  0.14355366222E+04  0.17535142147E+04  0.10033152015E+04 0.  0.
        -13    1    3    3    0    0 -0.45769054713E+03  0.20931931804E+03  0.88914565930E+03  0.10217021231E+04  0.10566000000E+00 0.  1.
          4    1    3    3  501    0  0.47070842055E+03 -0.12425552600E+03  0.54639096292E+03  0.73181209151E+03  0.00000000000E+00 0.  1.
         13    1    1    2    0    0 -0.13017873424E+02 -0.85063792036E+02  0.24316497790E+03  0.25794288396E+03  0.10566000000E+00 0. -1.
<mgrwt>
<rscale>  1 0.54445846E+03</rscale>
<asrwt>0</asrwt>
<pdfrwt beam="2">  1       21 0.25596578E-01 0.10069989E+04</pdfrwt>
<pdfrwt beam="1">  1        4 0.28385835E+00 0.10069989E+04</pdfrwt>
<totfact> 0.23442285E+01</totfact>
</mgrwt>
</event>
<event>
 6    1  0.1375310E-005  0.9979351E+03  0.7818608E-02  0.1034549E+00
         21   -1    0    0  501  502  0.00000000000E+00  0.00000000000E+00  0.32394733378E+04  0.32394733378E+04  0.00000000000E+00 0.  1.
          4   -1    0    0  502    0 -0.00000000000E+00 -0.00000000000E+00 -0.15575334789E+03  0.15575334789E+03  0.00000000000E+00 0.  1.
    9000010    2    1    2  501    0  0.30315590674E+02  0.14741435098E+02  0.31589284733E+04  0.33128090172E+04  0.99736560003E+03 0.  0.
        -13    1    3    3    0    0  0.11959849119E+03 -0.41018269102E+03  0.73388330625E+03  0.84919865607E+03  0.10566000000E+00 0.  1.
          4    1    3    3  501    0 -0.89282900520E+02  0.42492412612E+03  0.24250451670E+04  0.24636103611E+04  0.00000000000E+00 0.  1.
         13    1    1    2    0    0 -0.30315590674E+02 -0.14741435098E+02 -0.75208483372E+02  0.82417668505E+02  0.10566000000E+00 0. -1.
<mgrwt>
<rscale>  1 0.42782488E+03</rscale>
<asrwt>0</asrwt>
<pdfrwt beam="1">  1       21 0.49838046E+00 0.99793511E+03</pdfrwt>
<pdfrwt beam="2">  1        4 0.23962056E-01 0.99793511E+03</pdfrwt>
<totfact> 0.86877179E-01</totfact>
</mgrwt>
</event>
<event>
 6    1  0.1375310E-005  0.1027398E+04  0.7818608E-02  0.9670634E-01
          4   -1    0    0  502    0 -0.00000000000E+00  0.00000000000E+00  0.33560857705E+03  0.33560857705E+03  0.00000000000E+00 0.  1.
         21   -1    0    0  501  502  0.00000000000E+00 -0.00000000000E+00 -0.12400264571E+04  0.12400264571E+04  0.00000000000E+00 0.  1.
    9000010    2    1    2  501    0  0.12487930552E+03  0.22678985897E+03 -0.77002330284E+03  0.12839324551E+04  0.99424251629E+03 0.  0.
        -13    1    3    3    0    0 -0.88449797307E+02  0.60925899487E+02  0.22689983186E+03  0.25103560850E+03  0.10566000000E+00 0.  1.
          4    1    3    3  501    0  0.21332910283E+03  0.16586395949E+03 -0.99692313470E+03  0.10328968466E+04  0.00000000000E+00 0.  1.
         13    1    1    2    0    0 -0.12487930552E+03 -0.22678985897E+03 -0.13439457716E+03  0.29170257903E+03  0.10566000000E+00 0. -1.
<mgrwt>
<rscale>  1 0.72792472E+03</rscale>
<asrwt>0</asrwt>
<pdfrwt beam="2">  1       21 0.19077330E+00 0.10273980E+04</pdfrwt>
<pdfrwt beam="1">  1        4 0.51632089E-01 0.10273980E+04</pdfrwt>
<totfact> 0.19246584E+01</totfact>
</mgrwt>
</event>
<event>
 6    1  0.1375310E-005  0.9964514E+03  0.7818608E-02  0.9999897E-01
         21   -1    0    0  501  502  0.00000000000E+00  0.00000000000E+00  0.36126906917E+03  0.36126906917E+03  0.00000000000E+00 0.  1.
          4   -1    0    0  502    0 -0.00000000000E+00 -0.00000000000E+00 -0.85408582141E+03  0.85408582141E+03  0.00000000000E+00 0.  1.
    9000010    2    1    2  501    0 -0.22023160187E+02 -0.94436774097E+02 -0.37965171371E+03  0.10663258297E+04  0.99172174899E+03 0.  0.
        -13    1    3    3    0    0 -0.18850073492E+03 -0.40135946339E+03 -0.52579522334E+03  0.68780998391E+03  0.10566000000E+00 0.  1.
          4    1    3    3  501    0  0.16647757473E+03  0.30692268929E+03  0.14614350963E+03  0.37851584576E+03  0.00000000000E+00 0.  1.
         13    1    1    2    0    0  0.22023160187E+02  0.94436774097E+02 -0.11316503853E+03  0.14902906091E+03  0.10566000000E+00 0. -1.
<mgrwt>
<rscale>  1 0.55654761E+03</rscale>
<asrwt>0</asrwt>
<pdfrwt beam="1">  1       21 0.55579857E-01 0.99645138E+03</pdfrwt>
<pdfrwt beam="2">  1        4 0.13139782E+00 0.99645138E+03</pdfrwt>
<totfact> 0.50511672E+01</totfact>
</mgrwt>
</event>
<event>
 6    1  0.1375310E-005  0.1048909E+04  0.7818608E-02  0.9679817E-01
          4   -1    0    0  502    0 -0.00000000000E+00  0.00000000000E+00  0.27522027435E+03  0.27522027435E+03  0.00000000000E+00 0.  1.
         21   -1    0    0  501  502  0.00000000000E+00 -0.00000000000E+00 -0.19991725070E+04  0.19991725070E+04  0.00000000000E+00 0.  1.
    9000010    2    1    2  501    0 -0.13444696840E+03  0.19381100857E+03 -0.17466765911E+04  0.20374221039E+04  0.10220425732E+04 0.  0.
        -13    1    3    3    0    0  0.37752388387E+03  0.28494454620E+03 -0.50846668507E+03  0.69444658419E+03  0.10566000000E+00 0.  1.
          4    1    3    3  501    0 -0.51197085227E+03 -0.91133537627E+02 -0.12382099060E+04  0.13429755197E+04  0.00000000000E+00 0.  1.
         13    1    1    2    0    0  0.13444696840E+03 -0.19381100857E+03  0.22724358400E+02  0.23697067747E+03  0.10566000000E+00 0. -1.
<mgrwt>
<rscale>  1 0.72231300E+03</rscale>
<asrwt>0</asrwt>
<pdfrwt beam="2">  1       21 0.30756501E+00 0.10489088E+04</pdfrwt>
<pdfrwt beam="1">  1        4 0.42341580E-01 0.10489088E+04</pdfrwt>
<totfact> 0.51163903E+00</totfact>
</mgrwt>
</event>
<event>
 6    1  0.1375310E-005  0.1038018E+04  0.7818608E-02  0.9629826E-01
         21   -1    0    0  501  502  0.00000000000E+00  0.00000000000E+00  0.37777098580E+03  0.37777098580E+03  0.00000000000E+00 0.  1.
          4   -1    0    0  502    0 -0.00000000000E+00 -0.00000000000E+00 -0.12384008639E+04  0.12384008639E+04  0.00000000000E+00 0.  1.
    9000010    2    1    2  501    0 -0.28661127279E+03 -0.30823128218E+02 -0.82455519699E+03  0.13256594047E+04  0.99718879729E+03 0.  0.
        -13    1    3    3    0    0 -0.85188371925E+02 -0.18197166730E+03  0.19227985042E+03  0.27810483356E+03  0.10566000000E+00 0.  1.
          4    1    3    3  501    0 -0.20142290087E+03  0.15114853908E+03 -0.10168350474E+04  0.10475545711E+04  0.00000000000E+00 0.  1.
         13    1    1    2    0    0  0.28661127279E+03  0.30823128218E+02 -0.36074681125E+02  0.29051244501E+03  0.10566000000E+00 0. -1.
<mgrwt>
<rscale>  1 0.75353136E+03</rscale>
<asrwt>0</asrwt>
<pdfrwt beam="1">  1       21 0.58118615E-01 0.10380181E+04</pdfrwt>
<pdfrwt beam="2">  1        4 0.19052320E+00 0.10380181E+04</pdfrwt>
<totfact> 0.16401708E+01</totfact>
</mgrwt>
</event>
<event>
 6    1  0.1375310E-005  0.1103782E+04  0.7818608E-02  0.9422745E-01
         21   -1    0    0  501  502  0.00000000000E+00  0.00000000000E+00  0.13107355415E+04  0.13107355415E+04  0.00000000000E+00 0. -1.
          4   -1    0    0  502    0 -0.00000000000E+00 -0.00000000000E+00 -0.53553084992E+03  0.53553084992E+03  0.00000000000E+00 0.  1.
    9000010    2    1    2  501    0  0.48958109477E+03 -0.56542315828E+02  0.26140461699E+03  0.11343132963E+04  0.98764750724E+03 0.  0.
        -13    1    3    3    0    0  0.75643594725E+03 -0.21279783497E+03  0.12240943905E+03  0.79527501079E+03  0.10566000000E+00 0.  1.
          4    1    3    3  501    0 -0.26685485248E+03  0.15625551914E+03  0.13899517794E+03  0.33903828552E+03  0.00000000000E+00 0.  1.
         13    1    1    2    0    0 -0.48958109477E+03  0.56542315828E+02  0.51380007458E+03  0.71195309511E+03  0.10566000000E+00 0. -1.
<mgrwt>
<rscale>  1 0.90227296E+03</rscale>
<asrwt>0</asrwt>
<pdfrwt beam="1">  1       21 0.20165162E+00 0.11037818E+04</pdfrwt>
<pdfrwt beam="2">  1        4 0.82389362E-01 0.11037818E+04</pdfrwt>
<totfact> 0.56891904E+00</totfact>
</mgrwt>
</event>
<event>
 6    1  0.1375310E-005  0.1018484E+04  0.7818608E-02  0.9880453E-01
          4   -1    0    0  502    0 -0.00000000000E+00  0.00000000000E+00  0.12143685007E+04  0.12143685007E+04  0.00000000000E+00 0.  1.
         21   -1    0    0  501  502  0.00000000000E+00 -0.00000000000E+00 -0.29235343543E+03  0.29235343543E+03  0.00000000000E+00 0.  1.
    9000010    2    1    2  501    0 -0.13252467848E+03 -0.10496260840E+02  0.66208963984E+03  0.12147729683E+04  0.10097711183E+04 0.  0.
        -13    1    3    3    0    0  0.23757001896E+03 -0.31288957908E+03  0.62133139286E+03  0.73511367388E+03  0.10566000000E+00 0.  1.
          4    1    3    3  501    0 -0.37009469744E+03  0.30239331824E+03  0.40758246973E+02  0.47965929438E+03  0.00000000000E+00 0.  1.
         13    1    1    2    0    0  0.13252467848E+03  0.10496260840E+02  0.25992542543E+03  0.29194896788E+03  0.10566000000E+00 0. -1.
<mgrwt>
<rscale>  1 0.61218054E+03</rscale>
<asrwt>0</asrwt>
<pdfrwt beam="2">  1       21 0.44977452E-01 0.10184845E+04</pdfrwt>
<pdfrwt beam="1">  1        4 0.18682592E+00 0.10184845E+04</pdfrwt>
<totfact> 0.30381976E+01</totfact>
</mgrwt>
</event>
<event>
 6    1  0.1375310E-005  0.9967497E+03  0.7818608E-02  0.1001825E+00
         21   -1    0    0  501  502  0.00000000000E+00  0.00000000000E+00  0.35048354536E+03  0.35048354536E+03  0.00000000000E+00 0.  1.
          4   -1    0    0  502    0 -0.00000000000E+00 -0.00000000000E+00 -0.84543045559E+03  0.84543045559E+03  0.00000000000E+00 0.  1.
    9000010    2    1    2  501    0 -0.59038222813E+01  0.91256570191E+02 -0.46312397075E+03  0.10990877268E+04  0.99254591946E+03 0.  0.
        -13    1    3    3    0    0 -0.46939270665E+03  0.17425187639E+03 -0.11559238212E+03  0.51386266594E+03  0.10566000000E+00 0.  1.
          4    1    3    3  501    0  0.46348888437E+03 -0.82995306203E+02 -0.34753158862E+03  0.58522506087E+03  0.00000000000E+00 0.  1.
         13    1    1    2    0    0  0.59038222813E+01 -0.91256570191E+02 -0.31822939482E+02  0.96826274130E+02  0.10566000000E+00 0. -1.
<mgrwt>
<rscale>  1 0.54857056E+03</rscale>
<asrwt>0</asrwt>
<pdfrwt beam="1">  1       21 0.53920546E-01 0.99674973E+03</pdfrwt>
<pdfrwt beam="2">  1        4 0.13006622E+00 0.99674973E+03</pdfrwt>
<totfact> 0.55413695E+01</totfact>
</mgrwt>
</event>
<event>
 6    1  0.1375310E-005  0.1060012E+04  0.7818608E-02  0.9571494E-01
         21   -1    0    0  501  502  0.00000000000E+00  0.00000000000E+00  0.16554098485E+04  0.16554098485E+04  0.00000000000E+00 0.  1.
          4   -1    0    0  502    0 -0.00000000000E+00 -0.00000000000E+00 -0.31011821323E+03  0.31011821323E+03  0.00000000000E+00 0.  1.
    9000010    2    1    2  501    0 -0.19687606871E+03 -0.26551892277E+03  0.12092643536E+04  0.16080872732E+04  0.10071563516E+04 0.  0.
        -13    1    3    3    0    0  0.23278886170E+03 -0.32417686894E+03  0.10863696138E+04  0.11573591687E+04  0.10566000000E+00 0.  1.
          4    1    3    3  501    0 -0.42966493041E+03  0.58657946172E+02  0.12289473973E+03  0.45072810443E+03  0.00000000000E+00 0.  1.
         13    1    1    2    0    0  0.19687606871E+03  0.26551892277E+03  0.13602728169E+03  0.35744078853E+03  0.10566000000E+00 0. -1.
<mgrwt>
<rscale>  1 0.79211973E+03</rscale>
<asrwt>0</asrwt>
<pdfrwt beam="1">  1       21 0.25467843E+00 0.10600115E+04</pdfrwt>
<pdfrwt beam="2">  1        4 0.47710495E-01 0.10600115E+04</pdfrwt>
<totfact> 0.85424259E+00</totfact>
</mgrwt>
</event>
<event>
 6    1  0.1375310E-005  0.1039919E+04  0.7818608E-02  0.9543911E-01
         21   -1    0    0  501  502  0.00000000000E+00  0.00000000000E+00  0.22785965963E+04  0.22785965963E+04  0.00000000000E+00 0. -1.
          4   -1    0    0  502    0 -0.00000000000E+00 -0.00000000000E+00 -0.34345286011E+03  0.34345286011E+03  0.00000000000E+00 0.  1.
    9000010    2    1    2  501    0  0.38233001883E+03  0.46043204873E+02  0.53412179767E+03  0.11690667644E+04  0.96598901897E+03 0.  0.
        -13    1    3    3    0    0  0.26541362832E+03  0.34902635441E+03  0.68313774727E+03  0.81175179894E+03  0.10566000000E+00 0.  1.
          4    1    3    3  501    0  0.11691639051E+03 -0.30298314954E+03 -0.14901594960E+03  0.35731496542E+03  0.00000000000E+00 0.  1.
         13    1    1    2    0    0 -0.38233001883E+03 -0.46043204873E+02  0.14010219385E+04  0.14529826920E+04  0.10566000000E+00 0. -1.
<mgrwt>
<rscale>  1 0.81122416E+03</rscale>
<asrwt>0</asrwt>
<pdfrwt beam="1">  1       21 0.35055331E+00 0.10399187E+04</pdfrwt>
<pdfrwt beam="2">  1        4 0.52838903E-01 0.10399187E+04</pdfrwt>
<totfact> 0.17333300E+00</totfact>
</mgrwt>
</event>
<event>
 6    1  0.1375310E-005  0.1024578E+04  0.7818608E-02  0.9693217E-01
         21   -1    0    0  501  502  0.00000000000E+00  0.00000000000E+00  0.65426499167E+03  0.65426499167E+03  0.00000000000E+00 0.  1.
          4   -1    0    0  502    0 -0.00000000000E+00 -0.00000000000E+00 -0.72315636395E+03  0.72315636395E+03  0.00000000000E+00 0.  1.
    9000010    2    1    2  501    0  0.24193210605E+03 -0.76805886878E+00  0.16865255244E+03  0.10383655178E+04  0.99560410364E+03 0.  0.
        -13    1    3    3    0    0 -0.26135942506E+03 -0.82071929500E+02 -0.25593730165E+03  0.37489793840E+03  0.10566000000E+00 0.  1.
          4    1    3    3  501    0  0.50329153111E+03  0.81303870631E+02  0.42458985408E+03  0.66346757936E+03  0.00000000000E+00 0.  1.
         13    1    1    2    0    0 -0.24193210605E+03  0.76805886878E+00 -0.23754392472E+03  0.33905583786E+03  0.10566000000E+00 0. -1.
<mgrwt>
<rscale>  1 0.71422094E+03</rscale>
<asrwt>0</asrwt>
<pdfrwt beam="1">  1       21 0.10065615E+00 0.10245776E+04</pdfrwt>
<pdfrwt beam="2">  1        4 0.11125483E+00 0.10245776E+04</pdfrwt>
<totfact> 0.19234018E+01</totfact>
</mgrwt>
</event>
<event>
 6    1  0.1375310E-005  0.9797853E+03  0.7818608E-02  0.1000682E+00
         21   -1    0    0  501  502  0.00000000000E+00  0.00000000000E+00  0.81702386845E+03  0.81702386845E+03  0.00000000000E+00 0.  1.
          4   -1    0    0  502    0 -0.00000000000E+00 -0.00000000000E+00 -0.37244303880E+03  0.37244303880E+03  0.00000000000E+00 0.  1.
    9000010    2    1    2  501    0  0.43867268764E+02  0.89647851810E+02  0.46969437637E+03  0.10865505529E+04  0.97468878223E+03 0.  0.
        -13    1    3    3    0    0 -0.92686512633E+02  0.51591130433E+03  0.32217442170E+03  0.61526549776E+03  0.10566000000E+00 0.  1.
          4    1    3    3  501    0  0.13655378140E+03 -0.42626345252E+03  0.14751995466E+03  0.47128505514E+03  0.00000000000E+00 0.  1.
         13    1    1    2    0    0 -0.43867268764E+02 -0.89647851810E+02 -0.25113546715E+02  0.10291635436E+03  0.10566000000E+00 0. -1.
<mgrwt>
<rscale>  1 0.55352410E+03</rscale>
<asrwt>0</asrwt>
<pdfrwt beam="1">  1       21 0.12569598E+00 0.97978533E+03</pdfrwt>
<pdfrwt beam="2">  1        4 0.57298929E-01 0.97978533E+03</pdfrwt>
<totfact> 0.50503533E+01</totfact>
</mgrwt>
</event>
<event>
 6    1  0.1375310E-005  0.9538032E+03  0.7818608E-02  0.9769972E-01
         21   -1    0    0  501  502  0.00000000000E+00  0.00000000000E+00  0.11441127704E+04  0.11441127704E+04  0.00000000000E+00 0.  1.
          4   -1    0    0  502    0 -0.00000000000E+00 -0.00000000000E+00 -0.34806093968E+03  0.34806093968E+03  0.00000000000E+00 0.  1.
    9000010    2    1    2  501    0 -0.85737387083E+02  0.21581485078E+03  0.82117348579E+03  0.12585970458E+04  0.92510198393E+03 0.  0.
        -13    1    3    3    0    0  0.10040295292E+02 -0.24776031453E+03 -0.62858577433E+02  0.25580694460E+03  0.10566000000E+00 0.  1.
          4    1    3    3  501    0 -0.95777682375E+02  0.46357516531E+03  0.88403206322E+03  0.10027901012E+04  0.00000000000E+00 0.  1.
         13    1    1    2    0    0  0.85737387083E+02 -0.21581485078E+03 -0.25121655072E+02  0.23357666425E+03  0.10566000000E+00 0. -1.
<mgrwt>
<rscale>  1 0.66999234E+03</rscale>
<asrwt>0</asrwt>
<pdfrwt beam="1">  1       21 0.17601735E+00 0.95380324E+03</pdfrwt>
<pdfrwt beam="2">  1        4 0.53547837E-01 0.95380324E+03</pdfrwt>
<totfact> 0.22933263E+01</totfact>
</mgrwt>
</event>
<event>
 6    1  0.1375310E-005  0.1018063E+04  0.7818608E-02  0.9818244E-01
          4   -1    0    0  502    0 -0.00000000000E+00  0.00000000000E+00  0.10601093888E+04  0.10601093888E+04  0.00000000000E+00 0.  1.
         21   -1    0    0  501  502  0.00000000000E+00 -0.00000000000E+00 -0.63699397808E+03  0.63699397808E+03  0.00000000000E+00 0.  1.
    9000010    2    1    2  501    0 -0.82162382953E+02 -0.14070418344E+03 -0.21329407884E+03  0.10401670123E+04  0.10049401599E+04 0.  0.
        -13    1    3    3    0    0 -0.50559357659E+03 -0.27049960952E+02 -0.30662313361E+03  0.59192425385E+03  0.10566000000E+00 0.  1.
          4    1    3    3  501    0  0.42343119363E+03 -0.11365422249E+03  0.93329054774E+02  0.44824275844E+03  0.00000000000E+00 0.  1.
         13    1    1    2    0    0  0.82162382953E+02  0.14070418344E+03  0.63640948953E+03  0.65693635456E+03  0.10566000000E+00 0. -1.
<mgrwt>
<rscale>  1 0.64392572E+03</rscale>
<asrwt>0</asrwt>
<pdfrwt beam="2">  1       21 0.97999074E-01 0.10180634E+04</pdfrwt>
<pdfrwt beam="1">  1        4 0.16309375E+00 0.10180634E+04</pdfrwt>
<totfact> 0.75926698E+00</totfact>
</mgrwt>
</event>
<event>
 6    1  0.1375310E-005  0.1009601E+04  0.7818608E-02  0.9964663E-01
         21   -1    0    0  501  502  0.00000000000E+00  0.00000000000E+00  0.61696371708E+03  0.61696371708E+03  0.00000000000E+00 0.  1.
          4   -1    0    0  502    0 -0.00000000000E+00 -0.00000000000E+00 -0.54170389629E+03  0.54170389629E+03  0.00000000000E+00 0.  1.
    9000010    2    1    2  501    0 -0.98904673345E+02 -0.32866110198E+02  0.16269517401E+03  0.10226261941E+04  0.10042072981E+04 0.  0.
        -13    1    3    3    0    0  0.20763856716E+03 -0.40876204813E+03 -0.10253678461E+03  0.46980207527E+03  0.10566000000E+00 0.  1.
          4    1    3    3  501    0 -0.30654324050E+03  0.37589593794E+03  0.26523195862E+03  0.55282411880E+03  0.00000000000E+00 0.  1.
         13    1    1    2    0    0  0.98904673345E+02  0.32866110198E+02 -0.87435353212E+02  0.13604141930E+03  0.10566000000E+00 0. -1.
<mgrwt>
<rscale>  1 0.57227234E+03</rscale>
<asrwt>0</asrwt>
<pdfrwt beam="1">  1       21 0.94917495E-01 0.10096012E+04</pdfrwt>
<pdfrwt beam="2">  1        4 0.83339061E-01 0.10096012E+04</pdfrwt>
<totfact> 0.44414764E+01</totfact>
</mgrwt>
</event>
<event>
 6    1  0.1375310E-005  0.1133713E+04  0.7818608E-02  0.9368536E-01
         21   -1    0    0  501  502  0.00000000000E+00  0.00000000000E+00  0.56635492768E+03  0.56635492768E+03  0.00000000000E+00 0.  1.
          4   -1    0    0  502    0 -0.00000000000E+00 -0.00000000000E+00 -0.13376397383E+04  0.13376397383E+04  0.00000000000E+00 0.  1.
    9000010    2    1    2  501    0  0.26170108022E+03 -0.48623923862E+03 -0.28688503744E+03  0.11694477281E+04  0.99014590412E+03 0.  0.
        -13    1    3    3    0    0  0.18464524738E+02  0.16165343850E+03  0.24674076952E+03  0.29555674812E+03  0.10566000000E+00 0.  1.
          4    1    3    3  501    0  0.24323655548E+03 -0.64789267712E+03 -0.53362580696E+03  0.87389097996E+03  0.00000000000E+00 0.  1.
         13    1    1    2    0    0 -0.26170108022E+03  0.48623923862E+03 -0.48439977317E+03  0.73454693790E+03  0.10566000000E+00 0. -1.
<mgrwt>
<rscale>  1 0.94710877E+03</rscale>
<asrwt>0</asrwt>
<pdfrwt beam="1">  1       21 0.87131529E-01 0.11337129E+04</pdfrwt>
<pdfrwt beam="2">  1        4 0.20579072E+00 0.11337129E+04</pdfrwt>
<totfact> 0.50491279E+00</totfact>
</mgrwt>
</event>
<event>
 6    1  0.1375310E-005  0.7410887E+03  0.7818608E-02  0.1007468E+00
          4   -1    0    0  502    0 -0.00000000000E+00  0.00000000000E+00  0.85758978968E+03  0.85758978968E+03  0.00000000000E+00 0.  1.
         21   -1    0    0  501  502  0.00000000000E+00 -0.00000000000E+00 -0.26896971065E+03  0.26896971065E+03  0.00000000000E+00 0.  1.
    9000010    2    1    2  501    0  0.18654336991E+03  0.24301447972E+01  0.57774835803E+03  0.93968376638E+03  0.71722247674E+03 0.  0.
        -13    1    3    3    0    0 -0.12915514490E+03  0.36634852352E+02  0.60617921901E+03  0.62086747425E+03  0.10566000000E+00 0.  1.
          4    1    3    3  501    0  0.31569851480E+03 -0.34204707555E+02 -0.28430860986E+02  0.31881629213E+03  0.00000000000E+00 0.  1.
         13    1    1    2    0    0 -0.18654336991E+03 -0.24301447972E+01  0.10871721001E+02  0.18687573396E+03  0.10566000000E+00 0. -1.
<mgrwt>
<rscale>  1 0.52493662E+03</rscale>
<asrwt>0</asrwt>
<pdfrwt beam="2">  1       21 0.41379956E-01 0.74108867E+03</pdfrwt>
<pdfrwt beam="1">  1        4 0.13193689E+00 0.74108867E+03</pdfrwt>
<totfact> 0.96106463E+01</totfact>
</mgrwt>
</event>
<event>
 6    1  0.1375310E-005  0.1019456E+04  0.7818608E-02  0.1012471E+00
          4   -1    0    0  502    0 -0.00000000000E+00  0.00000000000E+00  0.10032096291E+04  0.10032096291E+04  0.00000000000E+00 0.  1.
         21   -1    0    0  501  502  0.00000000000E+00 -0.00000000000E+00 -0.35239301834E+03  0.35239301834E+03  0.00000000000E+00 0.  1.
    9000010    2    1    2  501    0  0.41423908743E+02 -0.45327358857E+02  0.39628659137E+03  0.10937705417E+04  0.10176052406E+04 0.  0.
        -13    1    3    3    0    0  0.27787165360E+03  0.34687034781E+03  0.45023128275E+03  0.63264517164E+03  0.10566000000E+00 0.  1.
          4    1    3    3  501    0 -0.23644774485E+03 -0.39219770667E+03 -0.53944691381E+02  0.46112537004E+03  0.00000000000E+00 0.  1.
         13    1    1    2    0    0 -0.41423908743E+02  0.45327358857E+02  0.25453001936E+03  0.26183210574E+03  0.10566000000E+00 0. -1.
<mgrwt>
<rscale>  1 0.50504095E+03</rscale>
<asrwt>0</asrwt>
<pdfrwt beam="2">  1       21 0.54214311E-01 0.10194562E+04</pdfrwt>
<pdfrwt beam="1">  1        4 0.15433994E+00 0.10194562E+04</pdfrwt>
<totfact> 0.34802672E+01</totfact>
</mgrwt>
</event>
<event>
 6    1  0.1375310E-005  0.1006054E+04  0.7818608E-02  0.9953891E-01
         21   -1    0    0  501  502  0.00000000000E+00  0.00000000000E+00  0.11146658327E+04  0.11146658327E+04  0.00000000000E+00 0.  1.
          4   -1    0    0  502    0 -0.00000000000E+00 -0.00000000000E+00 -0.78969148409E+03  0.78969148409E+03  0.00000000000E+00 0.  1.
    9000010    2    1    2  501    0 -0.20590506698E+02 -0.10703459058E+03  0.88128884370E+03  0.13374656153E+04  0.10001319281E+04 0.  0.
        -13    1    3    3    0    0 -0.23414629790E+03 -0.45998352805E+03  0.22671965192E+03  0.56374741385E+03  0.10566000000E+00 0.  1.
          4    1    3    3  501    0  0.21355579121E+03  0.35294893746E+03  0.65456919178E+03  0.77371820144E+03  0.00000000000E+00 0.  1.
         13    1    1    2    0    0  0.20590506698E+02  0.10703459058E+03 -0.55631449511E+03  0.56689170146E+03  0.10566000000E+00 0. -1.
<mgrwt>
<rscale>  1 0.57719122E+03</rscale>
<asrwt>0</asrwt>
<pdfrwt beam="1">  1       21 0.17148705E+00 0.10060538E+04</pdfrwt>
<pdfrwt beam="2">  1        4 0.12149100E+00 0.10060538E+04</pdfrwt>
<totfact> 0.37079694E+00</totfact>
</mgrwt>
</event>
<event>
 6    1  0.1375310E-005  0.1052898E+04  0.7818608E-02  0.9587167E-01
         21   -1    0    0  501  502  0.00000000000E+00  0.00000000000E+00  0.32929114761E+03  0.32929114761E+03  0.00000000000E+00 0.  1.
          4   -1    0    0  502    0 -0.00000000000E+00 -0.00000000000E+00 -0.15119167957E+04  0.15119167957E+04  0.00000000000E+00 0.  1.
    9000010    2    1    2  501    0  0.25780882632E+03  0.18886526888E+03 -0.70721800737E+03  0.12683659784E+04  0.10032245335E+04 0.  0.
        -13    1    3    3    0    0 -0.28320887967E+03  0.11208511472E+03 -0.65139056027E+03  0.71908275994E+03  0.10566000000E+00 0.  1.
          4    1    3    3  501    0  0.54101770599E+03  0.76780154167E+02 -0.55827447097E+02  0.54928321849E+03  0.00000000000E+00 0.  1.
         13    1    1    2    0    0 -0.25780882632E+03 -0.18886526888E+03 -0.47540764074E+03  0.57284196491E+03  0.10566000000E+00 0. -1.
<mgrwt>
<rscale>  1 0.78151429E+03</rscale>
<asrwt>0</asrwt>
<pdfrwt beam="1">  1       21 0.50660176E-01 0.10528984E+04</pdfrwt>
<pdfrwt beam="2">  1        4 0.23260258E+00 0.10528984E+04</pdfrwt>
<totfact> 0.11794130E+01</totfact>
</mgrwt>
</event>
<event>
 6    1  0.1375310E-005  0.1006277E+04  0.7818608E-02  0.9890127E-01
         21   -1    0    0  501  502  0.00000000000E+00  0.00000000000E+00  0.26955541890E+03  0.26955541890E+03  0.00000000000E+00 0.  1.
          4   -1    0    0  502    0 -0.00000000000E+00 -0.00000000000E+00 -0.15710072013E+04  0.15710072013E+04  0.00000000000E+00 0.  1.
    9000010    2    1    2  501    0 -0.51389206977E+02 -0.12332212764E+03 -0.70334527829E+03  0.12277163106E+04  0.99736831766E+03 0.  0.
        -13    1    3    3    0    0 -0.34058320573E+03  0.22014270948E+03 -0.66262543655E+03  0.77687335705E+03  0.10566000000E+00 0.  1.
          4    1    3    3  501    0  0.28919399875E+03 -0.34346483713E+03 -0.40719841736E+02  0.45084295355E+03  0.00000000000E+00 0.  1.
         13    1    1    2    0    0  0.51389206977E+02  0.12332212764E+03 -0.59810650414E+03  0.61284630962E+03  0.10566000000E+00 0. -1.
<mgrwt>
<rscale>  1 0.60742188E+03</rscale>
<asrwt>0</asrwt>
<pdfrwt beam="1">  1       21 0.41470064E-01 0.10062767E+04</pdfrwt>
<pdfrwt beam="2">  1        4 0.24169342E+00 0.10062767E+04</pdfrwt>
<totfact> 0.15949865E+01</totfact>
</mgrwt>
</event>
<event>
 6    1  0.1375310E-005  0.1013674E+04  0.7818608E-02  0.9771058E-01
          4   -1    0    0  502    0 -0.00000000000E+00  0.00000000000E+00  0.99471652213E+03  0.99471652213E+03  0.00000000000E+00 0.  1.
         21   -1    0    0  501  502  0.00000000000E+00 -0.00000000000E+00 -0.36798770543E+03  0.36798770543E+03  0.00000000000E+00 0.  1.
    9000010    2    1    2  501    0  0.38848212338E+02 -0.18880824160E+03  0.56387301785E+03  0.11599516732E+04  0.99517705368E+03 0.  0.
        -13    1    3    3    0    0  0.21506675304E+03  0.12172966339E+03  0.72666581372E+03  0.76753829560E+03  0.10566000000E+00 0.  1.
          4    1    3    3  501    0 -0.17621854071E+03 -0.31053790498E+03 -0.16279279587E+03  0.39241337759E+03  0.00000000000E+00 0.  1.
         13    1    1    2    0    0 -0.38848212338E+02  0.18880824160E+03  0.62855798853E+02  0.20275255439E+03  0.10566000000E+00 0. -1.
<mgrwt>
<rscale>  1 0.66939117E+03</rscale>
<asrwt>0</asrwt>
<pdfrwt beam="2">  1       21 0.56613493E-01 0.10136741E+04</pdfrwt>
<pdfrwt beam="1">  1        4 0.15303331E+00 0.10136741E+04</pdfrwt>
<totfact> 0.32395351E+01</totfact>
</mgrwt>
</event>
<event>
 6    1  0.1375310E-005  0.9930378E+03  0.7818608E-02  0.1028202E+00
          4   -1    0    0  502    0 -0.00000000000E+00  0.00000000000E+00  0.39329809995E+03  0.39329809995E+03  0.00000000000E+00 0.  1.
         21   -1    0    0  501  502  0.00000000000E+00 -0.00000000000E+00 -0.68437913583E+03  0.68437913583E+03  0.00000000000E+00 0.  1.
    9000010    2    1    2  501    0  0.39220208386E+01  0.41093214641E+02 -0.26149715104E+03  0.10268908996E+04  0.99217948232E+03 0.  0.
        -13    1    3    3    0    0  0.15992605832E+02  0.45783593326E+03  0.10702188998E+03  0.47044999875E+03  0.10566000000E+00 0.  1.
          4    1    3    3  501    0 -0.12070584994E+02 -0.41674271862E+03 -0.36851904102E+03  0.55644090085E+03  0.00000000000E+00 0.  1.
         13    1    1    2    0    0 -0.39220208386E+01 -0.41093214641E+02 -0.29583884837E+02  0.50786336185E+02  0.10566000000E+00 0. -1.
<mgrwt>
<rscale>  1 0.44839376E+03</rscale>
<asrwt>0</asrwt>
<pdfrwt beam="2">  1       21 0.10528910E+00 0.99303784E+03</pdfrwt>
<pdfrwt beam="1">  1        4 0.60507401E-01 0.99303784E+03</pdfrwt>
<totfact> 0.70601451E+01</totfact>
</mgrwt>
</event>
<event>
 6    1  0.1375310E-005  0.1203266E+04  0.7818608E-02  0.9268487E-01
         21   -1    0    0  501  502  0.00000000000E+00  0.00000000000E+00  0.10673584541E+04  0.10673584541E+04  0.00000000000E+00 0. -1.
          4   -1    0    0  502    0 -0.00000000000E+00 -0.00000000000E+00 -0.95687534928E+03  0.95687534928E+03  0.00000000000E+00 0.  1.
    9000010    2    1    2  501    0  0.47636130021E+03  0.46361116979E+03 -0.30374156054E+03  0.12410113001E+04  0.10029928745E+04 0.  0.
        -13    1    3    3    0    0 -0.48060878900E+02 -0.28429956693E+03 -0.99393984857E+02  0.30498404422E+03  0.10566000000E+00 0.  1.
          4    1    3    3  501    0  0.52442217911E+03  0.74791073671E+03 -0.20434757568E+03  0.93602725587E+03  0.00000000000E+00 0.  1.
         13    1    1    2    0    0 -0.47636130021E+03 -0.46361116979E+03  0.41422466531E+03  0.78322250325E+03  0.10566000000E+00 0. -1.
<mgrwt>
<rscale>  1 0.10373646E+04</rscale>
<asrwt>0</asrwt>
<pdfrwt beam="1">  1       21 0.16420899E+00 0.12032664E+04</pdfrwt>
<pdfrwt beam="2">  1        4 0.14721159E+00 0.12032664E+04</pdfrwt>
<totfact> 0.24888484E+00</totfact>
</mgrwt>
</event>
<event>
 6    1  0.1375310E-005  0.1069952E+04  0.7818608E-02  0.9483659E-01
         21   -1    0    0  501  502  0.00000000000E+00  0.00000000000E+00  0.13982236661E+04  0.13982236661E+04  0.00000000000E+00 0.  1.
          4   -1    0    0  502    0 -0.00000000000E+00 -0.00000000000E+00 -0.50918587472E+03  0.50918587472E+03  0.00000000000E+00 0.  1.
    9000010    2    1    2  501    0  0.19030754418E+03  0.39257788057E+03  0.99209859531E+03  0.14591284971E+04  0.97696570796E+03 0.  0.
        -13    1    3    3    0    0  0.36570819680E+03  0.54383255866E+03  0.28424564339E+03  0.71434720830E+03  0.10566000000E+00 0.  1.
          4    1    3    3  501    0 -0.17540065262E+03 -0.15125467809E+03  0.70785295193E+03  0.74478128879E+03  0.00000000000E+00 0.  1.
         13    1    1    2    0    0 -0.19030754418E+03 -0.39257788057E+03 -0.10306080394E+03  0.44828104372E+03  0.10566000000E+00 0. -1.
<mgrwt>
<rscale>  1 0.85499335E+03</rscale>
<asrwt>0</asrwt>
<pdfrwt beam="1">  1       21 0.21511133E+00 0.10699516E+04</pdfrwt>
<pdfrwt beam="2">  1        4 0.78336289E-01 0.10699516E+04</pdfrwt>
<totfact> 0.52032521E+00</totfact>
</mgrwt>
</event>
<event>
 6    1  0.1375310E-005  0.1380788E+04  0.7818608E-02  0.9058628E-01
          4   -1    0    0  502    0 -0.00000000000E+00  0.00000000000E+00  0.23389552811E+04  0.23389552811E+04  0.00000000000E+00 0.  1.
         21   -1    0    0  501  502  0.00000000000E+00 -0.00000000000E+00 -0.60022337762E+03  0.60022337762E+03  0.00000000000E+00 0. -1.
    9000010    2    1    2  501    0 -0.32815213850E+03  0.91234685385E+03  0.83434074378E+03  0.16132887731E+04  0.98311524302E+03 0.  0.
        -13    1    3    3    0    0  0.34890441742E+03  0.23129221561E+03  0.29210653939E+03  0.51044747331E+03  0.10566000000E+00 0.  1.
          4    1    3    3  501    0 -0.67705655592E+03  0.68105463824E+03  0.54223420440E+03  0.11028412998E+04  0.00000000000E+00 0.  1.
         13    1    1    2    0    0  0.32815213850E+03 -0.91234685385E+03  0.90439115965E+03  0.13258898855E+04  0.10566000000E+00 0. -1.
<mgrwt>
<rscale>  1 0.12639788E+04</rscale>
<asrwt>0</asrwt>
<pdfrwt beam="2">  1       21 0.92342059E-01 0.13807882E+04</pdfrwt>
<pdfrwt beam="1">  1        4 0.35983927E+00 0.13807882E+04</pdfrwt>
<totfact> 0.45147140E-01</totfact>
</mgrwt>
</event>
<event>
 6    1  0.1375310E-005  0.1062201E+04  0.7818608E-02  0.9569239E-01
          4   -1    0    0  502    0 -0.00000000000E+00  0.00000000000E+00  0.22738701316E+04  0.22738701316E+04  0.00000000000E+00 0.  1.
         21   -1    0    0  501  502  0.00000000000E+00 -0.00000000000E+00 -0.22316233236E+03  0.22316233236E+03  0.00000000000E+00 0.  1.
    9000010    2    1    2  501    0 -0.24479396878E+03  0.22289666091E+03  0.13161032934E+04  0.16912714574E+04  0.10092889849E+04 0.  0.
        -13    1    3    3    0    0 -0.46033164010E+03  0.19507305229E+03  0.17506781325E+03  0.52972395170E+03  0.10566000000E+00 0.  1.
          4    1    3    3  501    0  0.21553767132E+03  0.27823608626E+02  0.11410354802E+04  0.11615475057E+04  0.00000000000E+00 0.  1.
         13    1    1    2    0    0  0.24479396878E+03 -0.22289666091E+03  0.73460450582E+03  0.80576100658E+03  0.10566000000E+00 0. -1.
<mgrwt>
<rscale>  1 0.79366069E+03</rscale>
<asrwt>0</asrwt>
<pdfrwt beam="2">  1       21 0.34332668E-01 0.10622011E+04</pdfrwt>
<pdfrwt beam="1">  1        4 0.34982616E+00 0.10622011E+04</pdfrwt>
<totfact> 0.49568214E+00</totfact>
</mgrwt>
</event>
<event>
 6    1  0.1375310E-005  0.9695573E+03  0.7818608E-02  0.1052571E+00
          4   -1    0    0  502    0 -0.00000000000E+00  0.00000000000E+00  0.23717652698E+03  0.23717652698E+03  0.00000000000E+00 0.  1.
         21   -1    0    0  501  502  0.00000000000E+00 -0.00000000000E+00 -0.11420632049E+04  0.11420632049E+04  0.00000000000E+00 0.  1.
    9000010    2    1    2  501    0  0.48092414203E+01  0.21300472399E+02 -0.93170062292E+03  0.13446588449E+04  0.96931136360E+03 0.  0.
        -13    1    3    3    0    0 -0.42786167844E+03  0.19485391038E+03 -0.64220757379E+03  0.79590466845E+03  0.10566000000E+00 0.  1.
          4    1    3    3  501    0  0.43267091986E+03 -0.17355343798E+03 -0.28949304912E+03  0.54875417649E+03  0.00000000000E+00 0.  1.
         13    1    1    2    0    0 -0.48092414203E+01 -0.21300472399E+02  0.26813945022E+02  0.34580886905E+02  0.10566000000E+00 0. -1.
<mgrwt>
<rscale>  1 0.37560196E+03</rscale>
<asrwt>0</asrwt>
<pdfrwt beam="2">  1       21 0.17570203E+00 0.96955730E+03</pdfrwt>
<pdfrwt beam="1">  1        4 0.36488697E-01 0.96955730E+03</pdfrwt>
<totfact> 0.50910800E+01</totfact>
</mgrwt>
</event>
<event>
 6    1  0.1375310E-005  0.1001869E+04  0.7818608E-02  0.1002572E+00
          4   -1    0    0  502    0 -0.00000000000E+00  0.00000000000E+00  0.59561740877E+03  0.59561740877E+03  0.00000000000E+00 0.  1.
         21   -1    0    0  501  502  0.00000000000E+00 -0.00000000000E+00 -0.10846742938E+04  0.10846742938E+04  0.00000000000E+00 0.  1.
    9000010    2    1    2  501    0  0.86515404356E+02 -0.15918114552E+02 -0.84685856888E+03  0.13118349783E+04  0.99799963581E+03 0.  0.
        -13    1    3    3    0    0 -0.29943055821E+03  0.31083112234E+03 -0.16307421274E+03  0.46137604601E+03  0.10566000000E+00 0.  1.
          4    1    3    3  501    0  0.38594596257E+03 -0.32674923689E+03 -0.68378435613E+03  0.85045893230E+03  0.00000000000E+00 0.  1.
         13    1    1    2    0    0 -0.86515404356E+02  0.15918114552E+02  0.35780168383E+03  0.36845672429E+03  0.10566000000E+00 0. -1.
<mgrwt>
<rscale>  1 0.54536718E+03</rscale>
<asrwt>0</asrwt>
<pdfrwt beam="2">  1       21 0.16687297E+00 0.10018690E+04</pdfrwt>
<pdfrwt beam="1">  1        4 0.91633448E-01 0.10018690E+04</pdfrwt>
<totfact> 0.79961880E+00</totfact>
</mgrwt>
</event>
<event>
 6    1  0.1375310E-005  0.1067967E+04  0.7818608E-02  0.9503310E-01
         21   -1    0    0  501  502  0.00000000000E+00  0.00000000000E+00  0.22773419422E+04  0.22773419422E+04  0.00000000000E+00 0.  1.
          4   -1    0    0  502    0 -0.00000000000E+00 -0.00000000000E+00 -0.31134733966E+03  0.31134733966E+03  0.00000000000E+00 0.  1.
    9000010    2    1    2  501    0 -0.30867695026E+03 -0.26912105783E+03  0.18919002991E+04  0.21725191479E+04  0.98632910476E+03 0.  0.
        -13    1    3    3    0    0  0.15682288623E+03 -0.51097504069E+03  0.81481356390E+03  0.97447938148E+03  0.10566000000E+00 0.  1.
          4    1    3    3  501    0 -0.46549983648E+03  0.24185398286E+03  0.10770867352E+04  0.11980397665E+04  0.00000000000E+00 0.  1.
         13    1    1    2    0    0  0.30867695026E+03  0.26912105783E+03  0.74094303377E+02  0.41617013389E+03  0.10566000000E+00 0. -1.
<mgrwt>
<rscale>  1 0.84040254E+03</rscale>
<asrwt>0</asrwt>
<pdfrwt beam="1">  1       21 0.35036029E+00 0.10679666E+04</pdfrwt>
<pdfrwt beam="2">  1        4 0.47899592E-01 0.10679666E+04</pdfrwt>
<totfact> 0.21275604E+00</totfact>
</mgrwt>
</event>
<event>
 6    1  0.1375310E-005  0.9774490E+03  0.7818608E-02  0.1022449E+00
         21   -1    0    0  501  502  0.00000000000E+00  0.00000000000E+00  0.31610123436E+03  0.31610123436E+03  0.00000000000E+00 0.  1.
          4   -1    0    0  502    0 -0.00000000000E+00 -0.00000000000E+00 -0.10325056792E+04  0.10325056792E+04  0.00000000000E+00 0.  1.
    9000010    2    1    2  501    0 -0.47733021966E+02  0.19139171489E+02 -0.44783329012E+03  0.10751563228E+04  0.97609513545E+03 0.  0.
        -13    1    3    3    0    0 -0.28671372291E+02  0.48603840568E+03 -0.11170130171E+03  0.49953235266E+03  0.10566000000E+00 0.  1.
          4    1    3    3  501    0 -0.19061649675E+02 -0.46689923419E+03 -0.33613198841E+03  0.57562397014E+03  0.00000000000E+00 0.  1.
         13    1    1    2    0    0  0.47733021966E+02 -0.19139171489E+02 -0.26857115468E+03  0.27345059072E+03  0.10566000000E+00 0. -1.
<mgrwt>
<rscale>  1 0.46813257E+03</rscale>
<asrwt>0</asrwt>
<pdfrwt beam="1">  1       21 0.48630960E-01 0.97744896E+03</pdfrwt>
<pdfrwt beam="2">  1        4 0.15884703E+00 0.97744896E+03</pdfrwt>
<totfact> 0.40880719E+01</totfact>
</mgrwt>
</event>
<event>
 6    1  0.1375310E-005  0.1004344E+04  0.7818608E-02  0.1021924E+00
         21   -1    0    0  501  502  0.00000000000E+00  0.00000000000E+00  0.55500107822E+03  0.55500107822E+03  0.00000000000E+00 0.  1.
          4   -1    0    0  502    0 -0.00000000000E+00 -0.00000000000E+00 -0.52458781432E+03  0.52458781432E+03  0.00000000000E+00 0.  1.
    9000010    2    1    2  501    0 -0.22952917514E+02 -0.42339282145E+02  0.83624542977E+02  0.10078191035E+04  0.10031883322E+04 0.  0.
        -13    1    3    3    0    0 -0.50085602410E+03  0.83784325841E+02  0.85732174304E+01  0.50788786298E+03  0.10566000000E+00 0.  1.
          4    1    3    3  501    0  0.47790310659E+03 -0.12612360799E+03  0.75051325547E+02  0.49993124052E+03  0.00000000000E+00 0.  1.
         13    1    1    2    0    0  0.22952917514E+02  0.42339282145E+02 -0.53211279073E+02  0.71769789045E+02  0.10566000000E+00 0. -1.
<mgrwt>
<rscale>  1 0.46998629E+03</rscale>
<asrwt>0</asrwt>
<pdfrwt beam="1">  1       21 0.85384782E-01 0.10043437E+04</pdfrwt>
<pdfrwt beam="2">  1        4 0.80705817E-01 0.10043437E+04</pdfrwt>
<totfact> 0.61789867E+01</totfact>
</mgrwt>
</event>
<event>
 6    1  0.1375310E-005  0.1030950E+04  0.7818608E-02  0.9691771E-01
          4   -1    0    0  502    0 -0.00000000000E+00  0.00000000000E+00  0.10934110911E+04  0.10934110911E+04  0.00000000000E+00 0.  1.
         21   -1    0    0  501  502  0.00000000000E+00 -0.00000000000E+00 -0.94841948637E+03  0.94841948637E+03  0.00000000000E+00 0.  1.
    9000010    2    1    2  501    0 -0.15743155497E+03  0.17933225273E+03 -0.64532983506E+03  0.12162685018E+04  0.10029525020E+04 0.  0.
        -13    1    3    3    0    0 -0.10450043231E+03 -0.69720436925E+02  0.25304350304E+03  0.28251071709E+03  0.10566000000E+00 0.  1.
          4    1    3    3  501    0 -0.52931122664E+02  0.24905268965E+03 -0.89837333809E+03  0.93375778474E+03  0.00000000000E+00 0.  1.
         13    1    1    2    0    0  0.15743155497E+03 -0.17933225273E+03  0.79032143982E+03  0.82556207566E+03  0.10566000000E+00 0. -1.
<mgrwt>
<rscale>  1 0.71508886E+03</rscale>
<asrwt>0</asrwt>
<pdfrwt beam="2">  1       21 0.14591069E+00 0.10309503E+04</pdfrwt>
<pdfrwt beam="1">  1        4 0.16821709E+00 0.10309503E+04</pdfrwt>
<totfact> 0.24685307E+00</totfact>
</mgrwt>
</event>
<event>
 6    1  0.1375310E-005  0.8844407E+03  0.7818608E-02  0.9822033E-01
         21   -1    0    0  501  502  0.00000000000E+00  0.00000000000E+00  0.63557968581E+03  0.63557968581E+03  0.00000000000E+00 0.  1.
          4   -1    0    0  502    0 -0.00000000000E+00 -0.00000000000E+00 -0.53388807181E+03  0.53388807181E+03  0.00000000000E+00 0.  1.
    9000010    2    1    2  501    0 -0.67988466396E+02 -0.23584106938E+03 -0.41306070082E+02  0.88540475336E+03  0.84970109114E+03 0.  0.
        -13    1    3    3    0    0  0.27683020343E+02  0.22662951626E+03 -0.27587309020E+03  0.35809671922E+03  0.10566000000E+00 0.  1.
          4    1    3    3  501    0 -0.95671486739E+02 -0.46247058563E+03  0.23456702011E+03  0.52730803415E+03  0.00000000000E+00 0.  1.
         13    1    1    2    0    0  0.67988466396E+02  0.23584106938E+03  0.14299768408E+03  0.28406300425E+03  0.10566000000E+00 0. -1.
<mgrwt>
<rscale>  1 0.64193393E+03</rscale>
<asrwt>0</asrwt>
<pdfrwt beam="1">  1       21 0.97781491E-01 0.88444072E+03</pdfrwt>
<pdfrwt beam="2">  1        4 0.82136626E-01 0.88444072E+03</pdfrwt>
<totfact> 0.43189239E+01</totfact>
</mgrwt>
</event>
<event>
 6    1  0.1375310E-005  0.1072035E+04  0.7818608E-02  0.9761354E-01
          4   -1    0    0  502    0 -0.00000000000E+00  0.00000000000E+00  0.17399406346E+03  0.17399406346E+03  0.00000000000E+00 0.  1.
         21   -1    0    0  501  502  0.00000000000E+00 -0.00000000000E+00 -0.23950567474E+04  0.23950567474E+04  0.00000000000E+00 0.  1.
    9000010    2    1    2  501    0  0.16827743292E+03 -0.81085436194E+00 -0.16026105249E+04  0.19281131883E+04  0.10587454936E+04 0.  0.
        -13    1    3    3    0    0  0.32999606116E+03  0.27789760105E+03 -0.17662973083E+03  0.46617866750E+03  0.10566000000E+00 0.  1.
          4    1    3    3  501    0 -0.16171862824E+03 -0.27870845542E+03 -0.14259807941E+04  0.14619345208E+04  0.00000000000E+00 0.  1.
         13    1    1    2    0    0 -0.16827743292E+03  0.81085436194E+00 -0.61845215897E+03  0.64093762256E+03  0.10566000000E+00 0. -1.
<mgrwt>
<rscale>  1 0.67478382E+03</rscale>
<asrwt>0</asrwt>
<pdfrwt beam="2">  1       21 0.36847025E+00 0.10720354E+04</pdfrwt>
<pdfrwt beam="1">  1        4 0.26768319E-01 0.10720354E+04</pdfrwt>
<totfact> 0.52503907E+00</totfact>
</mgrwt>
</event>
<event>
 6    1  0.1375310E-005  0.1020108E+04  0.7818608E-02  0.1037063E+00
         21   -1    0    0  501  502  0.00000000000E+00  0.00000000000E+00  0.44011190831E+03  0.44011190831E+03  0.00000000000E+00 0.  1.
          4   -1    0    0  502    0 -0.00000000000E+00 -0.00000000000E+00 -0.70280060575E+03  0.70280060575E+03  0.00000000000E+00 0.  1.
    9000010    2    1    2  501    0 -0.23753123683E+02 -0.17181442672E+02 -0.32781973766E+03  0.10714878935E+04  0.10196867719E+04 0.  0.
        -13    1    3    3    0    0  0.51783057693E+02 -0.27811127061E+03  0.28475279529E+03  0.40138700713E+03  0.10566000000E+00 0.  1.
          4    1    3    3  501    0 -0.75536181376E+02  0.26092982794E+03 -0.61257253295E+03  0.67010088638E+03  0.00000000000E+00 0.  1.
         13    1    1    2    0    0  0.23753123683E+02  0.17181442672E+02  0.65131040213E+02  0.71424620547E+02  0.10566000000E+00 0. -1.
<mgrwt>
<rscale>  1 0.42001097E+03</rscale>
<asrwt>0</asrwt>
<pdfrwt beam="1">  1       21 0.67709524E-01 0.10201081E+04</pdfrwt>
<pdfrwt beam="2">  1        4 0.10812317E+00 0.10201081E+04</pdfrwt>
<totfact> 0.52888359E+01</totfact>
</mgrwt>
</event>
<event>
 6    1  0.1375310E-005  0.1021229E+04  0.7818608E-02  0.9795466E-01
         21   -1    0    0  501  502  0.00000000000E+00  0.00000000000E+00  0.77733404338E+03  0.77733404338E+03  0.00000000000E+00 0.  1.
          4   -1    0    0  502    0 -0.00000000000E+00 -0.00000000000E+00 -0.10661203784E+04  0.10661203784E+04  0.00000000000E+00 0.  1.
    9000010    2    1    2  501    0  0.12412058099E+03 -0.12186667923E+03  0.42694899248E+03  0.11068850250E+04  0.10063059228E+04 0.  0.
        -13    1    3    3    0    0  0.53682705309E+03  0.16007161704E+02  0.40235047528E+03  0.67106291082E+03  0.10566000000E+00 0.  1.
          4    1    3    3  501    0 -0.41270647210E+03 -0.13787384093E+03  0.24598517205E+02  0.43582211414E+03  0.00000000000E+00 0.  1.
         13    1    1    2    0    0 -0.12412058099E+03  0.12186667923E+03 -0.71573532751E+03  0.73656939683E+03  0.10566000000E+00 0. -1.
<mgrwt>
<rscale>  1 0.65606428E+03</rscale>
<asrwt>0</asrwt>
<pdfrwt beam="1">  1       21 0.11958985E+00 0.10212292E+04</pdfrwt>
<pdfrwt beam="2">  1        4 0.16401852E+00 0.10212292E+04</pdfrwt>
<totfact> 0.45174123E+00</totfact>
</mgrwt>
</event>
<event>
 6    1  0.1375310E-005  0.1022679E+04  0.7818608E-02  0.1036003E+00
         21   -1    0    0  501  502  0.00000000000E+00  0.00000000000E+00  0.14728058174E+04  0.14728058174E+04  0.00000000000E+00 0.  1.
          4   -1    0    0  502    0 -0.00000000000E+00 -0.00000000000E+00 -0.20470140675E+03  0.20470140675E+03  0.00000000000E+00 0.  1.
    9000010    2    1    2  501    0 -0.20428698241E+02  0.21987047965E+02  0.12856103765E+04  0.16427619799E+04  0.10222387786E+04 0.  0.
        -13    1    3    3    0    0  0.19241026840E+03  0.23893535324E+02  0.13915603157E+04  0.14050027529E+04  0.10566000000E+00 0.  1.
          4    1    3    3  501    0 -0.21283896664E+03 -0.19064873585E+01 -0.10594993916E+03  0.23775922700E+03  0.00000000000E+00 0.  1.
         13    1    1    2    0    0  0.20428698241E+02 -0.21987047965E+02 -0.17505965886E+02  0.34745244217E+02  0.10566000000E+00 0. -1.
<mgrwt>
<rscale>  1 0.42328367E+03</rscale>
<asrwt>0</asrwt>
<pdfrwt beam="1">  1       21 0.22658550E+00 0.10226793E+04</pdfrwt>
<pdfrwt beam="2">  1        4 0.31492525E-01 0.10226793E+04</pdfrwt>
<totfact> 0.30268618E+01</totfact>
</mgrwt>
</event>
<event>
 6    1  0.1375310E-005  0.9898195E+03  0.7818608E-02  0.9921257E-01
         21   -1    0    0  501  502  0.00000000000E+00  0.00000000000E+00  0.28675494411E+03  0.28675494411E+03  0.00000000000E+00 0.  1.
          4   -1    0    0  502    0 -0.00000000000E+00 -0.00000000000E+00 -0.11102778843E+04  0.11102778843E+04  0.00000000000E+00 0.  1.
    9000010    2    1    2  501    0 -0.85475180216E+02 -0.93950172934E+02 -0.65875431151E+03  0.11889911172E+04  0.98163638508E+03 0.  0.
        -13    1    3    3    0    0 -0.42015852413E+03 -0.36171127636E+03 -0.43994435210E+03  0.70775650965E+03  0.10566000000E+00 0.  1.
          4    1    3    3  501    0  0.33468334391E+03  0.26776110343E+03 -0.21880995941E+03  0.48123460759E+03  0.00000000000E+00 0.  1.
         13    1    1    2    0    0  0.85475180216E+02  0.93950172934E+02 -0.16476862869E+03  0.20804171118E+03  0.10566000000E+00 0. -1.
<mgrwt>
<rscale>  1 0.59242070E+03</rscale>
<asrwt>0</asrwt>
<pdfrwt beam="1">  1       21 0.44116145E-01 0.98981950E+03</pdfrwt>
<pdfrwt beam="2">  1        4 0.17081198E+00 0.98981950E+03</pdfrwt>
<totfact> 0.41091100E+01</totfact>
</mgrwt>
</event>
<event>
 6    1  0.1375310E-005  0.1192739E+04  0.7818608E-02  0.9315607E-01
         21   -1    0    0  501  502  0.00000000000E+00  0.00000000000E+00  0.47777204277E+03  0.47777204277E+03  0.00000000000E+00 0. -1.
          4   -1    0    0  502    0 -0.00000000000E+00 -0.00000000000E+00 -0.16440646463E+04  0.16440646463E+04  0.00000000000E+00 0.  1.
    9000010    2    1    2  501    0 -0.54511468064E+03 -0.18094965260E+03 -0.86389177793E+03  0.14727303324E+04  0.10453386227E+04 0.  0.
        -13    1    3    3    0    0  0.10007015239E+02 -0.20610461531E+03 -0.89275309980E+03  0.91628999840E+03  0.10566000000E+00 0.  1.
          4    1    3    3  501    0 -0.55512169588E+03  0.25154962709E+02  0.28861321862E+02  0.55644033399E+03  0.00000000000E+00 0.  1.
         13    1    1    2    0    0  0.54511468064E+03  0.18094965260E+03 -0.30240082565E+03  0.64910635673E+03  0.10566000000E+00 0. -1.
<mgrwt>
<rscale>  1 0.99358642E+03</rscale>
<asrwt>0</asrwt>
<pdfrwt beam="1">  1       21 0.73503391E-01 0.11927387E+04</pdfrwt>
<pdfrwt beam="2">  1        4 0.25293302E+00 0.11927387E+04</pdfrwt>
<totfact> 0.37620908E+00</totfact>
</mgrwt>
</event>
<event>
 6    1  0.1375310E-005  0.1058349E+04  0.7818608E-02  0.9503231E-01
          4   -1    0    0  502    0 -0.00000000000E+00  0.00000000000E+00  0.29008912366E+03  0.29008912366E+03  0.00000000000E+00 0.  1.
         21   -1    0    0  501  502  0.00000000000E+00 -0.00000000000E+00 -0.18884205207E+04  0.18884205207E+04  0.00000000000E+00 0.  1.
    9000010    2    1    2  501    0  0.11405997741E+03 -0.40515296190E+03 -0.11797781240E+04  0.15849227050E+04  0.97105353003E+03 0.  0.
        -13    1    3    3    0    0  0.26891052645E+03 -0.51436898209E+03 -0.24310754021E+03  0.62927705205E+03  0.10566000000E+00 0.  1.
          4    1    3    3  501    0 -0.15485054904E+03  0.10921602019E+03 -0.93667058376E+03  0.95564565299E+03  0.00000000000E+00 0.  1.
         13    1    1    2    0    0 -0.11405997741E+03  0.40515296190E+03 -0.41855327309E+03  0.59358693934E+03  0.10566000000E+00 0. -1.
<mgrwt>
<rscale>  1 0.84046010E+03</rscale>
<asrwt>0</asrwt>
<pdfrwt beam="2">  1       21 0.29052624E+00 0.10583495E+04</pdfrwt>
<pdfrwt beam="1">  1        4 0.44629096E-01 0.10583495E+04</pdfrwt>
<totfact> 0.58507936E+00</totfact>
</mgrwt>
</event>
<event>
 6    1  0.1375310E-005  0.1030128E+04  0.7818608E-02  0.9557396E-01
          4   -1    0    0  502    0 -0.00000000000E+00  0.00000000000E+00  0.10184542013E+04  0.10184542013E+04  0.00000000000E+00 0.  1.
         21   -1    0    0  501  502  0.00000000000E+00 -0.00000000000E+00 -0.75415121576E+03  0.75415121576E+03  0.00000000000E+00 0.  1.
    9000010    2    1    2  501    0 -0.37589821856E+03  0.40847331817E+02 -0.31819064847E+03  0.10781510845E+04  0.95822570249E+03 0.  0.
        -13    1    3    3    0    0 -0.49838129940E+03  0.36858501378E+03 -0.37384108062E+03  0.72387567765E+03  0.10566000000E+00 0.  1.
          4    1    3    3  501    0  0.12248308084E+03 -0.32773768196E+03  0.55650432149E+02  0.35427540681E+03  0.00000000000E+00 0.  1.
         13    1    1    2    0    0  0.37589821856E+03 -0.40847331817E+02  0.58249363396E+03  0.69445433255E+03  0.10566000000E+00 0. -1.
<mgrwt>
<rscale>  1 0.80181350E+03</rscale>
<asrwt>0</asrwt>
<pdfrwt beam="2">  1       21 0.11602326E+00 0.10301284E+04</pdfrwt>
<pdfrwt beam="1">  1        4 0.15668526E+00 0.10301284E+04</pdfrwt>
<totfact> 0.55345271E+00</totfact>
</mgrwt>
</event>
<event>
 6    1  0.1375310E-005  0.1076198E+04  0.7818608E-02  0.9504426E-01
         21   -1    0    0  501  502  0.00000000000E+00  0.00000000000E+00  0.34909433134E+03  0.34909433134E+03  0.00000000000E+00 0.  1.
          4   -1    0    0  502    0 -0.00000000000E+00 -0.00000000000E+00 -0.17416039792E+04  0.17416039792E+04  0.00000000000E+00 0.  1.
    9000010    2    1    2  501    0 -0.11137930356E+02  0.39848163746E+03 -0.67639817998E+03  0.12711085873E+04  0.99964537405E+03 0.  0.
        -13    1    3    3    0    0  0.30505410461E+03  0.43473878809E+03 -0.83872748673E+01  0.53115551221E+03  0.10566000000E+00 0.  1.
          4    1    3    3  501    0 -0.31619203496E+03 -0.36257150626E+02 -0.66801090511E+03  0.73995307506E+03  0.00000000000E+00 0.  1.
         13    1    1    2    0    0  0.11137930356E+02 -0.39848163746E+03 -0.71611146785E+03  0.81958972324E+03  0.10566000000E+00 0. -1.
<mgrwt>
<rscale>  1 0.83958307E+03</rscale>
<asrwt>0</asrwt>
<pdfrwt beam="1">  1       21 0.53706821E-01 0.10761982E+04</pdfrwt>
<pdfrwt beam="2">  1        4 0.26793907E+00 0.10761982E+04</pdfrwt>
<totfact> 0.62490101E+00</totfact>
</mgrwt>
</event>
<event>
 6    1  0.1375310E-005  0.9399359E+03  0.7818608E-02  0.9917408E-01
         21   -1    0    0  501  502  0.00000000000E+00  0.00000000000E+00  0.10134997635E+04  0.10134997635E+04  0.00000000000E+00 0.  1.
          4   -1    0    0  502    0 -0.00000000000E+00 -0.00000000000E+00 -0.34298812135E+03  0.34298812135E+03  0.00000000000E+00 0.  1.
    9000010    2    1    2  501    0  0.36075179479E+02 -0.14577214110E+03  0.73486731789E+03  0.11931091841E+04  0.92786238985E+03 0.  0.
        -13    1    3    3    0    0  0.10732873947E+03  0.40397830436E+02 -0.20361550960E+03  0.23368938772E+03  0.10566000000E+00 0.  1.
          4    1    3    3  501    0 -0.71253559995E+02 -0.18616997154E+03  0.93848282749E+03  0.95941979634E+03  0.00000000000E+00 0.  1.
         13    1    1    2    0    0 -0.36075179479E+02  0.14577214110E+03 -0.64355675758E+02  0.16337870076E+03  0.10566000000E+00 0. -1.
<mgrwt>
<rscale>  1 0.59425013E+03</rscale>
<asrwt>0</asrwt>
<pdfrwt beam="1">  1       21 0.15592304E+00 0.93993593E+03</pdfrwt>
<pdfrwt beam="2">  1        4 0.52767404E-01 0.93993593E+03</pdfrwt>
<totfact> 0.33664846E+01</totfact>
</mgrwt>
</event>
<event>
 6    1  0.1375310E-005  0.1027028E+04  0.7818608E-02  0.9727668E-01
          4   -1    0    0  502    0 -0.00000000000E+00  0.00000000000E+00  0.55402215941E+03  0.55402215941E+03  0.00000000000E+00 0.  1.
         21   -1    0    0  501  502  0.00000000000E+00 -0.00000000000E+00 -0.10375890832E+04  0.10375890832E+04  0.00000000000E+00 0.  1.
    9000010    2    1    2  501    0  0.13438407144E+03  0.16660970045E+03 -0.73385800587E+03  0.12622732584E+04  0.10044741586E+04 0.  0.
        -13    1    3    3    0    0 -0.39129007759E+03  0.27093787228E+03 -0.45368552360E+03  0.65753009128E+03  0.10566000000E+00 0.  1.
          4    1    3    3  501    0  0.52567414903E+03 -0.10432817183E+03 -0.28017248227E+03  0.60474316715E+03  0.00000000000E+00 0.  1.
         13    1    1    2    0    0 -0.13438407144E+03 -0.16660970045E+03  0.25029108204E+03  0.32933798423E+03  0.10566000000E+00 0. -1.
<mgrwt>
<rscale>  1 0.69393060E+03</rscale>
<asrwt>0</asrwt>
<pdfrwt beam="2">  1       21 0.15962909E+00 0.10270279E+04</pdfrwt>
<pdfrwt beam="1">  1        4 0.85234178E-01 0.10270279E+04</pdfrwt>
<totfact> 0.10735198E+01</totfact>
</mgrwt>
</event>
<event>
 6    1  0.1375310E-005  0.1033620E+04  0.7818608E-02  0.9665783E-01
         21   -1    0    0  501  502  0.00000000000E+00  0.00000000000E+00  0.25655834819E+04  0.25655834819E+04  0.00000000000E+00 0. -1.
          4   -1    0    0  502    0 -0.00000000000E+00 -0.00000000000E+00 -0.16779826859E+03  0.16779826859E+03  0.00000000000E+00 0.  1.
    9000010    2    1    2  501    0  0.25727922803E+03  0.24566783621E+02  0.20888658494E+04  0.23306072322E+04  0.10007863937E+04 0.  0.
        -13    1    3    3    0    0  0.27101954571E+03 -0.12001842337E+03  0.67452875619E+02  0.30398341682E+03  0.10566000000E+00 0.  1.
          4    1    3    3  501    0 -0.13740317685E+02  0.14458520699E+03  0.20214129738E+04  0.20266238154E+04  0.00000000000E+00 0.  1.
         13    1    1    2    0    0 -0.25727922803E+03 -0.24566783621E+02  0.30891936387E+03  0.40277451828E+03  0.10566000000E+00 0. -1.
<mgrwt>
<rscale>  1 0.73091097E+03</rscale>
<asrwt>0</asrwt>
<pdfrwt beam="1">  1       21 0.39470512E+00 0.10336196E+04</pdfrwt>
<pdfrwt beam="2">  1        4 0.25815120E-01 0.10336196E+04</pdfrwt>
<totfact> 0.38366257E+00</totfact>
</mgrwt>
</event>
<event>
 6    1  0.1375310E-005  0.1000113E+04  0.7818608E-02  0.9867459E-01
         21   -1    0    0  501  502  0.00000000000E+00  0.00000000000E+00  0.13047161347E+04  0.13047161347E+04  0.00000000000E+00 0.  1.
          4   -1    0    0  502    0 -0.00000000000E+00 -0.00000000000E+00 -0.25470527365E+03  0.25470527365E+03  0.00000000000E+00 0.  1.
    9000010    2    1    2  501    0  0.93711803395E+02 -0.11251279970E+03  0.96672657909E+03  0.13909657317E+04  0.98933531018E+03 0.  0.
        -13    1    3    3    0    0 -0.31586923525E+03 -0.31481953886E+03  0.77787984973E+03  0.89665031512E+03  0.10566000000E+00 0.  1.
          4    1    3    3  501    0  0.40958103864E+03  0.20230673916E+03  0.18884672936E+03  0.49431541663E+03  0.00000000000E+00 0.  1.
         13    1    1    2    0    0 -0.93711803395E+02  0.11251279970E+03  0.83284281935E+02  0.16845567659E+03  0.10566000000E+00 0. -1.
<mgrwt>
<rscale>  1 0.61864633E+03</rscale>
<asrwt>0</asrwt>
<pdfrwt beam="1">  1       21 0.20072556E+00 0.10001127E+04</pdfrwt>
<pdfrwt beam="2">  1        4 0.39185428E-01 0.10001127E+04</pdfrwt>
<totfact> 0.29195920E+01</totfact>
</mgrwt>
</event>
<event>
 6    1  0.1375310E-005  0.1010615E+04  0.7818608E-02  0.9946382E-01
         21   -1    0    0  501  502  0.00000000000E+00  0.00000000000E+00  0.71101736330E+03  0.71101736330E+03  0.00000000000E+00 0.  1.
          4   -1    0    0  502    0 -0.00000000000E+00 -0.00000000000E+00 -0.45096160323E+03  0.45096160323E+03  0.00000000000E+00 0.  1.
    9000010    2    1    2  501    0  0.47332566522E+02 -0.99439106041E+02  0.18170067228E+03  0.10268196583E+04  0.10045969185E+04 0.  0.
        -13    1    3    3    0    0 -0.20876918362E+03  0.26835941745E+03  0.40276429362E+03  0.52708674461E+03  0.10566000000E+00 0.  1.
          4    1    3    3  501    0  0.25610175015E+03 -0.36779852349E+03 -0.22106362134E+03  0.49973291365E+03  0.00000000000E+00 0.  1.
         13    1    1    2    0    0 -0.47332566522E+02  0.99439106041E+02  0.78355087791E+02  0.13515930826E+03  0.10566000000E+00 0. -1.
<mgrwt>
<rscale>  1 0.58065137E+03</rscale>
<asrwt>0</asrwt>
<pdfrwt beam="1">  1       21 0.10938729E+00 0.10106154E+04</pdfrwt>
<pdfrwt beam="2">  1        4 0.69378708E-01 0.10106154E+04</pdfrwt>
<totfact> 0.47331429E+01</totfact>
</mgrwt>
</event>
<event>
 6    1  0.1375310E-005  0.1025762E+04  0.7818608E-02  0.9723082E-01
         21   -1    0    0  501  502  0.00000000000E+00  0.00000000000E+00  0.15311794850E+04  0.15311794850E+04  0.00000000000E+00 0.  1.
          4   -1    0    0  502    0 -0.00000000000E+00 -0.00000000000E+00 -0.25971740442E+03  0.25971740442E+03  0.00000000000E+00 0.  1.
    9000010    2    1    2  501    0 -0.13398311692E+03 -0.17216531206E+03  0.11507822708E+04  0.15415858428E+04  0.10022947200E+04 0.  0.
        -13    1    3    3    0    0 -0.40106849177E+03  0.26425584511E+03  0.36223097307E+03  0.60157989975E+03  0.10566000000E+00 0.  1.
          4    1    3    3  501    0  0.26708537485E+03 -0.43642115717E+03  0.78855129769E+03  0.94000594305E+03  0.00000000000E+00 0.  1.
         13    1    1    2    0    0  0.13398311692E+03  0.17216531206E+03  0.12067980980E+03  0.24931104659E+03  0.10566000000E+00 0. -1.
<mgrwt>
<rscale>  1 0.69658969E+03</rscale>
<asrwt>0</asrwt>
<pdfrwt beam="1">  1       21 0.23556607E+00 0.10257617E+04</pdfrwt>
<pdfrwt beam="2">  1        4 0.39956525E-01 0.10257617E+04</pdfrwt>
<totfact> 0.16414789E+01</totfact>
</mgrwt>
</event>
<event>
 6    1  0.1375310E-005  0.1069685E+04  0.7818608E-02  0.9529191E-01
          4   -1    0    0  502    0 -0.00000000000E+00  0.00000000000E+00  0.88066446143E+03  0.88066446143E+03  0.00000000000E+00 0.  1.
         21   -1    0    0  501  502  0.00000000000E+00 -0.00000000000E+00 -0.61463940667E+03  0.61463940667E+03  0.00000000000E+00 0.  1.
    9000010    2    1    2  501    0  0.24393140591E+03 -0.28136537921E+03  0.32569771330E+03  0.11181701455E+04  0.10027743846E+04 0.  0.
        -13    1    3    3    0    0  0.10565714341E+03 -0.60093861460E+03 -0.42204627583E+02  0.61161416941E+03  0.10566000000E+00 0.  1.
          4    1    3    3  501    0  0.13827426249E+03  0.31957323538E+03  0.36790234089E+03  0.50655597605E+03  0.00000000000E+00 0.  1.
         13    1    1    2    0    0 -0.24393140591E+03  0.28136537921E+03 -0.59672658547E+02  0.37713372263E+03  0.10566000000E+00 0. -1.
<mgrwt>
<rscale>  1 0.82165469E+03</rscale>
<asrwt>0</asrwt>
<pdfrwt beam="2">  1       21 0.94559909E-01 0.10696848E+04</pdfrwt>
<pdfrwt beam="1">  1        4 0.13548684E+00 0.10696848E+04</pdfrwt>
<totfact> 0.13560743E+01</totfact>
</mgrwt>
</event>
<event>
 6    1  0.1375310E-005  0.1081153E+04  0.7818608E-02  0.9464513E-01
         21   -1    0    0  501  502  0.00000000000E+00  0.00000000000E+00  0.40971480003E+03  0.40971480003E+03  0.00000000000E+00 0. -1.
          4   -1    0    0  502    0 -0.00000000000E+00 -0.00000000000E+00 -0.14377654251E+04  0.14377654251E+04  0.00000000000E+00 0.  1.
    9000010    2    1    2  501    0  0.21022878624E+03 -0.40049575518E+03 -0.68652919823E+03  0.12807087644E+04  0.98198757977E+03 0.  0.
        -13    1    3    3    0    0  0.63192716398E+02  0.29227674510E+03 -0.43763565703E+03  0.53004150272E+03  0.10566000000E+00 0.  1.
          4    1    3    3  501    0  0.14703606984E+03 -0.69277250028E+03 -0.24889354120E+03  0.75066726173E+03  0.00000000000E+00 0.  1.
         13    1    1    2    0    0 -0.21022878624E+03  0.40049575518E+03 -0.34152142682E+03  0.56677146066E+03  0.10566000000E+00 0. -1.
<mgrwt>
<rscale>  1 0.86951449E+03</rscale>
<asrwt>0</asrwt>
<pdfrwt beam="1">  1       21 0.63033046E-01 0.10811534E+04</pdfrwt>
<pdfrwt beam="2">  1        4 0.22119468E+00 0.10811534E+04</pdfrwt>
<totfact> 0.85682867E+00</totfact>
</mgrwt>
</event>
<event>
 6    1  0.1375310E-005  0.9280713E+03  0.7818608E-02  0.9658668E-01
          4   -1    0    0  502    0 -0.00000000000E+00  0.00000000000E+00  0.84530270083E+03  0.84530270083E+03  0.00000000000E+00 0.  1.
         21   -1    0    0  501  502  0.00000000000E+00 -0.00000000000E+00 -0.63551960770E+03  0.63551960770E+03  0.00000000000E+00 0.  1.
    9000010    2    1    2  501    0 -0.28219349214E+03 -0.23264763261E+03 -0.18104032166E+03  0.94556438876E+03  0.85297029682E+03 0.  0.
        -13    1    3    3    0    0 -0.21310076954E+03 -0.42749626373E+03 -0.41541805608E+03  0.63303804465E+03  0.10566000000E+00 0.  1.
          4    1    3    3  501    0 -0.69092722598E+02  0.19484863112E+03  0.23437773443E+03  0.31252634411E+03  0.00000000000E+00 0.  1.
         13    1    1    2    0    0  0.28219349214E+03  0.23264763261E+03  0.39082341479E+03  0.53525791977E+03  0.10566000000E+00 0. -1.
<mgrwt>
<rscale>  1 0.73531941E+03</rscale>
<asrwt>0</asrwt>
<pdfrwt beam="2">  1       21 0.97772247E-01 0.92807134E+03</pdfrwt>
<pdfrwt beam="1">  1        4 0.13004657E+00 0.92807134E+03</pdfrwt>
<totfact> 0.14099551E+01</totfact>
</mgrwt>
</event>
<event>
 6    1  0.1375310E-005  0.1037605E+04  0.7818608E-02  0.9677229E-01
         21   -1    0    0  501  502  0.00000000000E+00  0.00000000000E+00  0.11616221019E+04  0.11616221019E+04  0.00000000000E+00 0.  1.
          4   -1    0    0  502    0 -0.00000000000E+00 -0.00000000000E+00 -0.63139620640E+03  0.63139620640E+03  0.00000000000E+00 0.  1.
    9000010    2    1    2  501    0 -0.75191297825E+02 -0.23402281983E+03  0.88339998562E+03  0.13627249658E+04  0.10080691377E+04 0.  0.
        -13    1    3    3    0    0 -0.18581417761E+03 -0.52012974418E+03  0.15698736721E+03  0.57420110067E+03  0.10566000000E+00 0.  1.
          4    1    3    3  501    0  0.11062287978E+03  0.28610692435E+03  0.72641261842E+03  0.78852386514E+03  0.00000000000E+00 0.  1.
         13    1    1    2    0    0  0.75191297825E+02  0.23402281983E+03 -0.35317409015E+03  0.43029334248E+03  0.10566000000E+00 0. -1.
<mgrwt>
<rscale>  1 0.72388897E+03</rscale>
<asrwt>0</asrwt>
<pdfrwt beam="1">  1       21 0.17871109E+00 0.10376048E+04</pdfrwt>
<pdfrwt beam="2">  1        4 0.97137878E-01 0.10376048E+04</pdfrwt>
<totfact> 0.56589616E+00</totfact>
</mgrwt>
</event>
<event>
 6    1  0.1375310E-005  0.1112643E+04  0.7818608E-02  0.9428714E-01
         21   -1    0    0  501  502  0.00000000000E+00  0.00000000000E+00  0.30834740861E+03  0.30834740861E+03  0.00000000000E+00 0.  1.
          4   -1    0    0  502    0 -0.00000000000E+00 -0.00000000000E+00 -0.22137448798E+04  0.22137448798E+04  0.00000000000E+00 0.  1.
    9000010    2    1    2  501    0  0.39759094369E+03  0.25260598130E+03 -0.97562297766E+03  0.14798020408E+04  0.10080106870E+04 0.  0.
        -13    1    3    3    0    0  0.49189212162E+03 -0.20411150761E+03 -0.83917629006E+03  0.99389950388E+03  0.10566000000E+00 0.  1.
          4    1    3    3  501    0 -0.94301177928E+02  0.45671748890E+03 -0.13644668760E+03  0.48590253692E+03  0.00000000000E+00 0.  1.
         13    1    1    2    0    0 -0.39759094369E+03 -0.25260598130E+03 -0.92977449351E+03  0.10422902476E+04  0.10566000000E+00 0. -1.
<mgrwt>
<rscale>  1 0.89749827E+03</rscale>
<asrwt>0</asrwt>
<pdfrwt beam="1">  1       21 0.47438061E-01 0.11126427E+04</pdfrwt>
<pdfrwt beam="2">  1        4 0.34057615E+00 0.11126427E+04</pdfrwt>
<totfact> 0.28638600E+00</totfact>
</mgrwt>
</event>
<event>
 6    1  0.1375310E-005  0.1028300E+04  0.7818608E-02  0.9613615E-01
          4   -1    0    0  502    0 -0.00000000000E+00  0.00000000000E+00  0.12328854911E+04  0.12328854911E+04  0.00000000000E+00 0.  1.
         21   -1    0    0  501  502  0.00000000000E+00 -0.00000000000E+00 -0.47067189725E+03  0.47067189725E+03  0.00000000000E+00 0.  1.
    9000010    2    1    2  501    0 -0.30623201175E+03  0.66476645851E+02  0.18221612812E+03  0.10443197522E+04  0.97938952316E+03 0.  0.
        -13    1    3    3    0    0  0.15793041550E+03  0.37130426046E+03  0.26520027040E+03  0.48284579791E+03  0.10566000000E+00 0.  1.
          4    1    3    3  501    0 -0.46416242725E+03 -0.30482761461E+03 -0.82984142280E+02  0.56147395431E+03  0.00000000000E+00 0.  1.
         13    1    1    2    0    0  0.30623201175E+03 -0.66476645851E+02  0.57999746578E+03  0.65923763617E+03  0.10566000000E+00 0. -1.
<mgrwt>
<rscale>  1 0.76401571E+03</rscale>
<asrwt>0</asrwt>
<pdfrwt beam="2">  1       21 0.72411061E-01 0.10283001E+04</pdfrwt>
<pdfrwt beam="1">  1        4 0.18967469E+00 0.10283001E+04</pdfrwt>
<totfact> 0.10117926E+01</totfact>
</mgrwt>
</event>
<event>
 6    1  0.1375310E-005  0.1022789E+04  0.7818608E-02  0.9669362E-01
         21   -1    0    0  501  502  0.00000000000E+00  0.00000000000E+00  0.25235022586E+04  0.25235022586E+04  0.00000000000E+00 0.  1.
          4   -1    0    0  502    0 -0.00000000000E+00 -0.00000000000E+00 -0.17258486406E+03  0.17258486406E+03  0.00000000000E+00 0.  1.
    9000010    2    1    2  501    0  0.19709538144E+03 -0.17495340550E+03  0.20814616763E+04  0.23191764188E+04  0.98825162172E+03 0.  0.
        -13    1    3    3    0    0  0.31793741217E+03 -0.42777285986E+03  0.56375340926E+03  0.77581681814E+03  0.10566000000E+00 0.  1.
          4    1    3    3  501    0 -0.12084203073E+03  0.25281945436E+03  0.15177082671E+04  0.15433596006E+04  0.00000000000E+00 0.  1.
         13    1    1    2    0    0 -0.19709538144E+03  0.17495340550E+03  0.26945571822E+03  0.37691070391E+03  0.10566000000E+00 0. -1.
<mgrwt>
<rscale>  1 0.72870640E+03</rscale>
<asrwt>0</asrwt>
<pdfrwt beam="1">  1       21 0.38823109E+00 0.10227886E+04</pdfrwt>
<pdfrwt beam="2">  1        4 0.26551519E-01 0.10227886E+04</pdfrwt>
<totfact> 0.40142255E+00</totfact>
</mgrwt>
</event>
<event>
 6    1  0.1375310E-005  0.9972770E+03  0.7818608E-02  0.9837619E-01
         21   -1    0    0  501  502  0.00000000000E+00  0.00000000000E+00  0.89674992507E+03  0.89674992507E+03  0.00000000000E+00 0.  1.
          4   -1    0    0  502    0 -0.00000000000E+00 -0.00000000000E+00 -0.50493903900E+03  0.50493903900E+03  0.00000000000E+00 0.  1.
    9000010    2    1    2  501    0  0.11210768902E+03  0.11792944522E+03  0.57939423173E+03  0.11533685849E+04  0.98391357793E+03 0.  0.
        -13    1    3    3    0    0  0.32471572952E+03 -0.32181057087E+03  0.97958039195E+02  0.46754479693E+03  0.10566000000E+00 0.  1.
          4    1    3    3  501    0 -0.21260804051E+03  0.43974001609E+03  0.48143619254E+03  0.68582378795E+03  0.00000000000E+00 0.  1.
         13    1    1    2    0    0 -0.11210768902E+03 -0.11792944522E+03 -0.18758334566E+03  0.24832037919E+03  0.10566000000E+00 0. -1.
<mgrwt>
<rscale>  1 0.63382209E+03</rscale>
<asrwt>0</asrwt>
<pdfrwt beam="1">  1       21 0.13796153E+00 0.99727700E+03</pdfrwt>
<pdfrwt beam="2">  1        4 0.77682929E-01 0.99727700E+03</pdfrwt>
<totfact> 0.20015300E+01</totfact>
</mgrwt>
</event>
<event>
 6    1  0.1375310E-005  0.1162841E+04  0.7818608E-02  0.9338700E-01
         21   -1    0    0  501  502  0.00000000000E+00  0.00000000000E+00  0.11101807098E+04  0.11101807098E+04  0.00000000000E+00 0.  1.
          4   -1    0    0  502    0 -0.00000000000E+00 -0.00000000000E+00 -0.70962042263E+03  0.70962042263E+03  0.00000000000E+00 0.  1.
    9000010    2    1    2  501    0 -0.56356492814E+03 -0.85044288803E+02  0.45186787540E+03  0.12475508034E+04  0.10135879197E+04 0.  0.
        -13    1    3    3    0    0  0.12904022903E+03  0.13551949426E+02 -0.23417311732E+03  0.26771644716E+03  0.10566000000E+00 0.  1.
          4    1    3    3  501    0 -0.69260515717E+03 -0.98596238229E+02  0.68604099271E+03  0.97983435621E+03  0.00000000000E+00 0.  1.
         13    1    1    2    0    0  0.56356492814E+03  0.85044288803E+02 -0.51307588272E+02  0.57225032902E+03  0.10566000000E+00 0. -1.
<mgrwt>
<rscale>  1 0.97296789E+03</rscale>
<asrwt>0</asrwt>
<pdfrwt beam="1">  1       21 0.17079703E+00 0.11628407E+04</pdfrwt>
<pdfrwt beam="2">  1        4 0.10917237E+00 0.11628407E+04</pdfrwt>
<totfact> 0.47978231E+00</totfact>
</mgrwt>
</event>
<event>
 6    1  0.1375310E-005  0.1005009E+04  0.7818608E-02  0.9707974E-01
         21   -1    0    0  501  502  0.00000000000E+00  0.00000000000E+00  0.16013303610E+04  0.16013303610E+04  0.00000000000E+00 0.  1.
          4   -1    0    0  502    0 -0.00000000000E+00 -0.00000000000E+00 -0.30959044747E+03  0.30959044747E+03  0.00000000000E+00 0.  1.
    9000010    2    1    2  501    0  0.15347307058E+03  0.18964583702E+03  0.13267828535E+04  0.16644506365E+04  0.97494802624E+03 0.  0.
        -13    1    3    3    0    0  0.33410035078E+03  0.22776752751E+03  0.90364843497E+02  0.41432705329E+03  0.10566000000E+00 0.  1.
          4    1    3    3  501    0 -0.18062728021E+03 -0.38121690487E+02  0.12364180100E+04  0.12501235832E+04  0.00000000000E+00 0.  1.
         13    1    1    2    0    0 -0.15347307058E+03 -0.18964583702E+03 -0.35042939985E+02  0.24647017203E+03  0.10566000000E+00 0. -1.
<mgrwt>
<rscale>  1 0.70543974E+03</rscale>
<asrwt>0</asrwt>
<pdfrwt beam="1">  1       21 0.24635851E+00 0.10050090E+04</pdfrwt>
<pdfrwt beam="2">  1        4 0.47629301E-01 0.10050090E+04</pdfrwt>
<totfact> 0.97641518E+00</totfact>
</mgrwt>
</event>
<event>
 6    1  0.1375310E-005  0.1015099E+04  0.7818608E-02  0.9966969E-01
          4   -1    0    0  502    0 -0.00000000000E+00  0.00000000000E+00  0.48615127007E+03  0.48615127007E+03  0.00000000000E+00 0.  1.
         21   -1    0    0  501  502  0.00000000000E+00 -0.00000000000E+00 -0.73168133893E+03  0.73168133893E+03  0.00000000000E+00 0.  1.
    9000010    2    1    2  501    0  0.47007026794E+02 -0.90286279254E+02 -0.34829440728E+03  0.10731889323E+04  0.10099822857E+04 0.  0.
        -13    1    3    3    0    0 -0.92681695036E+02  0.19562309532E+03  0.28887441891E+03  0.36098023919E+03  0.10566000000E+00 0.  1.
          4    1    3    3  501    0  0.13968872183E+03 -0.28590937458E+03 -0.63716882619E+03  0.71220869312E+03  0.00000000000E+00 0.  1.
         13    1    1    2    0    0 -0.47007026794E+02  0.90286279254E+02  0.10276433842E+03  0.14464367668E+03  0.10566000000E+00 0. -1.
<mgrwt>
<rscale>  1 0.57122594E+03</rscale>
<asrwt>0</asrwt>
<pdfrwt beam="2">  1       21 0.11256636E+00 0.10150988E+04</pdfrwt>
<pdfrwt beam="1">  1        4 0.74792503E-01 0.10150988E+04</pdfrwt>
<totfact> 0.37145713E+01</totfact>
</mgrwt>
</event>
<event>
 6    1  0.1375310E-005  0.1014175E+04  0.7818608E-02  0.9519759E-01
          4   -1    0    0  502    0 -0.00000000000E+00  0.00000000000E+00  0.33046117230E+03  0.33046117230E+03  0.00000000000E+00 0.  1.
         21   -1    0    0  501  502  0.00000000000E+00 -0.00000000000E+00 -0.20078068091E+04  0.20078068091E+04  0.00000000000E+00 0.  1.
    9000010    2    1    2  501    0 -0.44905112444E+03 -0.47142411889E+02 -0.15782335828E+04  0.18759990881E+04  0.90812004559E+03 0.  0.
        -13    1    3    3    0    0 -0.69884745734E+03 -0.16963749949E+03 -0.97330633742E+03  0.12101610998E+04  0.10566000000E+00 0.  1.
          4    1    3    3  501    0  0.24979633290E+03  0.12249508760E+03 -0.60492724538E+03  0.66583798826E+03  0.00000000000E+00 0.  1.
         13    1    1    2    0    0  0.44905112444E+03  0.47142411889E+02 -0.99112054036E+02  0.46226889337E+03  0.10566000000E+00 0. -1.
<mgrwt>
<rscale>  1 0.82842601E+03</rscale>
<asrwt>0</asrwt>
<pdfrwt beam="2">  1       21 0.30889336E+00 0.10141752E+04</pdfrwt>
<pdfrwt beam="1">  1        4 0.50840180E-01 0.10141752E+04</pdfrwt>
<totfact> 0.34485660E+00</totfact>
</mgrwt>
</event>
<event>
 6    1  0.1375310E-005  0.1150653E+04  0.7818608E-02  0.9333975E-01
          4   -1    0    0  502    0 -0.00000000000E+00  0.00000000000E+00  0.21697589971E+04  0.21697589971E+04  0.00000000000E+00 0.  1.
         21   -1    0    0  501  502  0.00000000000E+00 -0.00000000000E+00 -0.37493714556E+03  0.37493714556E+03  0.00000000000E+00 0.  1.
    9000010    2    1    2  501    0 -0.30071514364E+03 -0.51736572744E+03  0.14601945143E+04  0.18590779110E+04  0.98280504997E+03 0.  0.
        -13    1    3    3    0    0  0.10932698323E+03  0.20754848761E+03  0.81468175453E+02  0.24832607343E+03  0.10566000000E+00 0.  1.
          4    1    3    3  501    0 -0.41004212687E+03 -0.72491421505E+03  0.13787263388E+04  0.16107518376E+04  0.00000000000E+00 0.  1.
         13    1    1    2    0    0  0.30071514364E+03  0.51736572744E+03  0.33462733728E+03  0.68561823164E+03  0.10566000000E+00 0. -1.
<mgrwt>
<rscale>  1 0.97714372E+03</rscale>
<asrwt>0</asrwt>
<pdfrwt beam="2">  1       21 0.57682639E-01 0.11506531E+04</pdfrwt>
<pdfrwt beam="1">  1        4 0.33380907E+00 0.11506531E+04</pdfrwt>
<totfact> 0.20538047E+00</totfact>
</mgrwt>
</event>
<event>
 6    1  0.1375310E-005  0.1007526E+04  0.7818608E-02  0.9874357E-01
          4   -1    0    0  502    0 -0.00000000000E+00  0.00000000000E+00  0.28659995002E+03  0.28659995002E+03  0.00000000000E+00 0.  1.
         21   -1    0    0  501  502  0.00000000000E+00 -0.00000000000E+00 -0.18275867875E+04  0.18275867875E+04  0.00000000000E+00 0.  1.
    9000010    2    1    2  501    0  0.22573510467E+02 -0.13822579635E+03 -0.16523202407E+04  0.19352703548E+04  0.99774407256E+03 0.  0.
        -13    1    3    3    0    0 -0.79254976495E+02  0.18001757295E+03  0.47971792537E+02  0.20245735825E+03  0.10566000000E+00 0.  1.
          4    1    3    3  501    0  0.10182848696E+03 -0.31824336929E+03 -0.17002920332E+04  0.17328129965E+04  0.00000000000E+00 0.  1.
         13    1    1    2    0    0 -0.22573510467E+02  0.13822579635E+03  0.11133340323E+03  0.17891638267E+03  0.10566000000E+00 0. -1.
<mgrwt>
<rscale>  1 0.61520299E+03</rscale>
<asrwt>0</asrwt>
<pdfrwt beam="2">  1       21 0.28116720E+00 0.10075263E+04</pdfrwt>
<pdfrwt beam="1">  1        4 0.44092299E-01 0.10075263E+04</pdfrwt>
<totfact> 0.69205771E+00</totfact>
</mgrwt>
</event>
<event>
 6    1  0.1375310E-005  0.1006404E+04  0.7818608E-02  0.9922695E-01
         21   -1    0    0  501  502  0.00000000000E+00  0.00000000000E+00  0.48150725462E+03  0.48150725462E+03  0.00000000000E+00 0.  1.
          4   -1    0    0  502    0 -0.00000000000E+00 -0.00000000000E+00 -0.65982671642E+03  0.65982671642E+03  0.00000000000E+00 0.  1.
    9000010    2    1    2  501    0  0.10361313676E+03  0.61092258939E+02 -0.14740157526E+03  0.10171410844E+04  0.99919007953E+03 0.  0.
        -13    1    3    3    0    0 -0.13299199125E+03 -0.61316686975E+01  0.39755027115E+03  0.41925015963E+03  0.10566000000E+00 0.  1.
          4    1    3    3  501    0  0.23660512801E+03  0.67223927637E+02 -0.54495184641E+03  0.59789092480E+03  0.00000000000E+00 0.  1.
         13    1    1    2    0    0 -0.10361313676E+03 -0.61092258939E+02 -0.30917886543E+02  0.12419288661E+03  0.10566000000E+00 0. -1.
<mgrwt>
<rscale>  1 0.59173891E+03</rscale>
<asrwt>0</asrwt>
<pdfrwt beam="1">  1       21 0.74078040E-01 0.10064039E+04</pdfrwt>
<pdfrwt beam="2">  1        4 0.10151180E+00 0.10064039E+04</pdfrwt>
<totfact> 0.50237944E+01</totfact>
</mgrwt>
</event>
<event>
 6    1  0.1375310E-005  0.9890039E+03  0.7818608E-02  0.1006510E+00
         21   -1    0    0  501  502  0.00000000000E+00  0.00000000000E+00  0.16682557738E+04  0.16682557738E+04  0.00000000000E+00 0.  1.
          4   -1    0    0  502    0 -0.00000000000E+00 -0.00000000000E+00 -0.18796024125E+03  0.18796024125E+03  0.00000000000E+00 0.  1.
    9000010    2    1    2  501    0  0.80847396724E+02  0.16003455794E+01  0.14740762036E+04  0.17751138950E+04  0.98569256036E+03 0.  0.
        -13    1    3    3    0    0 -0.85104076566E+01 -0.94727527156E+02  0.15942312991E+04  0.15970658025E+04  0.10566000000E+00 0.  1.
          4    1    3    3  501    0  0.89357804380E+02  0.96327872736E+02 -0.12015509548E+03  0.17804809249E+03  0.00000000000E+00 0.  1.
         13    1    1    2    0    0 -0.80847396724E+02 -0.16003455794E+01  0.62193289726E+01  0.81102120070E+02  0.10566000000E+00 0. -1.
<mgrwt>
<rscale>  1 0.52885470E+03</rscale>
<asrwt>0</asrwt>
<pdfrwt beam="1">  1       21 0.25665472E+00 0.98900389E+03</pdfrwt>
<pdfrwt beam="2">  1        4 0.28916961E-01 0.98900389E+03</pdfrwt>
<totfact> 0.23046472E+01</totfact>
</mgrwt>
</event>
<event>
 6    1  0.1375310E-005  0.1015496E+04  0.7818608E-02  0.9924850E-01
          4   -1    0    0  502    0 -0.00000000000E+00  0.00000000000E+00  0.53329904625E+03  0.53329904625E+03  0.00000000000E+00 0.  1.
         21   -1    0    0  501  502  0.00000000000E+00 -0.00000000000E+00 -0.69053949165E+03  0.69053949165E+03  0.00000000000E+00 0.  1.
    9000010    2    1    2  501    0 -0.10430809270E+03 -0.51379862066E+02 -0.28137003217E+03  0.10537555173E+04  0.10088168946E+04 0.  0.
        -13    1    3    3    0    0 -0.19508393699E+03  0.36954324174E+03 -0.42868077496E+03  0.59865446458E+03  0.10566000000E+00 0.  1.
          4    1    3    3  501    0  0.90775844285E+02 -0.42092310380E+03  0.14731074278E+03  0.45510105269E+03  0.00000000000E+00 0.  1.
         13    1    1    2    0    0  0.10430809270E+03  0.51379862066E+02  0.12412958677E+03  0.17008302062E+03  0.10566000000E+00 0. -1.
<mgrwt>
<rscale>  1 0.59071906E+03</rscale>
<asrwt>0</asrwt>
<pdfrwt beam="2">  1       21 0.10623685E+00 0.10154957E+04</pdfrwt>
<pdfrwt beam="1">  1        4 0.82046007E-01 0.10154957E+04</pdfrwt>
<totfact> 0.34795400E+01</totfact>
</mgrwt>
</event>
<event>
 6    1  0.1375310E-005  0.9476718E+03  0.7818608E-02  0.1032678E+00
         21   -1    0    0  501  502  0.00000000000E+00  0.00000000000E+00  0.12251574396E+04  0.12251574396E+04  0.00000000000E+00 0.  1.
          4   -1    0    0  502    0 -0.00000000000E+00 -0.00000000000E+00 -0.32317379512E+03  0.32317379512E+03  0.00000000000E+00 0.  1.
    9000010    2    1    2  501    0  0.18365923648E+02 -0.37320302770E+02  0.10383321696E+04  0.14057793366E+04  0.94675854191E+03 0.  0.
        -13    1    3    3    0    0  0.28936392785E+03 -0.33181331523E+03  0.21418199851E+03  0.48959728201E+03  0.10566000000E+00 0.  1.
          4    1    3    3  501    0 -0.27099800420E+03  0.29449301246E+03  0.82415017111E+03  0.91618205462E+03  0.00000000000E+00 0.  1.
         13    1    1    2    0    0 -0.18365923648E+02  0.37320302770E+02 -0.13634852518E+03  0.14255189804E+03  0.10566000000E+00 0. -1.
<mgrwt>
<rscale>  1 0.43376360E+03</rscale>
<asrwt>0</asrwt>
<pdfrwt beam="1">  1       21 0.18848576E+00 0.94767180E+03</pdfrwt>
<pdfrwt beam="2">  1        4 0.49719046E-01 0.94767180E+03</pdfrwt>
<totfact> 0.21847312E+01</totfact>
</mgrwt>
</event>
<event>
 6    1  0.1375310E-005  0.1004159E+04  0.7818608E-02  0.9983824E-01
          4   -1    0    0  502    0 -0.00000000000E+00  0.00000000000E+00  0.21138123150E+03  0.21138123150E+03  0.00000000000E+00 0.  1.
         21   -1    0    0  501  502  0.00000000000E+00 -0.00000000000E+00 -0.14949713960E+04  0.14949713960E+04  0.00000000000E+00 0.  1.
    9000010    2    1    2  501    0  0.18462622574E+02 -0.97962370340E+02 -0.10525059981E+04  0.14546834050E+04  0.99919839784E+03 0.  0.
        -13    1    3    3    0    0  0.26570699735E+03  0.37658077043E+03 -0.39525075436E+03  0.60715439147E+03  0.10566000000E+00 0.  1.
          4    1    3    3  501    0 -0.24724437477E+03 -0.47454314077E+03 -0.65725524374E+03  0.84752901351E+03  0.00000000000E+00 0.  1.
         13    1    1    2    0    0 -0.18462622574E+02  0.97962370340E+02 -0.23108416638E+03  0.25166922249E+03  0.10566000000E+00 0. -1.
<mgrwt>
<rscale>  1 0.56365262E+03</rscale>
<asrwt>0</asrwt>
<pdfrwt beam="2">  1       21 0.22999561E+00 0.10041588E+04</pdfrwt>
<pdfrwt beam="1">  1        4 0.32520189E-01 0.10041588E+04</pdfrwt>
<totfact> 0.27054504E+01</totfact>
</mgrwt>
</event>
<event>
 6    1  0.1375310E-005  0.1002110E+04  0.7818608E-02  0.9696300E-01
         21   -1    0    0  501  502  0.00000000000E+00  0.00000000000E+00  0.98057095142E+03  0.98057095142E+03  0.00000000000E+00 0.  1.
          4   -1    0    0  502    0 -0.00000000000E+00 -0.00000000000E+00 -0.53664092125E+03  0.53664092125E+03  0.00000000000E+00 0.  1.
    9000010    2    1    2  501    0 -0.23425812859E+03 -0.10302167657E+03  0.64501433702E+03  0.11917502831E+04  0.96888332924E+03 0.  0.
        -13    1    3    3    0    0  0.12285406530E+03 -0.45586867113E+03  0.45284738839E+03  0.65420190692E+03  0.10566000000E+00 0.  1.
          4    1    3    3  501    0 -0.35711219389E+03  0.35284699456E+03  0.19216694863E+03  0.53754837619E+03  0.00000000000E+00 0.  1.
         13    1    1    2    0    0  0.23425812859E+03  0.10302167657E+03 -0.20108430685E+03  0.32546158956E+03  0.10566000000E+00 0. -1.
<mgrwt>
<rscale>  1 0.71237527E+03</rscale>
<asrwt>0</asrwt>
<pdfrwt beam="1">  1       21 0.15085707E+00 0.10021104E+04</pdfrwt>
<pdfrwt beam="2">  1        4 0.82560142E-01 0.10021104E+04</pdfrwt>
<totfact> 0.13600033E+01</totfact>
</mgrwt>
</event>
<event>
 6    1  0.1375310E-005  0.1002907E+04  0.7818608E-02  0.9815815E-01
          4   -1    0    0  502    0 -0.00000000000E+00  0.00000000000E+00  0.68115179253E+03  0.68115179253E+03  0.00000000000E+00 0.  1.
         21   -1    0    0  501  502  0.00000000000E+00 -0.00000000000E+00 -0.50663229395E+03  0.50663229395E+03  0.00000000000E+00 0.  1.
    9000010    2    1    2  501    0  0.14706144920E+03  0.88808429953E+02  0.14143402904E+03  0.10128307598E+04  0.98808327396E+03 0.  0.
        -13    1    3    3    0    0  0.17354871029E+03  0.52904484304E+03  0.28215210623E+02  0.55749772203E+03  0.10566000000E+00 0.  1.
          4    1    3    3  501    0 -0.26487261094E+02 -0.44023641309E+03  0.11321881842E+03  0.45533303773E+03  0.00000000000E+00 0.  1.
         13    1    1    2    0    0 -0.14706144920E+03 -0.88808429953E+02  0.33085469541E+02  0.17495332672E+03  0.10566000000E+00 0. -1.
<mgrwt>
<rscale>  1 0.64520698E+03</rscale>
<asrwt>0</asrwt>
<pdfrwt beam="2">  1       21 0.77943431E-01 0.10029071E+04</pdfrwt>
<pdfrwt beam="1">  1        4 0.10479258E+00 0.10029071E+04</pdfrwt>
<totfact> 0.41314688E+01</totfact>
</mgrwt>
</event>
<event>
 6    1  0.1375310E-005  0.1008132E+04  0.7818608E-02  0.9837253E-01
          4   -1    0    0  502    0 -0.00000000000E+00  0.00000000000E+00  0.19319097998E+03  0.19319097998E+03  0.00000000000E+00 0.  1.
         21   -1    0    0  501  502  0.00000000000E+00 -0.00000000000E+00 -0.18761027900E+04  0.18761027900E+04  0.00000000000E+00 0.  1.
    9000010    2    1    2  501    0  0.67056432273E+02 -0.14273427541E+03 -0.12337817749E+04  0.15932817554E+04  0.99572066631E+03 0.  0.
        -13    1    3    3    0    0 -0.21698782771E+03  0.24016251428E+03 -0.63804355038E+02  0.32989810173E+03  0.10566000000E+00 0.  1.
          4    1    3    3  501    0  0.28404425998E+03 -0.38289678969E+03 -0.11699774199E+04  0.12633836536E+04  0.00000000000E+00 0.  1.
         13    1    1    2    0    0 -0.67056432273E+02  0.14273427541E+03 -0.44913003506E+03  0.47601201460E+03  0.10566000000E+00 0. -1.
<mgrwt>
<rscale>  1 0.63401083E+03</rscale>
<asrwt>0</asrwt>
<pdfrwt beam="2">  1       21 0.28863120E+00 0.10081316E+04</pdfrwt>
<pdfrwt beam="1">  1        4 0.29721689E-01 0.10081316E+04</pdfrwt>
<totfact> 0.13737887E+01</totfact>
</mgrwt>
</event>
<event>
 6    1  0.1375310E-005  0.1030940E+04  0.7818608E-02  0.9788042E-01
         21   -1    0    0  501  502  0.00000000000E+00  0.00000000000E+00  0.10910692832E+04  0.10910692832E+04  0.00000000000E+00 0.  1.
          4   -1    0    0  502    0 -0.00000000000E+00 -0.00000000000E+00 -0.59099312305E+03  0.59099312305E+03  0.00000000000E+00 0.  1.
    9000010    2    1    2  501    0 -0.79036547473E+02  0.15417957931E+03  0.82063381529E+03  0.13176788995E+04  0.10162773759E+04 0.  0.
        -13    1    3    3    0    0  0.18242644888E+03  0.53138879065E+03  0.35911904171E+03  0.66679828536E+03  0.10566000000E+00 0.  1.
          4    1    3    3  501    0 -0.26146299635E+03 -0.37720921134E+03  0.46151477358E+03  0.65088061411E+03  0.00000000000E+00 0.  1.
         13    1    1    2    0    0  0.79036547473E+02 -0.15417957931E+03 -0.32055765520E+03  0.36438350673E+03  0.10566000000E+00 0. -1.
<mgrwt>
<rscale>  1 0.66008229E+03</rscale>
<asrwt>0</asrwt>
<pdfrwt beam="1">  1       21 0.16785681E+00 0.10309403E+04</pdfrwt>
<pdfrwt beam="2">  1        4 0.90922019E-01 0.10309403E+04</pdfrwt>
<totfact> 0.79767530E+00</totfact>
</mgrwt>
</event>
<event>
 6    1  0.1375310E-005  0.1043447E+04  0.7818608E-02  0.9660293E-01
          4   -1    0    0  502    0 -0.00000000000E+00  0.00000000000E+00  0.94018285289E+03  0.94018285289E+03  0.00000000000E+00 0.  1.
         21   -1    0    0  501  502  0.00000000000E+00 -0.00000000000E+00 -0.85829169365E+03  0.85829169365E+03  0.00000000000E+00 0.  1.
    9000010    2    1    2  501    0 -0.22046060182E+03  0.12997140528E+03 -0.50424893843E+03  0.11588999470E+04  0.10115763204E+04 0.  0.
        -13    1    3    3    0    0 -0.18274488868E+03  0.54784917346E+03 -0.45740207350E+03  0.73671641709E+03  0.10566000000E+00 0.  1.
          4    1    3    3  501    0 -0.37715713132E+02 -0.41787776818E+03 -0.46846864924E+02  0.42218352988E+03  0.00000000000E+00 0.  1.
         13    1    1    2    0    0  0.22046060182E+03 -0.12997140528E+03  0.58614009767E+03  0.63957459957E+03  0.10566000000E+00 0. -1.
<mgrwt>
<rscale>  1 0.73430969E+03</rscale>
<asrwt>0</asrwt>
<pdfrwt beam="2">  1       21 0.13204488E+00 0.10434472E+04</pdfrwt>
<pdfrwt beam="1">  1        4 0.14464352E+00 0.10434472E+04</pdfrwt>
<totfact> 0.48808160E+00</totfact>
</mgrwt>
</event>
<event>
 6    1  0.1375310E-005  0.1012957E+04  0.7818608E-02  0.9975467E-01
         21   -1    0    0  501  502  0.00000000000E+00  0.00000000000E+00  0.71041756404E+03  0.71041756404E+03  0.00000000000E+00 0.  1.
          4   -1    0    0  502    0 -0.00000000000E+00 -0.00000000000E+00 -0.44505081397E+03  0.44505081397E+03  0.00000000000E+00 0.  1.
    9000010    2    1    2  501    0  0.69375535815E+02  0.71624318643E+02  0.28823047882E+03  0.10531660357E+04  0.10080371431E+04 0.  0.
        -13    1    3    3    0    0  0.22963154125E+03 -0.41886927255E+03  0.36633478252E+02  0.47908677201E+03  0.10566000000E+00 0.  1.
          4    1    3    3  501    0 -0.16025600543E+03  0.49049359119E+03  0.25159700057E+03  0.57407926367E+03  0.00000000000E+00 0.  1.
         13    1    1    2    0    0 -0.69375535815E+02 -0.71624318643E+02 -0.22863728758E+02  0.10230234234E+03  0.10566000000E+00 0. -1.
<mgrwt>
<rscale>  1 0.56739178E+03</rscale>
<asrwt>0</asrwt>
<pdfrwt beam="1">  1       21 0.10929501E+00 0.10129570E+04</pdfrwt>
<pdfrwt beam="2">  1        4 0.68469356E-01 0.10129570E+04</pdfrwt>
<totfact> 0.48841403E+01</totfact>
</mgrwt>
</event>
<event>
 6    1  0.1375310E-005  0.1000002E+04  0.7818608E-02  0.9957417E-01
          4   -1    0    0  502    0 -0.00000000000E+00  0.00000000000E+00  0.19494063071E+03  0.19494063071E+03  0.00000000000E+00 0.  1.
         21   -1    0    0  501  502  0.00000000000E+00 -0.00000000000E+00 -0.20848179748E+04  0.20848179748E+04  0.00000000000E+00 0.  1.
    9000010    2    1    2  501    0 -0.91386711712E+02  0.60774936409E+02 -0.19209856512E+04  0.21656846737E+04  0.99396132204E+03 0.  0.
        -13    1    3    3    0    0 -0.30910752202E+03 -0.11374408288E+03 -0.13162334274E+03  0.35469690170E+03  0.10566000000E+00 0.  1.
          4    1    3    3  501    0  0.21772081030E+03  0.17451901928E+03 -0.17893623085E+04  0.18109877720E+04  0.00000000000E+00 0.  1.
         13    1    1    2    0    0  0.91386711712E+02 -0.60774936409E+02  0.31108307166E+02  0.11407393178E+03  0.10566000000E+00 0. -1.
<mgrwt>
<rscale>  1 0.57557530E+03</rscale>
<asrwt>0</asrwt>
<pdfrwt beam="2">  1       21 0.32074123E+00 0.10000021E+04</pdfrwt>
<pdfrwt beam="1">  1        4 0.29990866E-01 0.10000021E+04</pdfrwt>
<totfact> 0.85331115E+00</totfact>
</mgrwt>
</event>
<event>
 6    1  0.1375310E-005  0.1050265E+04  0.7818608E-02  0.9647055E-01
          4   -1    0    0  502    0 -0.00000000000E+00  0.00000000000E+00  0.17356923842E+04  0.17356923842E+04  0.00000000000E+00 0.  1.
         21   -1    0    0  501  502  0.00000000000E+00 -0.00000000000E+00 -0.25635451076E+03  0.25635451076E+03  0.00000000000E+00 0.  1.
    9000010    2    1    2  501    0  0.18076000826E+03 -0.19031316187E+03  0.13127035871E+04  0.16811445361E+04  0.10169380333E+04 0.  0.
        -13    1    3    3    0    0  0.56241249505E+03  0.28516657976E+02  0.97730218257E+03  0.11279364262E+04  0.10566000000E+00 0.  1.
          4    1    3    3  501    0 -0.38165248679E+03 -0.21882981985E+03  0.33540140451E+03  0.55320810991E+03  0.00000000000E+00 0.  1.
         13    1    1    2    0    0 -0.18076000826E+03  0.19031316187E+03  0.16663428636E+03  0.31090235882E+03  0.10566000000E+00 0. -1.
<mgrwt>
<rscale>  1 0.74258521E+03</rscale>
<asrwt>0</asrwt>
<pdfrwt beam="2">  1       21 0.39439157E-01 0.10502648E+04</pdfrwt>
<pdfrwt beam="1">  1        4 0.26702959E+00 0.10502648E+04</pdfrwt>
<totfact> 0.12292373E+01</totfact>
</mgrwt>
</event>
<event>
 6    1  0.1375310E-005  0.1322411E+04  0.7818608E-02  0.9115137E-01
          4   -1    0    0  502    0 -0.00000000000E+00  0.00000000000E+00  0.93905769191E+03  0.93905769191E+03  0.00000000000E+00 0.  1.
         21   -1    0    0  501  502  0.00000000000E+00 -0.00000000000E+00 -0.13537638432E+04  0.13537638432E+04  0.00000000000E+00 0. -1.
    9000010    2    1    2  501    0 -0.88446031126E+03  0.88783161856E+02 -0.26059862836E+02  0.13226677119E+04  0.97909053081E+03 0.  0.
        -13    1    3    3    0    0 -0.93240465183E+03  0.33211646329E+03 -0.21256449058E+03  0.10123553989E+04  0.10566000000E+00 0.  1.
          4    1    3    3  501    0  0.47944340575E+02 -0.24333330143E+03  0.18650462774E+03  0.31031231292E+03  0.00000000000E+00 0.  1.
         13    1    1    2    0    0  0.88446031126E+03 -0.88783161856E+02 -0.38864628841E+03  0.97015382320E+03  0.10566000000E+00 0. -1.
<mgrwt>
<rscale>  1 0.11973986E+04</rscale>
<asrwt>0</asrwt>
<pdfrwt beam="2">  1       21 0.20827136E+00 0.13224110E+04</pdfrwt>
<pdfrwt beam="1">  1        4 0.14447041E+00 0.13224110E+04</pdfrwt>
<totfact> 0.12413806E+00</totfact>
</mgrwt>
</event>
<event>
 6    1  0.1375310E-005  0.1044069E+04  0.7818608E-02  0.9592177E-01
         21   -1    0    0  501  502  0.00000000000E+00  0.00000000000E+00  0.18472681227E+04  0.18472681227E+04  0.00000000000E+00 0.  1.
          4   -1    0    0  502    0 -0.00000000000E+00 -0.00000000000E+00 -0.25410773145E+03  0.25410773145E+03  0.00000000000E+00 0.  1.
    9000010    2    1    2  501    0  0.16797339980E+03 -0.27492077936E+03  0.11466571281E+04  0.15507746617E+04  0.99311780970E+03 0.  0.
        -13    1    3    3    0    0 -0.33216943312E+03 -0.15880650619E+03  0.91730104164E+03  0.98843171280E+03  0.10566000000E+00 0.  1.
          4    1    3    3  501    0  0.50014283292E+03 -0.11611427317E+03  0.22935608644E+03  0.56234294887E+03  0.00000000000E+00 0.  1.
         13    1    1    2    0    0 -0.16797339980E+03  0.27492077936E+03  0.44650326317E+03  0.55060119247E+03  0.10566000000E+00 0. -1.
<mgrwt>
<rscale>  1 0.77816145E+03</rscale>
<asrwt>0</asrwt>
<pdfrwt beam="1">  1       21 0.28419509E+00 0.10440687E+04</pdfrwt>
<pdfrwt beam="2">  1        4 0.39093498E-01 0.10440687E+04</pdfrwt>
<totfact> 0.84298824E+00</totfact>
</mgrwt>
</event>
<event>
 6    1  0.1375310E-005  0.1060065E+04  0.7818608E-02  0.9879998E-01
          4   -1    0    0  502    0 -0.00000000000E+00  0.00000000000E+00  0.19824859975E+04  0.19824859975E+04  0.00000000000E+00 0.  1.
         21   -1    0    0  501  502  0.00000000000E+00 -0.00000000000E+00 -0.18757698988E+03  0.18757698988E+03  0.00000000000E+00 0.  1.
    9000010    2    1    2  501    0  0.62921290348E+01 -0.11790751727E+03  0.13888257263E+04  0.17471617980E+04  0.10534684032E+04 0.  0.
        -13    1    3    3    0    0  0.33275697307E+02 -0.58670850132E+03  0.83501902983E+03  0.10210734199E+04  0.10566000000E+00 0.  1.
          4    1    3    3  501    0 -0.26983568272E+02  0.46880098405E+03  0.55380669651E+03  0.72608837802E+03  0.00000000000E+00 0.  1.
         13    1    1    2    0    0 -0.62921290348E+01  0.11790751727E+03  0.40608328127E+03  0.42290118941E+03  0.10566000000E+00 0. -1.
<mgrwt>
<rscale>  1 0.61240555E+03</rscale>
<asrwt>0</asrwt>
<pdfrwt beam="2">  1       21 0.28858000E-01 0.10600648E+04</pdfrwt>
<pdfrwt beam="1">  1        4 0.30499783E+00 0.10600648E+04</pdfrwt>
<totfact> 0.13571833E+01</totfact>
</mgrwt>
</event>
<event>
 6    1  0.1375310E-005  0.1025010E+04  0.7818608E-02  0.9687713E-01
          4   -1    0    0  502    0 -0.00000000000E+00  0.00000000000E+00  0.11470414239E+04  0.11470414239E+04  0.00000000000E+00 0.  1.
         21   -1    0    0  501  502  0.00000000000E+00 -0.00000000000E+00 -0.36150067945E+03  0.36150067945E+03  0.00000000000E+00 0.  1.
    9000010    2    1    2  501    0 -0.12583693870E+03  0.21153898266E+03  0.53071759782E+03  0.11542561686E+04  0.99501882284E+03 0.  0.
        -13    1    3    3    0    0 -0.47803339814E+03  0.28022304264E+03  0.56797444063E+03  0.79349597336E+03  0.10566000000E+00 0.  1.
          4    1    3    3  501    0  0.35219645944E+03 -0.68684059979E+02 -0.37256842808E+02  0.36076019525E+03  0.00000000000E+00 0.  1.
         13    1    1    2    0    0  0.12583693870E+03 -0.21153898266E+03  0.25482314659E+03  0.35428593471E+03  0.10566000000E+00 0. -1.
<mgrwt>
<rscale>  1 0.71753095E+03</rscale>
<asrwt>0</asrwt>
<pdfrwt beam="2">  1       21 0.55615490E-01 0.10250103E+04</pdfrwt>
<pdfrwt beam="1">  1        4 0.17646791E+00 0.10250103E+04</pdfrwt>
<totfact> 0.22636575E+01</totfact>
</mgrwt>
</event>
<event>
 6    1  0.1375310E-005  0.1014874E+04  0.7818608E-02  0.9663981E-01
         21   -1    0    0  501  502  0.00000000000E+00  0.00000000000E+00  0.96110262585E+03  0.96110262585E+03  0.00000000000E+00 0. -1.
          4   -1    0    0  502    0 -0.00000000000E+00 -0.00000000000E+00 -0.43282545035E+03  0.43282545035E+03  0.00000000000E+00 0.  1.
    9000010    2    1    2  501    0  0.21945613202E+03 -0.16523274890E+03  0.40205278294E+03  0.10916112496E+04  0.97698813956E+03 0.  0.
        -13    1    3    3    0    0  0.39771697922E+03 -0.69291293475E+02  0.65390331982E+03  0.76848529052E+03  0.10566000000E+00 0.  1.
          4    1    3    3  501    0 -0.17826084720E+03 -0.95941455421E+02 -0.25185053689E+03  0.32312595910E+03  0.00000000000E+00 0.  1.
         13    1    1    2    0    0 -0.21945613202E+03  0.16523274890E+03  0.12622439257E+03  0.30231682658E+03  0.10566000000E+00 0. -1.
<mgrwt>
<rscale>  1 0.73202468E+03</rscale>
<asrwt>0</asrwt>
<pdfrwt beam="1">  1       21 0.14786194E+00 0.10148737E+04</pdfrwt>
<pdfrwt beam="2">  1        4 0.66588531E-01 0.10148737E+04</pdfrwt>
<totfact> 0.23367465E+01</totfact>
</mgrwt>
</event>
<event>
 6    1  0.1375310E-005  0.1016726E+04  0.7818608E-02  0.1009401E+00
         21   -1    0    0  501  502  0.00000000000E+00  0.00000000000E+00  0.29090792039E+03  0.29090792039E+03  0.00000000000E+00 0.  1.
          4   -1    0    0  502    0 -0.00000000000E+00 -0.00000000000E+00 -0.10659439311E+04  0.10659439311E+04  0.00000000000E+00 0.  1.
    9000010    2    1    2  501    0 -0.67901280205E+02  0.44396780787E+01 -0.62853551509E+03  0.11953194988E+04  0.10144464086E+04 0.  0.
        -13    1    3    3    0    0 -0.11524187903E+03  0.29686316489E+03 -0.79437469218E+03  0.85582684703E+03  0.10566000000E+00 0.  1.
          4    1    3    3  501    0  0.47340598827E+02 -0.29242348681E+03  0.16583917709E+03  0.33949265175E+03  0.00000000000E+00 0.  1.
         13    1    1    2    0    0  0.67901280205E+02 -0.44396780787E+01 -0.14650049558E+03  0.16153235268E+03  0.10566000000E+00 0. -1.
<mgrwt>
<rscale>  1 0.51713528E+03</rscale>
<asrwt>0</asrwt>
<pdfrwt beam="1">  1       21 0.44755064E-01 0.10167260E+04</pdfrwt>
<pdfrwt beam="2">  1        4 0.16399138E+00 0.10167260E+04</pdfrwt>
<totfact> 0.44568774E+01</totfact>
</mgrwt>
</event>
<event>
 6    1  0.1375310E-005  0.1029041E+04  0.7818608E-02  0.9737687E-01
          4   -1    0    0  502    0 -0.00000000000E+00  0.00000000000E+00  0.15274060360E+04  0.15274060360E+04  0.00000000000E+00 0.  1.
         21   -1    0    0  501  502  0.00000000000E+00 -0.00000000000E+00 -0.44975924981E+03  0.44975924981E+03  0.00000000000E+00 0.  1.
    9000010    2    1    2  501    0 -0.20249460418E+03  0.36815060891E+02  0.16571708385E+03  0.10422988747E+04  0.10082486692E+04 0.  0.
        -13    1    3    3    0    0  0.20204373750E+03  0.64353320105E+02  0.48296444742E+03  0.52746344926E+03  0.10566000000E+00 0.  1.
          4    1    3    3  501    0 -0.40453834168E+03 -0.27538259214E+02 -0.31724736357E+03  0.51483542546E+03  0.00000000000E+00 0.  1.
         13    1    1    2    0    0  0.20249460418E+03 -0.36815060891E+02  0.91192970237E+03  0.93486641113E+03  0.10566000000E+00 0. -1.
<mgrwt>
<rscale>  1 0.68816594E+03</rscale>
<asrwt>0</asrwt>
<pdfrwt beam="2">  1       21 0.69193732E-01 0.10290407E+04</pdfrwt>
<pdfrwt beam="1">  1        4 0.23498554E+00 0.10290407E+04</pdfrwt>
<totfact> 0.57083430E+00</totfact>
</mgrwt>
</event>
<event>
 6    1  0.1375310E-005  0.9362761E+03  0.7818608E-02  0.9877746E-01
         21   -1    0    0  501  502  0.00000000000E+00  0.00000000000E+00  0.51736132900E+03  0.51736132900E+03  0.00000000000E+00 0.  1.
          4   -1    0    0  502    0 -0.00000000000E+00 -0.00000000000E+00 -0.60932667181E+03  0.60932667181E+03  0.00000000000E+00 0.  1.
    9000010    2    1    2  501    0 -0.15097430103E+03  0.83702737640E+02 -0.11784001355E+02  0.93635028374E+03  0.92022475695E+03 0.  0.
        -13    1    3    3    0    0 -0.22914832921E+03 -0.18217640367E+03  0.36546120091E+03  0.46825110717E+03  0.10566000000E+00 0.  1.
          4    1    3    3  501    0  0.78174028183E+02  0.26587914131E+03 -0.37724520227E+03  0.46809917656E+03  0.00000000000E+00 0.  1.
         13    1    1    2    0    0  0.15097430103E+03 -0.83702737640E+02 -0.80181341459E+02  0.19033771707E+03  0.10566000000E+00 0. -1.
<mgrwt>
<rscale>  1 0.61352025E+03</rscale>
<asrwt>0</asrwt>
<pdfrwt beam="1">  1       21 0.79594051E-01 0.93627613E+03</pdfrwt>
<pdfrwt beam="2">  1        4 0.93742565E-01 0.93627613E+03</pdfrwt>
<totfact> 0.51716475E+01</totfact>
</mgrwt>
</event>
<event>
 6    1  0.1375310E-005  0.1021995E+04  0.7818608E-02  0.9643833E-01
         21   -1    0    0  501  502  0.00000000000E+00  0.00000000000E+00  0.11390763625E+04  0.11390763625E+04  0.00000000000E+00 0.  1.
          4   -1    0    0  502    0 -0.00000000000E+00 -0.00000000000E+00 -0.45510189672E+03  0.45510189672E+03  0.00000000000E+00 0.  1.
    9000010    2    1    2  501    0 -0.23566706668E+03  0.16553820747E+03  0.78531429032E+03  0.12888724525E+04  0.98057727885E+03 0.  0.
        -13    1    3    3    0    0  0.27639486532E+03  0.37494533142E+03  0.31033570799E+03  0.55971991741E+03  0.10566000000E+00 0.  1.
          4    1    3    3  501    0 -0.51206193200E+03 -0.20940712395E+03  0.47497858233E+03  0.72915253509E+03  0.00000000000E+00 0.  1.
         13    1    1    2    0    0  0.23566706668E+03 -0.16553820747E+03 -0.10133982449E+03  0.30530580676E+03  0.10566000000E+00 0. -1.
<mgrwt>
<rscale>  1 0.74461759E+03</rscale>
<asrwt>0</asrwt>
<pdfrwt beam="1">  1       21 0.17524252E+00 0.10219949E+04</pdfrwt>
<pdfrwt beam="2">  1        4 0.70015677E-01 0.10219949E+04</pdfrwt>
<totfact> 0.12824801E+01</totfact>
</mgrwt>
</event>
<event>
 6    1  0.1375310E-005  0.1053813E+04  0.7818608E-02  0.9558421E-01
          4   -1    0    0  502    0 -0.00000000000E+00  0.00000000000E+00  0.17064851023E+04  0.17064851023E+04  0.00000000000E+00 0.  1.
         21   -1    0    0  501  502  0.00000000000E+00 -0.00000000000E+00 -0.29301836507E+03  0.29301836507E+03  0.00000000000E+00 0.  1.
    9000010    2    1    2  501    0  0.59599496835E+02 -0.34685319851E+03  0.96030021085E+03  0.14257272452E+04  0.99330883487E+03 0.  0.
        -13    1    3    3    0    0 -0.28838753211E+02 -0.50499781332E+03  0.62315699947E+02  0.50964470248E+03  0.10566000000E+00 0.  1.
          4    1    3    3  501    0  0.88438250046E+02  0.15814461481E+03  0.89798451090E+03  0.91608254273E+03  0.00000000000E+00 0.  1.
         13    1    1    2    0    0 -0.59599496835E+02  0.34685319851E+03  0.45316652641E+03  0.57377622220E+03  0.10566000000E+00 0. -1.
<mgrwt>
<rscale>  1 0.80110363E+03</rscale>
<asrwt>0</asrwt>
<pdfrwt beam="2">  1       21 0.45079750E-01 0.10538129E+04</pdfrwt>
<pdfrwt beam="1">  1        4 0.26253616E+00 0.10538129E+04</pdfrwt>
<totfact> 0.98755302E+00</totfact>
</mgrwt>
</event>
<event>
 6    1  0.1375310E-005  0.1003191E+04  0.7818608E-02  0.9865329E-01
         21   -1    0    0  501  502  0.00000000000E+00  0.00000000000E+00  0.22155573950E+04  0.22155573950E+04  0.00000000000E+00 0.  1.
          4   -1    0    0  502    0 -0.00000000000E+00 -0.00000000000E+00 -0.29561551169E+03  0.29561551169E+03  0.00000000000E+00 0.  1.
    9000010    2    1    2  501    0 -0.14608583610E+03  0.80070006686E+00  0.20709065383E+04  0.23010966090E+04  0.99249685171E+03 0.  0.
        -13    1    3    3    0    0  0.25147840353E+02 -0.46073700209E+03  0.64843303886E+03  0.79584949332E+03  0.10566000000E+00 0.  1.
          4    1    3    3  501    0 -0.17123367646E+03  0.46153770216E+03  0.14224734995E+04  0.15052471156E+04  0.00000000000E+00 0.  1.
         13    1    1    2    0    0  0.14608583610E+03 -0.80070006686E+00 -0.15096465502E+03  0.21007629771E+03  0.10566000000E+00 0. -1.
<mgrwt>
<rscale>  1 0.61971403E+03</rscale>
<asrwt>0</asrwt>
<pdfrwt beam="1">  1       21 0.34085497E+00 0.10031908E+04</pdfrwt>
<pdfrwt beam="2">  1        4 0.45479311E-01 0.10031908E+04</pdfrwt>
<totfact> 0.27570699E+00</totfact>
</mgrwt>
</event>
<event>
 6    1  0.1375310E-005  0.9485298E+03  0.7818608E-02  0.1012639E+00
          4   -1    0    0  502    0 -0.00000000000E+00  0.00000000000E+00  0.20928638433E+03  0.20928638433E+03  0.00000000000E+00 0.  1.
         21   -1    0    0  501  502  0.00000000000E+00 -0.00000000000E+00 -0.12534760163E+04  0.12534760163E+04  0.00000000000E+00 0.  1.
    9000010    2    1    2  501    0  0.39751435450E+02 -0.64591204544E+02 -0.96642724719E+03  0.13541382782E+04  0.94549280908E+03 0.  0.
        -13    1    3    3    0    0 -0.16022050590E+02 -0.48635387876E+03 -0.32761083524E+03  0.58662225667E+03  0.10566000000E+00 0.  1.
          4    1    3    3  501    0  0.55773486040E+02  0.42176267422E+03 -0.63881641195E+03  0.76751602152E+03  0.00000000000E+00 0.  1.
         13    1    1    2    0    0 -0.39751435450E+02  0.64591204544E+02 -0.77762384799E+02  0.10862412245E+03  0.10566000000E+00 0. -1.
<mgrwt>
<rscale>  1 0.50439138E+03</rscale>
<asrwt>0</asrwt>
<pdfrwt beam="2">  1       21 0.19284247E+00 0.94852984E+03</pdfrwt>
<pdfrwt beam="1">  1        4 0.32197905E-01 0.94852984E+03</pdfrwt>
<totfact> 0.49362181E+01</totfact>
</mgrwt>
</event>
<event>
 6    1  0.1375310E-005  0.1027550E+04  0.7818608E-02  0.9848620E-01
          4   -1    0    0  502    0 -0.00000000000E+00  0.00000000000E+00  0.20325744284E+03  0.20325744284E+03  0.00000000000E+00 0.  1.
         21   -1    0    0  501  502  0.00000000000E+00 -0.00000000000E+00 -0.17102396495E+04  0.17102396495E+04  0.00000000000E+00 0.  1.
    9000010    2    1    2  501    0  0.10188991038E+03  0.10107496067E+03 -0.13886499446E+04  0.17274857031E+04  0.10174775105E+04 0.  0.
        -13    1    3    3    0    0 -0.25241379295E+03  0.44269997343E+03 -0.89799801240E+03  0.10325194578E+04  0.10566000000E+00 0.  1.
          4    1    3    3  501    0  0.35430370333E+03 -0.34162501276E+03 -0.49065193216E+03  0.69496624527E+03  0.00000000000E+00 0.  1.
         13    1    1    2    0    0 -0.10188991038E+03 -0.10107496067E+03 -0.11833226211E+03  0.18601138925E+03  0.10566000000E+00 0. -1.
<mgrwt>
<rscale>  1 0.62817330E+03</rscale>
<asrwt>0</asrwt>
<pdfrwt beam="2">  1       21 0.26311380E+00 0.10275496E+04</pdfrwt>
<pdfrwt beam="1">  1        4 0.31270375E-01 0.10275496E+04</pdfrwt>
<totfact> 0.17902458E+01</totfact>
</mgrwt>
</event>
<event>
 6    1  0.1375310E-005  0.1066164E+04  0.7818608E-02  0.9841602E-01
         21   -1    0    0  501  502  0.00000000000E+00  0.00000000000E+00  0.66516850963E+03  0.66516850963E+03  0.00000000000E+00 0.  1.
          4   -1    0    0  502    0 -0.00000000000E+00 -0.00000000000E+00 -0.10584652490E+04  0.10584652490E+04  0.00000000000E+00 0.  1.
    9000010    2    1    2  501    0  0.97597642460E+02  0.88056811448E+02  0.22657872167E+03  0.10899738339E+04  0.10580291771E+04 0.  0.
        -13    1    3    3    0    0  0.19028807578E+03 -0.42148276798E+03  0.32179669809E+03  0.56339187211E+03  0.10566000000E+00 0.  1.
          4    1    3    3  501    0 -0.92690433321E+02  0.50953957943E+03 -0.95217976417E+02  0.52658196177E+03  0.00000000000E+00 0.  1.
         13    1    1    2    0    0 -0.97597642460E+02 -0.88056811448E+02 -0.61987546105E+03  0.63365992474E+03  0.10566000000E+00 0. -1.
<mgrwt>
<rscale>  1 0.63176961E+03</rscale>
<asrwt>0</asrwt>
<pdfrwt beam="1">  1       21 0.10233362E+00 0.10661637E+04</pdfrwt>
<pdfrwt beam="2">  1        4 0.16284081E+00 0.10661637E+04</pdfrwt>
<totfact> 0.68100482E+00</totfact>
</mgrwt>
</event>
<event>
 6    1  0.1375310E-005  0.1111417E+04  0.7818608E-02  0.9425943E-01
          4   -1    0    0  502    0 -0.00000000000E+00  0.00000000000E+00  0.26663422554E+03  0.26663422554E+03  0.00000000000E+00 0.  1.
         21   -1    0    0  501  502  0.00000000000E+00 -0.00000000000E+00 -0.25405755713E+04  0.25405755713E+04  0.00000000000E+00 0.  1.
    9000010    2    1    2  501    0  0.62817717901E+01 -0.47724735922E+03 -0.18987260603E+04  0.22000928195E+04  0.10037147303E+04 0.  0.
        -13    1    3    3    0    0 -0.16506416265E+03 -0.55580855474E+03 -0.19244073498E+04  0.20098539714E+04  0.10566000000E+00 0.  1.
          4    1    3    3  501    0  0.17134593444E+03  0.78561195525E+02  0.25681289502E+02  0.19023884809E+03  0.00000000000E+00 0.  1.
         13    1    1    2    0    0 -0.62817717901E+01  0.47724735922E+03 -0.37521528543E+03  0.60711697730E+03  0.10566000000E+00 0. -1.
<mgrwt>
<rscale>  1 0.89971108E+03</rscale>
<asrwt>0</asrwt>
<pdfrwt beam="2">  1       21 0.39085779E+00 0.11114170E+04</pdfrwt>
<pdfrwt beam="1">  1        4 0.41020649E-01 0.11114170E+04</pdfrwt>
<totfact> 0.15987713E+00</totfact>
</mgrwt>
</event>
<event>
 6    1  0.1375310E-005  0.1269137E+04  0.7818608E-02  0.9180828E-01
          4   -1    0    0  502    0 -0.00000000000E+00  0.00000000000E+00  0.11087515717E+04  0.11087515717E+04  0.00000000000E+00 0.  1.
         21   -1    0    0  501  502  0.00000000000E+00 -0.00000000000E+00 -0.15286817104E+04  0.15286817104E+04  0.00000000000E+00 0.  1.
    9000010    2    1    2  501    0 -0.64952593391E+03  0.44006824660E+03 -0.10372796138E+04  0.16391024823E+04  0.99757904437E+03 0.  0.
        -13    1    3    3    0    0 -0.65144791723E+03  0.26276235533E+02 -0.16330597734E+03  0.67211880112E+03  0.10566000000E+00 0.  1.
          4    1    3    3  501    0  0.19219833218E+01  0.41379201106E+03 -0.87397363642E+03  0.96698368115E+03  0.00000000000E+00 0.  1.
         13    1    1    2    0    0  0.64952593391E+03 -0.44006824660E+03  0.61734947509E+03  0.99833079990E+03  0.10566000000E+00 0. -1.
<mgrwt>
<rscale>  1 0.11253528E+04</rscale>
<asrwt>0</asrwt>
<pdfrwt beam="2">  1       21 0.23518180E+00 0.12691367E+04</pdfrwt>
<pdfrwt beam="1">  1        4 0.17057717E+00 0.12691367E+04</pdfrwt>
<totfact> 0.52435928E-01</totfact>
</mgrwt>
</event>
<event>
 6    1  0.1375310E-005  0.1217392E+04  0.7818608E-02  0.9251783E-01
         21   -1    0    0  501  502  0.00000000000E+00  0.00000000000E+00  0.46220803568E+03  0.46220803568E+03  0.00000000000E+00 0. -1.
          4   -1    0    0  502    0 -0.00000000000E+00 -0.00000000000E+00 -0.19549459161E+04  0.19549459161E+04  0.00000000000E+00 0.  1.
    9000010    2    1    2  501    0 -0.66677119159E+03 -0.14620835631E+03 -0.91597676833E+03  0.15235018400E+04  0.10080097772E+04 0.  0.
        -13    1    3    3    0    0 -0.54802919835E+02  0.27791376042E+03 -0.68923260318E+03  0.74517179945E+03  0.10566000000E+00 0.  1.
          4    1    3    3  501    0 -0.61196827175E+03 -0.42412211673E+03 -0.22674416516E+03  0.77833004051E+03  0.00000000000E+00 0.  1.
         13    1    1    2    0    0  0.66677119159E+03  0.14620835631E+03 -0.57676111210E+03  0.89365211183E+03  0.10566000000E+00 0. -1.
<mgrwt>
<rscale>  1 0.10534565E+04</rscale>
<asrwt>0</asrwt>
<pdfrwt beam="1">  1       21 0.71108928E-01 0.12173925E+04</pdfrwt>
<pdfrwt beam="2">  1        4 0.30076091E+00 0.12173925E+04</pdfrwt>
<totfact> 0.20467158E+00</totfact>
</mgrwt>
</event>
<event>
 6    1  0.1375310E-005  0.1012869E+04  0.7818608E-02  0.9774192E-01
         21   -1    0    0  501  502  0.00000000000E+00  0.00000000000E+00  0.52174383981E+03  0.52174383981E+03  0.00000000000E+00 0.  1.
          4   -1    0    0  502    0 -0.00000000000E+00 -0.00000000000E+00 -0.72118211278E+03  0.72118211278E+03  0.00000000000E+00 0.  1.
    9000010    2    1    2  501    0 -0.18497998809E+03 -0.48504075363E+02 -0.25366982948E+03  0.10441514215E+04  0.99465248571E+03 0.  0.
        -13    1    3    3    0    0  0.12597003501E+03  0.19654312696E+03  0.28957197803E+03  0.37195374994E+03  0.10566000000E+00 0.  1.
          4    1    3    3  501    0 -0.31095002310E+03 -0.24504720232E+03 -0.54324180751E+03  0.67219767156E+03  0.00000000000E+00 0.  1.
         13    1    1    2    0    0  0.18497998809E+03  0.48504075363E+02  0.54231556520E+02  0.19877453108E+03  0.10566000000E+00 0. -1.
<mgrwt>
<rscale>  1 0.66766105E+03</rscale>
<asrwt>0</asrwt>
<pdfrwt beam="1">  1       21 0.80268283E-01 0.10128691E+04</pdfrwt>
<pdfrwt beam="2">  1        4 0.11095109E+00 0.10128691E+04</pdfrwt>
<totfact> 0.33491311E+01</totfact>
</mgrwt>
</event>
<event>
 6    1  0.1375310E-005  0.1021550E+04  0.7818608E-02  0.1045981E+00
         21   -1    0    0  501  502  0.00000000000E+00  0.00000000000E+00  0.83185815509E+03  0.83185815509E+03  0.00000000000E+00 0.  1.
          4   -1    0    0  502    0 -0.00000000000E+00 -0.00000000000E+00 -0.33598348970E+03  0.33598348970E+03  0.00000000000E+00 0.  1.
    9000010    2    1    2  501    0  0.12772800783E+02 -0.18568764418E+02  0.44907884020E+03  0.11159012571E+04  0.10213010660E+04 0.  0.
        -13    1    3    3    0    0  0.14563026838E+03 -0.19906970375E+03 -0.26822876113E+03  0.36439484283E+03  0.10566000000E+00 0.  1.
          4    1    3    3  501    0 -0.13285746760E+03  0.18050093933E+03  0.71730760133E+03  0.75150641429E+03  0.00000000000E+00 0.  1.
         13    1    1    2    0    0 -0.12772800783E+02  0.18568764418E+02  0.46795825187E+02  0.51940387665E+02  0.10566000000E+00 0. -1.
<mgrwt>
<rscale>  1 0.39370669E+03</rscale>
<asrwt>0</asrwt>
<pdfrwt beam="1">  1       21 0.12797818E+00 0.10215497E+04</pdfrwt>
<pdfrwt beam="2">  1        4 0.51689768E-01 0.10215497E+04</pdfrwt>
<totfact> 0.59826584E+01</totfact>
</mgrwt>
</event>
<event>
 6    1  0.1375310E-005  0.9773996E+03  0.7818608E-02  0.9992702E-01
         21   -1    0    0  501  502  0.00000000000E+00  0.00000000000E+00  0.25349743717E+03  0.25349743717E+03  0.00000000000E+00 0.  1.
          4   -1    0    0  502    0 -0.00000000000E+00 -0.00000000000E+00 -0.14160099942E+04  0.14160099942E+04  0.00000000000E+00 0.  1.
    9000010    2    1    2  501    0  0.83035254545E+02  0.64447527662E+02 -0.71811297556E+03  0.12128463574E+04  0.97173129187E+03 0.  0.
        -13    1    3    3    0    0 -0.43473660691E+03  0.13245136278E+03 -0.31104733853E+03  0.55071747645E+03  0.10566000000E+00 0.  1.
          4    1    3    3  501    0  0.51777186146E+03 -0.68003835117E+02 -0.40706563702E+03  0.66212888092E+03  0.00000000000E+00 0.  1.
         13    1    1    2    0    0 -0.83035254545E+02 -0.64447527662E+02 -0.44439958143E+03  0.45666107394E+03  0.10566000000E+00 0. -1.
<mgrwt>
<rscale>  1 0.55971417E+03</rscale>
<asrwt>0</asrwt>
<pdfrwt beam="1">  1       21 0.38999605E-01 0.97739963E+03</pdfrwt>
<pdfrwt beam="2">  1        4 0.21784769E+00 0.97739963E+03</pdfrwt>
<totfact> 0.25717413E+01</totfact>
</mgrwt>
</event>
<event>
 6    1  0.1375310E-005  0.1172246E+04  0.7818608E-02  0.9347321E-01
          4   -1    0    0  502    0 -0.00000000000E+00  0.00000000000E+00  0.76332954129E+03  0.76332954129E+03  0.00000000000E+00 0.  1.
         21   -1    0    0  501  502  0.00000000000E+00 -0.00000000000E+00 -0.95958366251E+03  0.95958366251E+03  0.00000000000E+00 0. -1.
    9000010    2    1    2  501    0  0.34893015596E+03  0.41113604722E+03 -0.14689465229E+03  0.11814139227E+04  0.10408533590E+04 0.  0.
        -13    1    3    3    0    0  0.28345410665E+03 -0.17955084732E+03  0.29024705056E+03  0.44365312900E+03  0.10566000000E+00 0.  1.
          4    1    3    3  501    0  0.65476049308E+02  0.59068689454E+03 -0.43714170284E+03  0.73776079374E+03  0.00000000000E+00 0.  1.
         13    1    1    2    0    0 -0.34893015596E+03 -0.41113604722E+03 -0.49359468939E+02  0.54149928107E+03  0.10566000000E+00 0. -1.
<mgrwt>
<rscale>  1 0.96540736E+03</rscale>
<asrwt>0</asrwt>
<pdfrwt beam="2">  1       21 0.14762826E+00 0.11722461E+04</pdfrwt>
<pdfrwt beam="1">  1        4 0.11743531E+00 0.11722461E+04</pdfrwt>
<totfact> 0.60716348E+00</totfact>
</mgrwt>
</event>
<event>
 6    1  0.1375310E-005  0.1018691E+04  0.7818608E-02  0.9713538E-01
          4   -1    0    0  502    0 -0.00000000000E+00  0.00000000000E+00  0.87049327611E+03  0.87049327611E+03  0.00000000000E+00 0.  1.
         21   -1    0    0  501  502  0.00000000000E+00 -0.00000000000E+00 -0.52188458844E+03  0.52188458844E+03  0.00000000000E+00 0.  1.
    9000010    2    1    2  501    0 -0.20215064031E+02  0.22905638169E+03  0.56001623026E+02  0.10202295336E+04  0.99239943803E+03 0.  0.
        -13    1    3    3    0    0 -0.26945981642E+03  0.54858425202E+03  0.66904100736E+02  0.61484099090E+03  0.10566000000E+00 0.  1.
          4    1    3    3  501    0  0.24924475239E+03 -0.31952787033E+03 -0.10902477709E+02  0.40538854268E+03  0.00000000000E+00 0.  1.
         13    1    1    2    0    0  0.20215064031E+02 -0.22905638169E+03  0.29260706464E+03  0.37214833098E+03  0.10566000000E+00 0. -1.
<mgrwt>
<rscale>  1 0.70216434E+03</rscale>
<asrwt>0</asrwt>
<pdfrwt beam="2">  1       21 0.80289937E-01 0.10186914E+04</pdfrwt>
<pdfrwt beam="1">  1        4 0.13392204E+00 0.10186914E+04</pdfrwt>
<totfact> 0.20796850E+01</totfact>
</mgrwt>
</event>
<event>
 6    1  0.1375310E-005  0.1025034E+04  0.7818608E-02  0.9724686E-01
          4   -1    0    0  502    0 -0.00000000000E+00  0.00000000000E+00  0.25754989778E+04  0.25754989778E+04  0.00000000000E+00 0.  1.
         21   -1    0    0  501  502  0.00000000000E+00 -0.00000000000E+00 -0.14985795166E+03  0.14985795166E+03  0.00000000000E+00 0.  1.
    9000010    2    1    2  501    0 -0.21035982156E+03  0.55093413314E+02  0.20074782310E+04  0.22540325474E+04  0.10017022203E+04 0.  0.
        -13    1    3    3    0    0  0.35685603315E+03  0.23650020135E+02  0.12912532469E+04  0.13398658554E+04  0.10566000000E+00 0.  1.
          4    1    3    3  501    0 -0.56721585471E+03  0.31443393179E+02  0.71622498416E+03  0.91416669199E+03  0.00000000000E+00 0.  1.
         13    1    1    2    0    0  0.21035982156E+03 -0.55093413314E+02  0.41816279514E+03  0.47132438205E+03  0.10566000000E+00 0. -1.
<mgrwt>
<rscale>  1 0.69565808E+03</rscale>
<asrwt>0</asrwt>
<pdfrwt beam="2">  1       21 0.23055071E-01 0.10250336E+04</pdfrwt>
<pdfrwt beam="1">  1        4 0.39623058E+00 0.10250336E+04</pdfrwt>
<totfact> 0.54277575E+00</totfact>
</mgrwt>
</event>
<event>
 6    1  0.1375310E-005  0.1004219E+04  0.7818608E-02  0.9898794E-01
          4   -1    0    0  502    0 -0.00000000000E+00  0.00000000000E+00  0.13447486576E+04  0.13447486576E+04  0.00000000000E+00 0.  1.
         21   -1    0    0  501  502  0.00000000000E+00 -0.00000000000E+00 -0.24386375763E+03  0.24386375763E+03  0.00000000000E+00 0.  1.
    9000010    2    1    2  501    0 -0.12947451729E+03  0.18025928450E+02  0.89746775453E+03  0.13468126407E+04  0.99567431125E+03 0.  0.
        -13    1    3    3    0    0 -0.21387960406E+03 -0.45809374970E+03  0.57478405594E+03  0.76548748564E+03  0.10566000000E+00 0.  1.
          4    1    3    3  501    0  0.84405086772E+02  0.47611967815E+03  0.32268369860E+03  0.58132515509E+03  0.00000000000E+00 0.  1.
         13    1    1    2    0    0  0.12947451729E+03 -0.18025928450E+02  0.20341714545E+03  0.24179977450E+03  0.10566000000E+00 0. -1.
<mgrwt>
<rscale>  1 0.60319765E+03</rscale>
<asrwt>0</asrwt>
<pdfrwt beam="2">  1       21 0.37517502E-01 0.10042191E+04</pdfrwt>
<pdfrwt beam="1">  1        4 0.20688440E+00 0.10042191E+04</pdfrwt>
<totfact> 0.32725140E+01</totfact>
</mgrwt>
</event>
<event>
 6    1  0.1375310E-005  0.9981725E+03  0.7818608E-02  0.9872550E-01
         21   -1    0    0  501  502  0.00000000000E+00  0.00000000000E+00  0.76016492744E+03  0.76016492744E+03  0.00000000000E+00 0.  1.
          4   -1    0    0  502    0 -0.00000000000E+00 -0.00000000000E+00 -0.43829285674E+03  0.43829285674E+03  0.00000000000E+00 0.  1.
    9000010    2    1    2  501    0 -0.19654027992E+02 -0.14353634979E+03  0.33524526966E+03  0.10529661413E+04  0.98760282473E+03 0.  0.
        -13    1    3    3    0    0 -0.15055870980E+03 -0.24886082382E+03  0.64110361780E+03  0.70399822063E+03  0.10566000000E+00 0.  1.
          4    1    3    3  501    0  0.13090468181E+03  0.10532447402E+03 -0.30585834814E+03  0.34896792069E+03  0.00000000000E+00 0.  1.
         13    1    1    2    0    0  0.19654027992E+02  0.14353634979E+03 -0.13373198959E+02  0.14549164286E+03  0.10566000000E+00 0. -1.
<mgrwt>
<rscale>  1 0.61610268E+03</rscale>
<asrwt>0</asrwt>
<pdfrwt beam="1">  1       21 0.11694845E+00 0.99817248E+03</pdfrwt>
<pdfrwt beam="2">  1        4 0.67429670E-01 0.99817248E+03</pdfrwt>
<totfact> 0.42589069E+01</totfact>
</mgrwt>
</event>
<event>
 6    1  0.1375310E-005  0.1175471E+04  0.7818608E-02  0.9295799E-01
         21   -1    0    0  501  502  0.00000000000E+00  0.00000000000E+00  0.62521383229E+03  0.62521383229E+03  0.00000000000E+00 0. -1.
          4   -1    0    0  502    0 -0.00000000000E+00 -0.00000000000E+00 -0.15870296878E+04  0.15870296878E+04  0.00000000000E+00 0.  1.
    9000010    2    1    2  501    0 -0.19301278145E+03 -0.61547514790E+03 -0.10309508679E+04  0.15635191929E+04  0.98268457970E+03 0.  0.
        -13    1    3    3    0    0  0.32434984272E+03 -0.49692206727E+03 -0.31366261915E+03  0.67120683193E+03  0.10566000000E+00 0.  1.
          4    1    3    3  501    0 -0.51736262418E+03 -0.11855308063E+03 -0.71728824873E+03  0.89231236100E+03  0.00000000000E+00 0.  1.
         13    1    1    2    0    0  0.19301278145E+03  0.61547514790E+03  0.69135012405E+02  0.64872432712E+03  0.10566000000E+00 0. -1.
<mgrwt>
<rscale>  1 0.10117053E+04</rscale>
<asrwt>0</asrwt>
<pdfrwt beam="1">  1       21 0.96186744E-01 0.11754712E+04</pdfrwt>
<pdfrwt beam="2">  1        4 0.24415841E+00 0.11754712E+04</pdfrwt>
<totfact> 0.22493137E+00</totfact>
</mgrwt>
</event>
<event>
 6    1  0.1375310E-005  0.1179193E+04  0.7818608E-02  0.9296369E-01
          4   -1    0    0  502    0 -0.00000000000E+00  0.00000000000E+00  0.12788207126E+04  0.12788207126E+04  0.00000000000E+00 0.  1.
         21   -1    0    0  501  502  0.00000000000E+00 -0.00000000000E+00 -0.66095023908E+03  0.66095023908E+03  0.00000000000E+00 0.  1.
    9000010    2    1    2  501    0  0.61358917887E+03  0.17336522508E+03  0.25611663564E+03  0.12066863508E+04  0.99194205292E+03 0.  0.
        -13    1    3    3    0    0  0.18986651796E+03 -0.37927127914E+03 -0.82899755457E+02  0.43216707237E+03  0.10566000000E+00 0.  1.
          4    1    3    3  501    0  0.42372266092E+03  0.55263650422E+03  0.33901639109E+03  0.77451927839E+03  0.00000000000E+00 0.  1.
         13    1    1    2    0    0 -0.61358917887E+03 -0.17336522508E+03  0.36175383786E+03  0.73308460089E+03  0.10566000000E+00 0. -1.
<mgrwt>
<rscale>  1 0.10111779E+04</rscale>
<asrwt>0</asrwt>
<pdfrwt beam="2">  1       21 0.10168465E+00 0.11791930E+04</pdfrwt>
<pdfrwt beam="1">  1        4 0.19674165E+00 0.11791930E+04</pdfrwt>
<totfact> 0.39504926E+00</totfact>
</mgrwt>
</event>
<event>
 6    1  0.1375310E-005  0.1007272E+04  0.7818608E-02  0.9873990E-01
          4   -1    0    0  502    0 -0.00000000000E+00  0.00000000000E+00  0.38764682635E+03  0.38764682635E+03  0.00000000000E+00 0.  1.
         21   -1    0    0  501  502  0.00000000000E+00 -0.00000000000E+00 -0.89593106434E+03  0.89593106434E+03  0.00000000000E+00 0.  1.
    9000010    2    1    2  501    0 -0.13826032343E+03  0.24010146101E+02 -0.53529177370E+03  0.11406729492E+04  0.99744929191E+03 0.  0.
        -13    1    3    3    0    0 -0.43263127263E+03 -0.11911159451E+03 -0.65344265862E+03  0.79268197235E+03  0.10566000000E+00 0.  1.
          4    1    3    3  501    0  0.29437094921E+03  0.14312174061E+03  0.11815088493E+03  0.34799097687E+03  0.00000000000E+00 0.  1.
         13    1    1    2    0    0  0.13826032343E+03 -0.24010146101E+02  0.27007535702E+02  0.14290494148E+03  0.10566000000E+00 0. -1.
<mgrwt>
<rscale>  1 0.61538590E+03</rscale>
<asrwt>0</asrwt>
<pdfrwt beam="2">  1       21 0.13783555E+00 0.10072723E+04</pdfrwt>
<pdfrwt beam="1">  1        4 0.59637973E-01 0.10072723E+04</pdfrwt>
<totfact> 0.36128379E+01</totfact>
</mgrwt>
</event>
<event>
 6    1  0.1375310E-005  0.1105625E+04  0.7818608E-02  0.9434279E-01
         21   -1    0    0  501  502  0.00000000000E+00  0.00000000000E+00  0.32414058803E+04  0.32414058803E+04  0.00000000000E+00 0.  1.
          4   -1    0    0  502    0 -0.00000000000E+00 -0.00000000000E+00 -0.22464899868E+03  0.22464899868E+03  0.00000000000E+00 0.  1.
    9000010    2    1    2  501    0 -0.29059830998E+03 -0.37026461899E+03  0.26432954461E+04  0.28652082090E+04  0.10004319066E+04 0.  0.
        -13    1    3    3    0    0 -0.55987691734E+03 -0.12372998662E+03  0.22768313246E+04  0.23479208172E+04  0.10566000000E+00 0.  1.
          4    1    3    3  501    0  0.26927860736E+03 -0.24653463237E+03  0.36646412157E+03  0.51728739182E+03  0.00000000000E+00 0.  1.
         13    1    1    2    0    0  0.29059830998E+03  0.37026461899E+03  0.37346143548E+03  0.60084666995E+03  0.10566000000E+00 0. -1.
<mgrwt>
<rscale>  1 0.89307574E+03</rscale>
<asrwt>0</asrwt>
<pdfrwt beam="1">  1       21 0.49867780E+00 0.11056253E+04</pdfrwt>
<pdfrwt beam="2">  1        4 0.34561387E-01 0.11056253E+04</pdfrwt>
<totfact> 0.41333385E-01</totfact>
</mgrwt>
</event>
<event>
 6    1  0.1375310E-005  0.1022674E+04  0.7818608E-02  0.9783661E-01
         21   -1    0    0  501  502  0.00000000000E+00  0.00000000000E+00  0.64934206962E+03  0.64934206962E+03  0.00000000000E+00 0.  1.
          4   -1    0    0  502    0 -0.00000000000E+00 -0.00000000000E+00 -0.10688041420E+04  0.10688041420E+04  0.00000000000E+00 0.  1.
    9000010    2    1    2  501    0  0.77966435114E+02  0.16231895063E+03  0.22658315602E+03  0.10474744178E+04  0.10066958441E+04 0.  0.
        -13    1    3    3    0    0 -0.40508242076E+03  0.25646608943E+03 -0.51503913208E+02  0.48220253720E+03  0.10566000000E+00 0.  1.
          4    1    3    3  501    0  0.48304885588E+03 -0.94147138804E+02  0.27808706923E+03  0.56527188059E+03  0.00000000000E+00 0.  1.
         13    1    1    2    0    0 -0.77966435114E+02 -0.16231895063E+03 -0.64604522840E+03  0.67067179383E+03  0.10566000000E+00 0. -1.
<mgrwt>
<rscale>  1 0.66246821E+03</rscale>
<asrwt>0</asrwt>
<pdfrwt beam="1">  1       21 0.99898781E-01 0.10226743E+04</pdfrwt>
<pdfrwt beam="2">  1        4 0.16443141E+00 0.10226743E+04</pdfrwt>
<totfact> 0.70747761E+00</totfact>
</mgrwt>
</event>
<event>
 6    1  0.1375310E-005  0.1155444E+04  0.7818608E-02  0.9333643E-01
          4   -1    0    0  502    0 -0.00000000000E+00  0.00000000000E+00  0.89019495874E+03  0.89019495874E+03  0.00000000000E+00 0.  1.
         21   -1    0    0  501  502  0.00000000000E+00 -0.00000000000E+00 -0.97685582512E+03  0.97685582512E+03  0.00000000000E+00 0.  1.
    9000010    2    1    2  501    0  0.37799599418E+03  0.45523503049E+03 -0.36694918427E+03  0.12123130830E+04  0.99243710269E+03 0.  0.
        -13    1    3    3    0    0 -0.20443129582E+03  0.35997677898E+03 -0.45553201373E+03  0.61553624004E+03  0.10566000000E+00 0.  1.
          4    1    3    3  501    0  0.58242729000E+03  0.95258251513E+02  0.88582829460E+02  0.59677684296E+03  0.00000000000E+00 0.  1.
         13    1    1    2    0    0 -0.37799599418E+03 -0.45523503049E+03  0.28028831789E+03  0.65473770085E+03  0.10566000000E+00 0. -1.
<mgrwt>
<rscale>  1 0.97743714E+03</rscale>
<asrwt>0</asrwt>
<pdfrwt beam="2">  1       21 0.15028551E+00 0.11554442E+04</pdfrwt>
<pdfrwt beam="1">  1        4 0.13695307E+00 0.11554442E+04</pdfrwt>
<totfact> 0.39040417E+00</totfact>
</mgrwt>
</event>
<event>
 6    1  0.1375310E-005  0.1004694E+04  0.7818608E-02  0.9828970E-01
          4   -1    0    0  502    0 -0.00000000000E+00  0.00000000000E+00  0.30292022013E+03  0.30292022013E+03  0.00000000000E+00 0.  1.
         21   -1    0    0  501  502  0.00000000000E+00 -0.00000000000E+00 -0.12871674109E+04  0.12871674109E+04  0.00000000000E+00 0.  1.
    9000010    2    1    2  501    0  0.16368882634E+03 -0.14299433043E+00 -0.10097415249E+04  0.14244252499E+04  0.99126953598E+03 0.  0.
        -13    1    3    3    0    0 -0.24769298765E+03  0.33511674653E+03 -0.21534510537E+03  0.46907203658E+03  0.10566000000E+00 0.  1.
          4    1    3    3  501    0  0.41138181398E+03 -0.33525974086E+03 -0.79439641955E+03  0.95535321328E+03  0.00000000000E+00 0.  1.
         13    1    1    2    0    0 -0.16368882634E+03  0.14299433043E+00  0.25494334110E+02  0.16566238122E+03  0.10566000000E+00 0. -1.
<mgrwt>
<rscale>  1 0.63830768E+03</rscale>
<asrwt>0</asrwt>
<pdfrwt beam="2">  1       21 0.19802575E+00 0.10046937E+04</pdfrwt>
<pdfrwt beam="1">  1        4 0.46603111E-01 0.10046937E+04</pdfrwt>
<totfact> 0.21311651E+01</totfact>
</mgrwt>
</event>
<event>
 6    1  0.1375310E-005  0.1045137E+04  0.7818608E-02  0.9571053E-01
          4   -1    0    0  502    0 -0.00000000000E+00  0.00000000000E+00  0.11559166764E+04  0.11559166764E+04  0.00000000000E+00 0.  1.
         21   -1    0    0  501  502  0.00000000000E+00 -0.00000000000E+00 -0.53970023497E+03  0.53970023497E+03  0.00000000000E+00 0.  1.
    9000010    2    1    2  501    0  0.33350567681E+03 -0.89807121901E+02  0.67583563274E+02  0.10473196017E+04  0.98641748484E+03 0.  0.
        -13    1    3    3    0    0  0.12026426068E+03 -0.37501549703E+03  0.39916110910E+03  0.56074032991E+03  0.10566000000E+00 0.  1.
          4    1    3    3  501    0  0.21324141614E+03  0.28520837512E+03 -0.33157754583E+03  0.48657927175E+03  0.00000000000E+00 0.  1.
         13    1    1    2    0    0 -0.33350567681E+03  0.89807121901E+02  0.54863287818E+03  0.64829730972E+03  0.10566000000E+00 0. -1.
<mgrwt>
<rscale>  1 0.79242098E+03</rscale>
<asrwt>0</asrwt>
<pdfrwt beam="2">  1       21 0.83030806E-01 0.10451367E+04</pdfrwt>
<pdfrwt beam="1">  1        4 0.17783333E+00 0.10451367E+04</pdfrwt>
<totfact> 0.88509563E+00</totfact>
</mgrwt>
</event>
<event>
 6    1  0.1375310E-005  0.1097568E+04  0.7818608E-02  0.9483887E-01
         21   -1    0    0  501  502  0.00000000000E+00  0.00000000000E+00  0.28158356589E+04  0.28158356589E+04  0.00000000000E+00 0.  1.
          4   -1    0    0  502    0 -0.00000000000E+00 -0.00000000000E+00 -0.29140758270E+03  0.29140758270E+03  0.00000000000E+00 0.  1.
    9000010    2    1    2  501    0  0.10737492847E+03  0.38930393221E+03  0.24659660879E+04  0.26991933155E+04  0.10205728201E+04 0.  0.
        -13    1    3    3    0    0 -0.12915183081E+02  0.66969053557E+03  0.10121884744E+04  0.12137453334E+04  0.10566000000E+00 0.  1.
          4    1    3    3  501    0  0.12029011156E+03 -0.28038660336E+03  0.14537776135E+04  0.14854479821E+04  0.00000000000E+00 0.  1.
         13    1    1    2    0    0 -0.10737492847E+03 -0.38930393221E+03  0.58461988286E+02  0.40804992603E+03  0.10566000000E+00 0. -1.
<mgrwt>
<rscale>  1 0.85482264E+03</rscale>
<asrwt>0</asrwt>
<pdfrwt beam="1">  1       21 0.43320547E+00 0.10975681E+04</pdfrwt>
<pdfrwt beam="2">  1        4 0.44831938E-01 0.10975681E+04</pdfrwt>
<totfact> 0.69810977E-01</totfact>
</mgrwt>
</event>
<event>
 6    1  0.1375310E-005  0.1086479E+04  0.7818608E-02  0.9654654E-01
          4   -1    0    0  502    0 -0.00000000000E+00  0.00000000000E+00  0.10888062106E+04  0.10888062106E+04  0.00000000000E+00 0.  1.
         21   -1    0    0  501  502  0.00000000000E+00 -0.00000000000E+00 -0.46393154501E+03  0.46393154501E+03  0.00000000000E+00 0.  1.
    9000010    2    1    2  501    0 -0.22488352614E+03 -0.53100021202E+02  0.25400632872E+03  0.11157760330E+04  0.10616236283E+04 0.  0.
        -13    1    3    3    0    0  0.12356460252E+03  0.40396923681E+03 -0.10863618743E+03  0.43618939427E+03  0.10566000000E+00 0.  1.
          4    1    3    3  501    0 -0.34844812866E+03 -0.45706925802E+03  0.36264251615E+03  0.67958663871E+03  0.00000000000E+00 0.  1.
         13    1    1    2    0    0  0.22488352614E+03  0.53100021202E+02  0.37086833684E+03  0.43696172260E+03  0.10566000000E+00 0. -1.
<mgrwt>
<rscale>  1 0.73782064E+03</rscale>
<asrwt>0</asrwt>
<pdfrwt beam="2">  1       21 0.71374084E-01 0.10864791E+04</pdfrwt>
<pdfrwt beam="1">  1        4 0.16750865E+00 0.10864791E+04</pdfrwt>
<totfact> 0.14876577E+01</totfact>
</mgrwt>
</event>
<event>
 6    1  0.1375310E-005  0.1027989E+04  0.7818608E-02  0.9663678E-01
          4   -1    0    0  502    0 -0.00000000000E+00  0.00000000000E+00  0.40696865655E+03  0.40696865655E+03  0.00000000000E+00 0.  1.
         21   -1    0    0  501  502  0.00000000000E+00 -0.00000000000E+00 -0.11958051912E+04  0.11958051912E+04  0.00000000000E+00 0.  1.
    9000010    2    1    2  501    0  0.17801398883E+03 -0.19575886833E+03 -0.84686071626E+03  0.13318913426E+04  0.99335339180E+03 0.  0.
        -13    1    3    3    0    0  0.33210832301E+03 -0.54186161755E+03 -0.42323866025E+03  0.76357116596E+03  0.10566000000E+00 0.  1.
          4    1    3    3  501    0 -0.15409433419E+03  0.34610274921E+03 -0.42362205601E+03  0.56832017664E+03  0.00000000000E+00 0.  1.
         13    1    1    2    0    0 -0.17801398883E+03  0.19575886833E+03  0.58024181652E+02  0.27088250510E+03  0.10566000000E+00 0. -1.
<mgrwt>
<rscale>  1 0.73221190E+03</rscale>
<asrwt>0</asrwt>
<pdfrwt beam="2">  1       21 0.18397003E+00 0.10279890E+04</pdfrwt>
<pdfrwt beam="1">  1        4 0.62610564E-01 0.10279890E+04</pdfrwt>
<totfact> 0.14187693E+01</totfact>
</mgrwt>
</event>
<event>
 6    1  0.1375310E-005  0.1347193E+04  0.7818608E-02  0.9096596E-01
         21   -1    0    0  501  502  0.00000000000E+00  0.00000000000E+00  0.17100501464E+04  0.17100501464E+04  0.00000000000E+00 0. -1.
          4   -1    0    0  502    0 -0.00000000000E+00 -0.00000000000E+00 -0.74493535525E+03  0.74493535525E+03  0.00000000000E+00 0.  1.
    9000010    2    1    2  501    0  0.71994077600E+03  0.54399815191E+03  0.67710654694E+03  0.15077804182E+04  0.10003398440E+04 0.  0.
        -13    1    3    3    0    0  0.68531199263E+03  0.45945661918E+03  0.54422823684E+00  0.82507770513E+03  0.10566000000E+00 0.  1.
          4    1    3    3  501    0  0.34628783371E+02  0.84541532728E+02  0.67656231870E+03  0.68270271310E+03  0.00000000000E+00 0.  1.
         13    1    1    2    0    0 -0.71994077600E+03 -0.54399815191E+03  0.28800824425E+03  0.94720508347E+03  0.10566000000E+00 0. -1.
<mgrwt>
<rscale>  1 0.12187565E+04</rscale>
<asrwt>0</asrwt>
<pdfrwt beam="1">  1       21 0.26308464E+00 0.13471928E+04</pdfrwt>
<pdfrwt beam="2">  1        4 0.11460544E+00 0.13471928E+04</pdfrwt>
<totfact> 0.98415935E-01</totfact>
</mgrwt>
</event>
<event>
 6    1  0.1375310E-005  0.1053233E+04  0.7818608E-02  0.9608490E-01
         21   -1    0    0  501  502  0.00000000000E+00  0.00000000000E+00  0.49990967979E+03  0.49990967979E+03  0.00000000000E+00 0.  1.
          4   -1    0    0  502    0 -0.00000000000E+00 -0.00000000000E+00 -0.92049890323E+03  0.92049890323E+03  0.00000000000E+00 0.  1.
    9000010    2    1    2  501    0  0.47857605012E+02  0.29289995861E+03 -0.26847550103E+03  0.10869129581E+04  0.10105542775E+04 0.  0.
        -13    1    3    3    0    0 -0.19919784482E+03 -0.30748621593E+03 -0.23815918617E+03  0.43697524357E+03  0.10566000000E+00 0.  1.
          4    1    3    3  501    0  0.24705544983E+03  0.60038617454E+03 -0.30316314864E+02  0.64993771457E+03  0.00000000000E+00 0.  1.
         13    1    1    2    0    0 -0.47857605012E+02 -0.29289995861E+03 -0.15211372240E+03  0.33349562489E+03  0.10566000000E+00 0. -1.
<mgrwt>
<rscale>  1 0.76736786E+03</rscale>
<asrwt>0</asrwt>
<pdfrwt beam="1">  1       21 0.76909181E-01 0.10532334E+04</pdfrwt>
<pdfrwt beam="2">  1        4 0.14161522E+00 0.10532334E+04</pdfrwt>
<totfact> 0.19812057E+01</totfact>
</mgrwt>
</event>
<event>
 6    1  0.1375310E-005  0.1079268E+04  0.7818608E-02  0.9498747E-01
         21   -1    0    0  501  502  0.00000000000E+00  0.00000000000E+00  0.65687208683E+03  0.65687208683E+03  0.00000000000E+00 0.  1.
          4   -1    0    0  502    0 -0.00000000000E+00 -0.00000000000E+00 -0.10641970069E+04  0.10641970069E+04  0.00000000000E+00 0.  1.
    9000010    2    1    2  501    0  0.13580972923E+03 -0.37961255768E+03  0.87476399811E+02  0.10828071304E+04  0.10011339494E+04 0.  0.
        -13    1    3    3    0    0  0.32541976008E+03  0.25405449743E+03 -0.16917358811E+02  0.41319234759E+03  0.10566000000E+00 0.  1.
          4    1    3    3  501    0 -0.18961003085E+03 -0.63366705511E+03  0.10439375862E+03  0.66961478282E+03  0.00000000000E+00 0.  1.
         13    1    1    2    0    0 -0.13580972923E+03  0.37961255768E+03 -0.49480131983E+03  0.63826196328E+03  0.10566000000E+00 0. -1.
<mgrwt>
<rscale>  1 0.84376267E+03</rscale>
<asrwt>0</asrwt>
<pdfrwt beam="1">  1       21 0.10105724E+00 0.10792679E+04</pdfrwt>
<pdfrwt beam="2">  1        4 0.16372262E+00 0.10792679E+04</pdfrwt>
<totfact> 0.69121826E+00</totfact>
</mgrwt>
</event>
<event>
 6    1  0.1375310E-005  0.9788535E+03  0.7818608E-02  0.9722312E-01
          4   -1    0    0  502    0 -0.00000000000E+00  0.00000000000E+00  0.14983815861E+04  0.14983815861E+04  0.00000000000E+00 0.  1.
         21   -1    0    0  501  502  0.00000000000E+00 -0.00000000000E+00 -0.30651065373E+03  0.30651065373E+03  0.00000000000E+00 0.  1.
    9000010    2    1    2  501    0 -0.15254537224E+03 -0.20019798751E+03  0.56694689053E+03  0.11311865222E+04  0.94594124893E+03 0.  0.
        -13    1    3    3    0    0 -0.40356096884E+03 -0.42226444280E+03  0.53914944543E+03  0.79489046472E+03  0.10566000000E+00 0.  1.
          4    1    3    3  501    0  0.25101559660E+03  0.22206645529E+03  0.27797445095E+02  0.33629605744E+03  0.00000000000E+00 0.  1.
         13    1    1    2    0    0  0.15254537224E+03  0.20019798751E+03  0.62492404179E+03  0.67370571763E+03  0.10566000000E+00 0. -1.
<mgrwt>
<rscale>  1 0.69703732E+03</rscale>
<asrwt>0</asrwt>
<pdfrwt beam="2">  1       21 0.47155486E-01 0.97885350E+03</pdfrwt>
<pdfrwt beam="1">  1        4 0.23052024E+00 0.97885350E+03</pdfrwt>
<totfact> 0.14306156E+01</totfact>
</mgrwt>
</event>
<event>
 6    1  0.1375310E-005  0.1009618E+04  0.7818608E-02  0.9815040E-01
          4   -1    0    0  502    0 -0.00000000000E+00  0.00000000000E+00  0.18405991821E+04  0.18405991821E+04  0.00000000000E+00 0.  1.
         21   -1    0    0  501  502  0.00000000000E+00 -0.00000000000E+00 -0.22463502358E+03  0.22463502358E+03  0.00000000000E+00 0.  1.
    9000010    2    1    2  501    0 -0.15953410609E+03 -0.55222523226E+02  0.97920068181E+03  0.14064714301E+04  0.99540305921E+03 0.  0.
        -13    1    3    3    0    0 -0.57404083606E+03 -0.52478019499E+02  0.43380612058E+03  0.72143231520E+03  0.10566000000E+00 0.  1.
          4    1    3    3  501    0  0.41450672997E+03 -0.27445037266E+01  0.54539456123E+03  0.68503911487E+03  0.00000000000E+00 0.  1.
         13    1    1    2    0    0  0.15953410609E+03  0.55222523226E+02  0.63676347673E+03  0.65876277562E+03  0.10566000000E+00 0. -1.
<mgrwt>
<rscale>  1 0.64561647E+03</rscale>
<asrwt>0</asrwt>
<pdfrwt beam="2">  1       21 0.34559236E-01 0.10096177E+04</pdfrwt>
<pdfrwt beam="1">  1        4 0.28316910E+00 0.10096177E+04</pdfrwt>
<totfact> 0.12916901E+01</totfact>
</mgrwt>
</event>
<event>
 6    1  0.1375310E-005  0.1003683E+04  0.7818608E-02  0.9792194E-01
         21   -1    0    0  501  502  0.00000000000E+00  0.00000000000E+00  0.56585124397E+03  0.56585124397E+03  0.00000000000E+00 0.  1.
          4   -1    0    0  502    0 -0.00000000000E+00 -0.00000000000E+00 -0.69413586948E+03  0.69413586948E+03  0.00000000000E+00 0.  1.
    9000010    2    1    2  501    0 -0.18439454430E+03 -0.17382855134E+02  0.47270060582E+02  0.10047950866E+04  0.98644573886E+03 0.  0.
        -13    1    3    3    0    0 -0.30938750006E+03  0.43433984113E+03  0.54497384738E+02  0.53604262787E+03  0.10566000000E+00 0.  1.
          4    1    3    3  501    0  0.12499295576E+03 -0.45172269626E+03 -0.72273241557E+01  0.46875245868E+03  0.00000000000E+00 0.  1.
         13    1    1    2    0    0  0.18439454430E+03  0.17382855134E+02 -0.17555468608E+03  0.25519202690E+03  0.10566000000E+00 0. -1.
<mgrwt>
<rscale>  1 0.65783144E+03</rscale>
<asrwt>0</asrwt>
<pdfrwt beam="1">  1       21 0.87054038E-01 0.10036826E+04</pdfrwt>
<pdfrwt beam="2">  1        4 0.10679013E+00 0.10036826E+04</pdfrwt>
<totfact> 0.30363101E+01</totfact>
</mgrwt>
</event>
<event>
 6    1  0.1375310E-005  0.1096642E+04  0.7818608E-02  0.9465071E-01
          4   -1    0    0  502    0 -0.00000000000E+00  0.00000000000E+00  0.72237171854E+03  0.72237171854E+03  0.00000000000E+00 0.  1.
         21   -1    0    0  501  502  0.00000000000E+00 -0.00000000000E+00 -0.12861813314E+04  0.12861813314E+04  0.00000000000E+00 0.  1.
    9000010    2    1    2  501    0  0.32127419887E+03 -0.28965730047E+03 -0.93301676230E+03  0.14398418817E+04  0.10077231281E+04 0.  0.
        -13    1    3    3    0    0  0.15650324197E+03  0.37080945460E+03 -0.24087791615E+03  0.46905767025E+03  0.10566000000E+00 0.  1.
          4    1    3    3  501    0  0.16477095690E+03 -0.66046675507E+03 -0.69213884615E+03  0.97078421142E+03  0.00000000000E+00 0.  1.
         13    1    1    2    0    0 -0.32127419887E+03  0.28965730047E+03  0.36920714943E+03  0.56871116829E+03  0.10566000000E+00 0. -1.
<mgrwt>
<rscale>  1 0.86908716E+03</rscale>
<asrwt>0</asrwt>
<pdfrwt beam="2">  1       21 0.19787405E+00 0.10966423E+04</pdfrwt>
<pdfrwt beam="1">  1        4 0.11113411E+00 0.10966423E+04</pdfrwt>
<totfact> 0.29559893E+00</totfact>
</mgrwt>
</event>
<event>
 6    1  0.1375310E-005  0.1026747E+04  0.7818608E-02  0.9991818E-01
         21   -1    0    0  501  502  0.00000000000E+00  0.00000000000E+00  0.82011192738E+03  0.82011192738E+03  0.00000000000E+00 0.  1.
          4   -1    0    0  502    0 -0.00000000000E+00 -0.00000000000E+00 -0.54260645967E+03  0.54260645967E+03  0.00000000000E+00 0.  1.
    9000010    2    1    2  501    0 -0.88510158502E+02 -0.20818319370E+02  0.48547884831E+03  0.11357373553E+04  0.10227131452E+04 0.  0.
        -13    1    3    3    0    0  0.58324666392E+02 -0.50873702411E+03  0.18656680249E+03  0.54499753152E+03  0.10566000000E+00 0.  1.
          4    1    3    3  501    0 -0.14683482489E+03  0.48791870474E+03  0.29891204582E+03  0.59073982376E+03  0.00000000000E+00 0.  1.
         13    1    1    2    0    0  0.88510158502E+02  0.20818319370E+02 -0.20797338060E+03  0.22698103177E+03  0.10566000000E+00 0. -1.
<mgrwt>
<rscale>  1 0.56010460E+03</rscale>
<asrwt>0</asrwt>
<pdfrwt beam="1">  1       21 0.12617107E+00 0.10267471E+04</pdfrwt>
<pdfrwt beam="2">  1        4 0.83477917E-01 0.10267471E+04</pdfrwt>
<totfact> 0.21460435E+01</totfact>
</mgrwt>
</event>
<event>
 6    1  0.1375310E-005  0.9931621E+03  0.7818608E-02  0.1022512E+00
          4   -1    0    0  502    0 -0.00000000000E+00  0.00000000000E+00  0.68072820925E+03  0.68072820925E+03  0.00000000000E+00 0.  1.
         21   -1    0    0  501  502  0.00000000000E+00 -0.00000000000E+00 -0.53979054504E+03  0.53979054504E+03  0.00000000000E+00 0.  1.
    9000010    2    1    2  501    0 -0.35375097608E+02  0.33805051496E+02 -0.77961673183E+02  0.99621737197E+03  0.99195607296E+03 0.  0.
        -13    1    3    3    0    0  0.35394260816E+03  0.18706025578E+03 -0.32030725607E+03  0.51270230994E+03  0.10566000000E+00 0.  1.
          4    1    3    3  501    0 -0.38931770576E+03 -0.15325520429E+03  0.24234558289E+03  0.48351506203E+03  0.00000000000E+00 0.  1.
         13    1    1    2    0    0  0.35375097608E+02 -0.33805051496E+02  0.21889933739E+03  0.22430138233E+03  0.10566000000E+00 0. -1.
<mgrwt>
<rscale>  1 0.46790744E+03</rscale>
<asrwt>0</asrwt>
<pdfrwt beam="2">  1       21 0.83044699E-01 0.99316214E+03</pdfrwt>
<pdfrwt beam="1">  1        4 0.10472742E+00 0.99316214E+03</pdfrwt>
<totfact> 0.35668550E+01</totfact>
</mgrwt>
</event>
<event>
 6    1  0.1375310E-005  0.1107928E+04  0.7818608E-02  0.9425559E-01
         21   -1    0    0  501  502  0.00000000000E+00  0.00000000000E+00  0.21662352978E+04  0.21662352978E+04  0.00000000000E+00 0. -1.
          4   -1    0    0  502    0 -0.00000000000E+00 -0.00000000000E+00 -0.35622960630E+03  0.35622960630E+03  0.00000000000E+00 0.  1.
    9000010    2    1    2  501    0 -0.40580524243E+03  0.26095791373E+03  0.16974704213E+04  0.20270447534E+04  0.99736035288E+03 0.  0.
        -13    1    3    3    0    0  0.21201926315E+03  0.32779329614E+03  0.10909295463E+04  0.11586750619E+04  0.10566000000E+00 0.  1.
          4    1    3    3  501    0 -0.61782450558E+03 -0.66835382412E+02  0.60654087504E+03  0.86836969150E+03  0.00000000000E+00 0.  1.
         13    1    1    2    0    0  0.40580524243E+03 -0.26095791373E+03  0.11253527017E+03  0.49542015070E+03  0.10566000000E+00 0. -1.
<mgrwt>
<rscale>  1 0.90001794E+03</rscale>
<asrwt>0</asrwt>
<pdfrwt beam="1">  1       21 0.33326696E+00 0.11079281E+04</pdfrwt>
<pdfrwt beam="2">  1        4 0.54804556E-01 0.11079281E+04</pdfrwt>
<totfact> 0.20341131E+00</totfact>
</mgrwt>
</event>
<event>
 6    1  0.1375310E-005  0.1035707E+04  0.7818608E-02  0.9671509E-01
         21   -1    0    0  501  502  0.00000000000E+00  0.00000000000E+00  0.56024188436E+03  0.56024188436E+03  0.00000000000E+00 0.  1.
          4   -1    0    0  502    0 -0.00000000000E+00 -0.00000000000E+00 -0.11096370082E+04  0.11096370082E+04  0.00000000000E+00 0.  1.
    9000010    2    1    2  501    0  0.14064563104E+03 -0.20906637332E+03  0.32031005810E+02  0.10362020842E+04  0.10045888871E+04 0.  0.
        -13    1    3    3    0    0 -0.14029806559E+03  0.35639960518E+03 -0.89170516813E+02  0.39326278493E+03  0.10566000000E+00 0.  1.
          4    1    3    3  501    0  0.28094369663E+03 -0.56546597850E+03  0.12120152262E+03  0.64293929931E+03  0.00000000000E+00 0.  1.
         13    1    1    2    0    0 -0.14064563104E+03  0.20906637332E+03 -0.58142612966E+03  0.63367680832E+03  0.10566000000E+00 0. -1.
<mgrwt>
<rscale>  1 0.72738740E+03</rscale>
<asrwt>0</asrwt>
<pdfrwt beam="1">  1       21 0.86191059E-01 0.10357069E+04</pdfrwt>
<pdfrwt beam="2">  1        4 0.17071339E+00 0.10357069E+04</pdfrwt>
<totfact> 0.91072282E+00</totfact>
</mgrwt>
</event>
<event>
 6    1  0.1375310E-005  0.1127923E+04  0.7818608E-02  0.9626540E-01
          4   -1    0    0  502    0 -0.00000000000E+00  0.00000000000E+00  0.36026845859E+03  0.36026845859E+03  0.00000000000E+00 0.  1.
         21   -1    0    0  501  502  0.00000000000E+00 -0.00000000000E+00 -0.12753793787E+04  0.12753793787E+04  0.00000000000E+00 0.  1.
    9000010    2    1    2  501    0 -0.16245000303E+03  0.15885258899E+03 -0.77907400385E+03  0.13708267614E+04  0.11048011394E+04 0.  0.
        -13    1    3    3    0    0 -0.12653148793E+03  0.63647835185E+03 -0.44478248391E+03  0.78673145289E+03  0.10566000000E+00 0.  1.
          4    1    3    3  501    0 -0.35918515100E+02 -0.47762576286E+03 -0.33429151993E+03  0.58409530847E+03  0.00000000000E+00 0.  1.
         13    1    1    2    0    0  0.16245000303E+03 -0.15885258899E+03 -0.13603691631E+03  0.26482107597E+03  0.10566000000E+00 0. -1.
<mgrwt>
<rscale>  1 0.75564209E+03</rscale>
<asrwt>0</asrwt>
<pdfrwt beam="2">  1       21 0.19621221E+00 0.11279227E+04</pdfrwt>
<pdfrwt beam="1">  1        4 0.55425916E-01 0.11279227E+04</pdfrwt>
<totfact> 0.14976552E+01</totfact>
</mgrwt>
</event>
<event>
 6    1  0.1375310E-005  0.1399750E+04  0.7818608E-02  0.9045489E-01
          4   -1    0    0  502    0 -0.00000000000E+00  0.00000000000E+00  0.91824160101E+03  0.91824160101E+03  0.00000000000E+00 0.  1.
         21   -1    0    0  501  502  0.00000000000E+00 -0.00000000000E+00 -0.15423080884E+04  0.15423080884E+04  0.00000000000E+00 0.  1.
    9000010    2    1    2  501    0 -0.28158403655E+03  0.93775696474E+03 -0.40595726412E+03  0.14574298865E+04  0.10003113911E+04 0.  0.
        -13    1    3    3    0    0  0.18729024191E+03  0.35964935148E+03 -0.56581431133E+03  0.69611143993E+03  0.10566000000E+00 0.  1.
          4    1    3    3  501    0 -0.46887427846E+03  0.57810761326E+03  0.15985704720E+03  0.76131844655E+03  0.00000000000E+00 0.  1.
         13    1    1    2    0    0  0.28158403655E+03 -0.93775696474E+03 -0.21810922326E+03  0.10031198029E+04  0.10566000000E+00 0. -1.
<mgrwt>
<rscale>  1 0.12801091E+04</rscale>
<asrwt>0</asrwt>
<pdfrwt beam="2">  1       21 0.23727816E+00 0.13997502E+04</pdfrwt>
<pdfrwt beam="1">  1        4 0.14126794E+00 0.13997502E+04</pdfrwt>
<totfact> 0.83616695E-01</totfact>
</mgrwt>
</event>
<event>
 6    1  0.1375310E-005  0.1001079E+04  0.7818608E-02  0.1005667E+00
          4   -1    0    0  502    0 -0.00000000000E+00  0.00000000000E+00  0.21073193665E+03  0.21073193665E+03  0.00000000000E+00 0.  1.
         21   -1    0    0  501  502  0.00000000000E+00 -0.00000000000E+00 -0.15807148626E+04  0.15807148626E+04  0.00000000000E+00 0.  1.
    9000010    2    1    2  501    0  0.43333060974E+02 -0.67301815971E+02 -0.13860902244E+04  0.17097966625E+04  0.99787335282E+03 0.  0.
        -13    1    3    3    0    0  0.13727177875E+03  0.41653616935E+03 -0.97087536041E+03  0.10653379268E+04  0.10566000000E+00 0.  1.
          4    1    3    3  501    0 -0.93938717778E+02 -0.48383798532E+03 -0.41521486397E+03  0.64445873568E+03  0.00000000000E+00 0.  1.
         13    1    1    2    0    0 -0.43333060974E+02  0.67301815971E+02  0.16107298450E+02  0.81650136765E+02  0.10566000000E+00 0. -1.
<mgrwt>
<rscale>  1 0.53233563E+03</rscale>
<asrwt>0</asrwt>
<pdfrwt beam="2">  1       21 0.24318690E+00 0.10010787E+04</pdfrwt>
<pdfrwt beam="1">  1        4 0.32420298E-01 0.10010787E+04</pdfrwt>
<totfact> 0.22385601E+01</totfact>
</mgrwt>
</event>
<event>
 6    1  0.1375310E-005  0.1049001E+04  0.7818608E-02  0.9561250E-01
          4   -1    0    0  502    0 -0.00000000000E+00  0.00000000000E+00  0.54675992470E+03  0.54675992470E+03  0.00000000000E+00 0.  1.
         21   -1    0    0  501  502  0.00000000000E+00 -0.00000000000E+00 -0.94174206811E+03  0.94174206811E+03  0.00000000000E+00 0. -1.
    9000010    2    1    2  501    0  0.49427285815E+02 -0.34985701423E+03 -0.15264049402E+03  0.10600484094E+04  0.98770467386E+03 0.  0.
        -13    1    3    3    0    0  0.43201423091E+03 -0.21742910283E+03 -0.36213814956E+03  0.60419844505E+03  0.10566000000E+00 0.  1.
          4    1    3    3  501    0 -0.38258694510E+03 -0.13242791140E+03  0.20949765554E+03  0.45584996430E+03  0.00000000000E+00 0.  1.
         13    1    1    2    0    0 -0.49427285815E+02  0.34985701423E+03 -0.24234164938E+03  0.42845358346E+03  0.10566000000E+00 0. -1.
<mgrwt>
<rscale>  1 0.79914864E+03</rscale>
<asrwt>0</asrwt>
<pdfrwt beam="2">  1       21 0.14488339E+00 0.10490012E+04</pdfrwt>
<pdfrwt beam="1">  1        4 0.84116912E-01 0.10490012E+04</pdfrwt>
<totfact> 0.14492348E+01</totfact>
</mgrwt>
</event>
<event>
 6    1  0.1375310E-005  0.1021795E+04  0.7818608E-02  0.9710211E-01
         21   -1    0    0  501  502  0.00000000000E+00  0.00000000000E+00  0.10985743020E+04  0.10985743020E+04  0.00000000000E+00 0.  1.
          4   -1    0    0  502    0 -0.00000000000E+00 -0.00000000000E+00 -0.36092298932E+03  0.36092298932E+03  0.00000000000E+00 0.  1.
    9000010    2    1    2  501    0 -0.12222230992E+03 -0.19531885152E+03  0.65973936702E+03  0.12162730548E+04  0.99547795784E+03 0.  0.
        -13    1    3    3    0    0  0.15830333154E+03  0.24567835242E+03  0.62796837497E+03  0.69264860409E+03  0.10566000000E+00 0.  1.
          4    1    3    3  501    0 -0.28052564147E+03 -0.44099720394E+03  0.31770992053E+02  0.52362445067E+03  0.00000000000E+00 0.  1.
         13    1    1    2    0    0  0.12222230992E+03  0.19531885152E+03  0.77911945630E+02  0.24322423653E+03  0.10566000000E+00 0. -1.
<mgrwt>
<rscale>  1 0.70412050E+03</rscale>
<asrwt>0</asrwt>
<pdfrwt beam="1">  1       21 0.16901143E+00 0.10217946E+04</pdfrwt>
<pdfrwt beam="2">  1        4 0.55526614E-01 0.10217946E+04</pdfrwt>
<totfact> 0.23729466E+01</totfact>
</mgrwt>
</event>
<event>
 6    1  0.1375310E-005  0.1173771E+04  0.7818608E-02  0.9329477E-01
         21   -1    0    0  501  502  0.00000000000E+00  0.00000000000E+00  0.77544593158E+03  0.77544593158E+03  0.00000000000E+00 0.  1.
          4   -1    0    0  502    0 -0.00000000000E+00 -0.00000000000E+00 -0.98416775495E+03  0.98416775495E+03  0.00000000000E+00 0.  1.
    9000010    2    1    2  501    0 -0.54583829426E+03 -0.17439862776E+03 -0.12261344339E+03  0.11801579168E+04  0.10243946150E+04 0.  0.
        -13    1    3    3    0    0  0.24094102085E+03  0.17442448616E+03  0.52062262758E+02  0.30197179879E+03  0.10566000000E+00 0.  1.
          4    1    3    3  501    0 -0.78677931511E+03 -0.34882311392E+03 -0.17467570614E+03  0.87818611797E+03  0.00000000000E+00 0.  1.
         13    1    1    2    0    0  0.54583829426E+03  0.17439862776E+03 -0.86108379989E+02  0.57945576976E+03  0.10566000000E+00 0. -1.
<mgrwt>
<rscale>  1 0.98113871E+03</rscale>
<asrwt>0</asrwt>
<pdfrwt beam="1">  1       21 0.11929937E+00 0.11737711E+04</pdfrwt>
<pdfrwt beam="2">  1        4 0.15141042E+00 0.11737711E+04</pdfrwt>
<totfact> 0.55600092E+00</totfact>
</mgrwt>
</event>
<event>
 6    1  0.1375310E-005  0.1299626E+04  0.7818608E-02  0.9154012E-01
         21   -1    0    0  501  502  0.00000000000E+00  0.00000000000E+00  0.14933498543E+04  0.14933498543E+04  0.00000000000E+00 0.  1.
          4   -1    0    0  502    0 -0.00000000000E+00 -0.00000000000E+00 -0.74969102653E+03  0.74969102653E+03  0.00000000000E+00 0.  1.
    9000010    2    1    2  501    0  0.22094863425E+03 -0.77740118657E+03  0.55470824866E+03  0.14130570037E+04  0.10177710698E+04 0.  0.
        -13    1    3    3    0    0  0.33992484586E+02  0.16705749413E+03  0.40406640047E+03  0.43855827720E+03  0.10566000000E+00 0.  1.
          4    1    3    3  501    0  0.18695614967E+03 -0.94445868070E+03  0.15064184819E+03  0.97449872646E+03  0.00000000000E+00 0.  1.
         13    1    1    2    0    0 -0.22094863425E+03  0.77740118657E+03  0.18895057911E+03  0.82998387717E+03  0.10566000000E+00 0. -1.
<mgrwt>
<rscale>  1 0.11540968E+04</rscale>
<asrwt>0</asrwt>
<pdfrwt beam="1">  1       21 0.22974613E+00 0.12996264E+04</pdfrwt>
<pdfrwt beam="2">  1        4 0.11533708E+00 0.12996264E+04</pdfrwt>
<totfact> 0.15997635E+00</totfact>
</mgrwt>
</event>
<event>
 6    1  0.1375310E-005  0.9999666E+03  0.7818608E-02  0.1008054E+00
         21   -1    0    0  501  502  0.00000000000E+00  0.00000000000E+00  0.14028271003E+04  0.14028271003E+04  0.00000000000E+00 0.  1.
          4   -1    0    0  502    0 -0.00000000000E+00 -0.00000000000E+00 -0.24985980768E+03  0.24985980768E+03  0.00000000000E+00 0.  1.
    9000010    2    1    2  501    0  0.14080121927E+02  0.73229159940E+02  0.12019048910E+04  0.15634924048E+04  0.99718221667E+03 0.  0.
        -13    1    3    3    0    0  0.23607456533E+03 -0.40640116047E+03  0.60799251189E+03  0.76847121566E+03  0.10566000000E+00 0.  1.
          4    1    3    3  501    0 -0.22199444341E+03  0.47963032041E+03  0.59391237913E+03  0.79502118918E+03  0.00000000000E+00 0.  1.
         13    1    1    2    0    0 -0.14080121927E+02 -0.73229159940E+02 -0.48937598365E+02  0.89194503176E+02  0.10566000000E+00 0. -1.
<mgrwt>
<rscale>  1 0.52255377E+03</rscale>
<asrwt>0</asrwt>
<pdfrwt beam="1">  1       21 0.21581955E+00 0.99996657E+03</pdfrwt>
<pdfrwt beam="2">  1        4 0.38439971E-01 0.99996657E+03</pdfrwt>
<totfact> 0.24003735E+01</totfact>
</mgrwt>
</event>
<event>
 6    1  0.1375310E-005  0.1033035E+04  0.7818608E-02  0.9668347E-01
          4   -1    0    0  502    0 -0.00000000000E+00  0.00000000000E+00  0.71708631410E+03  0.71708631410E+03  0.00000000000E+00 0.  1.
         21   -1    0    0  501  502  0.00000000000E+00 -0.00000000000E+00 -0.71825772483E+03  0.71825772483E+03  0.00000000000E+00 0.  1.
    9000010    2    1    2  501    0 -0.11788605419E+03 -0.22798184486E+03 -0.26581475023E+03  0.10666857260E+04  0.10006438494E+04 0.  0.
        -13    1    3    3    0    0 -0.78697937947E+02  0.34445527266E+03  0.12238221420E+03  0.37392541745E+03  0.10566000000E+00 0.  1.
          4    1    3    3  501    0 -0.39188116247E+02 -0.57243711752E+03 -0.38819696443E+03  0.69276030859E+03  0.00000000000E+00 0.  1.
         13    1    1    2    0    0  0.11788605419E+03  0.22798184486E+03  0.26464333950E+03  0.36865831289E+03  0.10566000000E+00 0. -1.
<mgrwt>
<rscale>  1 0.72933076E+03</rscale>
<asrwt>0</asrwt>
<pdfrwt beam="2">  1       21 0.11050119E+00 0.10330348E+04</pdfrwt>
<pdfrwt beam="1">  1        4 0.11032097E+00 0.10330348E+04</pdfrwt>
<totfact> 0.15516003E+01</totfact>
</mgrwt>
</event>
<event>
 6    1  0.1375310E-005  0.1018186E+04  0.7818608E-02  0.9690965E-01
          4   -1    0    0  502    0 -0.00000000000E+00  0.00000000000E+00  0.79799733679E+03  0.79799733679E+03  0.00000000000E+00 0.  1.
         21   -1    0    0  501  502  0.00000000000E+00 -0.00000000000E+00 -0.58603597638E+03  0.58603597638E+03  0.00000000000E+00 0. -1.
    9000010    2    1    2  501    0  0.18817449070E+03 -0.16213612730E+03 -0.54641292236E+02  0.10196506183E+04  0.98742288304E+03 0.  0.
        -13    1    3    3    0    0  0.53942813415E+03  0.13729277571E+03 -0.30523655454E+02  0.55746185778E+03  0.10566000000E+00 0.  1.
          4    1    3    3  501    0 -0.35125364344E+03 -0.29942890301E+03 -0.24117636782E+02  0.46218876057E+03  0.00000000000E+00 0.  1.
         13    1    1    2    0    0 -0.18817449070E+03  0.16213612730E+03  0.26660265265E+03  0.36438269482E+03  0.10566000000E+00 0. -1.
<mgrwt>
<rscale>  1 0.71557287E+03</rscale>
<asrwt>0</asrwt>
<pdfrwt beam="2">  1       21 0.90159381E-01 0.10181855E+04</pdfrwt>
<pdfrwt beam="1">  1        4 0.12276882E+00 0.10181855E+04</pdfrwt>
<totfact> 0.19707281E+01</totfact>
</mgrwt>
</event>
<event>
 6    1  0.1375310E-005  0.1234103E+04  0.7818608E-02  0.9240232E-01
          4   -1    0    0  502    0 -0.00000000000E+00  0.00000000000E+00  0.51526926808E+03  0.51526926808E+03  0.00000000000E+00 0.  1.
         21   -1    0    0  501  502  0.00000000000E+00 -0.00000000000E+00 -0.21802122809E+04  0.21802122809E+04  0.00000000000E+00 0. -1.
    9000010    2    1    2  501    0  0.66308259985E+03 -0.16724064916E+03 -0.47367323092E+03  0.13218834733E+04  0.10273079472E+04 0.  0.
        -13    1    3    3    0    0  0.40448846299E+02  0.39081740859E+03 -0.20801106232E+03  0.44457054473E+03  0.10566000000E+00 0.  1.
          4    1    3    3  501    0  0.62263375355E+03 -0.55805805775E+03 -0.26566216860E+03  0.87731292861E+03  0.00000000000E+00 0.  1.
         13    1    1    2    0    0 -0.66308259985E+03  0.16724064916E+03 -0.11912697819E+04  0.13735980756E+04  0.10566000000E+00 0. -1.
<mgrwt>
<rscale>  1 0.10647642E+04</rscale>
<asrwt>0</asrwt>
<pdfrwt beam="2">  1       21 0.33541727E+00 0.12341027E+04</pdfrwt>
<pdfrwt beam="1">  1        4 0.79272195E-01 0.12341027E+04</pdfrwt>
<totfact> 0.84918832E-01</totfact>
</mgrwt>
</event>
<event>
 6    1  0.1375310E-005  0.9708453E+03  0.7818608E-02  0.1019720E+00
         21   -1    0    0  501  502  0.00000000000E+00  0.00000000000E+00  0.54367352905E+03  0.54367352905E+03  0.00000000000E+00 0.  1.
          4   -1    0    0  502    0 -0.00000000000E+00 -0.00000000000E+00 -0.75177227867E+03  0.75177227867E+03  0.00000000000E+00 0.  1.
    9000010    2    1    2  501    0  0.16446771351E+02 -0.54567259083E+02  0.10563707323E+03  0.97657552100E+03  0.96917102460E+03 0.  0.
        -13    1    3    3    0    0 -0.41987608510E+03 -0.18227013944E+03  0.21989422995E+03  0.50781080542E+03  0.10566000000E+00 0.  1.
          4    1    3    3  501    0  0.43632285645E+03  0.12770288035E+03 -0.11425715673E+03  0.46876471558E+03  0.00000000000E+00 0.  1.
         13    1    1    2    0    0 -0.16446771351E+02  0.54567259083E+02 -0.31373582285E+03  0.31887028672E+03  0.10566000000E+00 0. -1.
<mgrwt>
<rscale>  1 0.47787694E+03</rscale>
<asrwt>0</asrwt>
<pdfrwt beam="1">  1       21 0.83642082E-01 0.97084528E+03</pdfrwt>
<pdfrwt beam="2">  1        4 0.11565727E+00 0.97084528E+03</pdfrwt>
<totfact> 0.27523973E+01</totfact>
</mgrwt>
</event>
<event>
 6    1  0.1375310E-005  0.1098031E+04  0.7818608E-02  0.9434127E-01
          4   -1    0    0  502    0 -0.00000000000E+00  0.00000000000E+00  0.15415822841E+04  0.15415822841E+04  0.00000000000E+00 0.  1.
         21   -1    0    0  501  502  0.00000000000E+00 -0.00000000000E+00 -0.98436406547E+03  0.98436406547E+03  0.00000000000E+00 0.  1.
    9000010    2    1    2  501    0 -0.48074966682E+03 -0.50010490287E+01 -0.61530783641E+03  0.12586805473E+04  0.98718171278E+03 0.  0.
        -13    1    3    3    0    0  0.53129463178E+02 -0.34936920047E+03  0.28065069297E+02  0.35449857175E+03  0.10566000000E+00 0.  1.
          4    1    3    3  501    0 -0.53387913000E+03  0.34436815144E+03 -0.64337290570E+03  0.90418197558E+03  0.00000000000E+00 0.  1.
         13    1    1    2    0    0  0.48074966682E+03  0.50010490287E+01  0.11725260551E+04  0.12672658023E+04  0.10566000000E+00 0. -1.
<mgrwt>
<rscale>  1 0.89319585E+03</rscale>
<asrwt>0</asrwt>
<pdfrwt beam="2">  1       21 0.15144063E+00 0.10980314E+04</pdfrwt>
<pdfrwt beam="1">  1        4 0.23716650E+00 0.10980314E+04</pdfrwt>
<totfact> 0.76684377E-01</totfact>
</mgrwt>
</event>
<event>
 6    1  0.1375310E-005  0.9679183E+03  0.7818608E-02  0.1001685E+00
         21   -1    0    0  501  502  0.00000000000E+00  0.00000000000E+00  0.81696775677E+03  0.81696775677E+03  0.00000000000E+00 0.  1.
          4   -1    0    0  502    0 -0.00000000000E+00 -0.00000000000E+00 -0.35007908682E+03  0.35007908682E+03  0.00000000000E+00 0.  1.
    9000010    2    1    2  501    0  0.57974408743E+01  0.10013981858E+03  0.40536407407E+03  0.10493740742E+04  0.96270676820E+03 0.  0.
        -13    1    3    3    0    0 -0.55252103049E+02 -0.30793238176E+03  0.53251420460E+03  0.61761358137E+03  0.10566000000E+00 0.  1.
          4    1    3    3  501    0  0.61049543923E+02  0.40807220034E+03 -0.12715013053E+03  0.43176049286E+03  0.00000000000E+00 0.  1.
         13    1    1    2    0    0 -0.57974408743E+01 -0.10013981858E+03  0.61524595881E+02  0.11767276936E+03  0.10566000000E+00 0. -1.
<mgrwt>
<rscale>  1 0.54917720E+03</rscale>
<asrwt>0</asrwt>
<pdfrwt beam="1">  1       21 0.12568735E+00 0.96791834E+03</pdfrwt>
<pdfrwt beam="2">  1        4 0.53858321E-01 0.96791834E+03</pdfrwt>
<totfact> 0.57759358E+01</totfact>
</mgrwt>
</event>
<event>
 6    1  0.1375310E-005  0.1147744E+04  0.7818608E-02  0.9341238E-01
          4   -1    0    0  502    0 -0.00000000000E+00  0.00000000000E+00  0.12235888785E+04  0.12235888785E+04  0.00000000000E+00 0.  1.
         21   -1    0    0  501  502  0.00000000000E+00 -0.00000000000E+00 -0.12126463950E+04  0.12126463950E+04  0.00000000000E+00 0.  1.
    9000010    2    1    2  501    0 -0.47199162096E+02  0.58540923301E+03 -0.82579730292E+03  0.14139509626E+04  0.98609553704E+03 0.  0.
        -13    1    3    3    0    0  0.42730173368E+03  0.58455540162E+02 -0.23605365922E+03  0.49165553284E+03  0.10566000000E+00 0.  1.
          4    1    3    3  501    0 -0.47450089577E+03  0.52695369285E+03 -0.58974364370E+03  0.92229542978E+03  0.00000000000E+00 0.  1.
         13    1    1    2    0    0  0.47199162096E+02 -0.58540923301E+03  0.83673978637E+03  0.10222843109E+04  0.10566000000E+00 0. -1.
<mgrwt>
<rscale>  1 0.97073436E+03</rscale>
<asrwt>0</asrwt>
<pdfrwt beam="2">  1       21 0.18656098E+00 0.11477439E+04</pdfrwt>
<pdfrwt beam="1">  1        4 0.18824444E+00 0.11477439E+04</pdfrwt>
<totfact> 0.85867060E-01</totfact>
</mgrwt>
</event>
<event>
 6    1  0.1375310E-005  0.1261321E+04  0.7818608E-02  0.9189977E-01
         21   -1    0    0  501  502  0.00000000000E+00  0.00000000000E+00  0.17633399695E+04  0.17633399695E+04  0.00000000000E+00 0. -1.
          4   -1    0    0  502    0 -0.00000000000E+00 -0.00000000000E+00 -0.59107980869E+03  0.59107980869E+03  0.00000000000E+00 0.  1.
    9000010    2    1    2  501    0  0.22675915540E+03  0.73826325027E+03  0.62353264702E+03  0.14070263875E+04  0.99723515374E+03 0.  0.
        -13    1    3    3    0    0  0.15086984198E+03  0.64075927396E+03 -0.10630017814E+03  0.66680873976E+03  0.10566000000E+00 0.  1.
          4    1    3    3  501    0  0.75889313420E+02  0.97503976310E+02  0.72983282516E+03  0.74021764770E+03  0.00000000000E+00 0.  1.
         13    1    1    2    0    0 -0.22675915540E+03 -0.73826325027E+03  0.54872751378E+03  0.94739339073E+03  0.10566000000E+00 0. -1.
<mgrwt>
<rscale>  1 0.11157482E+04</rscale>
<asrwt>0</asrwt>
<pdfrwt beam="1">  1       21 0.27128307E+00 0.12613209E+04</pdfrwt>
<pdfrwt beam="2">  1        4 0.90935356E-01 0.12613209E+04</pdfrwt>
<totfact> 0.15519138E+00</totfact>
</mgrwt>
</event>
<event>
 6    1  0.1375310E-005  0.9951381E+03  0.7818608E-02  0.1002821E+00
         21   -1    0    0  501  502  0.00000000000E+00  0.00000000000E+00  0.90116607518E+03  0.90116607518E+03  0.00000000000E+00 0.  1.
          4   -1    0    0  502    0 -0.00000000000E+00 -0.00000000000E+00 -0.32826825322E+03  0.32826825322E+03  0.00000000000E+00 0.  1.
    9000010    2    1    2  501    0  0.82936270365E+02 -0.32470976502E+02  0.49664383705E+03  0.11121847201E+04  0.99114426880E+03 0.  0.
        -13    1    3    3    0    0 -0.57277213314E+02  0.46190231416E+03  0.33509124124E+03  0.57351597895E+03  0.10566000000E+00 0.  1.
          4    1    3    3  501    0  0.14021348368E+03 -0.49437329066E+03  0.16155259582E+03  0.53866874119E+03  0.00000000000E+00 0.  1.
         13    1    1    2    0    0 -0.82936270365E+02  0.32470976502E+02  0.76253984916E+02  0.11724960826E+03  0.10566000000E+00 0. -1.
<mgrwt>
<rscale>  1 0.54430318E+03</rscale>
<asrwt>0</asrwt>
<pdfrwt beam="1">  1       21 0.13864093E+00 0.99513806E+03</pdfrwt>
<pdfrwt beam="2">  1        4 0.50502808E-01 0.99513806E+03</pdfrwt>
<totfact> 0.50852890E+01</totfact>
</mgrwt>
</event>
<event>
 6    1  0.1375310E-005  0.1035164E+04  0.7818608E-02  0.9659394E-01
          4   -1    0    0  502    0 -0.00000000000E+00  0.00000000000E+00  0.29109435728E+03  0.29109435728E+03  0.00000000000E+00 0.  1.
         21   -1    0    0  501  502  0.00000000000E+00 -0.00000000000E+00 -0.16781762596E+04  0.16781762596E+04  0.00000000000E+00 0.  1.
    9000010    2    1    2  501    0  0.14666184211E+02  0.26250173200E+03 -0.13538736322E+04  0.17042705100E+04  0.10012202072E+04 0.  0.
        -13    1    3    3    0    0  0.25634832636E+03 -0.18016303507E+03 -0.10918603432E+04  0.11359279044E+04  0.10566000000E+00 0.  1.
          4    1    3    3  501    0 -0.24168214215E+03  0.44266476708E+03 -0.26201328896E+03  0.56834260568E+03  0.00000000000E+00 0.  1.
         13    1    1    2    0    0 -0.14666184211E+02 -0.26250173200E+03 -0.33208270168E+02  0.26500010686E+03  0.10566000000E+00 0. -1.
<mgrwt>
<rscale>  1 0.73486754E+03</rscale>
<asrwt>0</asrwt>
<pdfrwt beam="2">  1       21 0.25818097E+00 0.10351638E+04</pdfrwt>
<pdfrwt beam="1">  1        4 0.44783747E-01 0.10351638E+04</pdfrwt>
<totfact> 0.92974291E+00</totfact>
</mgrwt>
</event>
<event>
 6    1  0.1375310E-005  0.1010166E+04  0.7818608E-02  0.1020005E+00
         21   -1    0    0  501  502  0.00000000000E+00  0.00000000000E+00  0.83033321724E+03  0.83033321724E+03  0.00000000000E+00 0.  1.
          4   -1    0    0  502    0 -0.00000000000E+00 -0.00000000000E+00 -0.38159719252E+03  0.38159719252E+03  0.00000000000E+00 0.  1.
    9000010    2    1    2  501    0  0.49041987414E+02 -0.10525153298E+02  0.51093293262E+03  0.11320282077E+04  0.10089199700E+04 0.  0.
        -13    1    3    3    0    0 -0.42506432784E+03  0.16255317697E+03  0.41983005286E+03  0.61916112814E+03  0.10566000000E+00 0.  1.
          4    1    3    3  501    0  0.47410631525E+03 -0.17307833027E+03  0.91102879756E+02  0.51286707954E+03  0.00000000000E+00 0.  1.
         13    1    1    2    0    0 -0.49041987414E+02  0.10525153298E+02 -0.62196907897E+02  0.79902202081E+02  0.10566000000E+00 0. -1.
<mgrwt>
<rscale>  1 0.47684956E+03</rscale>
<asrwt>0</asrwt>
<pdfrwt beam="1">  1       21 0.12774357E+00 0.10101660E+04</pdfrwt>
<pdfrwt beam="2">  1        4 0.58707261E-01 0.10101660E+04</pdfrwt>
<totfact> 0.45791231E+01</totfact>
</mgrwt>
</event>
<event>
 6    1  0.1375310E-005  0.1020316E+04  0.7818608E-02  0.9758614E-01
         21   -1    0    0  501  502  0.00000000000E+00  0.00000000000E+00  0.95288324359E+03  0.95288324359E+03  0.00000000000E+00 0.  1.
          4   -1    0    0  502    0 -0.00000000000E+00 -0.00000000000E+00 -0.41597843363E+03  0.41597843363E+03  0.00000000000E+00 0.  1.
    9000010    2    1    2  501    0 -0.27968015421E+02  0.19497260276E+03  0.57060481525E+03  0.11690311810E+04  0.10011231299E+04 0.  0.
        -13    1    3    3    0    0 -0.43770083810E+02 -0.29223189413E+03 -0.12399414036E+03  0.32045258338E+03  0.10566000000E+00 0.  1.
          4    1    3    3  501    0  0.15802068389E+02  0.48720449689E+03  0.69459895561E+03  0.84857859759E+03  0.00000000000E+00 0.  1.
         13    1    1    2    0    0  0.27968015421E+02 -0.19497260276E+03 -0.33700005288E+02  0.19983049625E+03  0.10566000000E+00 0. -1.
<mgrwt>
<rscale>  1 0.67631658E+03</rscale>
<asrwt>0</asrwt>
<pdfrwt beam="1">  1       21 0.14659742E+00 0.10203157E+04</pdfrwt>
<pdfrwt beam="2">  1        4 0.63996682E-01 0.10203157E+04</pdfrwt>
<totfact> 0.26111396E+01</totfact>
</mgrwt>
</event>
<event>
 6    1  0.1375310E-005  0.1119891E+04  0.7818608E-02  0.9424722E-01
         21   -1    0    0  501  502  0.00000000000E+00  0.00000000000E+00  0.91192453459E+03  0.91192453459E+03  0.00000000000E+00 0.  1.
          4   -1    0    0  502    0 -0.00000000000E+00 -0.00000000000E+00 -0.73879996085E+03  0.73879996085E+03  0.00000000000E+00 0.  1.
    9000010    2    1    2  501    0 -0.19615328524E+03 -0.42553156792E+03  0.31104278223E+03  0.11622834345E+04  0.10171538444E+04 0.  0.
        -13    1    3    3    0    0  0.28710276605E+02  0.33014001127E+03  0.85463232395E+02  0.34222899100E+03  0.10566000000E+00 0.  1.
          4    1    3    3  501    0 -0.22486356184E+03 -0.75567157919E+03  0.22557954983E+03  0.82005444352E+03  0.00000000000E+00 0.  1.
         13    1    1    2    0    0  0.19615328524E+03  0.42553156792E+03 -0.13791820848E+03  0.48844106093E+03  0.10566000000E+00 0. -1.
<mgrwt>
<rscale>  1 0.90068765E+03</rscale>
<asrwt>0</asrwt>
<pdfrwt beam="1">  1       21 0.14029608E+00 0.11198907E+04</pdfrwt>
<pdfrwt beam="2">  1        4 0.11366153E+00 0.11198907E+04</pdfrwt>
<totfact> 0.76239998E+00</totfact>
</mgrwt>
</event>
<event>
 6    1  0.1375310E-005  0.1010619E+04  0.7818608E-02  0.9922356E-01
         21   -1    0    0  501  502  0.00000000000E+00  0.00000000000E+00  0.19871487054E+04  0.19871487054E+04  0.00000000000E+00 0.  1.
          4   -1    0    0  502    0 -0.00000000000E+00 -0.00000000000E+00 -0.25373946578E+03  0.25373946578E+03  0.00000000000E+00 0.  1.
    9000010    2    1    2  501    0 -0.88787911512E+02 -0.79101043075E+02  0.18281186364E+04  0.20888679447E+04  0.10035991597E+04 0.  0.
        -13    1    3    3    0    0  0.24171644908E+03 -0.44064769642E+03  0.72816546346E+03  0.88477239302E+03  0.10566000000E+00 0.  1.
          4    1    3    3  501    0 -0.33050436059E+03  0.36154665334E+03  0.10999531729E+04  0.12040955517E+04  0.00000000000E+00 0.  1.
         13    1    1    2    0    0  0.88787911512E+02  0.79101043075E+02 -0.94709396805E+02  0.15202022646E+03  0.10566000000E+00 0. -1.
<mgrwt>
<rscale>  1 0.59189949E+03</rscale>
<asrwt>0</asrwt>
<pdfrwt beam="1">  1       21 0.30571517E+00 0.10106194E+04</pdfrwt>
<pdfrwt beam="2">  1        4 0.39036842E-01 0.10106194E+04</pdfrwt>
<totfact> 0.62459055E+00</totfact>
</mgrwt>
</event>
<event>
 6    1  0.1375310E-005  0.9384623E+03  0.7818608E-02  0.9913469E-01
         21   -1    0    0  501  502  0.00000000000E+00  0.00000000000E+00  0.82933317993E+03  0.82933317993E+03  0.00000000000E+00 0.  1.
          4   -1    0    0  502    0 -0.00000000000E+00 -0.00000000000E+00 -0.46795175927E+03  0.46795175927E+03  0.00000000000E+00 0.  1.
    9000010    2    1    2  501    0  0.43238156886E+01 -0.15273442459E+03  0.52342592475E+03  0.10745632916E+04  0.92594010018E+03 0.  0.
        -13    1    3    3    0    0 -0.37489288627E+03 -0.34362541907E+03  0.22789248087E+03  0.55727739844E+03  0.10566000000E+00 0.  1.
          4    1    3    3  501    0  0.37921670196E+03  0.19089099448E+03  0.29553344388E+03  0.51728589317E+03  0.00000000000E+00 0.  1.
         13    1    1    2    0    0 -0.43238156886E+01  0.15273442459E+03 -0.16204450409E+03  0.22272164760E+03  0.10566000000E+00 0. -1.
<mgrwt>
<rscale>  1 0.59612919E+03</rscale>
<asrwt>0</asrwt>
<pdfrwt beam="1">  1       21 0.12758972E+00 0.93846234E+03</pdfrwt>
<pdfrwt beam="2">  1        4 0.71992578E-01 0.93846234E+03</pdfrwt>
<totfact> 0.29478242E+01</totfact>
</mgrwt>
</event>
<event>
 6    1  0.1375310E-005  0.1007533E+04  0.7818608E-02  0.9857898E-01
          4   -1    0    0  502    0 -0.00000000000E+00  0.00000000000E+00  0.17412115068E+04  0.17412115068E+04  0.00000000000E+00 0.  1.
         21   -1    0    0  501  502  0.00000000000E+00 -0.00000000000E+00 -0.19295696165E+03  0.19295696165E+03  0.00000000000E+00 0.  1.
    9000010    2    1    2  501    0  0.14094875024E+03 -0.44226500481E+02  0.12923420202E+04  0.16386794414E+04  0.99664431011E+03 0.  0.
        -13    1    3    3    0    0 -0.11312516035E+03 -0.21701950554E+03 -0.59908070220E+02  0.25195982959E+03  0.10566000000E+00 0.  1.
          4    1    3    3  501    0  0.25407391059E+03  0.17279300505E+03  0.13522500905E+04  0.13867196118E+04  0.00000000000E+00 0.  1.
         13    1    1    2    0    0 -0.14094875024E+03  0.44226500481E+02  0.25591252494E+03  0.29548902708E+03  0.10566000000E+00 0. -1.
<mgrwt>
<rscale>  1 0.62345854E+03</rscale>
<asrwt>0</asrwt>
<pdfrwt beam="2">  1       21 0.29685688E-01 0.10075328E+04</pdfrwt>
<pdfrwt beam="1">  1        4 0.26787868E+00 0.10075328E+04</pdfrwt>
<totfact> 0.21860146E+01</totfact>
</mgrwt>
</event>
<event>
 6    1  0.1375310E-005  0.9877756E+03  0.7818608E-02  0.1005810E+00
          4   -1    0    0  502    0 -0.00000000000E+00  0.00000000000E+00  0.16835673950E+04  0.16835673950E+04  0.00000000000E+00 0.  1.
         21   -1    0    0  501  502  0.00000000000E+00 -0.00000000000E+00 -0.17675620856E+03  0.17675620856E+03  0.00000000000E+00 0.  1.
    9000010    2    1    2  501    0  0.80256101165E+02 -0.20984883394E+02  0.12668450340E+04  0.16064236773E+04  0.98428617970E+03 0.  0.
        -13    1    3    3    0    0 -0.41911826160E+03  0.15160416828E+03  0.44819612410E+03  0.63207888580E+03  0.10566000000E+00 0.  1.
          4    1    3    3  501    0  0.49937436277E+03 -0.17258905167E+03  0.81864890993E+03  0.97434479147E+03  0.00000000000E+00 0.  1.
         13    1    1    2    0    0 -0.80256101165E+02  0.20984883394E+02  0.23996615240E+03  0.25389992628E+03  0.10566000000E+00 0. -1.
<mgrwt>
<rscale>  1 0.53174507E+03</rscale>
<asrwt>0</asrwt>
<pdfrwt beam="2">  1       21 0.27193264E-01 0.98777563E+03</pdfrwt>
<pdfrwt beam="1">  1        4 0.25901036E+00 0.98777563E+03</pdfrwt>
<totfact> 0.29618675E+01</totfact>
</mgrwt>
</event>
<event>
 6    1  0.1375310E-005  0.9887292E+03  0.7818608E-02  0.1025588E+00
         21   -1    0    0  501  502  0.00000000000E+00  0.00000000000E+00  0.82902500449E+03  0.82902500449E+03  0.00000000000E+00 0.  1.
          4   -1    0    0  502    0 -0.00000000000E+00 -0.00000000000E+00 -0.39307794363E+03  0.39307794363E+03  0.00000000000E+00 0.  1.
    9000010    2    1    2  501    0 -0.44160723048E+02 -0.97176976595E+01  0.52702369700E+03  0.11204192822E+04  0.98769468335E+03 0.  0.
        -13    1    3    3    0    0 -0.20248686954E+02  0.21454141354E+02 -0.29549444749E+03  0.29696341385E+03  0.10566000000E+00 0.  1.
          4    1    3    3  501    0 -0.23912036094E+02 -0.31171839014E+02  0.82251814450E+03  0.82345586831E+03  0.00000000000E+00 0.  1.
         13    1    1    2    0    0  0.44160723048E+02  0.97176976595E+01 -0.91076636140E+02  0.10168366596E+03  0.10566000000E+00 0. -1.
<mgrwt>
<rscale>  1 0.45722970E+03</rscale>
<asrwt>0</asrwt>
<pdfrwt beam="1">  1       21 0.12754231E+00 0.98872918E+03</pdfrwt>
<pdfrwt beam="2">  1        4 0.60473530E-01 0.98872918E+03</pdfrwt>
<totfact> 0.43196059E+01</totfact>
</mgrwt>
</event>
<event>
 6    1  0.1375310E-005  0.1080468E+04  0.7818608E-02  0.9603040E-01
         21   -1    0    0  501  502  0.00000000000E+00  0.00000000000E+00  0.19685682249E+04  0.19685682249E+04  0.00000000000E+00 0.  1.
          4   -1    0    0  502    0 -0.00000000000E+00 -0.00000000000E+00 -0.25487431715E+03  0.25487431715E+03  0.00000000000E+00 0.  1.
    9000010    2    1    2  501    0 -0.16214642784E+03  0.22836632423E+03  0.15774042539E+04  0.19119661818E+04  0.10435362274E+04 0.  0.
        -13    1    3    3    0    0 -0.32273412713E+03  0.31646889507E+03  0.15504069679E+03  0.47785720376E+03  0.10566000000E+00 0.  1.
          4    1    3    3  501    0  0.16058769929E+03 -0.88102570840E+02  0.14223635571E+04  0.14341089780E+04  0.00000000000E+00 0.  1.
         13    1    1    2    0    0  0.16214642784E+03 -0.22836632423E+03  0.13628965381E+03  0.31147636026E+03  0.10566000000E+00 0. -1.
<mgrwt>
<rscale>  1 0.77095296E+03</rscale>
<asrwt>0</asrwt>
<pdfrwt beam="1">  1       21 0.30285664E+00 0.10804677E+04</pdfrwt>
<pdfrwt beam="2">  1        4 0.39211435E-01 0.10804677E+04</pdfrwt>
<totfact> 0.63729192E+00</totfact>
</mgrwt>
</event>
<event>
 6    1  0.1375310E-005  0.1167642E+04  0.7818608E-02  0.9315164E-01
          4   -1    0    0  502    0 -0.00000000000E+00  0.00000000000E+00  0.82158169437E+03  0.82158169437E+03  0.00000000000E+00 0.  1.
         21   -1    0    0  501  502  0.00000000000E+00 -0.00000000000E+00 -0.97091983427E+03  0.97091983427E+03  0.00000000000E+00 0.  1.
    9000010    2    1    2  501    0 -0.24369816584E+03 -0.56268144299E+03 -0.31335268473E+02  0.11680626676E+04  0.99367464199E+03 0.  0.
        -13    1    3    3    0    0  0.67842600983E+02  0.13137927942E+03  0.30293195054E+03  0.33709184414E+03  0.10566000000E+00 0.  1.
          4    1    3    3  501    0 -0.31154076682E+03 -0.69406072240E+03 -0.33426721901E+03  0.83097082348E+03  0.00000000000E+00 0.  1.
         13    1    1    2    0    0  0.24369816584E+03  0.56268144299E+03 -0.11800287143E+03  0.62443886101E+03  0.10566000000E+00 0. -1.
<mgrwt>
<rscale>  1 0.99398717E+03</rscale>
<asrwt>0</asrwt>
<pdfrwt beam="2">  1       21 0.14937228E+00 0.11676423E+04</pdfrwt>
<pdfrwt beam="1">  1        4 0.12639718E+00 0.11676423E+04</pdfrwt>
<totfact> 0.48782971E+00</totfact>
</mgrwt>
</event>
<event>
 6    1  0.1375310E-005  0.1010240E+04  0.7818608E-02  0.9858380E-01
         21   -1    0    0  501  502  0.00000000000E+00  0.00000000000E+00  0.80817217383E+03  0.80817217383E+03  0.00000000000E+00 0.  1.
          4   -1    0    0  502    0 -0.00000000000E+00 -0.00000000000E+00 -0.41444905650E+03  0.41444905650E+03  0.00000000000E+00 0.  1.
    9000010    2    1    2  501    0  0.10960138971E+03 -0.96924619187E+02  0.36006443329E+03  0.10724887402E+04  0.99958934329E+03 0.  0.
        -13    1    3    3    0    0  0.36129640675E+03 -0.44720824698E+03  0.25264094628E+03  0.62797911478E+03  0.10566000000E+00 0.  1.
          4    1    3    3  501    0 -0.25169501703E+03  0.35028362779E+03  0.10742348700E+03  0.44450962538E+03  0.00000000000E+00 0.  1.
         13    1    1    2    0    0 -0.10960138971E+03  0.96924619187E+02  0.33658684043E+02  0.15013249018E+03  0.10566000000E+00 0. -1.
<mgrwt>
<rscale>  1 0.62321467E+03</rscale>
<asrwt>0</asrwt>
<pdfrwt beam="1">  1       21 0.12433418E+00 0.10102404E+04</pdfrwt>
<pdfrwt beam="2">  1        4 0.63761393E-01 0.10102404E+04</pdfrwt>
<totfact> 0.41054286E+01</totfact>
</mgrwt>
</event>
<event>
 6    1  0.1375310E-005  0.1027361E+04  0.7818608E-02  0.9836338E-01
         21   -1    0    0  501  502  0.00000000000E+00  0.00000000000E+00  0.31043229966E+03  0.31043229966E+03  0.00000000000E+00 0.  1.
          4   -1    0    0  502    0 -0.00000000000E+00 -0.00000000000E+00 -0.11306031190E+04  0.11306031190E+04  0.00000000000E+00 0.  1.
    9000010    2    1    2  501    0  0.12592515918E+03 -0.80497310639E+02 -0.65556818010E+03  0.12187045779E+04  0.10164321162E+04 0.  0.
        -13    1    3    3    0    0 -0.21211603427E+03  0.33053821685E+03 -0.55051142109E+03  0.67624815024E+03  0.10566000000E+00 0.  1.
          4    1    3    3  501    0  0.33804119344E+03 -0.41103552749E+03 -0.10505675901E+03  0.54245642769E+03  0.00000000000E+00 0.  1.
         13    1    1    2    0    0 -0.12592515918E+03  0.80497310639E+02 -0.16460263929E+03  0.22233084077E+03  0.10566000000E+00 0. -1.
<mgrwt>
<rscale>  1 0.63448366E+03</rscale>
<asrwt>0</asrwt>
<pdfrwt beam="1">  1       21 0.47758815E-01 0.10273613E+04</pdfrwt>
<pdfrwt beam="2">  1        4 0.17393894E+00 0.10273613E+04</pdfrwt>
<totfact> 0.32841897E+01</totfact>
</mgrwt>
</event>
<event>
 6    1  0.1375310E-005  0.1004465E+04  0.7818608E-02  0.1041418E+00
         21   -1    0    0  501  502  0.00000000000E+00  0.00000000000E+00  0.48769746024E+03  0.48769746024E+03  0.00000000000E+00 0.  1.
          4   -1    0    0  502    0 -0.00000000000E+00 -0.00000000000E+00 -0.65618587296E+03  0.65618587296E+03  0.00000000000E+00 0.  1.
    9000010    2    1    2  501    0 -0.11477425829E+02 -0.24490997136E+02 -0.32245936819E+02  0.10049820602E+04  0.10041003937E+04 0.  0.
        -13    1    3    3    0    0  0.24027032189E+03  0.22490797782E+03 -0.38395785607E+03  0.50570453080E+03  0.10566000000E+00 0.  1.
          4    1    3    3  501    0 -0.25174774772E+03 -0.24939897496E+03  0.35171191925E+03  0.49927752937E+03  0.00000000000E+00 0.  1.
         13    1    1    2    0    0  0.11477425829E+02  0.24490997136E+02 -0.13624247590E+03  0.13890127303E+03  0.10566000000E+00 0. -1.
<mgrwt>
<rscale>  1 0.40689428E+03</rscale>
<asrwt>0</asrwt>
<pdfrwt beam="1">  1       21 0.75030378E-01 0.10044646E+04</pdfrwt>
<pdfrwt beam="2">  1        4 0.10095167E+00 0.10044646E+04</pdfrwt>
<totfact> 0.49437700E+01</totfact>
</mgrwt>
</event>
<event>
 6    1  0.1375310E-005  0.1044251E+04  0.7818608E-02  0.9552770E-01
          4   -1    0    0  502    0 -0.00000000000E+00  0.00000000000E+00  0.39952200402E+03  0.39952200402E+03  0.00000000000E+00 0.  1.
         21   -1    0    0  501  502  0.00000000000E+00 -0.00000000000E+00 -0.12495014065E+04  0.12495014065E+04  0.00000000000E+00 0.  1.
    9000010    2    1    2  501    0 -0.35915590064E+03  0.83917879436E+02 -0.62603324979E+03  0.12175294223E+04  0.97694682187E+03 0.  0.
        -13    1    3    3    0    0 -0.58917031134E+03 -0.15326256948E+03 -0.13155919630E+03  0.62283136101E+03  0.10566000000E+00 0.  1.
          4    1    3    3  501    0  0.23001441069E+03  0.23718044892E+03 -0.49447405350E+03  0.59469806125E+03  0.00000000000E+00 0.  1.
         13    1    1    2    0    0  0.35915590064E+03 -0.83917879436E+02 -0.22394615273E+03  0.43149398831E+03  0.10566000000E+00 0. -1.
<mgrwt>
<rscale>  1 0.80502645E+03</rscale>
<asrwt>0</asrwt>
<pdfrwt beam="2">  1       21 0.19223099E+00 0.10442511E+04</pdfrwt>
<pdfrwt beam="1">  1        4 0.61464924E-01 0.10442511E+04</pdfrwt>
<totfact> 0.12883926E+01</totfact>
</mgrwt>
</event>
<event>
 6    1  0.1375310E-005  0.1010775E+04  0.7818608E-02  0.9809245E-01
         21   -1    0    0  501  502  0.00000000000E+00  0.00000000000E+00  0.16686457764E+04  0.16686457764E+04  0.00000000000E+00 0.  1.
          4   -1    0    0  502    0 -0.00000000000E+00 -0.00000000000E+00 -0.22540293981E+03  0.22540293981E+03  0.00000000000E+00 0.  1.
    9000010    2    1    2  501    0 -0.13654889189E+03  0.10370606127E+03  0.13815423148E+04  0.17118194305E+04  0.99612551825E+03 0.  0.
        -13    1    3    3    0    0  0.41589785982E+03 -0.10532170734E+02  0.79940577384E+03  0.90118342131E+03  0.10566000000E+00 0.  1.
          4    1    3    3  501    0 -0.55244675170E+03  0.11423823200E+03  0.58213654097E+03  0.81063600922E+03  0.00000000000E+00 0.  1.
         13    1    1    2    0    0  0.13654889189E+03 -0.10370606127E+03  0.61700521818E+02  0.18222928572E+03  0.10566000000E+00 0. -1.
<mgrwt>
<rscale>  1 0.64868730E+03</rscale>
<asrwt>0</asrwt>
<pdfrwt beam="1">  1       21 0.25671473E+00 0.10107752E+04</pdfrwt>
<pdfrwt beam="2">  1        4 0.34677376E-01 0.10107752E+04</pdfrwt>
<totfact> 0.16042498E+01</totfact>
</mgrwt>
</event>
<event>
 6    1  0.1375310E-005  0.1006665E+04  0.7818608E-02  0.9989948E-01
         21   -1    0    0  501  502  0.00000000000E+00  0.00000000000E+00  0.10565745349E+04  0.10565745349E+04  0.00000000000E+00 0.  1.
          4   -1    0    0  502    0 -0.00000000000E+00 -0.00000000000E+00 -0.28921569734E+03  0.28921569734E+03  0.00000000000E+00 0.  1.
    9000010    2    1    2  501    0 -0.68622602394E+02 -0.68623783440E+02  0.72105153415E+03  0.12382604097E+04  0.10019756694E+04 0.  0.
        -13    1    3    3    0    0 -0.31324239640E+02 -0.48392964875E+03  0.65669791698E+03  0.81634629800E+03  0.10566000000E+00 0.  1.
          4    1    3    3  501    0 -0.37298362754E+02  0.41530586531E+03  0.64353617178E+02  0.42191411172E+03  0.00000000000E+00 0.  1.
         13    1    1    2    0    0  0.68622602394E+02  0.68623783440E+02  0.46307303369E+02  0.10752982248E+03  0.10566000000E+00 0. -1.
<mgrwt>
<rscale>  1 0.56093188E+03</rscale>
<asrwt>0</asrwt>
<pdfrwt beam="1">  1       21 0.16254993E+00 0.10066646E+04</pdfrwt>
<pdfrwt beam="2">  1        4 0.44494723E-01 0.10066646E+04</pdfrwt>
<totfact> 0.42465870E+01</totfact>
</mgrwt>
</event>
<event>
 6    1  0.1375310E-005  0.1250649E+04  0.7818608E-02  0.9202604E-01
          4   -1    0    0  502    0 -0.00000000000E+00  0.00000000000E+00  0.15928026827E+04  0.15928026827E+04  0.00000000000E+00 0.  1.
         21   -1    0    0  501  502  0.00000000000E+00 -0.00000000000E+00 -0.11607791453E+04  0.11607791453E+04  0.00000000000E+00 0.  1.
    9000010    2    1    2  501    0 -0.37695246154E+03  0.65499232821E+03 -0.66885963617E+03  0.14182721706E+04  0.99650119358E+03 0.  0.
        -13    1    3    3    0    0 -0.19957511384E+03 -0.23974515596E+03 -0.30486551512E+03  0.43617766947E+03  0.10566000000E+00 0.  1.
          4    1    3    3  501    0 -0.17737734769E+03  0.89473748417E+03 -0.36399412106E+03  0.98209450116E+03  0.00000000000E+00 0.  1.
         13    1    1    2    0    0  0.37695246154E+03 -0.65499232821E+03  0.11008831736E+04  0.13353096574E+04  0.10566000000E+00 0. -1.
<mgrwt>
<rscale>  1 0.11026593E+04</rscale>
<asrwt>0</asrwt>
<pdfrwt beam="2">  1       21 0.17858141E+00 0.12506489E+04</pdfrwt>
<pdfrwt beam="1">  1        4 0.24504657E+00 0.12506489E+04</pdfrwt>
<totfact> 0.41370902E-01</totfact>
</mgrwt>
</event>
<event>
 6    1  0.1375310E-005  0.1039056E+04  0.7818608E-02  0.9676227E-01
          4   -1    0    0  502    0 -0.00000000000E+00  0.00000000000E+00  0.43067415572E+03  0.43067415572E+03  0.00000000000E+00 0.  1.
         21   -1    0    0  501  502  0.00000000000E+00 -0.00000000000E+00 -0.99644649399E+03  0.99644649399E+03  0.00000000000E+00 0.  1.
    9000010    2    1    2  501    0  0.20436733549E+03  0.13622031112E+03 -0.56239262839E+03  0.11814920386E+04  0.10096118006E+04 0.  0.
        -13    1    3    3    0    0 -0.39555358593E+03 -0.75794857616E+02 -0.22188992071E+03  0.45982893325E+03  0.10566000000E+00 0.  1.
          4    1    3    3  501    0  0.59992092141E+03  0.21201516874E+03 -0.34050270769E+03  0.72166310538E+03  0.00000000000E+00 0.  1.
         13    1    1    2    0    0 -0.20436733549E+03 -0.13622031112E+03 -0.33797098768E+01  0.24562861108E+03  0.10566000000E+00 0. -1.
<mgrwt>
<rscale>  1 0.72450063E+03</rscale>
<asrwt>0</asrwt>
<pdfrwt beam="2">  1       21 0.15329946E+00 0.10390563E+04</pdfrwt>
<pdfrwt beam="1">  1        4 0.66257564E-01 0.10390563E+04</pdfrwt>
<totfact> 0.21307790E+01</totfact>
</mgrwt>
</event>
<event>
 6    1  0.1375310E-005  0.1033333E+04  0.7818608E-02  0.9658037E-01
          4   -1    0    0  502    0 -0.00000000000E+00  0.00000000000E+00  0.55279650861E+03  0.55279650861E+03  0.00000000000E+00 0.  1.
         21   -1    0    0  501  502  0.00000000000E+00 -0.00000000000E+00 -0.83579036335E+03  0.83579036335E+03  0.00000000000E+00 0.  1.
    9000010    2    1    2  501    0 -0.92064159121E+02  0.24905580801E+03 -0.48715001739E+02  0.10344806774E+04  0.99863532665E+03 0.  0.
        -13    1    3    3    0    0 -0.34946880370E+03  0.45115697925E+03  0.21941347506E+03  0.61140277141E+03  0.10566000000E+00 0.  1.
          4    1    3    3  501    0  0.25740464458E+03 -0.20210117124E+03 -0.26812847680E+03  0.42307790599E+03  0.00000000000E+00 0.  1.
         13    1    1    2    0    0  0.92064159121E+02 -0.24905580801E+03 -0.23427885301E+03  0.35410619456E+03  0.10566000000E+00 0. -1.
<mgrwt>
<rscale>  1 0.73571139E+03</rscale>
<asrwt>0</asrwt>
<pdfrwt beam="2">  1       21 0.12858313E+00 0.10333330E+04</pdfrwt>
<pdfrwt beam="1">  1        4 0.85045617E-01 0.10333330E+04</pdfrwt>
<totfact> 0.19536189E+01</totfact>
</mgrwt>
</event>
<event>
 6    1  0.1375310E-005  0.1066172E+04  0.7818608E-02  0.9563390E-01
         21   -1    0    0  501  502  0.00000000000E+00  0.00000000000E+00  0.51346998958E+03  0.51346998958E+03  0.00000000000E+00 0. -1.
          4   -1    0    0  502    0 -0.00000000000E+00 -0.00000000000E+00 -0.15037828910E+04  0.15037828910E+04  0.00000000000E+00 0.  1.
    9000010    2    1    2  501    0  0.15242703846E+03 -0.29725307864E+03 -0.12136260371E+04  0.16154293341E+04  0.10124872250E+04 0.  0.
        -13    1    3    3    0    0  0.53656191643E+03 -0.23606620244E+03 -0.10303627865E+04  0.11854422909E+04  0.10566000000E+00 0.  1.
          4    1    3    3  501    0 -0.38413487797E+03 -0.61186876194E+02 -0.18326325057E+03  0.42998704318E+03  0.00000000000E+00 0.  1.
         13    1    1    2    0    0 -0.15242703846E+03  0.29725307864E+03  0.22331313564E+03  0.40182354651E+03  0.10566000000E+00 0. -1.
<mgrwt>
<rscale>  1 0.79767407E+03</rscale>
<asrwt>0</asrwt>
<pdfrwt beam="1">  1       21 0.78995385E-01 0.10661725E+04</pdfrwt>
<pdfrwt beam="2">  1        4 0.23135121E+00 0.10661725E+04</pdfrwt>
<totfact> 0.44048313E+00</totfact>
</mgrwt>
</event>
<event>
 6    1  0.1375310E-005  0.1183525E+04  0.7818608E-02  0.9295041E-01
         21   -1    0    0  501  502  0.00000000000E+00  0.00000000000E+00  0.11881778464E+04  0.11881778464E+04  0.00000000000E+00 0.  1.
          4   -1    0    0  502    0 -0.00000000000E+00 -0.00000000000E+00 -0.99877613537E+03  0.99877613537E+03  0.00000000000E+00 0.  1.
    9000010    2    1    2  501    0 -0.63007363930E+03  0.67753621512E+02  0.69832732416E+03  0.13741879422E+04  0.99957396153E+03 0.  0.
        -13    1    3    3    0    0  0.41528319677E+02  0.34207341805E+03 -0.30390185271E+02  0.34592253352E+03  0.10566000000E+00 0.  1.
          4    1    3    3  501    0 -0.67160195898E+03 -0.27431979654E+03  0.72871750943E+03  0.10282654086E+04  0.00000000000E+00 0.  1.
         13    1    1    2    0    0  0.63007363930E+03 -0.67753621512E+02 -0.50892561316E+03  0.81276603956E+03  0.10566000000E+00 0. -1.
<mgrwt>
<rscale>  1 0.10124068E+04</rscale>
<asrwt>0</asrwt>
<pdfrwt beam="1">  1       21 0.18279659E+00 0.11835250E+04</pdfrwt>
<pdfrwt beam="2">  1        4 0.15365787E+00 0.11835250E+04</pdfrwt>
<totfact> 0.16162396E+00</totfact>
</mgrwt>
</event>
<event>
 6    1  0.1375310E-005  0.1063954E+04  0.7818608E-02  0.9537553E-01
          4   -1    0    0  502    0 -0.00000000000E+00  0.00000000000E+00  0.70969975417E+03  0.70969975417E+03  0.00000000000E+00 0.  1.
         21   -1    0    0  501  502  0.00000000000E+00 -0.00000000000E+00 -0.72382151081E+03  0.72382151081E+03  0.00000000000E+00 0.  1.
    9000010    2    1    2  501    0  0.12441029103E+03  0.34590404791E+03  0.21765656096E+02  0.10641766448E+04  0.99843410235E+03 0.  0.
        -13    1    3    3    0    0  0.38013303035E+02  0.46335229741E+03 -0.40288763311E+03  0.61519006721E+03  0.10566000000E+00 0.  1.
          4    1    3    3  501    0  0.86396987999E+02 -0.11744824950E+03  0.42465328920E+03  0.44898657761E+03  0.00000000000E+00 0.  1.
         13    1    1    2    0    0 -0.12441029103E+03 -0.34590404791E+03 -0.35887412732E+02  0.36934462015E+03  0.10566000000E+00 0. -1.
<mgrwt>
<rscale>  1 0.81570888E+03</rscale>
<asrwt>0</asrwt>
<pdfrwt beam="2">  1       21 0.11135716E+00 0.10639540E+04</pdfrwt>
<pdfrwt beam="1">  1        4 0.10918458E+00 0.10639540E+04</pdfrwt>
<totfact> 0.15559144E+01</totfact>
</mgrwt>
</event>
<event>
 6    1  0.1375310E-005  0.1002846E+04  0.7818608E-02  0.9805326E-01
          4   -1    0    0  502    0 -0.00000000000E+00  0.00000000000E+00  0.28565689358E+03  0.28565689358E+03  0.00000000000E+00 0.  1.
         21   -1    0    0  501  502  0.00000000000E+00 -0.00000000000E+00 -0.13190216677E+04  0.13190216677E+04  0.00000000000E+00 0.  1.
    9000010    2    1    2  501    0  0.36410035549E+02  0.17406941067E+03 -0.10134067192E+04  0.14257255353E+04  0.98695201147E+03 0.  0.
        -13    1    3    3    0    0  0.55040921032E+02  0.15709824467E+03  0.17240180690E+03  0.23964923462E+03  0.10566000000E+00 0.  1.
          4    1    3    3  501    0 -0.18630885483E+02  0.16971165998E+02 -0.11858085261E+04  0.11860763006E+04  0.00000000000E+00 0.  1.
         13    1    1    2    0    0 -0.36410035549E+02 -0.17406941067E+03 -0.19958054966E+02  0.17895302608E+03  0.10566000000E+00 0. -1.
<mgrwt>
<rscale>  1 0.65077519E+03</rscale>
<asrwt>0</asrwt>
<pdfrwt beam="2">  1       21 0.20292641E+00 0.10028460E+04</pdfrwt>
<pdfrwt beam="1">  1        4 0.43947214E-01 0.10028460E+04</pdfrwt>
<totfact> 0.22283668E+01</totfact>
</mgrwt>
</event>
<event>
 6    1  0.1375310E-005  0.1134623E+04  0.7818608E-02  0.9422362E-01
         21   -1    0    0  501  502  0.00000000000E+00  0.00000000000E+00  0.28328410768E+03  0.28328410768E+03  0.00000000000E+00 0. -1.
          4   -1    0    0  502    0 -0.00000000000E+00 -0.00000000000E+00 -0.22345784285E+04  0.22345784285E+04  0.00000000000E+00 0.  1.
    9000010    2    1    2  501    0 -0.16884316587E+03  0.42180962069E+03 -0.13312205371E+04  0.17491474529E+04  0.10396813565E+04 0.  0.
        -13    1    3    3    0    0 -0.39566294195E+03  0.19130316069E+03 -0.13553858978E+04  0.14248568370E+04  0.10566000000E+00 0.  1.
          4    1    3    3  501    0  0.22681977608E+03  0.23050646000E+03  0.24165360683E+02  0.32429061593E+03  0.00000000000E+00 0.  1.
         13    1    1    2    0    0  0.16884316587E+03 -0.42180962069E+03 -0.62007378369E+03  0.76871508321E+03  0.10566000000E+00 0. -1.
<mgrwt>
<rscale>  1 0.90257972E+03</rscale>
<asrwt>0</asrwt>
<pdfrwt beam="1">  1       21 0.43582169E-01 0.11346227E+04</pdfrwt>
<pdfrwt beam="2">  1        4 0.34378131E+00 0.11346227E+04</pdfrwt>
<totfact> 0.32635841E+00</totfact>
</mgrwt>
</event>
<event>
 6    1  0.1375310E-005  0.9708470E+03  0.7818608E-02  0.9983553E-01
         21   -1    0    0  501  502  0.00000000000E+00  0.00000000000E+00  0.45798203471E+03  0.45798203471E+03  0.00000000000E+00 0.  1.
          4   -1    0    0  502    0 -0.00000000000E+00 -0.00000000000E+00 -0.70391097203E+03  0.70391097203E+03  0.00000000000E+00 0.  1.
    9000010    2    1    2  501    0  0.84631434449E+02  0.70890403393E+02 -0.95828298923E+02  0.97556495786E+03  0.96454963333E+03 0.  0.
        -13    1    3    3    0    0  0.53832243012E+02  0.59380575939E+02 -0.53207656130E+03  0.53807940068E+03  0.10566000000E+00 0.  1.
          4    1    3    3  501    0  0.30799191437E+02  0.11509827454E+02  0.43624826238E+03  0.43748555719E+03  0.00000000000E+00 0.  1.
         13    1    1    2    0    0 -0.84631434449E+02 -0.70890403393E+02 -0.15010063839E+03  0.18632804888E+03  0.10566000000E+00 0. -1.
<mgrwt>
<rscale>  1 0.56377315E+03</rscale>
<asrwt>0</asrwt>
<pdfrwt beam="1">  1       21 0.70458775E-01 0.97084701E+03</pdfrwt>
<pdfrwt beam="2">  1        4 0.10829400E+00 0.97084701E+03</pdfrwt>
<totfact> 0.48292362E+01</totfact>
</mgrwt>
</event>
<event>
 6    1  0.1375310E-005  0.1165442E+04  0.7818608E-02  0.9324447E-01
          4   -1    0    0  502    0 -0.00000000000E+00  0.00000000000E+00  0.36522505621E+03  0.36522505621E+03  0.00000000000E+00 0.  1.
         21   -1    0    0  501  502  0.00000000000E+00 -0.00000000000E+00 -0.21348230492E+04  0.21348230492E+04  0.00000000000E+00 0.  1.
    9000010    2    1    2  501    0  0.56812860114E+03  0.18074970824E+03 -0.12525074519E+04  0.17108566183E+04  0.10014064544E+04 0.  0.
        -13    1    3    3    0    0  0.63116617856E+02  0.28991848590E+03 -0.11453847929E+04  0.11831917726E+04  0.10566000000E+00 0.  1.
          4    1    3    3  501    0  0.50501198329E+03 -0.10916877766E+03 -0.10712265903E+03  0.52766484567E+03  0.00000000000E+00 0.  1.
         13    1    1    2    0    0 -0.56812860114E+03 -0.18074970824E+03 -0.51709054110E+03  0.78919148711E+03  0.10566000000E+00 0. -1.
<mgrwt>
<rscale>  1 0.98563002E+03</rscale>
<asrwt>0</asrwt>
<pdfrwt beam="2">  1       21 0.32843432E+00 0.11654422E+04</pdfrwt>
<pdfrwt beam="1">  1        4 0.56188470E-01 0.11654422E+04</pdfrwt>
<totfact> 0.20467429E+00</totfact>
</mgrwt>
</event>
<event>
 6    1  0.1375310E-005  0.9077451E+03  0.7818608E-02  0.1006067E+00
         21   -1    0    0  501  502  0.00000000000E+00  0.00000000000E+00  0.23609034836E+04  0.23609034836E+04  0.00000000000E+00 0.  1.
          4   -1    0    0  502    0 -0.00000000000E+00 -0.00000000000E+00 -0.10896428343E+03  0.10896428343E+03  0.00000000000E+00 0.  1.
    9000010    2    1    2  501    0  0.76191093134E+01  0.10575890956E+03  0.20418917993E+04  0.22345745041E+04  0.90153097381E+03 0.  0.
        -13    1    3    3    0    0  0.60327434723E+01  0.50201140521E+03  0.12983257973E+04  0.13920135531E+04  0.10566000000E+00 0.  1.
          4    1    3    3  501    0  0.15863658411E+01 -0.39625249565E+03  0.74356600201E+03  0.84256095104E+03  0.00000000000E+00 0.  1.
         13    1    1    2    0    0 -0.76191093134E+01 -0.10575890956E+03  0.21004740085E+03  0.23529326285E+03  0.10566000000E+00 0. -1.
<mgrwt>
<rscale>  1 0.53068064E+03</rscale>
<asrwt>0</asrwt>
<pdfrwt beam="1">  1       21 0.36321588E+00 0.90774506E+03</pdfrwt>
<pdfrwt beam="2">  1        4 0.16763738E-01 0.90774506E+03</pdfrwt>
<totfact> 0.14083729E+01</totfact>
</mgrwt>
</event>
<event>
 6    1  0.1375310E-005  0.1049721E+04  0.7818608E-02  0.9579483E-01
          4   -1    0    0  502    0 -0.00000000000E+00  0.00000000000E+00  0.13250729530E+04  0.13250729530E+04  0.00000000000E+00 0.  1.
         21   -1    0    0  501  502  0.00000000000E+00 -0.00000000000E+00 -0.36156962205E+03  0.36156962205E+03  0.00000000000E+00 0.  1.
    9000010    2    1    2  501    0  0.29513035942E+03  0.15014462986E+03  0.67995658690E+03  0.12507020904E+04  0.99612721075E+03 0.  0.
        -13    1    3    3    0    0 -0.35723258528E+03  0.70334610551E+02  0.10886788828E+03  0.38001882281E+03  0.10566000000E+00 0.  1.
          4    1    3    3  501    0  0.65236294470E+03  0.79810019308E+02  0.57108869862E+03  0.87068326761E+03  0.00000000000E+00 0.  1.
         13    1    1    2    0    0 -0.29513035942E+03 -0.15014462986E+03  0.28354674409E+03  0.43594048467E+03  0.10566000000E+00 0. -1.
<mgrwt>
<rscale>  1 0.78669117E+03</rscale>
<asrwt>0</asrwt>
<pdfrwt beam="2">  1       21 0.55626096E-01 0.10497213E+04</pdfrwt>
<pdfrwt beam="1">  1        4 0.20385738E+00 0.10497213E+04</pdfrwt>
<totfact> 0.14703963E+01</totfact>
</mgrwt>
</event>
<event>
 6    1  0.1375310E-005  0.1030321E+04  0.7818608E-02  0.9646008E-01
         21   -1    0    0  501  502  0.00000000000E+00  0.00000000000E+00  0.23218070042E+04  0.23218070042E+04  0.00000000000E+00 0.  1.
          4   -1    0    0  502    0 -0.00000000000E+00 -0.00000000000E+00 -0.21945260706E+03  0.21945260706E+03  0.00000000000E+00 0.  1.
    9000010    2    1    2  501    0 -0.25788471523E+03 -0.10648347610E+03  0.19891745868E+04  0.22401733484E+04  0.99182550741E+03 0.  0.
        -13    1    3    3    0    0 -0.41246308080E+03  0.31765807285E+03  0.68704756219E+03  0.86201322968E+03  0.10566000000E+00 0.  1.
          4    1    3    3  501    0  0.15457836557E+03 -0.42414154896E+03  0.13021270246E+04  0.13781601187E+04  0.00000000000E+00 0.  1.
         13    1    1    2    0    0  0.25788471523E+03  0.10648347610E+03  0.11317981032E+03  0.30108626282E+03  0.10566000000E+00 0. -1.
<mgrwt>
<rscale>  1 0.74324502E+03</rscale>
<asrwt>0</asrwt>
<pdfrwt beam="1">  1       21 0.35720106E+00 0.10303209E+04</pdfrwt>
<pdfrwt beam="2">  1        4 0.33761941E-01 0.10303209E+04</pdfrwt>
<totfact> 0.39620614E+00</totfact>
</mgrwt>
</event>
<event>
 6    1  0.1375310E-005  0.1679997E+04  0.7818608E-02  0.8822612E-01
          4   -1    0    0  502    0 -0.00000000000E+00  0.00000000000E+00  0.84639090536E+03  0.84639090536E+03  0.00000000000E+00 0.  1.
         21   -1    0    0  501  502  0.00000000000E+00 -0.00000000000E+00 -0.28839655622E+04  0.28839655622E+04  0.00000000000E+00 0. -1.
    9000010    2    1    2  501    0 -0.75465360687E+03 -0.11441244739E+04 -0.71540157452E+03  0.18259761093E+04  0.97152790004E+03 0.  0.
        -13    1    3    3    0    0  0.15511303853E+03 -0.14306407673E+03 -0.37628895592E+03  0.43141716966E+03  0.10566000000E+00 0.  1.
          4    1    3    3  501    0 -0.90976664540E+03 -0.10010603972E+04 -0.33911261860E+03  0.13945589396E+04  0.00000000000E+00 0.  1.
         13    1    1    2    0    0  0.75465360687E+03  0.11441244739E+04 -0.13221730823E+04  0.19043803583E+04  0.10566000000E+00 0. -1.
<mgrwt>
<rscale>  1 0.15966454E+04</rscale>
<asrwt>0</asrwt>
<pdfrwt beam="2">  1       21 0.44368700E+00 0.16799968E+04</pdfrwt>
<pdfrwt beam="1">  1        4 0.13021399E+00 0.16799968E+04</pdfrwt>
<totfact> 0.45669452E-02</totfact>
</mgrwt>
</event>
<event>
 6    1  0.1375310E-005  0.1159969E+04  0.7818608E-02  0.9325324E-01
         21   -1    0    0  501  502  0.00000000000E+00  0.00000000000E+00  0.51083365442E+03  0.51083365442E+03  0.00000000000E+00 0. -1.
          4   -1    0    0  502    0 -0.00000000000E+00 -0.00000000000E+00 -0.15855862811E+04  0.15855862811E+04  0.00000000000E+00 0.  1.
    9000010    2    1    2  501    0 -0.11974368036E+03  0.59072926575E+03 -0.90202969985E+03  0.14694168773E+04  0.99107455090E+03 0.  0.
        -13    1    3    3    0    0 -0.68632649805E+02  0.86891636672E+03 -0.61726729035E+03  0.10680566520E+04  0.10566000000E+00 0.  1.
          4    1    3    3  501    0 -0.51111030554E+02 -0.27818710096E+03 -0.28476240950E+03  0.40136022530E+03  0.00000000000E+00 0.  1.
         13    1    1    2    0    0  0.11974368036E+03 -0.59072926575E+03 -0.17272292682E+03  0.62700305822E+03  0.10566000000E+00 0. -1.
<mgrwt>
<rscale>  1 0.98484525E+03</rscale>
<asrwt>0</asrwt>
<pdfrwt beam="1">  1       21 0.78589794E-01 0.11599691E+04</pdfrwt>
<pdfrwt beam="2">  1        4 0.24393635E+00 0.11599691E+04</pdfrwt>
<totfact> 0.36750660E+00</totfact>
</mgrwt>
</event>
<event>
 6    1  0.1375310E-005  0.1023874E+04  0.7818608E-02  0.9748562E-01
         21   -1    0    0  501  502  0.00000000000E+00  0.00000000000E+00  0.74830601597E+03  0.74830601597E+03  0.00000000000E+00 0.  1.
          4   -1    0    0  502    0 -0.00000000000E+00 -0.00000000000E+00 -0.53609754694E+03  0.53609754694E+03  0.00000000000E+00 0.  1.
    9000010    2    1    2  501    0  0.29884823838E+02  0.19930011032E+03  0.29652458991E+03  0.10659479471E+04  0.10038448869E+04 0.  0.
        -13    1    3    3    0    0 -0.28909103226E+03  0.39182724404E+03 -0.12564978637E+03  0.50288178938E+03  0.10566000000E+00 0.  1.
          4    1    3    3  501    0  0.31897585610E+03 -0.19252713373E+03  0.42217437628E+03  0.56306615773E+03  0.00000000000E+00 0.  1.
         13    1    1    2    0    0 -0.29884823838E+02 -0.19930011032E+03 -0.84316120878E+02  0.21845561579E+03  0.10566000000E+00 0. -1.
<mgrwt>
<rscale>  1 0.68197573E+03</rscale>
<asrwt>0</asrwt>
<pdfrwt beam="1">  1       21 0.11512400E+00 0.10238741E+04</pdfrwt>
<pdfrwt beam="2">  1        4 0.82476545E-01 0.10238741E+04</pdfrwt>
<totfact> 0.28016123E+01</totfact>
</mgrwt>
</event>
<event>
 6    1  0.1375310E-005  0.1005876E+04  0.7818608E-02  0.1012950E+00
          4   -1    0    0  502    0 -0.00000000000E+00  0.00000000000E+00  0.28450821602E+03  0.28450821602E+03  0.00000000000E+00 0.  1.
         21   -1    0    0  501  502  0.00000000000E+00 -0.00000000000E+00 -0.12159681067E+04  0.12159681067E+04  0.00000000000E+00 0.  1.
    9000010    2    1    2  501    0 -0.44945497163E+02  0.44135932261E+02 -0.99225964320E+03  0.14129280543E+04  0.10039015932E+04 0.  0.
        -13    1    3    3    0    0  0.68211771544E+02  0.14101367870E+03  0.17576778595E+03  0.23544007539E+03  0.10566000000E+00 0.  1.
          4    1    3    3  501    0 -0.11315726871E+03 -0.96877746440E+02 -0.11680274291E+04  0.11774879789E+04  0.00000000000E+00 0.  1.
         13    1    1    2    0    0  0.44945497163E+02 -0.44135932261E+02  0.60799752527E+02  0.87548268419E+02  0.10566000000E+00 0. -1.
<mgrwt>
<rscale>  1 0.50318885E+03</rscale>
<asrwt>0</asrwt>
<pdfrwt beam="2">  1       21 0.18707202E+00 0.10058760E+04</pdfrwt>
<pdfrwt beam="1">  1        4 0.43770494E-01 0.10058760E+04</pdfrwt>
<totfact> 0.28965260E+01</totfact>
</mgrwt>
</event>
<event>
 6    1  0.1375310E-005  0.1028707E+04  0.7818608E-02  0.9777721E-01
         21   -1    0    0  501  502  0.00000000000E+00  0.00000000000E+00  0.30715172808E+03  0.30715172808E+03  0.00000000000E+00 0.  1.
          4   -1    0    0  502    0 -0.00000000000E+00 -0.00000000000E+00 -0.12077471851E+04  0.12077471851E+04  0.00000000000E+00 0.  1.
    9000010    2    1    2  501    0 -0.15671500970E+03 -0.89402853753E+02 -0.69559138468E+03  0.12418070873E+04  0.10127610790E+04 0.  0.
        -13    1    3    3    0    0  0.33564185762E+03  0.19028603303E+03 -0.52284175872E+03  0.64979054070E+03  0.10566000000E+00 0.  1.
          4    1    3    3  501    0 -0.49235686732E+03 -0.27968888678E+03 -0.17274962595E+03  0.59201654660E+03  0.00000000000E+00 0.  1.
         13    1    1    2    0    0  0.15671500970E+03  0.89402853753E+02 -0.20500407233E+03  0.27309182588E+03  0.10566000000E+00 0. -1.
<mgrwt>
<rscale>  1 0.66572011E+03</rscale>
<asrwt>0</asrwt>
<pdfrwt beam="1">  1       21 0.47254113E-01 0.10287067E+04</pdfrwt>
<pdfrwt beam="2">  1        4 0.18580726E+00 0.10287067E+04</pdfrwt>
<totfact> 0.27755346E+01</totfact>
</mgrwt>
</event>
<event>
 6    1  0.1375310E-005  0.1096150E+04  0.7818608E-02  0.9463874E-01
          4   -1    0    0  502    0 -0.00000000000E+00  0.00000000000E+00  0.85157282466E+03  0.85157282466E+03  0.00000000000E+00 0.  1.
         21   -1    0    0  501  502  0.00000000000E+00 -0.00000000000E+00 -0.89377536856E+03  0.89377536856E+03  0.00000000000E+00 0.  1.
    9000010    2    1    2  501    0  0.31445393323E+03  0.30055294663E+03 -0.41538738310E+03  0.11722161969E+04  0.10061465024E+04 0.  0.
        -13    1    3    3    0    0 -0.97873807508E+02 -0.77142646549E+02  0.26422328726E+03  0.29213734237E+03  0.10566000000E+00 0.  1.
          4    1    3    3  501    0  0.41232774074E+03  0.37769559318E+03 -0.67961067036E+03  0.88007885451E+03  0.00000000000E+00 0.  1.
         13    1    1    2    0    0 -0.31445393323E+03 -0.30055294663E+03  0.37318483920E+03  0.57313199634E+03  0.10566000000E+00 0. -1.
<mgrwt>
<rscale>  1 0.87000425E+03</rscale>
<asrwt>0</asrwt>
<pdfrwt beam="2">  1       21 0.13750390E+00 0.10961497E+04</pdfrwt>
<pdfrwt beam="1">  1        4 0.13101120E+00 0.10961497E+04</pdfrwt>
<totfact> 0.56362222E+00</totfact>
</mgrwt>
</event>
<event>
 6    1  0.1375310E-005  0.1066707E+04  0.7818608E-02  0.9516552E-01
          4   -1    0    0  502    0 -0.00000000000E+00  0.00000000000E+00  0.17842166809E+04  0.17842166809E+04  0.00000000000E+00 0.  1.
         21   -1    0    0  501  502  0.00000000000E+00 -0.00000000000E+00 -0.29837254569E+03  0.29837254569E+03  0.00000000000E+00 0.  1.
    9000010    2    1    2  501    0 -0.39002199350E+03 -0.43165082970E+02  0.10994639852E+04  0.15318896612E+04  0.99190952188E+03 0.  0.
        -13    1    3    3    0    0 -0.63407676905E+03  0.21361849961E+03  0.49887296421E+03  0.83460197580E+03  0.10566000000E+00 0.  1.
          4    1    3    3  501    0  0.24405477555E+03 -0.25678358258E+03  0.60059102097E+03  0.69728768541E+03  0.00000000000E+00 0.  1.
         13    1    1    2    0    0  0.39002199350E+03  0.43165082970E+02  0.38638014998E+03  0.55069956534E+03  0.10566000000E+00 0. -1.
<mgrwt>
<rscale>  1 0.83074405E+03</rscale>
<asrwt>0</asrwt>
<pdfrwt beam="2">  1       21 0.45903469E-01 0.10667075E+04</pdfrwt>
<pdfrwt beam="1">  1        4 0.27449487E+00 0.10667075E+04</pdfrwt>
<totfact> 0.80055786E+00</totfact>
</mgrwt>
</event>
<event>
 6    1  0.1375310E-005  0.1010913E+04  0.7818608E-02  0.9898786E-01
          4   -1    0    0  502    0 -0.00000000000E+00  0.00000000000E+00  0.11295111791E+04  0.11295111791E+04  0.00000000000E+00 0.  1.
         21   -1    0    0  501  502  0.00000000000E+00 -0.00000000000E+00 -0.30339521283E+03  0.30339521283E+03  0.00000000000E+00 0.  1.
    9000010    2    1    2  501    0 -0.53697650507E+02 -0.11635382735E+03  0.60723159232E+03  0.11792687939E+04  0.10027577129E+04 0.  0.
        -13    1    3    3    0    0 -0.47613340392E+03 -0.50531431907E+02  0.57825267881E+03  0.75075469739E+03  0.10566000000E+00 0.  1.
          4    1    3    3  501    0  0.42243575341E+03 -0.65822395440E+02  0.28978913518E+02  0.42851409653E+03  0.00000000000E+00 0.  1.
         13    1    1    2    0    0  0.53697650507E+02  0.11635382735E+03  0.21888437397E+03  0.25363759804E+03  0.10566000000E+00 0. -1.
<mgrwt>
<rscale>  1 0.60320149E+03</rscale>
<asrwt>0</asrwt>
<pdfrwt beam="2">  1       21 0.46676187E-01 0.10109128E+04</pdfrwt>
<pdfrwt beam="1">  1        4 0.17377095E+00 0.10109128E+04</pdfrwt>
<totfact> 0.34642706E+01</totfact>
</mgrwt>
</event>
<event>
 6    1  0.1375310E-005  0.1012933E+04  0.7818608E-02  0.9942972E-01
          4   -1    0    0  502    0 -0.00000000000E+00  0.00000000000E+00  0.12552521585E+04  0.12552521585E+04  0.00000000000E+00 0.  1.
         21   -1    0    0  501  502  0.00000000000E+00 -0.00000000000E+00 -0.32112206489E+03  0.32112206489E+03  0.00000000000E+00 0.  1.
    9000010    2    1    2  501    0 -0.36733454552E+02 -0.10429032596E+03  0.50234486590E+03  0.11306564732E+04  0.10068802696E+04 0.  0.
        -13    1    3    3    0    0 -0.26039623037E+03 -0.27020974406E+03  0.69650848899E+03  0.79116596803E+03  0.10566000000E+00 0.  1.
          4    1    3    3  501    0  0.22366277582E+03  0.16591941810E+03 -0.19416362309E+03  0.33949050520E+03  0.00000000000E+00 0.  1.
         13    1    1    2    0    0  0.36733454552E+02  0.10429032596E+03  0.43178522775E+03  0.44571775020E+03  0.10566000000E+00 0. -1.
<mgrwt>
<rscale>  1 0.58223110E+03</rscale>
<asrwt>0</asrwt>
<pdfrwt beam="2">  1       21 0.49403395E-01 0.10129332E+04</pdfrwt>
<pdfrwt beam="1">  1        4 0.19311571E+00 0.10129332E+04</pdfrwt>
<totfact> 0.22531852E+01</totfact>
</mgrwt>
</event>
<event>
 6    1  0.1375310E-005  0.1237366E+04  0.7818608E-02  0.9215828E-01
         21   -1    0    0  501  502  0.00000000000E+00  0.00000000000E+00  0.54159748815E+03  0.54159748815E+03  0.00000000000E+00 0.  1.
          4   -1    0    0  502    0 -0.00000000000E+00 -0.00000000000E+00 -0.18999507529E+04  0.18999507529E+04  0.00000000000E+00 0.  1.
    9000010    2    1    2  501    0  0.31710149409E+03  0.67169478588E+03 -0.10985008809E+04  0.16546235207E+04  0.98961991038E+03 0.  0.
        -13    1    3    3    0    0 -0.91719389165E+02 -0.22755438587E+03 -0.16628078415E+03  0.29638278495E+03  0.10566000000E+00 0.  1.
          4    1    3    3  501    0  0.40882088326E+03  0.89924917175E+03 -0.93222009678E+03  0.13582407358E+04  0.00000000000E+00 0.  1.
         13    1    1    2    0    0 -0.31710149409E+03 -0.67169478588E+03 -0.25985238385E+03  0.78692472035E+03  0.10566000000E+00 0. -1.
<mgrwt>
<rscale>  1 0.10891539E+04</rscale>
<asrwt>0</asrwt>
<pdfrwt beam="1">  1       21 0.83322691E-01 0.12373661E+04</pdfrwt>
<pdfrwt beam="2">  1        4 0.29230011E+00 0.12373661E+04</pdfrwt>
<totfact> 0.15890269E+00</totfact>
</mgrwt>
</event>
<event>
 6    1  0.1375310E-005  0.1159893E+04  0.7818608E-02  0.9327184E-01
         21   -1    0    0  501  502  0.00000000000E+00  0.00000000000E+00  0.12838417708E+04  0.12838417708E+04  0.00000000000E+00 0. -1.
          4   -1    0    0  502    0 -0.00000000000E+00 -0.00000000000E+00 -0.66408113393E+03  0.66408113393E+03  0.00000000000E+00 0.  1.
    9000010    2    1    2  501    0 -0.43082494724E+03 -0.41587635718E+03  0.68258290474E+03  0.13458349310E+04  0.99337251827E+03 0.  0.
        -13    1    3    3    0    0  0.12266455756E+03  0.12815438533E+03  0.52465740919E+03  0.55383711355E+03  0.10566000000E+00 0.  1.
          4    1    3    3  501    0 -0.55348950480E+03 -0.54403074251E+03  0.15792549555E+03  0.79199781746E+03  0.00000000000E+00 0.  1.
         13    1    1    2    0    0  0.43082494724E+03  0.41587635718E+03 -0.62822267856E+02  0.60208797374E+03  0.10566000000E+00 0. -1.
<mgrwt>
<rscale>  1 0.98318271E+03</rscale>
<asrwt>0</asrwt>
<pdfrwt beam="1">  1       21 0.19751412E+00 0.11598932E+04</pdfrwt>
<pdfrwt beam="2">  1        4 0.10216633E+00 0.11598932E+04</pdfrwt>
<totfact> 0.36237136E+00</totfact>
</mgrwt>
</event>
<event>
 6    1  0.1375310E-005  0.1031530E+04  0.7818608E-02  0.9725019E-01
         21   -1    0    0  501  502  0.00000000000E+00  0.00000000000E+00  0.67989219240E+03  0.67989219240E+03  0.00000000000E+00 0.  1.
          4   -1    0    0  502    0 -0.00000000000E+00 -0.00000000000E+00 -0.85180276139E+03  0.85180276139E+03  0.00000000000E+00 0.  1.
    9000010    2    1    2  501    0 -0.18524307593E+03  0.10541192577E+03  0.24788152339E+03  0.10608955451E+04  0.10092707449E+04 0.  0.
        -13    1    3    3    0    0 -0.68480070082E+01  0.52545927984E+03 -0.30398421794E+02  0.52638239445E+03  0.10566000000E+00 0.  1.
          4    1    3    3  501    0 -0.17839506892E+03 -0.42004735407E+03  0.27827994519E+03  0.53451315061E+03  0.00000000000E+00 0.  1.
         13    1    1    2    0    0  0.18524307593E+03 -0.10541192577E+03 -0.41979209238E+03  0.47079940873E+03  0.10566000000E+00 0. -1.
<mgrwt>
<rscale>  1 0.69546499E+03</rscale>
<asrwt>0</asrwt>
<pdfrwt beam="1">  1       21 0.10459880E+00 0.10315300E+04</pdfrwt>
<pdfrwt beam="2">  1        4 0.13104658E+00 0.10315300E+04</pdfrwt>
<totfact> 0.11555157E+01</totfact>
</mgrwt>
</event>
<event>
 6    1  0.1375310E-005  0.1019325E+04  0.7818608E-02  0.9668776E-01
          4   -1    0    0  502    0 -0.00000000000E+00  0.00000000000E+00  0.73719844908E+03  0.73719844908E+03  0.00000000000E+00 0.  1.
         21   -1    0    0  501  502  0.00000000000E+00 -0.00000000000E+00 -0.77475364462E+03  0.77475364462E+03  0.00000000000E+00 0.  1.
    9000010    2    1    2  501    0 -0.14177045098E+03 -0.22597645120E+03 -0.37116584861E+03  0.10847983787E+04  0.98379836241E+03 0.  0.
        -13    1    3    3    0    0 -0.21942320691E+03  0.27090359403E+03  0.13258548243E+03  0.37298019023E+03  0.10566000000E+00 0.  1.
          4    1    3    3  501    0  0.77652755931E+02 -0.49688004523E+03 -0.50375133104E+03  0.71181818843E+03  0.00000000000E+00 0.  1.
         13    1    1    2    0    0  0.14177045098E+03  0.22597645120E+03  0.33361065308E+03  0.42715371505E+03  0.10566000000E+00 0. -1.
<mgrwt>
<rscale>  1 0.72906663E+03</rscale>
<asrwt>0</asrwt>
<pdfrwt beam="2">  1       21 0.11919287E+00 0.10193250E+04</pdfrwt>
<pdfrwt beam="1">  1        4 0.11341515E+00 0.10193250E+04</pdfrwt>
<totfact> 0.11957878E+01</totfact>
</mgrwt>
</event>
<event>
 6    1  0.1375310E-005  0.1026962E+04  0.7818608E-02  0.9725526E-01
          4   -1    0    0  502    0 -0.00000000000E+00  0.00000000000E+00  0.85009994932E+03  0.85009994932E+03  0.00000000000E+00 0.  1.
         21   -1    0    0  501  502  0.00000000000E+00 -0.00000000000E+00 -0.51233050973E+03  0.51233050973E+03  0.00000000000E+00 0.  1.
    9000010    2    1    2  501    0  0.21294706245E+03  0.33893737618E+02  0.85426958750E+02  0.10305088182E+04  0.10040694310E+04 0.  0.
        -13    1    3    3    0    0  0.58040510893E+03  0.99790796415E+02  0.22712668262E+03  0.63120110475E+03  0.10566000000E+00 0.  1.
          4    1    3    3  501    0 -0.36745804648E+03 -0.65897058797E+02 -0.14169972387E+03  0.39930771345E+03  0.00000000000E+00 0.  1.
         13    1    1    2    0    0 -0.21294706245E+03 -0.33893737618E+02  0.25234248084E+03  0.33192164084E+03  0.10566000000E+00 0. -1.
<mgrwt>
<rscale>  1 0.69517126E+03</rscale>
<asrwt>0</asrwt>
<pdfrwt beam="2">  1       21 0.78820078E-01 0.10269619E+04</pdfrwt>
<pdfrwt beam="1">  1        4 0.13078461E+00 0.10269619E+04</pdfrwt>
<totfact> 0.23071252E+01</totfact>
</mgrwt>
</event>
<event>
 6    1  0.1375310E-005  0.1017471E+04  0.7818608E-02  0.9912378E-01
         21   -1    0    0  501  502  0.00000000000E+00  0.00000000000E+00  0.32943595062E+03  0.32943595062E+03  0.00000000000E+00 0.  1.
          4   -1    0    0  502    0 -0.00000000000E+00 -0.00000000000E+00 -0.10935647707E+04  0.10935647707E+04  0.00000000000E+00 0.  1.
    9000010    2    1    2  501    0 -0.11931474460E+03  0.15476053772E+02 -0.50198213163E+03  0.11345628355E+04  0.10103322477E+04 0.  0.
        -13    1    3    3    0    0 -0.44080194000E+03 -0.31943494085E+03 -0.34503114292E+03  0.64450875284E+03  0.10566000000E+00 0.  1.
          4    1    3    3  501    0  0.32148719540E+03  0.33491099462E+03 -0.15695098871E+03  0.49005408271E+03  0.00000000000E+00 0.  1.
         13    1    1    2    0    0  0.11931474460E+03 -0.15476053772E+02 -0.26214668844E+03  0.28843788576E+03  0.10566000000E+00 0. -1.
<mgrwt>
<rscale>  1 0.59665153E+03</rscale>
<asrwt>0</asrwt>
<pdfrwt beam="1">  1       21 0.50682455E-01 0.10174708E+04</pdfrwt>
<pdfrwt beam="2">  1        4 0.16824073E+00 0.10174708E+04</pdfrwt>
<totfact> 0.31767091E+01</totfact>
</mgrwt>
</event>
<event>
 6    1  0.1375310E-005  0.1269407E+04  0.7818608E-02  0.9179070E-01
          4   -1    0    0  502    0 -0.00000000000E+00  0.00000000000E+00  0.11649881904E+04  0.11649881904E+04  0.00000000000E+00 0.  1.
         21   -1    0    0  501  502  0.00000000000E+00 -0.00000000000E+00 -0.10168960523E+04  0.10168960523E+04  0.00000000000E+00 0.  1.
    9000010    2    1    2  501    0 -0.39837629748E+03 -0.68133260996E+03 -0.25636243535E+03  0.12950351502E+04  0.99422157599E+03 0.  0.
        -13    1    3    3    0    0  0.16188713650E+03  0.85961252927E+02 -0.29147283888E+03  0.34431556592E+03  0.10566000000E+00 0.  1.
          4    1    3    3  501    0 -0.56026343398E+03 -0.76729386288E+03  0.35110403525E+02  0.95071958427E+03  0.00000000000E+00 0.  1.
         13    1    1    2    0    0  0.39837629748E+03  0.68133260996E+03  0.40445457345E+03  0.88684909254E+03  0.10566000000E+00 0. -1.
<mgrwt>
<rscale>  1 0.11272092E+04</rscale>
<asrwt>0</asrwt>
<pdfrwt beam="2">  1       21 0.15644555E+00 0.12694071E+04</pdfrwt>
<pdfrwt beam="1">  1        4 0.17922895E+00 0.12694071E+04</pdfrwt>
<totfact> 0.16408729E+00</totfact>
</mgrwt>
</event>
<event>
 6    1  0.1375310E-005  0.1092152E+04  0.7818608E-02  0.9472893E-01
         21   -1    0    0  501  502  0.00000000000E+00  0.00000000000E+00  0.10128781245E+04  0.10128781245E+04  0.00000000000E+00 0.  1.
          4   -1    0    0  502    0 -0.00000000000E+00 -0.00000000000E+00 -0.59083401260E+03  0.59083401260E+03  0.00000000000E+00 0.  1.
    9000010    2    1    2  501    0 -0.33133921693E+03 -0.26779593160E+03  0.43964420225E+03  0.11773201672E+04  0.10056318481E+04 0.  0.
        -13    1    3    3    0    0 -0.49961807003E+03 -0.55032195904E+03  0.40551778967E+03  0.84670960985E+03  0.10566000000E+00 0.  1.
          4    1    3    3  501    0  0.16827885311E+03  0.28252602744E+03  0.34126412574E+02  0.33061055733E+03  0.00000000000E+00 0.  1.
         13    1    1    2    0    0  0.33133921693E+03  0.26779593160E+03 -0.17600090359E+02  0.42639196991E+03  0.10566000000E+00 0. -1.
<mgrwt>
<rscale>  1 0.86312156E+03</rscale>
<asrwt>0</asrwt>
<pdfrwt beam="1">  1       21 0.15582740E+00 0.10921519E+04</pdfrwt>
<pdfrwt beam="2">  1        4 0.90897540E-01 0.10921519E+04</pdfrwt>
<totfact> 0.98159157E+00</totfact>
</mgrwt>
</event>
<event>
 6    1  0.1375310E-005  0.9882501E+03  0.7818608E-02  0.9978753E-01
         21   -1    0    0  501  502  0.00000000000E+00  0.00000000000E+00  0.58205853994E+03  0.58205853994E+03  0.00000000000E+00 0.  1.
          4   -1    0    0  502    0 -0.00000000000E+00 -0.00000000000E+00 -0.52796090114E+03  0.52796090114E+03  0.00000000000E+00 0.  1.
    9000010    2    1    2  501    0  0.90225216965E+02 -0.56150104251E+02  0.10190559805E+03  0.99349031976E+03  0.98251963876E+03 0.  0.
        -13    1    3    3    0    0  0.32621464580E+03 -0.38592184413E+03  0.24744037641E+03  0.56265301559E+03  0.10566000000E+00 0.  1.
          4    1    3    3  501    0 -0.23598942883E+03  0.32977173988E+03 -0.14553477836E+03  0.43083730417E+03  0.00000000000E+00 0.  1.
         13    1    1    2    0    0 -0.90225216965E+02  0.56150104251E+02 -0.47807959255E+02  0.11652912132E+03  0.10566000000E+00 0. -1.
<mgrwt>
<rscale>  1 0.56591787E+03</rscale>
<asrwt>0</asrwt>
<pdfrwt beam="1">  1       21 0.89547468E-01 0.98825010E+03</pdfrwt>
<pdfrwt beam="2">  1        4 0.81224754E-01 0.98825010E+03</pdfrwt>
<totfact> 0.54384257E+01</totfact>
</mgrwt>
</event>
<event>
 6    1  0.1375310E-005  0.1000008E+04  0.7818608E-02  0.9778941E-01
         21   -1    0    0  501  502  0.00000000000E+00  0.00000000000E+00  0.29807560379E+03  0.29807560379E+03  0.00000000000E+00 0.  1.
          4   -1    0    0  502    0 -0.00000000000E+00 -0.00000000000E+00 -0.14079107141E+04  0.14079107141E+04  0.00000000000E+00 0.  1.
    9000010    2    1    2  501    0  0.14721738072E+03 -0.12881466562E+03 -0.61523823371E+03  0.11741101511E+04  0.98068873118E+03 0.  0.
        -13    1    3    3    0    0  0.21047505165E+03  0.61662698916E+02 -0.84269185301E+03  0.87076495457E+03  0.10566000000E+00 0.  1.
          4    1    3    3  501    0 -0.63257670921E+02 -0.19047736454E+03  0.22745361931E+03  0.30334519655E+03  0.00000000000E+00 0.  1.
         13    1    1    2    0    0 -0.14721738072E+03  0.12881466562E+03 -0.49459687662E+03  0.53187616678E+03  0.10566000000E+00 0. -1.
<mgrwt>
<rscale>  1 0.66505046E+03</rscale>
<asrwt>0</asrwt>
<pdfrwt beam="1">  1       21 0.45857786E-01 0.10000083E+04</pdfrwt>
<pdfrwt beam="2">  1        4 0.21660164E+00 0.10000083E+04</pdfrwt>
<totfact> 0.18567062E+01</totfact>
</mgrwt>
</event>
<event>
 6    1  0.1375310E-005  0.1131176E+04  0.7818608E-02  0.9381484E-01
         21   -1    0    0  501  502  0.00000000000E+00  0.00000000000E+00  0.93770239532E+03  0.93770239532E+03  0.00000000000E+00 0.  1.
          4   -1    0    0  502    0 -0.00000000000E+00 -0.00000000000E+00 -0.88452037289E+03  0.88452037289E+03  0.00000000000E+00 0.  1.
    9000010    2    1    2  501    0 -0.29957644294E+03 -0.43798197001E+03  0.38673588050E+03  0.11954593052E+04  0.99899152038E+03 0.  0.
        -13    1    3    3    0    0  0.36265059836E+03 -0.25702012421E+03  0.14174031487E+03  0.46654595568E+03  0.10566000000E+00 0.  1.
          4    1    3    3  501    0 -0.66222704130E+03 -0.18096184580E+03  0.24499556563E+03  0.72891334948E+03  0.00000000000E+00 0.  1.
         13    1    1    2    0    0  0.29957644294E+03  0.43798197001E+03 -0.33355385807E+03  0.62676346306E+03  0.10566000000E+00 0. -1.
<mgrwt>
<rscale>  1 0.93615260E+03</rscale>
<asrwt>0</asrwt>
<pdfrwt beam="1">  1       21 0.14426191E+00 0.11311756E+04</pdfrwt>
<pdfrwt beam="2">  1        4 0.13608006E+00 0.11311756E+04</pdfrwt>
<totfact> 0.44606946E+00</totfact>
</mgrwt>
</event>
<event>
 6    1  0.1375310E-005  0.1021914E+04  0.7818608E-02  0.9708876E-01
         21   -1    0    0  501  502  0.00000000000E+00  0.00000000000E+00  0.19228293371E+03  0.19228293371E+03  0.00000000000E+00 0.  1.
          4   -1    0    0  502    0 -0.00000000000E+00 -0.00000000000E+00 -0.20434604632E+04  0.20434604632E+04  0.00000000000E+00 0.  1.
    9000010    2    1    2  501    0  0.33548586644E+02 -0.22891290271E+03 -0.14872089210E+04  0.18044664745E+04  0.99538045899E+03 0.  0.
        -13    1    3    3    0    0  0.30205155312E+03 -0.38405694108E+03 -0.29095766477E+03  0.56867499381E+03  0.10566000000E+00 0.  1.
          4    1    3    3  501    0 -0.26850296648E+03  0.15514403838E+03 -0.11962512563E+04  0.12357914807E+04  0.00000000000E+00 0.  1.
         13    1    1    2    0    0 -0.33548586644E+02  0.22891290271E+03 -0.36396860845E+03  0.43127692240E+03  0.10566000000E+00 0. -1.
<mgrwt>
<rscale>  1 0.70490746E+03</rscale>
<asrwt>0</asrwt>
<pdfrwt beam="1">  1       21 0.29581989E-01 0.10219143E+04</pdfrwt>
<pdfrwt beam="2">  1        4 0.31437854E+00 0.10219143E+04</pdfrwt>
<totfact> 0.11336498E+01</totfact>
</mgrwt>
</event>
<event>
 6    1  0.1375310E-005  0.1005921E+04  0.7818608E-02  0.9924073E-01
          4   -1    0    0  502    0 -0.00000000000E+00  0.00000000000E+00  0.58573189803E+03  0.58573189803E+03  0.00000000000E+00 0.  1.
         21   -1    0    0  501  502  0.00000000000E+00 -0.00000000000E+00 -0.54137072029E+03  0.54137072029E+03  0.00000000000E+00 0.  1.
    9000010    2    1    2  501    0  0.11830966492E+03 -0.19621013249E+02  0.30558950872E+02  0.10063852890E+04  0.99874688455E+03 0.  0.
        -13    1    3    3    0    0  0.27553831075E+03  0.40534520441E+03  0.19052633849E+03  0.52585776809E+03  0.10566000000E+00 0.  1.
          4    1    3    3  501    0 -0.15722864583E+03 -0.42496621766E+03 -0.15996738762E+03  0.48052752088E+03  0.00000000000E+00 0.  1.
         13    1    1    2    0    0 -0.11830966492E+03  0.19621013249E+02  0.13802226867E+02  0.12071732935E+03  0.10566000000E+00 0. -1.
<mgrwt>
<rscale>  1 0.59108650E+03</rscale>
<asrwt>0</asrwt>
<pdfrwt beam="2">  1       21 0.83287803E-01 0.10059212E+04</pdfrwt>
<pdfrwt beam="1">  1        4 0.90112599E-01 0.10059212E+04</pdfrwt>
<totfact> 0.50716760E+01</totfact>
</mgrwt>
</event>
<event>
 6    1  0.1375310E-005  0.1033643E+04  0.7818608E-02  0.1002001E+00
         21   -1    0    0  501  502  0.00000000000E+00  0.00000000000E+00  0.70905315963E+03  0.70905315963E+03  0.00000000000E+00 0.  1.
          4   -1    0    0  502    0 -0.00000000000E+00 -0.00000000000E+00 -0.82363926181E+03  0.82363926181E+03  0.00000000000E+00 0.  1.
    9000010    2    1    2  501    0  0.80098597506E+02  0.15319921844E+02  0.32661482184E+03  0.10840179828E+04  0.10304209140E+04 0.  0.
        -13    1    3    3    0    0  0.55026106978E+03  0.57176868473E+02  0.10729751910E+03  0.56353279228E+03  0.10566000000E+00 0.  1.
          4    1    3    3  501    0 -0.47016247228E+03 -0.41856946629E+02  0.21931730274E+03  0.52048519057E+03  0.00000000000E+00 0.  1.
         13    1    1    2    0    0 -0.80098597506E+02 -0.15319921844E+02 -0.44120092402E+03  0.44867443859E+03  0.10566000000E+00 0. -1.
<mgrwt>
<rscale>  1 0.54781594E+03</rscale>
<asrwt>0</asrwt>
<pdfrwt beam="1">  1       21 0.10908510E+00 0.10336429E+04</pdfrwt>
<pdfrwt beam="2">  1        4 0.12671373E+00 0.10336429E+04</pdfrwt>
<totfact> 0.11327147E+01</totfact>
</mgrwt>
</event>
<event>
 6    1  0.1375310E-005  0.1052570E+04  0.7818608E-02  0.9645878E-01
          4   -1    0    0  502    0 -0.00000000000E+00  0.00000000000E+00  0.55092598136E+03  0.55092598136E+03  0.00000000000E+00 0.  1.
         21   -1    0    0  501  502  0.00000000000E+00 -0.00000000000E+00 -0.81270338547E+03  0.81270338547E+03  0.00000000000E+00 0.  1.
    9000010    2    1    2  501    0  0.24351928703E+03  0.96105473597E+02 -0.10336107371E+03  0.10576332065E+04  0.10194932971E+04 0.  0.
        -13    1    3    3    0    0  0.44311424504E+03 -0.28560216646E+03  0.16224832088E+03  0.55158259620E+03  0.10566000000E+00 0.  1.
          4    1    3    3  501    0 -0.19959495801E+03  0.38170764005E+03 -0.26560939459E+03  0.50605061035E+03  0.00000000000E+00 0.  1.
         13    1    1    2    0    0 -0.24351928703E+03 -0.96105473597E+02 -0.15841633039E+03  0.30599616029E+03  0.10566000000E+00 0. -1.
<mgrwt>
<rscale>  1 0.74332679E+03</rscale>
<asrwt>0</asrwt>
<pdfrwt beam="2">  1       21 0.12503129E+00 0.10525704E+04</pdfrwt>
<pdfrwt beam="1">  1        4 0.84757843E-01 0.10525704E+04</pdfrwt>
<totfact> 0.21162886E+01</totfact>
</mgrwt>
</event>
<event>
 6    1  0.1375310E-005  0.1042314E+04  0.7818608E-02  0.9607656E-01
          4   -1    0    0  502    0 -0.00000000000E+00  0.00000000000E+00  0.83693561737E+03  0.83693561737E+03  0.00000000000E+00 0.  1.
         21   -1    0    0  501  502  0.00000000000E+00 -0.00000000000E+00 -0.92446277706E+03  0.92446277706E+03  0.00000000000E+00 0.  1.
    9000010    2    1    2  501    0  0.22228912229E+03  0.21186825639E+03 -0.57113227942E+03  0.11885331966E+04  0.99605143781E+03 0.  0.
        -13    1    3    3    0    0 -0.38923667041E+03  0.17974100150E+03 -0.26351625432E+03  0.50324232798E+03  0.10566000000E+00 0.  1.
          4    1    3    3  501    0  0.61152579271E+03  0.32127254888E+02 -0.30761602510E+03  0.68529086857E+03  0.00000000000E+00 0.  1.
         13    1    1    2    0    0 -0.22228912229E+03 -0.21186825639E+03  0.48360511972E+03  0.57286519788E+03  0.10566000000E+00 0. -1.
<mgrwt>
<rscale>  1 0.76791533E+03</rscale>
<asrwt>0</asrwt>
<pdfrwt beam="2">  1       21 0.14222504E+00 0.10423143E+04</pdfrwt>
<pdfrwt beam="1">  1        4 0.12875933E+00 0.10423143E+04</pdfrwt>
<totfact> 0.54088843E+00</totfact>
</mgrwt>
</event>
<event>
 6    1  0.1375310E-005  0.1000254E+04  0.7818608E-02  0.1032108E+00
          4   -1    0    0  502    0 -0.00000000000E+00  0.00000000000E+00  0.31847282695E+03  0.31847282695E+03  0.00000000000E+00 0.  1.
         21   -1    0    0  501  502  0.00000000000E+00 -0.00000000000E+00 -0.88080383570E+03  0.88080383570E+03  0.00000000000E+00 0.  1.
    9000010    2    1    2  501    0  0.28881880007E+02 -0.21446860841E+02 -0.48006886071E+03  0.11094924603E+04  0.99960656137E+03 0.  0.
        -13    1    3    3    0    0 -0.44578866338E+03 -0.65312440812E+02 -0.44220319772E+03  0.63129781131E+03  0.10566000000E+00 0.  1.
          4    1    3    3  501    0  0.47467054338E+03  0.43865579971E+02 -0.37865662985E+02  0.47819464896E+03  0.00000000000E+00 0.  1.
         13    1    1    2    0    0 -0.28881880007E+02  0.21446860841E+02 -0.82262148045E+02  0.89784202384E+02  0.10566000000E+00 0. -1.
<mgrwt>
<rscale>  1 0.43559252E+03</rscale>
<asrwt>0</asrwt>
<pdfrwt beam="2">  1       21 0.13550828E+00 0.10002537E+04</pdfrwt>
<pdfrwt beam="1">  1        4 0.48995820E-01 0.10002537E+04</pdfrwt>
<totfact> 0.57635538E+01</totfact>
</mgrwt>
</event>
<event>
 6    1  0.1375310E-005  0.1086526E+04  0.7818608E-02  0.9479557E-01
         21   -1    0    0  501  502  0.00000000000E+00  0.00000000000E+00  0.86606163110E+03  0.86606163110E+03  0.00000000000E+00 0.  1.
          4   -1    0    0  502    0 -0.00000000000E+00 -0.00000000000E+00 -0.72593327792E+03  0.72593327792E+03  0.00000000000E+00 0.  1.
    9000010    2    1    2  501    0 -0.42241969182E+03  0.14175631350E+02  0.31997886937E+03  0.11326632599E+04  0.10009496685E+04 0.  0.
        -13    1    3    3    0    0  0.15717446930E+03  0.33726051976E+03  0.28407520838E+03  0.46813161309E+03  0.10566000000E+00 0.  1.
          4    1    3    3  501    0 -0.57959416112E+03 -0.32308488841E+03  0.35903660985E+02  0.66453164680E+03  0.00000000000E+00 0.  1.
         13    1    1    2    0    0  0.42241969182E+03 -0.14175631350E+02 -0.17985051619E+03  0.45933164914E+03  0.10566000000E+00 0. -1.
<mgrwt>
<rscale>  1 0.85807915E+03</rscale>
<asrwt>0</asrwt>
<pdfrwt beam="1">  1       21 0.13324025E+00 0.10865264E+04</pdfrwt>
<pdfrwt beam="2">  1        4 0.11168204E+00 0.10865264E+04</pdfrwt>
<totfact> 0.91898390E+00</totfact>
</mgrwt>
</event>
<event>
 6    1  0.1375310E-005  0.1034064E+04  0.7818608E-02  0.9721735E-01
          4   -1    0    0  502    0 -0.00000000000E+00  0.00000000000E+00  0.15908745628E+04  0.15908745628E+04  0.00000000000E+00 0.  1.
         21   -1    0    0  501  502  0.00000000000E+00 -0.00000000000E+00 -0.24476294749E+03  0.24476294749E+03  0.00000000000E+00 0.  1.
    9000010    2    1    2  501    0  0.59527688293E+02 -0.20545390598E+03  0.11091492754E+04  0.15164102952E+04  0.10116981838E+04 0.  0.
        -13    1    3    3    0    0  0.14553631665E+03 -0.19050630362E+03  0.12918596604E+04  0.13139158514E+04  0.10566000000E+00 0.  1.
          4    1    3    3  501    0 -0.86008628356E+02 -0.14947602362E+02 -0.18271038503E+03  0.20249444379E+03  0.00000000000E+00 0.  1.
         13    1    1    2    0    0 -0.59527688293E+02  0.20545390598E+03  0.23696233989E+03  0.31922721507E+03  0.10566000000E+00 0. -1.
<mgrwt>
<rscale>  1 0.69737308E+03</rscale>
<asrwt>0</asrwt>
<pdfrwt beam="2">  1       21 0.37655839E-01 0.10340639E+04</pdfrwt>
<pdfrwt beam="1">  1        4 0.24474993E+00 0.10340639E+04</pdfrwt>
<totfact> 0.18622325E+01</totfact>
</mgrwt>
</event>
<event>
 6    1  0.1375310E-005  0.1027545E+04  0.7818608E-02  0.9713222E-01
         21   -1    0    0  501  502  0.00000000000E+00  0.00000000000E+00  0.10470922646E+04  0.10470922646E+04  0.00000000000E+00 0. -1.
          4   -1    0    0  502    0 -0.00000000000E+00 -0.00000000000E+00 -0.39644400337E+03  0.39644400337E+03  0.00000000000E+00 0.  1.
    9000010    2    1    2  501    0  0.22396274591E+03 -0.12130741625E+02  0.38851010314E+03  0.10985393237E+04  0.10027672108E+04 0.  0.
        -13    1    3    3    0    0  0.29142016378E+03  0.12232165014E+03 -0.27453908140E+03  0.41864067687E+03  0.10566000000E+00 0.  1.
          4    1    3    3  501    0 -0.67457417874E+02 -0.13445239177E+03  0.66304918454E+03  0.67989864685E+03  0.00000000000E+00 0.  1.
         13    1    1    2    0    0 -0.22396274591E+03  0.12130741625E+02  0.26213815808E+03  0.34499694424E+03  0.10566000000E+00 0. -1.
<mgrwt>
<rscale>  1 0.70235011E+03</rscale>
<asrwt>0</asrwt>
<pdfrwt beam="1">  1       21 0.16109112E+00 0.10275449E+04</pdfrwt>
<pdfrwt beam="2">  1        4 0.60991386E-01 0.10275449E+04</pdfrwt>
<totfact> 0.22235460E+01</totfact>
</mgrwt>
</event>
<event>
 6    1  0.1375310E-005  0.1020098E+04  0.7818608E-02  0.9843395E-01
         21   -1    0    0  501  502  0.00000000000E+00  0.00000000000E+00  0.52549787000E+03  0.52549787000E+03  0.00000000000E+00 0.  1.
          4   -1    0    0  502    0 -0.00000000000E+00 -0.00000000000E+00 -0.71684935870E+03  0.71684935870E+03  0.00000000000E+00 0.  1.
    9000010    2    1    2  501    0 -0.39267277495E+02 -0.14394197228E+03 -0.27114983813E+02  0.10204579519E+04  0.10091273452E+04 0.  0.
        -13    1    3    3    0    0  0.33573464084E+03  0.19408381319E+03  0.23311777046E+03  0.45247119430E+03  0.10566000000E+00 0.  1.
          4    1    3    3  501    0 -0.37500191834E+03 -0.33802578547E+03 -0.26023275427E+03  0.56798675759E+03  0.00000000000E+00 0.  1.
         13    1    1    2    0    0  0.39267277495E+02  0.14394197228E+03 -0.16423650488E+03  0.22188927682E+03  0.10566000000E+00 0. -1.
<mgrwt>
<rscale>  1 0.63084829E+03</rscale>
<asrwt>0</asrwt>
<pdfrwt beam="1">  1       21 0.80845827E-01 0.10200976E+04</pdfrwt>
<pdfrwt beam="2">  1        4 0.11028452E+00 0.10200976E+04</pdfrwt>
<totfact> 0.33401865E+01</totfact>
</mgrwt>
</event>
<event>
 6    1  0.1375310E-005  0.1026029E+04  0.7818608E-02  0.9672819E-01
          4   -1    0    0  502    0 -0.00000000000E+00  0.00000000000E+00  0.15361581273E+04  0.15361581273E+04  0.00000000000E+00 0.  1.
         21   -1    0    0  501  502  0.00000000000E+00 -0.00000000000E+00 -0.30181830634E+03  0.30181830634E+03  0.00000000000E+00 0.  1.
    9000010    2    1    2  501    0 -0.11992521662E+03 -0.22846387517E+03  0.69256352024E+03  0.12378936302E+04  0.99305518990E+03 0.  0.
        -13    1    3    3    0    0 -0.26477098504E+03 -0.57740023163E+03  0.33693692155E+03  0.71904186406E+03  0.10566000000E+00 0.  1.
          4    1    3    3  501    0  0.14484576843E+03  0.34893635646E+03  0.35562659869E+03  0.51885176610E+03  0.00000000000E+00 0.  1.
         13    1    1    2    0    0  0.11992521662E+03  0.22846387517E+03  0.54177630067E+03  0.60008280343E+03  0.10566000000E+00 0. -1.
<mgrwt>
<rscale>  1 0.72658438E+03</rscale>
<asrwt>0</asrwt>
<pdfrwt beam="2">  1       21 0.46433586E-01 0.10260294E+04</pdfrwt>
<pdfrwt beam="1">  1        4 0.23633202E+00 0.10260294E+04</pdfrwt>
<totfact> 0.13522773E+01</totfact>
</mgrwt>
</event>
<event>
 6    1  0.1375310E-005  0.1005550E+04  0.7818608E-02  0.9906679E-01
          4   -1    0    0  502    0 -0.00000000000E+00  0.00000000000E+00  0.99403056097E+03  0.99403056097E+03  0.00000000000E+00 0.  1.
         21   -1    0    0  501  502  0.00000000000E+00 -0.00000000000E+00 -0.32385764659E+03  0.32385764659E+03  0.00000000000E+00 0.  1.
    9000010    2    1    2  501    0 -0.42812024270E+02  0.11950865732E+03  0.62038929223E+03  0.11815298239E+04  0.99750421666E+03 0.  0.
        -13    1    3    3    0    0  0.44555898839E+03  0.16801923504E+03  0.14379569195E+03  0.49742385112E+03  0.10566000000E+00 0.  1.
          4    1    3    3  501    0 -0.48837101266E+03 -0.48510577719E+02  0.47659360029E+03  0.68410597278E+03  0.00000000000E+00 0.  1.
         13    1    1    2    0    0  0.42812024270E+02 -0.11950865732E+03  0.49783622148E+02  0.13635838366E+03  0.10566000000E+00 0. -1.
<mgrwt>
<rscale>  1 0.59938672E+03</rscale>
<asrwt>0</asrwt>
<pdfrwt beam="2">  1       21 0.49824254E-01 0.10055495E+04</pdfrwt>
<pdfrwt beam="1">  1        4 0.15292778E+00 0.10055495E+04</pdfrwt>
<totfact> 0.42924990E+01</totfact>
</mgrwt>
</event>
<event>
 6    1  0.1375310E-005  0.8995393E+03  0.7818608E-02  0.1032787E+00
          4   -1    0    0  502    0 -0.00000000000E+00  0.00000000000E+00  0.14119071958E+04  0.14119071958E+04  0.00000000000E+00 0.  1.
         21   -1    0    0  501  502  0.00000000000E+00 -0.00000000000E+00 -0.16630004305E+03  0.16630004305E+03  0.00000000000E+00 0.  1.
    9000010    2    1    2  501    0  0.33465755552E+02 -0.35074634712E+02  0.10794771453E+04  0.14051483548E+04  0.89823204413E+03 0.  0.
        -13    1    3    3    0    0 -0.12556440849E+03 -0.33185217818E+03  0.99733921869E+03  0.10585734822E+04  0.10566000000E+00 0.  1.
          4    1    3    3  501    0  0.15903016404E+03  0.29677754347E+03  0.82137926610E+02  0.34657487268E+03  0.00000000000E+00 0.  1.
         13    1    1    2    0    0 -0.33465755552E+02  0.35074634712E+02  0.16613000745E+03  0.17305888400E+03  0.10566000000E+00 0. -1.
<mgrwt>
<rscale>  1 0.43341423E+03</rscale>
<asrwt>0</asrwt>
<pdfrwt beam="2">  1       21 0.25584623E-01 0.89953932E+03</pdfrwt>
<pdfrwt beam="1">  1        4 0.21721648E+00 0.89953932E+03</pdfrwt>
<totfact> 0.61521022E+01</totfact>
</mgrwt>
</event>
<event>
 6    1  0.1375310E-005  0.9811994E+03  0.7818608E-02  0.1006507E+00
          4   -1    0    0  502    0 -0.00000000000E+00  0.00000000000E+00  0.14194473876E+04  0.14194473876E+04  0.00000000000E+00 0.  1.
         21   -1    0    0  501  502  0.00000000000E+00 -0.00000000000E+00 -0.22461969119E+03  0.22461969119E+03  0.00000000000E+00 0.  1.
    9000010    2    1    2  501    0 -0.23330278909E+02  0.79461490607E+02  0.87827153594E+03  0.13168572924E+04  0.97769821895E+03 0.  0.
        -13    1    3    3    0    0  0.41069598888E+03 -0.11499775079E+03  0.16024072743E+03  0.45560155823E+03  0.10566000000E+00 0.  1.
          4    1    3    3  501    0 -0.43402626779E+03  0.19445924140E+03  0.71803080852E+03  0.86125573419E+03  0.00000000000E+00 0.  1.
         13    1    1    2    0    0  0.23330278909E+02 -0.79461490607E+02  0.31655616044E+03  0.32720978634E+03  0.10566000000E+00 0. -1.
<mgrwt>
<rscale>  1 0.52886659E+03</rscale>
<asrwt>0</asrwt>
<pdfrwt beam="2">  1       21 0.34556876E-01 0.98119939E+03</pdfrwt>
<pdfrwt beam="1">  1        4 0.21837652E+00 0.98119939E+03</pdfrwt>
<totfact> 0.32755602E+01</totfact>
</mgrwt>
</event>
<event>
 6    1  0.1375310E-005  0.1004274E+04  0.7818608E-02  0.9636539E-01
         21   -1    0    0  501  502  0.00000000000E+00  0.00000000000E+00  0.24407896744E+03  0.24407896744E+03  0.00000000000E+00 0.  1.
          4   -1    0    0  502    0 -0.00000000000E+00 -0.00000000000E+00 -0.18277601620E+04  0.18277601620E+04  0.00000000000E+00 0.  1.
    9000010    2    1    2  501    0  0.22829117120E+03 -0.21137953400E+03 -0.10420964666E+04  0.14472495082E+04  0.95486539733E+03 0.  0.
        -13    1    3    3    0    0  0.16487550885E+03 -0.12825812840E+03 -0.12217014263E+04  0.12394307028E+04  0.10566000000E+00 0.  1.
          4    1    3    3  501    0  0.63415662354E+02 -0.83121405599E+02  0.17960495973E+03  0.20781880535E+03  0.00000000000E+00 0.  1.
         13    1    1    2    0    0 -0.22829117120E+03  0.21137953400E+03 -0.54158472804E+03  0.62458962131E+03  0.10566000000E+00 0. -1.
<mgrwt>
<rscale>  1 0.74924272E+03</rscale>
<asrwt>0</asrwt>
<pdfrwt beam="1">  1       21 0.37550611E-01 0.10042739E+04</pdfrwt>
<pdfrwt beam="2">  1        4 0.28119387E+00 0.10042739E+04</pdfrwt>
<totfact> 0.11199403E+01</totfact>
</mgrwt>
</event>
<event>
 6    1  0.1375310E-005  0.1252964E+04  0.7818608E-02  0.9201949E-01
         21   -1    0    0  501  502  0.00000000000E+00  0.00000000000E+00  0.13977542947E+04  0.13977542947E+04  0.00000000000E+00 0. -1.
          4   -1    0    0  502    0 -0.00000000000E+00 -0.00000000000E+00 -0.83063600435E+03  0.83063600435E+03  0.00000000000E+00 0.  1.
    9000010    2    1    2  501    0  0.34212574172E+03  0.67120958356E+03 -0.50840375667E+02  0.12539954857E+04  0.10011731150E+04 0.  0.
        -13    1    3    3    0    0  0.39305707773E+03 -0.13232478307E+03  0.11829761481E+03  0.43127491395E+03  0.10566000000E+00 0.  1.
          4    1    3    3  501    0 -0.50931336011E+02  0.80353436663E+03 -0.16913799047E+03  0.82272057174E+03  0.00000000000E+00 0.  1.
         13    1    1    2    0    0 -0.34212574172E+03 -0.67120958356E+03  0.61795866599E+03  0.97439481333E+03  0.10566000000E+00 0. -1.
<mgrwt>
<rscale>  1 0.11033334E+04</rscale>
<asrwt>0</asrwt>
<pdfrwt beam="1">  1       21 0.21503912E+00 0.12529645E+04</pdfrwt>
<pdfrwt beam="2">  1        4 0.12779015E+00 0.12529645E+04</pdfrwt>
<totfact> 0.15541059E+00</totfact>
</mgrwt>
</event>
<event>
 6    1  0.1375310E-005  0.1013687E+04  0.7818608E-02  0.9855995E-01
          4   -1    0    0  502    0 -0.00000000000E+00  0.00000000000E+00  0.81080422945E+03  0.81080422945E+03  0.00000000000E+00 0.  1.
         21   -1    0    0  501  502  0.00000000000E+00 -0.00000000000E+00 -0.45410299631E+03  0.45410299631E+03  0.00000000000E+00 0.  1.
    9000010    2    1    2  501    0  0.11827574454E+03  0.85509432504E+02  0.16986118440E+03  0.10278202591E+04  0.10031254399E+04 0.  0.
        -13    1    3    3    0    0 -0.28205438382E+03  0.12291058710E+03 -0.28593646512E+03  0.42002542911E+03  0.10566000000E+00 0.  1.
          4    1    3    3  501    0  0.40033012835E+03 -0.37401154596E+02  0.45579764953E+03  0.60779482998E+03  0.00000000000E+00 0.  1.
         13    1    1    2    0    0 -0.11827574454E+03 -0.85509432504E+02  0.18684004873E+03  0.23708696667E+03  0.10566000000E+00 0. -1.
<mgrwt>
<rscale>  1 0.62442175E+03</rscale>
<asrwt>0</asrwt>
<pdfrwt beam="2">  1       21 0.69861999E-01 0.10136872E+04</pdfrwt>
<pdfrwt beam="1">  1        4 0.12473911E+00 0.10136872E+04</pdfrwt>
<totfact> 0.34487145E+01</totfact>
</mgrwt>
</event>
<event>
 6    1  0.1375310E-005  0.1054340E+04  0.7818608E-02  0.9611684E-01
          4   -1    0    0  502    0 -0.00000000000E+00  0.00000000000E+00  0.49713608372E+03  0.49713608372E+03  0.00000000000E+00 0.  1.
         21   -1    0    0  501  502  0.00000000000E+00 -0.00000000000E+00 -0.92761392523E+03  0.92761392523E+03  0.00000000000E+00 0.  1.
    9000010    2    1    2  501    0 -0.41196263728E+02  0.28972488125E+03 -0.41048530848E+03  0.11314287661E+04  0.10129142241E+04 0.  0.
        -13    1    3    3    0    0  0.28044588156E+03  0.31513811448E+03  0.17991559765E+03  0.45861918530E+03  0.10566000000E+00 0.  1.
          4    1    3    3  501    0 -0.32164214529E+03 -0.25413233228E+02 -0.59040090614E+03  0.67280958080E+03  0.00000000000E+00 0.  1.
         13    1    1    2    0    0  0.41196263728E+02 -0.28972488125E+03 -0.19992533027E+02  0.29332124284E+03  0.10566000000E+00 0. -1.
<mgrwt>
<rscale>  1 0.76527691E+03</rscale>
<asrwt>0</asrwt>
<pdfrwt beam="2">  1       21 0.14270983E+00 0.10543400E+04</pdfrwt>
<pdfrwt beam="1">  1        4 0.76482475E-01 0.10543400E+04</pdfrwt>
<totfact> 0.18794939E+01</totfact>
</mgrwt>
</event>
<event>
 6    1  0.1375310E-005  0.1006086E+04  0.7818608E-02  0.9869678E-01
          4   -1    0    0  502    0 -0.00000000000E+00  0.00000000000E+00  0.77772246221E+03  0.77772246221E+03  0.00000000000E+00 0.  1.
         21   -1    0    0  501  502  0.00000000000E+00 -0.00000000000E+00 -0.43307696549E+03  0.43307696549E+03  0.00000000000E+00 0.  1.
    9000010    2    1    2  501    0  0.52259047557E+02 -0.13289923962E+03  0.24157219517E+03  0.10346820447E+04  0.99589989064E+03 0.  0.
        -13    1    3    3    0    0  0.37057274644E+03 -0.36837855536E+03 -0.74821562958E+02  0.52784959780E+03  0.10566000000E+00 0.  1.
          4    1    3    3  501    0 -0.31831369888E+03  0.23547931574E+03  0.31639375812E+03  0.50683244688E+03  0.00000000000E+00 0.  1.
         13    1    1    2    0    0 -0.52259047557E+02  0.13289923962E+03  0.10307330155E+03  0.17611738302E+03  0.10566000000E+00 0. -1.
<mgrwt>
<rscale>  1 0.61753588E+03</rscale>
<asrwt>0</asrwt>
<pdfrwt beam="2">  1       21 0.66627226E-01 0.10060864E+04</pdfrwt>
<pdfrwt beam="1">  1        4 0.11964961E+00 0.10060864E+04</pdfrwt>
<totfact> 0.42731228E+01</totfact>
</mgrwt>
</event>
<event>
 6    1  0.1375310E-005  0.1002802E+04  0.7818608E-02  0.9800569E-01
         21   -1    0    0  501  502  0.00000000000E+00  0.00000000000E+00  0.11249777547E+04  0.11249777547E+04  0.00000000000E+00 0.  1.
          4   -1    0    0  502    0 -0.00000000000E+00 -0.00000000000E+00 -0.31799970683E+03  0.31799970683E+03  0.00000000000E+00 0.  1.
    9000010    2    1    2  501    0 -0.17615832649E+03 -0.40072072996E+02  0.75421405766E+03  0.12547712532E+04  0.98639471107E+03 0.  0.
        -13    1    3    3    0    0  0.37655083456E+03 -0.94427501724E+02  0.52738457434E+03  0.65485997321E+03  0.10566000000E+00 0.  1.
          4    1    3    3  501    0 -0.55270916106E+03  0.54355428727E+02  0.22682948332E+03  0.59991127998E+03  0.00000000000E+00 0.  1.
         13    1    1    2    0    0  0.17615832649E+03  0.40072072996E+02  0.52763990207E+02  0.18820620833E+03  0.10566000000E+00 0. -1.
<mgrwt>
<rscale>  1 0.65332022E+03</rscale>
<asrwt>0</asrwt>
<pdfrwt beam="1">  1       21 0.17307350E+00 0.10028021E+04</pdfrwt>
<pdfrwt beam="2">  1        4 0.48923032E-01 0.10028021E+04</pdfrwt>
<totfact> 0.29029744E+01</totfact>
</mgrwt>
</event>
<event>
 6    1  0.1375310E-005  0.1020220E+04  0.7818608E-02  0.9702249E-01
          4   -1    0    0  502    0 -0.00000000000E+00  0.00000000000E+00  0.47588103406E+03  0.47588103406E+03  0.00000000000E+00 0.  1.
         21   -1    0    0  501  502  0.00000000000E+00 -0.00000000000E+00 -0.12171566648E+04  0.12171566648E+04  0.00000000000E+00 0.  1.
    9000010    2    1    2  501    0 -0.82417486741E+02 -0.22298884198E+03 -0.93691449928E+03  0.13851558322E+04  0.99213468577E+03 0.  0.
        -13    1    3    3    0    0  0.21211227415E+03  0.16226392949E+03  0.62522604354E+02  0.27428140089E+03  0.10566000000E+00 0.  1.
          4    1    3    3  501    0 -0.29452976089E+03 -0.38525277147E+03 -0.99943710363E+03  0.11108744313E+04  0.00000000000E+00 0.  1.
         13    1    1    2    0    0  0.82417486741E+02  0.22298884198E+03  0.19563886855E+03  0.30788186666E+03  0.10566000000E+00 0. -1.
<mgrwt>
<rscale>  1 0.70883035E+03</rscale>
<asrwt>0</asrwt>
<pdfrwt beam="2">  1       21 0.18725487E+00 0.10202195E+04</pdfrwt>
<pdfrwt beam="1">  1        4 0.73212466E-01 0.10202195E+04</pdfrwt>
<totfact> 0.94975555E+00</totfact>
</mgrwt>
</event>
<event>
 6    1  0.1375310E-005  0.9942206E+03  0.7818608E-02  0.9817374E-01
         21   -1    0    0  501  502  0.00000000000E+00  0.00000000000E+00  0.59500294766E+03  0.59500294766E+03  0.00000000000E+00 0.  1.
          4   -1    0    0  502    0 -0.00000000000E+00 -0.00000000000E+00 -0.64726476744E+03  0.64726476744E+03  0.00000000000E+00 0.  1.
    9000010    2    1    2  501    0  0.11359648520E+02  0.17507313514E+03  0.11378150919E+03  0.10007101805E+04  0.97861891933E+03 0.  0.
        -13    1    3    3    0    0  0.77134435477E+01  0.34501418695E+03 -0.35919806306E+03  0.49811398904E+03  0.10566000000E+00 0.  1.
          4    1    3    3  501    0  0.36462049727E+01 -0.16994105182E+03  0.47297957225E+03  0.50259619146E+03  0.00000000000E+00 0.  1.
         13    1    1    2    0    0 -0.11359648520E+02 -0.17507313514E+03 -0.16604332898E+03  0.24155753460E+03  0.10566000000E+00 0. -1.
<mgrwt>
<rscale>  1 0.64438444E+03</rscale>
<asrwt>0</asrwt>
<pdfrwt beam="1">  1       21 0.91538916E-01 0.99422062E+03</pdfrwt>
<pdfrwt beam="2">  1        4 0.99579194E-01 0.99422062E+03</pdfrwt>
<totfact> 0.31915336E+01</totfact>
</mgrwt>
</event>
<event>
 6    1  0.1375310E-005  0.1110106E+04  0.7818608E-02  0.9426897E-01
         21   -1    0    0  501  502  0.00000000000E+00  0.00000000000E+00  0.10271248118E+04  0.10271248118E+04  0.00000000000E+00 0.  1.
          4   -1    0    0  502    0 -0.00000000000E+00 -0.00000000000E+00 -0.63819741280E+03  0.63819741280E+03  0.00000000000E+00 0.  1.
    9000010    2    1    2  501    0 -0.15611795697E+03  0.45110898937E+03  0.42012074918E+03  0.11869445777E+04  0.10022294397E+04 0.  0.
        -13    1    3    3    0    0  0.38887262068E+03  0.18444272558E+03  0.38782438164E+03  0.57935204866E+03  0.10566000000E+00 0.  1.
          4    1    3    3  501    0 -0.54499057765E+03  0.26666626378E+03  0.32296367546E+02  0.60759252902E+03  0.00000000000E+00 0.  1.
         13    1    1    2    0    0  0.15611795697E+03 -0.45110898937E+03 -0.31193350206E+02  0.47837764688E+03  0.10566000000E+00 0. -1.
<mgrwt>
<rscale>  1 0.89894854E+03</rscale>
<asrwt>0</asrwt>
<pdfrwt beam="1">  1       21 0.15801920E+00 0.11101063E+04</pdfrwt>
<pdfrwt beam="2">  1        4 0.98184217E-01 0.11101063E+04</pdfrwt>
<totfact> 0.78346461E+00</totfact>
</mgrwt>
</event>
<event>
 6    1  0.1375310E-005  0.1026977E+04  0.7818608E-02  0.9712670E-01
         21   -1    0    0  501  502  0.00000000000E+00  0.00000000000E+00  0.15282745551E+04  0.15282745551E+04  0.00000000000E+00 0.  1.
          4   -1    0    0  502    0 -0.00000000000E+00 -0.00000000000E+00 -0.32842817055E+03  0.32842817055E+03  0.00000000000E+00 0.  1.
    9000010    2    1    2  501    0 -0.11500511229E+03  0.19347913720E+03  0.12582661561E+04  0.16241662054E+04  0.10020088777E+04 0.  0.
        -13    1    3    3    0    0 -0.53606146255E+03  0.93188859342E+02  0.94290321365E+03  0.10886287414E+04  0.10566000000E+00 0.  1.
          4    1    3    3  501    0  0.42105635027E+03  0.10029027786E+03  0.31536294240E+03  0.53553746402E+03  0.00000000000E+00 0.  1.
         13    1    1    2    0    0  0.11500511229E+03 -0.19347913720E+03 -0.58419771478E+02  0.23253652024E+03  0.10566000000E+00 0. -1.
<mgrwt>
<rscale>  1 0.70267441E+03</rscale>
<asrwt>0</asrwt>
<pdfrwt beam="1">  1       21 0.23511916E+00 0.10269772E+04</pdfrwt>
<pdfrwt beam="2">  1        4 0.50527412E-01 0.10269772E+04</pdfrwt>
<totfact> 0.10147532E+01</totfact>
</mgrwt>
</event>
<event>
 6    1  0.1375310E-005  0.1004992E+04  0.7818608E-02  0.9964480E-01
         21   -1    0    0  501  502  0.00000000000E+00  0.00000000000E+00  0.83707029363E+03  0.83707029363E+03  0.00000000000E+00 0.  1.
          4   -1    0    0  502    0 -0.00000000000E+00 -0.00000000000E+00 -0.41599706861E+03  0.41599706861E+03  0.00000000000E+00 0.  1.
    9000010    2    1    2  501    0  0.93778044440E+02 -0.48819039000E+02  0.49868289981E+03  0.11219151874E+04  0.99941554566E+03 0.  0.
        -13    1    3    3    0    0 -0.30300074576E+03  0.15923386958E+03 -0.11588694912E+03  0.36137885009E+03  0.10566000000E+00 0.  1.
          4    1    3    3  501    0  0.39677879020E+03 -0.20805290858E+03  0.61456984893E+03  0.76053633729E+03  0.00000000000E+00 0.  1.
         13    1    1    2    0    0 -0.93778044440E+02  0.48819039000E+02 -0.77609674791E+02  0.13115217487E+03  0.10566000000E+00 0. -1.
<mgrwt>
<rscale>  1 0.57235529E+03</rscale>
<asrwt>0</asrwt>
<pdfrwt beam="1">  1       21 0.12878005E+00 0.10049921E+04</pdfrwt>
<pdfrwt beam="2">  1        4 0.63999549E-01 0.10049921E+04</pdfrwt>
<totfact> 0.37131645E+01</totfact>
</mgrwt>
</event>
<event>
 6    1  0.1375310E-005  0.7260307E+03  0.7818608E-02  0.1066060E+00
         21   -1    0    0  501  502  0.00000000000E+00  0.00000000000E+00  0.19802223203E+03  0.19802223203E+03  0.00000000000E+00 0.  1.
          4   -1    0    0  502    0 -0.00000000000E+00 -0.00000000000E+00 -0.73300014208E+03  0.73300014208E+03  0.00000000000E+00 0.  1.
    9000010    2    1    2  501    0  0.35076456230E+02 -0.62879862472E+01 -0.51533109520E+03  0.89032956085E+03  0.72515563343E+03 0.  0.
        -13    1    3    3    0    0  0.19635597783E+03  0.31059114099E+03 -0.22134140849E+03  0.42896917974E+03  0.10566000000E+00 0.  1.
          4    1    3    3  501    0 -0.16127952160E+03 -0.31687912724E+03 -0.29398968671E+03  0.46136038111E+03  0.00000000000E+00 0.  1.
         13    1    1    2    0    0 -0.35076456230E+02  0.62879862472E+01 -0.19646814854E+02  0.40692813255E+02  0.10566000000E+00 0. -1.
<mgrwt>
<rscale>  1 0.34173371E+03</rscale>
<asrwt>0</asrwt>
<pdfrwt beam="1">  1       21 0.30464960E-01 0.72603071E+03</pdfrwt>
<pdfrwt beam="2">  1        4 0.11276925E+00 0.72603071E+03</pdfrwt>
<totfact> 0.26719343E+02</totfact>
</mgrwt>
</event>
<event>
 6    1  0.1375310E-005  0.1035005E+04  0.7818608E-02  0.9794725E-01
          4   -1    0    0  502    0 -0.00000000000E+00  0.00000000000E+00  0.63891495488E+03  0.63891495488E+03  0.00000000000E+00 0.  1.
         21   -1    0    0  501  502  0.00000000000E+00 -0.00000000000E+00 -0.77809523260E+03  0.77809523260E+03  0.00000000000E+00 0.  1.
    9000010    2    1    2  501    0  0.90080650538E+01  0.16725789480E+03 -0.39785530193E+03  0.11088395725E+04  0.10213618398E+04 0.  0.
        -13    1    3    3    0    0  0.38461383440E+03 -0.21078038385E+03  0.85172591989E+01  0.43866698838E+03  0.10566000000E+00 0.  1.
          4    1    3    3  501    0 -0.37560576934E+03  0.37803827865E+03 -0.40637256113E+03  0.67017258414E+03  0.00000000000E+00 0.  1.
         13    1    1    2    0    0 -0.90080650538E+01 -0.16725789480E+03  0.25867502422E+03  0.30817061496E+03  0.10566000000E+00 0. -1.
<mgrwt>
<rscale>  1 0.65646398E+03</rscale>
<asrwt>0</asrwt>
<pdfrwt beam="2">  1       21 0.11970696E+00 0.10350055E+04</pdfrwt>
<pdfrwt beam="1">  1        4 0.98294609E-01 0.10350055E+04</pdfrwt>
<totfact> 0.16744558E+01</totfact>
</mgrwt>
</event>
<event>
 6    1  0.1375310E-005  0.1102947E+04  0.7818608E-02  0.9407367E-01
         21   -1    0    0  501  502  0.00000000000E+00  0.00000000000E+00  0.28983005572E+04  0.28983005572E+04  0.00000000000E+00 0.  1.
          4   -1    0    0  502    0 -0.00000000000E+00 -0.00000000000E+00 -0.36409027894E+03  0.36409027894E+03  0.00000000000E+00 0.  1.
    9000010    2    1    2  501    0  0.59567166267E+01 -0.52174429683E+03  0.25081677515E+04  0.27399630247E+04  0.97171977121E+03 0.  0.
        -13    1    3    3    0    0  0.25254407839E+03 -0.87449120021E+01  0.18611122630E+04  0.18781889818E+04  0.10566000000E+00 0.  1.
          4    1    3    3  501    0 -0.24658736177E+03 -0.51299938483E+03  0.64705548850E+03  0.86177404290E+03  0.00000000000E+00 0.  1.
         13    1    1    2    0    0 -0.59567166267E+01  0.52174429683E+03  0.26042526802E+02  0.52242781139E+03  0.10566000000E+00 0. -1.
<mgrwt>
<rscale>  1 0.91471850E+03</rscale>
<asrwt>0</asrwt>
<pdfrwt beam="1">  1       21 0.44589238E+00 0.11029469E+04</pdfrwt>
<pdfrwt beam="2">  1        4 0.56013891E-01 0.11029469E+04</pdfrwt>
<totfact> 0.35679213E-01</totfact>
</mgrwt>
</event>
<event>
 6    1  0.1375310E-005  0.1061247E+04  0.7818608E-02  0.9554270E-01
          4   -1    0    0  502    0 -0.00000000000E+00  0.00000000000E+00  0.12927325906E+04  0.12927325906E+04  0.00000000000E+00 0.  1.
         21   -1    0    0  501  502  0.00000000000E+00 -0.00000000000E+00 -0.38808730055E+03  0.38808730055E+03  0.00000000000E+00 0.  1.
    9000010    2    1    2  501    0  0.31725493618E+03 -0.14680084114E+03  0.61302336607E+03  0.12255787032E+04  0.10020201240E+04 0.  0.
        -13    1    3    3    0    0  0.24498512107E+03  0.16626595262E+03 -0.19600952215E+03  0.35508001983E+03  0.10566000000E+00 0.  1.
          4    1    3    3  501    0  0.72269815115E+02 -0.31306679376E+03  0.80903288822E+03  0.87049868337E+03  0.00000000000E+00 0.  1.
         13    1    1    2    0    0 -0.31725493618E+03  0.14680084114E+03  0.29162192397E+03  0.45524118794E+03  0.10566000000E+00 0. -1.
<mgrwt>
<rscale>  1 0.80398294E+03</rscale>
<asrwt>0</asrwt>
<pdfrwt beam="2">  1       21 0.59705739E-01 0.10612471E+04</pdfrwt>
<pdfrwt beam="1">  1        4 0.19888194E+00 0.10612471E+04</pdfrwt>
<totfact> 0.13542731E+01</totfact>
</mgrwt>
</event>
<event>
 6    1  0.1375310E-005  0.1045911E+04  0.7818608E-02  0.9603526E-01
         21   -1    0    0  501  502  0.00000000000E+00  0.00000000000E+00  0.80342430884E+03  0.80342430884E+03  0.00000000000E+00 0. -1.
          4   -1    0    0  502    0 -0.00000000000E+00 -0.00000000000E+00 -0.57511342506E+03  0.57511342506E+03  0.00000000000E+00 0.  1.
    9000010    2    1    2  501    0  0.27881550913E+03 -0.13145772151E+03  0.22710675140E+03  0.10702834853E+04  0.99945487228E+03 0.  0.
        -13    1    3    3    0    0  0.52864971879E+03 -0.60723960124E+02  0.47352862031E+03  0.71231123108E+03  0.10566000000E+00 0.  1.
          4    1    3    3  501    0 -0.24983420966E+03 -0.70733761386E+02 -0.24642186891E+03  0.35797225423E+03  0.00000000000E+00 0.  1.
         13    1    1    2    0    0 -0.27881550913E+03  0.13145772151E+03  0.12041323889E+01  0.30825424859E+03  0.10566000000E+00 0. -1.
<mgrwt>
<rscale>  1 0.77063265E+03</rscale>
<asrwt>0</asrwt>
<pdfrwt beam="1">  1       21 0.12360374E+00 0.10459107E+04</pdfrwt>
<pdfrwt beam="2">  1        4 0.88478988E-01 0.10459107E+04</pdfrwt>
<totfact> 0.19741993E+01</totfact>
</mgrwt>
</event>
<event>
 6    1  0.1375310E-005  0.1034757E+04  0.7818608E-02  0.9893953E-01
          4   -1    0    0  502    0 -0.00000000000E+00  0.00000000000E+00  0.37570282012E+03  0.37570282012E+03  0.00000000000E+00 0.  1.
         21   -1    0    0  501  502  0.00000000000E+00 -0.00000000000E+00 -0.96563988121E+03  0.96563988121E+03  0.00000000000E+00 0.  1.
    9000010    2    1    2  501    0  0.45176624861E+02  0.11264311946E+03 -0.63246997599E+03  0.12127407581E+04  0.10276149454E+04 0.  0.
        -13    1    3    3    0    0  0.48527006616E+03  0.26597673451E+03 -0.44616938468E+03  0.71084301460E+03  0.10566000000E+00 0.  1.
          4    1    3    3  501    0 -0.44009344130E+03 -0.15333361504E+03 -0.18630059131E+03  0.50189774347E+03  0.00000000000E+00 0.  1.
         13    1    1    2    0    0 -0.45176624861E+02 -0.11264311946E+03  0.42532914908E+02  0.12860194326E+03  0.10566000000E+00 0. -1.
<mgrwt>
<rscale>  1 0.60555267E+03</rscale>
<asrwt>0</asrwt>
<pdfrwt beam="2">  1       21 0.14855998E+00 0.10347569E+04</pdfrwt>
<pdfrwt beam="1">  1        4 0.57800434E-01 0.10347569E+04</pdfrwt>
<totfact> 0.31388519E+01</totfact>
</mgrwt>
</event>
<event>
 6    1  0.1375310E-005  0.1020964E+04  0.7818608E-02  0.9843253E-01
         21   -1    0    0  501  502  0.00000000000E+00  0.00000000000E+00  0.72615648614E+03  0.72615648614E+03  0.00000000000E+00 0.  1.
          4   -1    0    0  502    0 -0.00000000000E+00 -0.00000000000E+00 -0.49455763654E+03  0.49455763654E+03  0.00000000000E+00 0.  1.
    9000010    2    1    2  501    0  0.69878067893E+01  0.14872695199E+03  0.28909837040E+03  0.10611060347E+04  0.10100493124E+04 0.  0.
        -13    1    3    3    0    0 -0.37719846905E+03 -0.35309061750E+02 -0.18680063107E+03  0.42239780045E+03  0.10566000000E+00 0.  1.
          4    1    3    3  501    0  0.38418627584E+03  0.18403601374E+03  0.47589900147E+03  0.63870823425E+03  0.00000000000E+00 0.  1.
         13    1    1    2    0    0 -0.69878067893E+01 -0.14872695199E+03 -0.57499520800E+02  0.15960808798E+03  0.10566000000E+00 0. -1.
<mgrwt>
<rscale>  1 0.63092114E+03</rscale>
<asrwt>0</asrwt>
<pdfrwt beam="1">  1       21 0.11171638E+00 0.10209643E+04</pdfrwt>
<pdfrwt beam="2">  1        4 0.76085791E-01 0.10209643E+04</pdfrwt>
<totfact> 0.36402861E+01</totfact>
</mgrwt>
</event>
<event>
 6    1  0.1375310E-005  0.1006676E+04  0.7818608E-02  0.1010680E+00
         21   -1    0    0  501  502  0.00000000000E+00  0.00000000000E+00  0.21389357890E+04  0.21389357890E+04  0.00000000000E+00 0.  1.
          4   -1    0    0  502    0 -0.00000000000E+00 -0.00000000000E+00 -0.13493521964E+03  0.13493521964E+03  0.00000000000E+00 0.  1.
    9000010    2    1    2  501    0  0.24176896342E+02 -0.62902635849E+02  0.18625898627E+04  0.21172240711E+04  0.10044179941E+04 0.  0.
        -13    1    3    3    0    0 -0.29585192011E+03 -0.27481143271E+03  0.16048974400E+04  0.16549155526E+04  0.10566000000E+00 0.  1.
          4    1    3    3  501    0  0.32002881645E+03  0.21190879686E+03  0.25769242262E+03  0.46230851844E+03  0.00000000000E+00 0.  1.
         13    1    1    2    0    0 -0.24176896342E+02  0.62902635849E+02  0.14141070667E+03  0.15664693754E+03  0.10566000000E+00 0. -1.
<mgrwt>
<rscale>  1 0.51205263E+03</rscale>
<asrwt>0</asrwt>
<pdfrwt beam="1">  1       21 0.32906702E+00 0.10066761E+04</pdfrwt>
<pdfrwt beam="2">  1        4 0.20759266E-01 0.10066761E+04</pdfrwt>
<totfact> 0.15282717E+01</totfact>
</mgrwt>
</event>
<event>
 6    1  0.1375310E-005  0.1020037E+04  0.7818608E-02  0.1002298E+00
         21   -1    0    0  501  502  0.00000000000E+00  0.00000000000E+00  0.93004221350E+03  0.93004221350E+03  0.00000000000E+00 0.  1.
          4   -1    0    0  502    0 -0.00000000000E+00 -0.00000000000E+00 -0.36134926589E+03  0.36134926589E+03  0.00000000000E+00 0.  1.
    9000010    2    1    2  501    0 -0.79357547277E+02 -0.27748089735E+02  0.61924916835E+03  0.11932919411E+04  0.10165670403E+04 0.  0.
        -13    1    3    3    0    0  0.25044324239E+03  0.59575883976E+02 -0.18676699710E+03  0.31804563506E+03  0.10566000000E+00 0.  1.
          4    1    3    3  501    0 -0.32980078967E+03 -0.87323973710E+02  0.80601616545E+03  0.87524630603E+03  0.00000000000E+00 0.  1.
         13    1    1    2    0    0  0.79357547277E+02  0.27748089735E+02 -0.50556220750E+02  0.98099538298E+02  0.10566000000E+00 0. -1.
<mgrwt>
<rscale>  1 0.54653874E+03</rscale>
<asrwt>0</asrwt>
<pdfrwt beam="1">  1       21 0.14308342E+00 0.10200373E+04</pdfrwt>
<pdfrwt beam="2">  1        4 0.55592195E-01 0.10200373E+04</pdfrwt>
<totfact> 0.37928166E+01</totfact>
</mgrwt>
</event>
<event>
 6    1  0.1375310E-005  0.1127240E+04  0.7818608E-02  0.9674190E-01
          4   -1    0    0  502    0 -0.00000000000E+00  0.00000000000E+00  0.67020460118E+03  0.67020460118E+03  0.00000000000E+00 0.  1.
         21   -1    0    0  501  502  0.00000000000E+00 -0.00000000000E+00 -0.70291984983E+03  0.70291984983E+03  0.00000000000E+00 0.  1.
    9000010    2    1    2  501    0 -0.48221077670E+02 -0.18758276906E+03 -0.16404781114E+03  0.11391141506E+04  0.11104759322E+04 0.  0.
        -13    1    3    3    0    0 -0.49849300009E+03 -0.33815438933E+03 -0.25771888112E+03  0.65518142145E+03  0.10566000000E+00 0.  1.
          4    1    3    3  501    0  0.45027192242E+03  0.15057162027E+03  0.93671069981E+02  0.48393272911E+03  0.00000000000E+00 0.  1.
         13    1    1    2    0    0  0.48221077670E+02  0.18758276906E+03  0.13133256250E+03  0.23401030045E+03  0.10566000000E+00 0. -1.
<mgrwt>
<rscale>  1 0.72574545E+03</rscale>
<asrwt>0</asrwt>
<pdfrwt beam="2">  1       21 0.10814151E+00 0.11272397E+04</pdfrwt>
<pdfrwt beam="1">  1        4 0.10310840E+00 0.11272397E+04</pdfrwt>
<totfact> 0.19170174E+01</totfact>
</mgrwt>
</event>
<event>
 6    1  0.1375310E-005  0.1015831E+04  0.7818608E-02  0.9770404E-01
         21   -1    0    0  501  502  0.00000000000E+00  0.00000000000E+00  0.47540127446E+03  0.47540127446E+03  0.00000000000E+00 0.  1.
          4   -1    0    0  502    0 -0.00000000000E+00 -0.00000000000E+00 -0.11465409001E+04  0.11465409001E+04  0.00000000000E+00 0.  1.
    9000010    2    1    2  501    0  0.15138759732E+03  0.11801538707E+03 -0.10156879093E+03  0.10208957678E+04  0.99753000613E+03 0.  0.
        -13    1    3    3    0    0 -0.13832393070E+03 -0.47674030268E+02 -0.48848545389E+03  0.50992585029E+03  0.10566000000E+00 0.  1.
          4    1    3    3  501    0  0.28971152801E+03  0.16568941734E+03  0.38691666296E+03  0.51096991747E+03  0.00000000000E+00 0.  1.
         13    1    1    2    0    0 -0.15138759732E+03 -0.11801538707E+03 -0.56957083469E+03  0.60104640678E+03  0.10566000000E+00 0. -1.
<mgrwt>
<rscale>  1 0.66975283E+03</rscale>
<asrwt>0</asrwt>
<pdfrwt beam="1">  1       21 0.73138659E-01 0.10158307E+04</pdfrwt>
<pdfrwt beam="2">  1        4 0.17639090E+00 0.10158307E+04</pdfrwt>
<totfact> 0.12233984E+01</totfact>
</mgrwt>
</event>
<event>
 6    1  0.1375310E-005  0.1080108E+04  0.7818608E-02  0.9493509E-01
         21   -1    0    0  501  502  0.00000000000E+00  0.00000000000E+00  0.30106818115E+03  0.30106818115E+03  0.00000000000E+00 0.  1.
          4   -1    0    0  502    0 -0.00000000000E+00 -0.00000000000E+00 -0.19451411079E+04  0.19451411079E+04  0.00000000000E+00 0.  1.
    9000010    2    1    2  501    0  0.39869287737E+03  0.94248451649E+02 -0.94117858173E+03  0.14326373792E+04  0.99939679630E+03 0.  0.
        -13    1    3    3    0    0  0.55648660822E+03  0.36620590129E+03 -0.32576766154E+03  0.74155828343E+03  0.10566000000E+00 0.  1.
          4    1    3    3  501    0 -0.15779373085E+03 -0.27195744964E+03 -0.61541092019E+03  0.69107909576E+03  0.00000000000E+00 0.  1.
         13    1    1    2    0    0 -0.39869287737E+03 -0.94248451649E+02 -0.70289434504E+03  0.81357190989E+03  0.10566000000E+00 0. -1.
<mgrwt>
<rscale>  1 0.84764080E+03</rscale>
<asrwt>0</asrwt>
<pdfrwt beam="1">  1       21 0.46318182E-01 0.10801077E+04</pdfrwt>
<pdfrwt beam="2">  1        4 0.29925248E+00 0.10801077E+04</pdfrwt>
<totfact> 0.55130288E+00</totfact>
</mgrwt>
</event>
<event>
 6    1  0.1375310E-005  0.9342594E+03  0.7818608E-02  0.9948036E-01
          4   -1    0    0  502    0 -0.00000000000E+00  0.00000000000E+00  0.79760676099E+03  0.79760676099E+03  0.00000000000E+00 0.  1.
         21   -1    0    0  501  502  0.00000000000E+00 -0.00000000000E+00 -0.58485842181E+03  0.58485842181E+03  0.00000000000E+00 0.  1.
    9000010    2    1    2  501    0  0.45645180482E+02  0.13093841237E+03 -0.19273003002E+03  0.95393155590E+03  0.92391135859E+03 0.  0.
        -13    1    3    3    0    0 -0.37030428688E+03  0.29433311006E+03 -0.18222938048E+03  0.50691695852E+03  0.10566000000E+00 0.  1.
          4    1    3    3  501    0  0.41594946736E+03 -0.16339469769E+03 -0.10500649544E+02  0.44701459738E+03  0.00000000000E+00 0.  1.
         13    1    1    2    0    0 -0.45645180482E+02 -0.13093841237E+03  0.40547836920E+03  0.42853362690E+03  0.10566000000E+00 0. -1.
<mgrwt>
<rscale>  1 0.57988701E+03</rscale>
<asrwt>0</asrwt>
<pdfrwt beam="2">  1       21 0.89978219E-01 0.93425936E+03</pdfrwt>
<pdfrwt beam="1">  1        4 0.12270873E+00 0.93425936E+03</pdfrwt>
<totfact> 0.19997057E+01</totfact>
</mgrwt>
</event>
<event>
 6    1  0.1375310E-005  0.1062542E+04  0.7818608E-02  0.9533875E-01
          4   -1    0    0  502    0 -0.00000000000E+00  0.00000000000E+00  0.21473854154E+03  0.21473854154E+03  0.00000000000E+00 0.  1.
         21   -1    0    0  501  502  0.00000000000E+00 -0.00000000000E+00 -0.24345285732E+04  0.24345285732E+04  0.00000000000E+00 0.  1.
    9000010    2    1    2  501    0  0.23876088651E+03  0.28762178279E+03 -0.17698404976E+04  0.20642990428E+04  0.99461655937E+03 0.  0.
        -13    1    3    3    0    0  0.30562033756E+03  0.22719445164E+03 -0.18821575497E+04  0.19202963736E+04  0.10566000000E+00 0.  1.
          4    1    3    3  501    0 -0.66859451055E+02  0.60427331142E+02  0.11231705205E+03  0.14400266916E+03  0.00000000000E+00 0.  1.
         13    1    1    2    0    0 -0.23876088651E+03 -0.28762178279E+03 -0.44994953408E+03  0.58496807198E+03  0.10566000000E+00 0. -1.
<mgrwt>
<rscale>  1 0.81831766E+03</rscale>
<asrwt>0</asrwt>
<pdfrwt beam="2">  1       21 0.37454285E+00 0.10625418E+04</pdfrwt>
<pdfrwt beam="1">  1        4 0.33036700E-01 0.10625418E+04</pdfrwt>
<totfact> 0.31849061E+00</totfact>
</mgrwt>
</event>
<event>
 6    1  0.1375310E-005  0.1174894E+04  0.7818608E-02  0.9329911E-01
          4   -1    0    0  502    0 -0.00000000000E+00  0.00000000000E+00  0.47485722935E+03  0.47485722935E+03  0.00000000000E+00 0.  1.
         21   -1    0    0  501  502  0.00000000000E+00 -0.00000000000E+00 -0.18576283926E+04  0.18576283926E+04  0.00000000000E+00 0. -1.
    9000010    2    1    2  501    0  0.42959758942E+03  0.37535754984E+03 -0.13062591948E+04  0.17568976864E+04  0.10270973748E+04 0.  0.
        -13    1    3    3    0    0  0.33622479799E+03  0.21461732095E+03 -0.14613461892E+04  0.15148070521E+04  0.10566000000E+00 0.  1.
          4    1    3    3  501    0  0.93372791427E+02  0.16074022889E+03  0.15508699439E+03  0.24209063425E+03  0.00000000000E+00 0.  1.
         13    1    1    2    0    0 -0.42959758942E+03 -0.37535754984E+03 -0.76511968378E+02  0.57558793553E+03  0.10566000000E+00 0. -1.
<mgrwt>
<rscale>  1 0.98075193E+03</rscale>
<asrwt>0</asrwt>
<pdfrwt beam="2">  1       21 0.28578899E+00 0.11748942E+04</pdfrwt>
<pdfrwt beam="1">  1        4 0.73054958E-01 0.11748942E+04</pdfrwt>
<totfact> 0.21158008E+00</totfact>
</mgrwt>
</event>
<event>
 6    1  0.1375310E-005  0.1031633E+04  0.7818608E-02  0.9776389E-01
         21   -1    0    0  501  502  0.00000000000E+00  0.00000000000E+00  0.77579766290E+03  0.77579766290E+03  0.00000000000E+00 0.  1.
          4   -1    0    0  502    0 -0.00000000000E+00 -0.00000000000E+00 -0.47668024538E+03  0.47668024538E+03  0.00000000000E+00 0.  1.
    9000010    2    1    2  501    0 -0.14161326882E+03  0.11059197632E+03  0.29406852600E+03  0.10727269539E+04  0.10158651074E+04 0.  0.
        -13    1    3    3    0    0 -0.45407846629E+03  0.39042311049E+03  0.25692107732E+03  0.65163326334E+03  0.10566000000E+00 0.  1.
          4    1    3    3  501    0  0.31246519747E+03 -0.27983113417E+03  0.37147448682E+02  0.42109369055E+03  0.00000000000E+00 0.  1.
         13    1    1    2    0    0  0.14161326882E+03 -0.11059197632E+03  0.50488915154E+01  0.17975095438E+03  0.10566000000E+00 0. -1.
<mgrwt>
<rscale>  1 0.66645204E+03</rscale>
<asrwt>0</asrwt>
<pdfrwt beam="1">  1       21 0.11935349E+00 0.10316331E+04</pdfrwt>
<pdfrwt beam="2">  1        4 0.73335422E-01 0.10316331E+04</pdfrwt>
<totfact> 0.33375024E+01</totfact>
</mgrwt>
</event>
<event>
 6    1  0.1375310E-005  0.1008416E+04  0.7818608E-02  0.9826576E-01
         21   -1    0    0  501  502  0.00000000000E+00  0.00000000000E+00  0.53878291229E+03  0.53878291229E+03  0.00000000000E+00 0.  1.
          4   -1    0    0  502    0 -0.00000000000E+00 -0.00000000000E+00 -0.74985997866E+03  0.74985997866E+03  0.00000000000E+00 0.  1.
    9000010    2    1    2  501    0 -0.16131809705E+03 -0.24402359801E+02  0.16588846258E+02  0.10085522225E+04  0.99512983683E+03 0.  0.
        -13    1    3    3    0    0 -0.57155911698E+03  0.94333402160E+02 -0.22194972730E+02  0.57971651947E+03  0.10566000000E+00 0.  1.
          4    1    3    3  501    0  0.41024101993E+03 -0.11873576196E+03  0.38783818988E+02  0.42883570306E+03  0.00000000000E+00 0.  1.
         13    1    1    2    0    0  0.16131809705E+03  0.24402359801E+02 -0.22766591263E+03  0.28009066842E+03  0.10566000000E+00 0. -1.
<mgrwt>
<rscale>  1 0.63955621E+03</rscale>
<asrwt>0</asrwt>
<pdfrwt beam="1">  1       21 0.82889679E-01 0.10084158E+04</pdfrwt>
<pdfrwt beam="2">  1        4 0.11536307E+00 0.10084158E+04</pdfrwt>
<totfact> 0.28200371E+01</totfact>
</mgrwt>
</event>
<event>
 6    1  0.1375310E-005  0.1073614E+04  0.7818608E-02  0.9526304E-01
         21   -1    0    0  501  502  0.00000000000E+00  0.00000000000E+00  0.54108615129E+03  0.54108615129E+03  0.00000000000E+00 0. -1.
          4   -1    0    0  502    0 -0.00000000000E+00 -0.00000000000E+00 -0.97193436558E+03  0.97193436558E+03  0.00000000000E+00 0.  1.
    9000010    2    1    2  501    0  0.26588816412E+03  0.26020726969E+03 -0.37276853511E+03  0.11364868539E+04  0.10070956506E+04 0.  0.
        -13    1    3    3    0    0 -0.19789075720E+03 -0.18883562724E+03 -0.40661162635E+03  0.49005374374E+03  0.10566000000E+00 0.  1.
          4    1    3    3  501    0  0.46377892132E+03  0.44904289693E+03  0.33843091247E+02  0.64643311020E+03  0.00000000000E+00 0.  1.
         13    1    1    2    0    0 -0.26588816412E+03 -0.26020726969E+03 -0.58079679184E+02  0.37653366292E+03  0.10566000000E+00 0. -1.
<mgrwt>
<rscale>  1 0.82372026E+03</rscale>
<asrwt>0</asrwt>
<pdfrwt beam="1">  1       21 0.83244023E-01 0.10736135E+04</pdfrwt>
<pdfrwt beam="2">  1        4 0.14952836E+00 0.10736135E+04</pdfrwt>
<totfact> 0.14196579E+01</totfact>
</mgrwt>
</event>
<event>
 6    1  0.1375310E-005  0.9588334E+03  0.7818608E-02  0.9921045E-01
         21   -1    0    0  501  502  0.00000000000E+00  0.00000000000E+00  0.20125751098E+04  0.20125751098E+04  0.00000000000E+00 0.  1.
          4   -1    0    0  502    0 -0.00000000000E+00 -0.00000000000E+00 -0.19836187697E+03  0.19836187697E+03  0.00000000000E+00 0.  1.
    9000010    2    1    2  501    0  0.99871642017E+02  0.97861173764E+02  0.18341921758E+04  0.20696913726E+04  0.94858330463E+03 0.  0.
        -13    1    3    3    0    0 -0.17307771607E+03 -0.34225972221E+03  0.11455178707E+04  0.12080185497E+04  0.10566000000E+00 0.  1.
          4    1    3    3  501    0  0.27294935809E+03  0.44012089597E+03  0.68867430508E+03  0.86167282285E+03  0.00000000000E+00 0.  1.
         13    1    1    2    0    0 -0.99871642017E+02 -0.97861173764E+02 -0.19978942934E+02  0.14124561421E+03  0.10566000000E+00 0. -1.
<mgrwt>
<rscale>  1 0.59252126E+03</rscale>
<asrwt>0</asrwt>
<pdfrwt beam="1">  1       21 0.30962693E+00 0.95883337E+03</pdfrwt>
<pdfrwt beam="2">  1        4 0.30517213E-01 0.95883337E+03</pdfrwt>
<totfact> 0.97421193E+00</totfact>
</mgrwt>
</event>
<event>
 6    1  0.1375310E-005  0.1031564E+04  0.7818608E-02  0.9649198E-01
         21   -1    0    0  501  502  0.00000000000E+00  0.00000000000E+00  0.38554217446E+03  0.38554217446E+03  0.00000000000E+00 0.  1.
          4   -1    0    0  502    0 -0.00000000000E+00 -0.00000000000E+00 -0.12073784370E+04  0.12073784370E+04  0.00000000000E+00 0.  1.
    9000010    2    1    2  501    0 -0.12708893550E+03 -0.24387778300E+03 -0.43791536770E+03  0.11206672523E+04  0.99423199030E+03 0.  0.
        -13    1    3    3    0    0 -0.30458780605E+03 -0.17227478880E+02 -0.67950400728E+03  0.74484644370E+03  0.10566000000E+00 0.  1.
          4    1    3    3  501    0  0.17749887054E+03 -0.22665030412E+03  0.24158863958E+03  0.37582080860E+03  0.00000000000E+00 0.  1.
         13    1    1    2    0    0  0.12708893550E+03  0.24387778300E+03 -0.38392089483E+03  0.47225335914E+03  0.10566000000E+00 0. -1.
<mgrwt>
<rscale>  1 0.74123785E+03</rscale>
<asrwt>0</asrwt>
<pdfrwt beam="1">  1       21 0.59314181E-01 0.10315645E+04</pdfrwt>
<pdfrwt beam="2">  1        4 0.18575053E+00 0.10315645E+04</pdfrwt>
<totfact> 0.16906047E+01</totfact>
</mgrwt>
</event>
<event>
 6    1  0.1375310E-005  0.1009250E+04  0.7818608E-02  0.9779387E-01
         21   -1    0    0  501  502  0.00000000000E+00  0.00000000000E+00  0.25785690688E+03  0.25785690688E+03  0.00000000000E+00 0.  1.
          4   -1    0    0  502    0 -0.00000000000E+00 -0.00000000000E+00 -0.13953271106E+04  0.13953271106E+04  0.00000000000E+00 0.  1.
    9000010    2    1    2  501    0  0.19836770115E+02  0.18897448914E+03 -0.94149921172E+03  0.13802197417E+04  0.99120175277E+03 0.  0.
        -13    1    3    3    0    0 -0.43956354181E+03  0.23225261605E+03 -0.27079657155E+03  0.56611675410E+03  0.10566000000E+00 0.  1.
          4    1    3    3  501    0  0.45940031192E+03 -0.43278126911E+02 -0.67070264018E+03  0.81410298759E+03  0.00000000000E+00 0.  1.
         13    1    1    2    0    0 -0.19836770115E+02 -0.18897448914E+03 -0.19597099203E+03  0.27296427582E+03  0.10566000000E+00 0. -1.
<mgrwt>
<rscale>  1 0.66480583E+03</rscale>
<asrwt>0</asrwt>
<pdfrwt beam="1">  1       21 0.39670294E-01 0.10092501E+04</pdfrwt>
<pdfrwt beam="2">  1        4 0.21466570E+00 0.10092501E+04</pdfrwt>
<totfact> 0.25929985E+01</totfact>
</mgrwt>
</event>
<event>
 6    1  0.1375310E-005  0.1185955E+04  0.7818608E-02  0.9293256E-01
         21   -1    0    0  501  502  0.00000000000E+00  0.00000000000E+00  0.41456637682E+03  0.41456637682E+03  0.00000000000E+00 0.  1.
          4   -1    0    0  502    0 -0.00000000000E+00 -0.00000000000E+00 -0.20644126335E+04  0.20644126335E+04  0.00000000000E+00 0.  1.
    9000010    2    1    2  501    0 -0.16476698297E+03 -0.61216007140E+03 -0.85368193193E+03  0.14612532345E+04  0.10022973923E+04 0.  0.
        -13    1    3    3    0    0  0.10164215609E+03 -0.34349764097E+03  0.15020230368E+03  0.38843596698E+03  0.10566000000E+00 0.  1.
          4    1    3    3  501    0 -0.26640913907E+03 -0.26866243042E+03 -0.10038842356E+04  0.10728172675E+04  0.00000000000E+00 0.  1.
         13    1    1    2    0    0  0.16476698297E+03  0.61216007140E+03 -0.79616432474E+03  0.10177257759E+04  0.10566000000E+00 0. -1.
<mgrwt>
<rscale>  1 0.10140612E+04</rscale>
<asrwt>0</asrwt>
<pdfrwt beam="1">  1       21 0.63779442E-01 0.11859545E+04</pdfrwt>
<pdfrwt beam="2">  1        4 0.31760195E+00 0.11859545E+04</pdfrwt>
<totfact> 0.20670754E+00</totfact>
</mgrwt>
</event>
<event>
 6    1  0.1375310E-005  0.1015322E+04  0.7818608E-02  0.9753285E-01
         21   -1    0    0  501  502  0.00000000000E+00  0.00000000000E+00  0.10905982447E+04  0.10905982447E+04  0.00000000000E+00 0.  1.
          4   -1    0    0  502    0 -0.00000000000E+00 -0.00000000000E+00 -0.34086692429E+03  0.34086692429E+03  0.00000000000E+00 0.  1.
    9000010    2    1    2  501    0  0.66648071316E+02  0.19222426983E+03  0.64176296509E+03  0.12011408059E+04  0.99472981100E+03 0.  0.
        -13    1    3    3    0    0 -0.15056776174E+03 -0.28005590762E+03  0.60072517286E+03  0.67968574117E+03  0.10566000000E+00 0.  1.
          4    1    3    3  501    0  0.21721583305E+03  0.47228017745E+03  0.41037792222E+02  0.52145506473E+03  0.00000000000E+00 0.  1.
         13    1    1    2    0    0 -0.66648071316E+02 -0.19222426983E+03  0.10796835533E+03  0.23032436310E+03  0.10566000000E+00 0. -1.
<mgrwt>
<rscale>  1 0.67930954E+03</rscale>
<asrwt>0</asrwt>
<pdfrwt beam="1">  1       21 0.16778434E+00 0.10153224E+04</pdfrwt>
<pdfrwt beam="2">  1        4 0.52441066E-01 0.10153224E+04</pdfrwt>
<totfact> 0.27411209E+01</totfact>
</mgrwt>
</event>
<event>
 6    1  0.1375310E-005  0.1008730E+04  0.7818608E-02  0.9810942E-01
          4   -1    0    0  502    0 -0.00000000000E+00  0.00000000000E+00  0.65371081031E+03  0.65371081031E+03  0.00000000000E+00 0.  1.
         21   -1    0    0  501  502  0.00000000000E+00 -0.00000000000E+00 -0.73994054338E+03  0.73994054338E+03  0.00000000000E+00 0.  1.
    9000010    2    1    2  501    0  0.16853511445E+03 -0.32045513985E+02 -0.35959961336E+03  0.10709098125E+04  0.99403467993E+03 0.  0.
        -13    1    3    3    0    0  0.46559190820E+03  0.80164622809E+02  0.12759224268E+03  0.48936896437E+03  0.10566000000E+00 0.  1.
          4    1    3    3  501    0 -0.29705679375E+03 -0.11221013679E+03 -0.48719185603E+03  0.58154084818E+03  0.00000000000E+00 0.  1.
         13    1    1    2    0    0 -0.16853511445E+03  0.32045513985E+02  0.27336988029E+03  0.32274154115E+03  0.10566000000E+00 0. -1.
<mgrwt>
<rscale>  1 0.64778637E+03</rscale>
<asrwt>0</asrwt>
<pdfrwt beam="2">  1       21 0.11383701E+00 0.10087299E+04</pdfrwt>
<pdfrwt beam="1">  1        4 0.10057089E+00 0.10087299E+04</pdfrwt>
<totfact> 0.18080416E+01</totfact>
</mgrwt>
</event>
<event>
 6    1  0.1375310E-005  0.1135858E+04  0.7818608E-02  0.9403758E-01
          4   -1    0    0  502    0 -0.00000000000E+00  0.00000000000E+00  0.14743072150E+04  0.14743072150E+04  0.00000000000E+00 0.  1.
         21   -1    0    0  501  502  0.00000000000E+00 -0.00000000000E+00 -0.55558605868E+03  0.55558605868E+03  0.00000000000E+00 0.  1.
    9000010    2    1    2  501    0  0.16996780422E+03 -0.45309036736E+03  0.18480247972E+03  0.11507934099E+04  0.10276154827E+04 0.  0.
        -13    1    3    3    0    0  0.25428610497E+02 -0.17716776622E+03  0.60319152862E+03  0.62918603209E+03  0.10566000000E+00 0.  1.
          4    1    3    3  501    0  0.14453919372E+03 -0.27592260113E+03 -0.41838904890E+03  0.52160737780E+03  0.00000000000E+00 0.  1.
         13    1    1    2    0    0 -0.16996780422E+03  0.45309036736E+03  0.73391867657E+03  0.87909986375E+03  0.10566000000E+00 0. -1.
<mgrwt>
<rscale>  1 0.91767047E+03</rscale>
<asrwt>0</asrwt>
<pdfrwt beam="2">  1       21 0.85474779E-01 0.11358581E+04</pdfrwt>
<pdfrwt beam="1">  1        4 0.22681649E+00 0.11358581E+04</pdfrwt>
<totfact> 0.38695621E+00</totfact>
</mgrwt>
</event>
<event>
 6    1  0.1375310E-005  0.1080682E+04  0.7818608E-02  0.9579663E-01
          4   -1    0    0  502    0 -0.00000000000E+00  0.00000000000E+00  0.12815082452E+04  0.12815082452E+04  0.00000000000E+00 0.  1.
         21   -1    0    0  501  502  0.00000000000E+00 -0.00000000000E+00 -0.72350329938E+03  0.72350329938E+03  0.00000000000E+00 0.  1.
    9000010    2    1    2  501    0 -0.25782765399E+03 -0.15971263272E+03 -0.27785405005E+03  0.11158301816E+04  0.10372516073E+04 0.  0.
        -13    1    3    3    0    0 -0.42673925083E+03  0.27152844238E+03 -0.39071702398E+03  0.63913526520E+03  0.10566000000E+00 0.  1.
          4    1    3    3  501    0  0.16891159685E+03 -0.43124107511E+03  0.11286297393E+03  0.47669491637E+03  0.00000000000E+00 0.  1.
         13    1    1    2    0    0  0.25782765399E+03  0.15971263272E+03  0.83585899582E+03  0.88918136298E+03  0.10566000000E+00 0. -1.
<mgrwt>
<rscale>  1 0.78656949E+03</rscale>
<asrwt>0</asrwt>
<pdfrwt beam="2">  1       21 0.11130820E+00 0.10806822E+04</pdfrwt>
<pdfrwt beam="1">  1        4 0.19715511E+00 0.10806822E+04</pdfrwt>
<totfact> 0.31617970E+00</totfact>
</mgrwt>
</event>
<event>
 6    1  0.1375310E-005  0.1223868E+04  0.7818608E-02  0.9234825E-01
          4   -1    0    0  502    0 -0.00000000000E+00  0.00000000000E+00  0.11200990965E+04  0.11200990965E+04  0.00000000000E+00 0.  1.
         21   -1    0    0  501  502  0.00000000000E+00 -0.00000000000E+00 -0.84096127948E+03  0.84096127948E+03  0.00000000000E+00 0. -1.
    9000010    2    1    2  501    0  0.61408655216E+03 -0.36687733716E+03  0.13433522567E+03  0.12312185605E+04  0.99305181979E+03 0.  0.
        -13    1    3    3    0    0  0.13021064214E+03  0.34047340988E+03  0.54572201411E+01  0.36456377574E+03  0.10566000000E+00 0.  1.
          4    1    3    3  501    0  0.48387591002E+03 -0.70735074704E+03  0.12887800553E+03  0.86665478476E+03  0.00000000000E+00 0.  1.
         13    1    1    2    0    0 -0.61408655216E+03  0.36687733716E+03  0.14480259139E+03  0.72984181553E+03  0.10566000000E+00 0. -1.
<mgrwt>
<rscale>  1 0.10701090E+04</rscale>
<asrwt>0</asrwt>
<pdfrwt beam="2">  1       21 0.12937866E+00 0.12238681E+04</pdfrwt>
<pdfrwt beam="1">  1        4 0.17232294E+00 0.12238681E+04</pdfrwt>
<totfact> 0.31175919E+00</totfact>
</mgrwt>
</event>
<event>
 6    1  0.1375310E-005  0.1027200E+04  0.7818608E-02  0.9751980E-01
          4   -1    0    0  502    0 -0.00000000000E+00  0.00000000000E+00  0.40896217582E+03  0.40896217582E+03  0.00000000000E+00 0.  1.
         21   -1    0    0  501  502  0.00000000000E+00 -0.00000000000E+00 -0.10762847262E+04  0.10762847262E+04  0.00000000000E+00 0.  1.
    9000010    2    1    2  501    0  0.10745685487E+03 -0.16550137571E+03 -0.74942055635E+03  0.12715233077E+04  0.10080687827E+04 0.  0.
        -13    1    3    3    0    0  0.13351092147E+03  0.41391383282E+03 -0.22536451715E+03  0.48983569073E+03  0.10566000000E+00 0.  1.
          4    1    3    3  501    0 -0.26054066596E+02 -0.57941520853E+03 -0.52405603920E+03  0.78168761695E+03  0.00000000000E+00 0.  1.
         13    1    1    2    0    0 -0.10745685487E+03  0.16550137571E+03  0.82098005996E+02  0.21372359433E+03  0.10566000000E+00 0. -1.
<mgrwt>
<rscale>  1 0.68004494E+03</rscale>
<asrwt>0</asrwt>
<pdfrwt beam="2">  1       21 0.16558226E+00 0.10272002E+04</pdfrwt>
<pdfrwt beam="1">  1        4 0.62917258E-01 0.10272002E+04</pdfrwt>
<totfact> 0.19187499E+01</totfact>
</mgrwt>
</event>
<event>
 6    1  0.1375310E-005  0.9935663E+03  0.7818608E-02  0.9882623E-01
          4   -1    0    0  502    0 -0.00000000000E+00  0.00000000000E+00  0.11265527889E+03  0.11265527889E+03  0.00000000000E+00 0.  1.
         21   -1    0    0  501  502  0.00000000000E+00 -0.00000000000E+00 -0.30867591557E+04  0.30867591557E+04  0.00000000000E+00 0.  1.
    9000010    2    1    2  501    0 -0.10320312692E+03  0.97818303034E+02 -0.28191245254E+04  0.29890863186E+04  0.98333850982E+03 0.  0.
        -13    1    3    3    0    0  0.11025574971E+03 -0.87651119690E+02  0.14309799099E+02  0.14157623615E+03  0.10566000000E+00 0.  1.
          4    1    3    3  501    0 -0.21345887663E+03  0.18546942272E+03 -0.28334343245E+04  0.28475100825E+04  0.00000000000E+00 0.  1.
         13    1    1    2    0    0  0.10320312692E+03 -0.97818303034E+02 -0.15497935138E+03  0.21032811589E+03  0.10566000000E+00 0. -1.
<mgrwt>
<rscale>  1 0.61110866E+03</rscale>
<asrwt>0</asrwt>
<pdfrwt beam="2">  1       21 0.47488591E+00 0.99356627E+03</pdfrwt>
<pdfrwt beam="1">  1        4 0.17331585E-01 0.99356627E+03</pdfrwt>
<totfact> 0.23388577E+00</totfact>
</mgrwt>
</event>
<event>
 6    1  0.1375310E-005  0.1123376E+04  0.7818608E-02  0.9395811E-01
          4   -1    0    0  502    0 -0.00000000000E+00  0.00000000000E+00  0.85910840968E+03  0.85910840968E+03  0.00000000000E+00 0.  1.
         21   -1    0    0  501  502  0.00000000000E+00 -0.00000000000E+00 -0.78117931042E+03  0.78117931042E+03  0.00000000000E+00 0.  1.
    9000010    2    1    2  501    0  0.42393311855E+03 -0.29179743807E+03  0.36415471646E+02  0.11239657021E+04  0.99855284236E+03 0.  0.
        -13    1    3    3    0    0  0.39413216525E+03  0.21848827068E+03 -0.27258731257E+03  0.52666986078E+03  0.10566000000E+00 0.  1.
          4    1    3    3  501    0  0.29800953294E+02 -0.51028570874E+03  0.30900278422E+03  0.59729584129E+03  0.00000000000E+00 0.  1.
         13    1    1    2    0    0 -0.42393311855E+03  0.29179743807E+03  0.41513627608E+02  0.51632201803E+03  0.10566000000E+00 0. -1.
<mgrwt>
<rscale>  1 0.92421248E+03</rscale>
<asrwt>0</asrwt>
<pdfrwt beam="2">  1       21 0.12018143E+00 0.11233756E+04</pdfrwt>
<pdfrwt beam="1">  1        4 0.13217053E+00 0.11233756E+04</pdfrwt>
<totfact> 0.78548860E+00</totfact>
</mgrwt>
</event>
<event>
 6    1  0.1375310E-005  0.1006601E+04  0.7818608E-02  0.1041707E+00
          4   -1    0    0  502    0 -0.00000000000E+00  0.00000000000E+00  0.11351336601E+04  0.11351336601E+04  0.00000000000E+00 0.  1.
         21   -1    0    0  501  502  0.00000000000E+00 -0.00000000000E+00 -0.23981761059E+03  0.23981761059E+03  0.00000000000E+00 0.  1.
    9000010    2    1    2  501    0 -0.44772005461E+01 -0.26272544275E+02  0.83088651500E+03  0.13052270425E+04  0.10062479515E+04 0.  0.
        -13    1    3    3    0    0  0.18537889468E+03 -0.24556204101E+03 -0.10525104243E+03  0.32518278502E+03  0.10566000000E+00 0.  1.
          4    1    3    3  501    0 -0.18985609523E+03  0.21928949673E+03  0.93613755743E+03  0.98004425752E+03  0.00000000000E+00 0.  1.
         13    1    1    2    0    0  0.44772005461E+01  0.26272544275E+02  0.64429534500E+02  0.69724228123E+02  0.10566000000E+00 0. -1.
<mgrwt>
<rscale>  1 0.40604431E+03</rscale>
<asrwt>0</asrwt>
<pdfrwt beam="2">  1       21 0.36895018E-01 0.10066008E+04</pdfrwt>
<pdfrwt beam="1">  1        4 0.17463594E+00 0.10066008E+04</pdfrwt>
<totfact> 0.56052210E+01</totfact>
</mgrwt>
</event>
<event>
 6    1  0.1375310E-005  0.9992638E+03  0.7818608E-02  0.9792435E-01
          4   -1    0    0  502    0 -0.00000000000E+00  0.00000000000E+00  0.21735725869E+04  0.21735725869E+04  0.00000000000E+00 0.  1.
         21   -1    0    0  501  502  0.00000000000E+00 -0.00000000000E+00 -0.22810451092E+03  0.22810451092E+03  0.00000000000E+00 0.  1.
    9000010    2    1    2  501    0 -0.18612777041E+03  0.22897953646E+02  0.91699846569E+03  0.13562500972E+04  0.98150918328E+03 0.  0.
        -13    1    3    3    0    0 -0.59511324434E+02  0.12253122977E+03  0.11023083047E+04  0.11106930763E+04  0.10566000000E+00 0.  1.
          4    1    3    3  501    0 -0.12661644597E+03 -0.99633276126E+02 -0.18530983897E+03  0.24555702092E+03  0.00000000000E+00 0.  1.
         13    1    1    2    0    0  0.18612777041E+03 -0.22897953646E+02  0.10284696103E+04  0.10454270006E+04  0.10566000000E+00 0. -1.
<mgrwt>
<rscale>  1 0.65770082E+03</rscale>
<asrwt>0</asrwt>
<pdfrwt beam="2">  1       21 0.35093003E-01 0.99926380E+03</pdfrwt>
<pdfrwt beam="1">  1        4 0.33439577E+00 0.99926380E+03</pdfrwt>
<totfact> 0.60057938E+00</totfact>
</mgrwt>
</event>
<event>
 6    1  0.1375310E-005  0.1014026E+04  0.7818608E-02  0.9778756E-01
          4   -1    0    0  502    0 -0.00000000000E+00  0.00000000000E+00  0.16050428916E+04  0.16050428916E+04  0.00000000000E+00 0.  1.
         21   -1    0    0  501  502  0.00000000000E+00 -0.00000000000E+00 -0.30074649017E+03  0.30074649017E+03  0.00000000000E+00 0. -1.
    9000010    2    1    2  501    0 -0.17132857195E+03  0.76742408058E+02  0.60293349460E+03  0.11797364808E+04  0.99649710911E+03 0.  0.
        -13    1    3    3    0    0 -0.10399126564E+03  0.44045776777E+03 -0.22478872810E+02  0.45312530210E+03  0.10566000000E+00 0.  1.
          4    1    3    3  501    0 -0.67337306317E+02 -0.36371535971E+03  0.62541236741E+03  0.72661117870E+03  0.00000000000E+00 0.  1.
         13    1    1    2    0    0  0.17132857195E+03 -0.76742408058E+02  0.70136290682E+03  0.72605290096E+03  0.10566000000E+00 0. -1.
<mgrwt>
<rscale>  1 0.66515193E+03</rscale>
<asrwt>0</asrwt>
<pdfrwt beam="2">  1       21 0.46268692E-01 0.10140263E+04</pdfrwt>
<pdfrwt beam="1">  1        4 0.24692967E+00 0.10140263E+04</pdfrwt>
<totfact> 0.11721169E+01</totfact>
</mgrwt>
</event>
<event>
 6    1  0.1375310E-005  0.1032164E+04  0.7818608E-02  0.9546529E-01
          4   -1    0    0  502    0 -0.00000000000E+00  0.00000000000E+00  0.10647247132E+04  0.10647247132E+04  0.00000000000E+00 0.  1.
         21   -1    0    0  501  502  0.00000000000E+00 -0.00000000000E+00 -0.59891103393E+03  0.59891103393E+03  0.00000000000E+00 0.  1.
    9000010    2    1    2  501    0  0.20173260469E+03 -0.33410028829E+03  0.66260946040E+03  0.12265457826E+04  0.95553347059E+03 0.  0.
        -13    1    3    3    0    0  0.68327981285E+02 -0.66835667276E+03  0.44825390530E+03  0.80765149033E+03  0.10566000000E+00 0.  1.
          4    1    3    3  501    0  0.13340462341E+03  0.33425638447E+03  0.21435555509E+03  0.41889429228E+03  0.00000000000E+00 0.  1.
         13    1    1    2    0    0 -0.20173260469E+03  0.33410028829E+03 -0.19679578114E+03  0.43708996451E+03  0.10566000000E+00 0. -1.
<mgrwt>
<rscale>  1 0.80938654E+03</rscale>
<asrwt>0</asrwt>
<pdfrwt beam="2">  1       21 0.92140159E-01 0.10321644E+04</pdfrwt>
<pdfrwt beam="1">  1        4 0.16380380E+00 0.10321644E+04</pdfrwt>
<totfact> 0.87081639E+00</totfact>
</mgrwt>
</event>
<event>
 6    1  0.1375310E-005  0.1003273E+04  0.7818608E-02  0.9752402E-01
          4   -1    0    0  502    0 -0.00000000000E+00  0.00000000000E+00  0.84107727691E+03  0.84107727691E+03  0.00000000000E+00 0.  1.
         21   -1    0    0  501  502  0.00000000000E+00 -0.00000000000E+00 -0.94639945952E+03  0.94639945952E+03  0.00000000000E+00 0.  1.
    9000010    2    1    2  501    0 -0.11318855147E+03  0.17864918538E+03 -0.65524330060E+03  0.11982904952E+04  0.98072888627E+03 0.  0.
        -13    1    3    3    0    0 -0.28742574133E+03 -0.34422417580E+03 -0.34525830425E+03  0.56595684270E+03  0.10566000000E+00 0.  1.
          4    1    3    3  501    0  0.17423718986E+03  0.52287336118E+03 -0.30998499636E+03  0.63233365254E+03  0.00000000000E+00 0.  1.
         13    1    1    2    0    0  0.11318855147E+03 -0.17864918538E+03  0.54992111800E+03  0.58918624119E+03  0.10566000000E+00 0. -1.
<mgrwt>
<rscale>  1 0.67980716E+03</rscale>
<asrwt>0</asrwt>
<pdfrwt beam="2">  1       21 0.14559992E+00 0.10032728E+04</pdfrwt>
<pdfrwt beam="1">  1        4 0.12939650E+00 0.10032728E+04</pdfrwt>
<totfact> 0.50324824E+00</totfact>
</mgrwt>
</event>
<event>
 6    1  0.1375310E-005  0.1088195E+04  0.7818608E-02  0.9476983E-01
         21   -1    0    0  501  502  0.00000000000E+00  0.00000000000E+00  0.15631540840E+04  0.15631540840E+04  0.00000000000E+00 0.  1.
          4   -1    0    0  502    0 -0.00000000000E+00 -0.00000000000E+00 -0.41885787339E+03  0.41885787339E+03  0.00000000000E+00 0.  1.
    9000010    2    1    2  501    0  0.32309945122E+03  0.27539338516E+03  0.47034773440E+03  0.11854937017E+04  0.10019648464E+04 0.  0.
        -13    1    3    3    0    0  0.38706016771E+02 -0.34461511690E+03 -0.16944150837E+02  0.34719569402E+03  0.10566000000E+00 0.  1.
          4    1    3    3  501    0  0.28439343445E+03  0.62000850207E+03  0.48729188524E+03  0.83829800764E+03  0.00000000000E+00 0.  1.
         13    1    1    2    0    0 -0.32309945122E+03 -0.27539338516E+03  0.67394847624E+03  0.79651825576E+03  0.10566000000E+00 0. -1.
<mgrwt>
<rscale>  1 0.86002271E+03</rscale>
<asrwt>0</asrwt>
<pdfrwt beam="1">  1       21 0.24048524E+00 0.10881950E+04</pdfrwt>
<pdfrwt beam="2">  1        4 0.64439674E-01 0.10881950E+04</pdfrwt>
<totfact> 0.54915035E+00</totfact>
</mgrwt>
</event>
<event>
 6    1  0.1375310E-005  0.1046420E+04  0.7818608E-02  0.9600979E-01
         21   -1    0    0  501  502  0.00000000000E+00  0.00000000000E+00  0.71431460486E+03  0.71431460486E+03  0.00000000000E+00 0.  1.
          4   -1    0    0  502    0 -0.00000000000E+00 -0.00000000000E+00 -0.98061026672E+03  0.98061026672E+03  0.00000000000E+00 0.  1.
    9000010    2    1    2  501    0 -0.28219731830E+02 -0.30921188625E+03  0.26508909163E+03  0.10794753519E+04  0.99929298257E+03 0.  0.
        -13    1    3    3    0    0 -0.14214120023E+03 -0.65439562756E+03  0.25276139476E+03  0.71576958025E+03  0.10566000000E+00 0.  1.
          4    1    3    3  501    0  0.11392146840E+03  0.34518374131E+03  0.12327696866E+02  0.36370577166E+03  0.00000000000E+00 0.  1.
         13    1    1    2    0    0  0.28219731830E+02  0.30921188625E+03 -0.53138475348E+03  0.61544951967E+03  0.10566000000E+00 0. -1.
<mgrwt>
<rscale>  1 0.77231391E+03</rscale>
<asrwt>0</asrwt>
<pdfrwt beam="1">  1       21 0.10989456E+00 0.10464200E+04</pdfrwt>
<pdfrwt beam="2">  1        4 0.15086312E+00 0.10464200E+04</pdfrwt>
<totfact> 0.70282280E+00</totfact>
</mgrwt>
</event>
<event>
 6    1  0.1375310E-005  0.1010701E+04  0.7818608E-02  0.1016249E+00
         21   -1    0    0  501  502  0.00000000000E+00  0.00000000000E+00  0.32692240635E+03  0.32692240635E+03  0.00000000000E+00 0.  1.
          4   -1    0    0  502    0 -0.00000000000E+00 -0.00000000000E+00 -0.88444691788E+03  0.88444691788E+03  0.00000000000E+00 0.  1.
    9000010    2    1    2  501    0  0.52315953446E+02  0.20343469292E+02 -0.55944696416E+03  0.11552041863E+04  0.10091407190E+04 0.  0.
        -13    1    3    3    0    0  0.22142017744E+03 -0.28452933822E+03 -0.69355696764E+03  0.78166816348E+03  0.10566000000E+00 0.  1.
          4    1    3    3  501    0 -0.16910422399E+03  0.30487280751E+03  0.13411000347E+03  0.37353602284E+03  0.00000000000E+00 0.  1.
         13    1    1    2    0    0 -0.52315953446E+02 -0.20343469292E+02  0.19224526361E+01  0.56165137906E+02  0.10566000000E+00 0. -1.
<mgrwt>
<rscale>  1 0.49064800E+03</rscale>
<asrwt>0</asrwt>
<pdfrwt beam="1">  1       21 0.50295754E-01 0.10107007E+04</pdfrwt>
<pdfrwt beam="2">  1        4 0.13606876E+00 0.10107007E+04</pdfrwt>
<totfact> 0.57325462E+01</totfact>
</mgrwt>
</event>
<event>
 6    1  0.1375310E-005  0.1084309E+04  0.7818608E-02  0.9621323E-01
          4   -1    0    0  502    0 -0.00000000000E+00  0.00000000000E+00  0.32703662409E+03  0.32703662409E+03  0.00000000000E+00 0.  1.
         21   -1    0    0  501  502  0.00000000000E+00 -0.00000000000E+00 -0.21297271548E+04  0.21297271548E+04  0.00000000000E+00 0.  1.
    9000010    2    1    2  501    0 -0.17964374235E+03 -0.18841611589E+03 -0.18927151777E+04  0.21813060595E+04  0.10525934041E+04 0.  0.
        -13    1    3    3    0    0  0.30707036256E+03  0.23343751756E+03 -0.40062796606E+03  0.55613672826E+03  0.10566000000E+00 0.  1.
          4    1    3    3  501    0 -0.48671410491E+03 -0.42185363345E+03 -0.14920872117E+04  0.16251693313E+04  0.00000000000E+00 0.  1.
         13    1    1    2    0    0  0.17964374235E+03  0.18841611589E+03  0.90024647073E+02  0.27545771933E+03  0.10566000000E+00 0. -1.
<mgrwt>
<rscale>  1 0.75900810E+03</rscale>
<asrwt>0</asrwt>
<pdfrwt beam="2">  1       21 0.32765032E+00 0.10843087E+04</pdfrwt>
<pdfrwt beam="1">  1        4 0.50313328E-01 0.10843087E+04</pdfrwt>
<totfact> 0.26581625E+00</totfact>
</mgrwt>
</event>
<event>
 6    1  0.1375310E-005  0.1069549E+04  0.7818608E-02  0.9545136E-01
         21   -1    0    0  501  502  0.00000000000E+00  0.00000000000E+00  0.12992332772E+04  0.12992332772E+04  0.00000000000E+00 0.  1.
          4   -1    0    0  502    0 -0.00000000000E+00 -0.00000000000E+00 -0.40843151825E+03  0.40843151825E+03  0.00000000000E+00 0.  1.
    9000010    2    1    2  501    0  0.31868479407E+03 -0.15057350333E+03  0.82107259297E+03  0.13483675012E+04  0.10098031182E+04 0.  0.
        -13    1    3    3    0    0 -0.27370974236E+03  0.10069283229E+03 -0.16547761924E+02  0.29211283629E+03  0.10566000000E+00 0.  1.
          4    1    3    3  501    0  0.59239453644E+03 -0.25126633562E+03  0.83762035489E+03  0.10562546649E+04  0.00000000000E+00 0.  1.
         13    1    1    2    0    0 -0.31868479407E+03  0.15057350333E+03  0.69729165953E+02  0.35929729421E+03  0.10566000000E+00 0. -1.
<mgrwt>
<rscale>  1 0.81036340E+03</rscale>
<asrwt>0</asrwt>
<pdfrwt beam="1">  1       21 0.19988204E+00 0.10695488E+04</pdfrwt>
<pdfrwt beam="2">  1        4 0.62835619E-01 0.10695488E+04</pdfrwt>
<totfact> 0.10824832E+01</totfact>
</mgrwt>
</event>
<event>
 6    1  0.1375310E-005  0.1040736E+04  0.7818608E-02  0.9604602E-01
          4   -1    0    0  502    0 -0.00000000000E+00  0.00000000000E+00  0.23312279355E+04  0.23312279355E+04  0.00000000000E+00 0.  1.
         21   -1    0    0  501  502  0.00000000000E+00 -0.00000000000E+00 -0.41084653761E+03  0.41084653761E+03  0.00000000000E+00 0.  1.
    9000010    2    1    2  501    0  0.29208537485E+03 -0.10888986664E+03  0.28751642264E+03  0.10797210486E+04  0.99295567894E+03 0.  0.
        -13    1    3    3    0    0  0.11944686888E+03 -0.38259950632E+03 -0.23536011574E+03  0.46480569270E+03  0.10566000000E+00 0.  1.
          4    1    3    3  501    0  0.17263850596E+03  0.27370963968E+03  0.52287653837E+03  0.61491535594E+03  0.00000000000E+00 0.  1.
         13    1    1    2    0    0 -0.29208537485E+03  0.10888986664E+03  0.16328649753E+04  0.16623534245E+04  0.10566000000E+00 0. -1.
<mgrwt>
<rscale>  1 0.76992339E+03</rscale>
<asrwt>0</asrwt>
<pdfrwt beam="2">  1       21 0.63207161E-01 0.10407362E+04</pdfrwt>
<pdfrwt beam="1">  1        4 0.35865044E+00 0.10407362E+04</pdfrwt>
<totfact> 0.11765547E+00</totfact>
</mgrwt>
</event>
<event>
 6    1  0.1375310E-005  0.1004833E+04  0.7818608E-02  0.9739087E-01
          4   -1    0    0  502    0 -0.00000000000E+00  0.00000000000E+00  0.13383767140E+04  0.13383767140E+04  0.00000000000E+00 0.  1.
         21   -1    0    0  501  502  0.00000000000E+00 -0.00000000000E+00 -0.38874778023E+03  0.38874778023E+03  0.00000000000E+00 0.  1.
    9000010    2    1    2  501    0 -0.56400374532E+02 -0.21267117269E+03  0.31131408241E+03  0.10519534858E+04  0.98044869755E+03 0.  0.
        -13    1    3    3    0    0  0.31521651233E+02  0.39165812537E+03  0.14722833548E+03  0.41960206815E+03  0.10566000000E+00 0.  1.
          4    1    3    3  501    0 -0.87922025764E+02 -0.60432929806E+03  0.16408574693E+03  0.63235141769E+03  0.00000000000E+00 0.  1.
         13    1    1    2    0    0  0.56400374532E+02  0.21267117269E+03  0.63831485140E+03  0.67517100843E+03  0.10566000000E+00 0. -1.
<mgrwt>
<rscale>  1 0.68736498E+03</rscale>
<asrwt>0</asrwt>
<pdfrwt beam="2">  1       21 0.59807352E-01 0.10048332E+04</pdfrwt>
<pdfrwt beam="1">  1        4 0.20590411E+00 0.10048332E+04</pdfrwt>
<totfact> 0.12201810E+01</totfact>
</mgrwt>
</event>
<event>
 6    1  0.1375310E-005  0.1049031E+04  0.7818608E-02  0.9727553E-01
          4   -1    0    0  502    0 -0.00000000000E+00  0.00000000000E+00  0.82578294646E+03  0.82578294646E+03  0.00000000000E+00 0.  1.
         21   -1    0    0  501  502  0.00000000000E+00 -0.00000000000E+00 -0.47642068427E+03  0.47642068427E+03  0.00000000000E+00 0.  1.
    9000010    2    1    2  501    0  0.46999184558E+02  0.19536609896E+03  0.25178205601E+03  0.10788233635E+04  0.10296061431E+04 0.  0.
        -13    1    3    3    0    0  0.15086206930E+03 -0.39004497718E+03  0.24407931621E+03  0.48422016887E+03  0.10566000000E+00 0.  1.
          4    1    3    3  501    0 -0.10386288475E+03  0.58541107614E+03  0.77027398050E+01  0.59460319466E+03  0.00000000000E+00 0.  1.
         13    1    1    2    0    0 -0.46999184558E+02 -0.19536609896E+03  0.97580206174E+02  0.22338026720E+03  0.10566000000E+00 0. -1.
<mgrwt>
<rscale>  1 0.69399723E+03</rscale>
<asrwt>0</asrwt>
<pdfrwt beam="2">  1       21 0.73295490E-01 0.10490308E+04</pdfrwt>
<pdfrwt beam="1">  1        4 0.12704353E+00 0.10490308E+04</pdfrwt>
<totfact> 0.29381571E+01</totfact>
</mgrwt>
</event>
<event>
 6    1  0.1375310E-005  0.1010993E+04  0.7818608E-02  0.9973119E-01
          4   -1    0    0  502    0 -0.00000000000E+00  0.00000000000E+00  0.48367707870E+03  0.48367707870E+03  0.00000000000E+00 0.  1.
         21   -1    0    0  501  502  0.00000000000E+00 -0.00000000000E+00 -0.73050010259E+03  0.73050010259E+03  0.00000000000E+00 0.  1.
    9000010    2    1    2  501    0 -0.95460536259E+02  0.33129226855E+02 -0.73639675111E+02  0.10136709641E+04  0.10059302969E+04 0.  0.
        -13    1    3    3    0    0  0.25040951157E+03 -0.26253701778E+03 -0.33082628139E+03  0.49099556903E+03  0.10566000000E+00 0.  1.
          4    1    3    3  501    0 -0.34587004782E+03  0.29566624464E+03  0.25718660628E+03  0.52267539511E+03  0.00000000000E+00 0.  1.
         13    1    1    2    0    0  0.95460536259E+02 -0.33129226855E+02 -0.17318334878E+03  0.20050621715E+03  0.10566000000E+00 0. -1.
<mgrwt>
<rscale>  1 0.56844793E+03</rscale>
<asrwt>0</asrwt>
<pdfrwt beam="2">  1       21 0.11238463E+00 0.10109926E+04</pdfrwt>
<pdfrwt beam="1">  1        4 0.74411859E-01 0.10109926E+04</pdfrwt>
<totfact> 0.37746619E+01</totfact>
</mgrwt>
</event>
<event>
 6    1  0.1375310E-005  0.1011676E+04  0.7818608E-02  0.9912258E-01
          4   -1    0    0  502    0 -0.00000000000E+00  0.00000000000E+00  0.57537770347E+03  0.57537770347E+03  0.00000000000E+00 0.  1.
         21   -1    0    0  501  502  0.00000000000E+00 -0.00000000000E+00 -0.80970793947E+03  0.80970793947E+03  0.00000000000E+00 0.  1.
    9000010    2    1    2  501    0  0.11928937165E+03 -0.27599048917E+02 -0.47304006380E+03  0.11168058361E+04  0.10042393698E+04 0.  0.
        -13    1    3    3    0    0  0.30327598743E+03 -0.53785208982E+02 -0.73424767104E+03  0.79623415328E+03  0.10566000000E+00 0.  1.
          4    1    3    3  501    0 -0.18398661577E+03  0.26186160065E+02  0.26120760724E+03  0.32057168284E+03  0.00000000000E+00 0.  1.
         13    1    1    2    0    0 -0.11928937165E+03  0.27599048917E+02  0.23870982781E+03  0.26827980682E+03  0.10566000000E+00 0. -1.
<mgrwt>
<rscale>  1 0.59670868E+03</rscale>
<asrwt>0</asrwt>
<pdfrwt beam="2">  1       21 0.12457045E+00 0.10116760E+04</pdfrwt>
<pdfrwt beam="1">  1        4 0.88519647E-01 0.10116760E+04</pdfrwt>
<totfact> 0.19388369E+01</totfact>
</mgrwt>
</event>
<event>
 6    1  0.1375310E-005  0.1039702E+04  0.7818608E-02  0.9540047E-01
          4   -1    0    0  502    0 -0.00000000000E+00  0.00000000000E+00  0.43234677135E+03  0.43234677135E+03  0.00000000000E+00 0.  1.
         21   -1    0    0  501  502  0.00000000000E+00 -0.00000000000E+00 -0.12524238838E+04  0.12524238838E+04  0.00000000000E+00 0.  1.
    9000010    2    1    2  501    0 -0.35452542336E+03  0.16379035323E+03 -0.76402166643E+03  0.12902357647E+04  0.96356819481E+03 0.  0.
        -13    1    3    3    0    0 -0.39065171862E+03  0.14027027338E+03 -0.98300790188E+03  0.10670468880E+04  0.10566000000E+00 0.  1.
          4    1    3    3  501    0  0.36126295259E+02  0.23520079856E+02  0.21898623544E+03  0.22318887669E+03  0.00000000000E+00 0.  1.
         13    1    1    2    0    0  0.35452542336E+03 -0.16379035323E+03 -0.56055446038E+02  0.39453489049E+03  0.10566000000E+00 0. -1.
<mgrwt>
<rscale>  1 0.81394634E+03</rscale>
<asrwt>0</asrwt>
<pdfrwt beam="2">  1       21 0.19268060E+00 0.10397015E+04</pdfrwt>
<pdfrwt beam="1">  1        4 0.66514888E-01 0.10397015E+04</pdfrwt>
<totfact> 0.10753701E+01</totfact>
</mgrwt>
</event>
<event>
 6    1  0.1375310E-005  0.1028776E+04  0.7818608E-02  0.9702754E-01
          4   -1    0    0  502    0 -0.00000000000E+00  0.00000000000E+00  0.31185432276E+03  0.31185432276E+03  0.00000000000E+00 0.  1.
         21   -1    0    0  501  502  0.00000000000E+00 -0.00000000000E+00 -0.13191036530E+04  0.13191036530E+04  0.00000000000E+00 0.  1.
    9000010    2    1    2  501    0  0.13540253424E+03 -0.18772087475E+03 -0.93035365269E+03  0.13870606009E+04  0.10024002286E+04 0.  0.
        -13    1    3    3    0    0  0.42166142002E+03  0.25858246520E+02 -0.35946735434E+02  0.42398016581E+03  0.10566000000E+00 0.  1.
          4    1    3    3  501    0 -0.28625888579E+03 -0.21357912127E+03 -0.89440691726E+03  0.96308043505E+03  0.00000000000E+00 0.  1.
         13    1    1    2    0    0 -0.13540253424E+03  0.18772087475E+03 -0.76895677552E+02  0.24389737490E+03  0.10566000000E+00 0. -1.
<mgrwt>
<rscale>  1 0.70853077E+03</rscale>
<asrwt>0</asrwt>
<pdfrwt beam="2">  1       21 0.20293902E+00 0.10287756E+04</pdfrwt>
<pdfrwt beam="1">  1        4 0.47977589E-01 0.10287756E+04</pdfrwt>
<totfact> 0.18497907E+01</totfact>
</mgrwt>
</event>
<event>
 6    1  0.1375310E-005  0.1052855E+04  0.7818608E-02  0.9574471E-01
         21   -1    0    0  501  502  0.00000000000E+00  0.00000000000E+00  0.10282764659E+04  0.10282764659E+04  0.00000000000E+00 0.  1.
          4   -1    0    0  502    0 -0.00000000000E+00 -0.00000000000E+00 -0.51836113297E+03  0.51836113297E+03  0.00000000000E+00 0.  1.
    9000010    2    1    2  501    0  0.92554837108E+01 -0.33376252540E+03  0.58492436685E+03  0.12044250134E+04  0.99850889359E+03 0.  0.
        -13    1    3    3    0    0  0.36272453590E+03 -0.25953780253E+03 -0.74858272089E+02  0.45225295129E+03  0.10566000000E+00 0.  1.
          4    1    3    3  501    0 -0.35346905219E+03 -0.74224722874E+02  0.65978263894E+03  0.75217206209E+03  0.00000000000E+00 0.  1.
         13    1    1    2    0    0 -0.92554837108E+01  0.33376252540E+03 -0.75009033904E+02  0.34221258550E+03  0.10566000000E+00 0. -1.
<mgrwt>
<rscale>  1 0.79009165E+03</rscale>
<asrwt>0</asrwt>
<pdfrwt beam="1">  1       21 0.15819638E+00 0.10528547E+04</pdfrwt>
<pdfrwt beam="2">  1        4 0.79747867E-01 0.10528547E+04</pdfrwt>
<totfact> 0.12809109E+01</totfact>
</mgrwt>
</event>
<event>
 6    1  0.1375310E-005  0.1003968E+04  0.7818608E-02  0.9774577E-01
          4   -1    0    0  502    0 -0.00000000000E+00  0.00000000000E+00  0.64878412451E+03  0.64878412451E+03  0.00000000000E+00 0.  1.
         21   -1    0    0  501  502  0.00000000000E+00 -0.00000000000E+00 -0.61415071168E+03  0.61415071168E+03  0.00000000000E+00 0.  1.
    9000010    2    1    2  501    0 -0.60965234319E+02  0.18639976926E+03 -0.12279368362E+03  0.10114493781E+04  0.98462679322E+03 0.  0.
        -13    1    3    3    0    0 -0.24332507103E+03  0.54074266686E+03 -0.15114659650E+03  0.61192730512E+03  0.10566000000E+00 0.  1.
          4    1    3    3  501    0  0.18235983671E+03 -0.35434289760E+03  0.28352912881E+02  0.39952207297E+03  0.00000000000E+00 0.  1.
         13    1    1    2    0    0  0.60965234319E+02 -0.18639976926E+03  0.15742709645E+03  0.25148545810E+03  0.10566000000E+00 0. -1.
<mgrwt>
<rscale>  1 0.66744941E+03</rscale>
<asrwt>0</asrwt>
<pdfrwt beam="2">  1       21 0.94484725E-01 0.10039679E+04</pdfrwt>
<pdfrwt beam="1">  1        4 0.99812942E-01 0.10039679E+04</pdfrwt>
<totfact> 0.29356706E+01</totfact>
</mgrwt>
</event>
<event>
 6    1  0.1375310E-005  0.1095532E+04  0.7818608E-02  0.9447448E-01
          4   -1    0    0  502    0 -0.00000000000E+00  0.00000000000E+00  0.67755854124E+03  0.67755854124E+03  0.00000000000E+00 0.  1.
         21   -1    0    0  501  502  0.00000000000E+00 -0.00000000000E+00 -0.11355424599E+04  0.11355424599E+04  0.00000000000E+00 0.  1.
    9000010    2    1    2  501    0 -0.18191307836E+02 -0.46139449048E+03 -0.69164523361E+03  0.12955940729E+04  0.99346619119E+03 0.  0.
        -13    1    3    3    0    0  0.12284128935E+03  0.23694701783E+02 -0.77374279168E+03  0.78379164330E+03  0.10566000000E+00 0.  1.
          4    1    3    3  501    0 -0.14103259718E+03 -0.48508919226E+03  0.82097558065E+02  0.51180242961E+03  0.00000000000E+00 0.  1.
         13    1    1    2    0    0  0.18191307836E+02  0.46139449048E+03  0.23366131494E+03  0.51750692825E+03  0.10566000000E+00 0. -1.
<mgrwt>
<rscale>  1 0.88271660E+03</rscale>
<asrwt>0</asrwt>
<pdfrwt beam="2">  1       21 0.17469884E+00 0.10955322E+04</pdfrwt>
<pdfrwt beam="1">  1        4 0.10423978E+00 0.10955322E+04</pdfrwt>
<totfact> 0.50681505E+00</totfact>
</mgrwt>
</event>
<event>
 6    1  0.1375310E-005  0.8205480E+03  0.7818608E-02  0.9724978E-01
         21   -1    0    0  501  502  0.00000000000E+00  0.00000000000E+00  0.53447031566E+03  0.53447031566E+03  0.00000000000E+00 0.  1.
          4   -1    0    0  502    0 -0.00000000000E+00 -0.00000000000E+00 -0.14349046666E+04  0.14349046666E+04  0.00000000000E+00 0.  1.
    9000010    2    1    2  501    0 -0.39773339319E+03  0.14545456657E+03 -0.11978010350E+04  0.14519043657E+04  0.70281582561E+03 0.  0.
        -13    1    3    3    0    0 -0.30928113862E+02  0.20115593749E+03 -0.59112681235E+01  0.20360553448E+03  0.10566000000E+00 0.  1.
          4    1    3    3  501    0 -0.36680527933E+03 -0.55701370918E+02 -0.11918897669E+04  0.12482988313E+04  0.00000000000E+00 0.  1.
         13    1    1    2    0    0  0.39773339319E+03 -0.14545456657E+03  0.29736668409E+03  0.51747061653E+03  0.10566000000E+00 0. -1.
<mgrwt>
<rscale>  1 0.69548917E+03</rscale>
<asrwt>0</asrwt>
<pdfrwt beam="1">  1       21 0.82226203E-01 0.82054797E+03</pdfrwt>
<pdfrwt beam="2">  1        4 0.22075456E+00 0.82054797E+03</pdfrwt>
<totfact> 0.48444810E+00</totfact>
</mgrwt>
</event>
<event>
 6    1  0.1375310E-005  0.1092515E+04  0.7818608E-02  0.9465809E-01
         21   -1    0    0  501  502  0.00000000000E+00  0.00000000000E+00  0.65523352231E+03  0.65523352231E+03  0.00000000000E+00 0.  1.
          4   -1    0    0  502    0 -0.00000000000E+00 -0.00000000000E+00 -0.89645383326E+03  0.89645383326E+03  0.00000000000E+00 0.  1.
    9000010    2    1    2  501    0 -0.36974076991E+03  0.23172794235E+03 -0.22242755312E+03  0.11149274042E+04  0.10015902476E+04 0.  0.
        -13    1    3    3    0    0 -0.26997684195E+03  0.11505991233E+03  0.38743782259E+03  0.48603945946E+03  0.10566000000E+00 0.  1.
          4    1    3    3  501    0 -0.99763927966E+02  0.11666803002E+03 -0.60986537571E+03  0.62888794474E+03  0.00000000000E+00 0.  1.
         13    1    1    2    0    0  0.36974076991E+03 -0.23172794235E+03 -0.18792757836E+02  0.43675995136E+03  0.10566000000E+00 0. -1.
<mgrwt>
<rscale>  1 0.86852180E+03</rscale>
<asrwt>0</asrwt>
<pdfrwt beam="1">  1       21 0.10080516E+00 0.10925150E+04</pdfrwt>
<pdfrwt beam="2">  1        4 0.13791597E+00 0.10925150E+04</pdfrwt>
<totfact> 0.11031795E+01</totfact>
</mgrwt>
</event>
<event>
 6    1  0.1375310E-005  0.9939354E+03  0.7818608E-02  0.9808890E-01
          4   -1    0    0  502    0 -0.00000000000E+00  0.00000000000E+00  0.55539263611E+03  0.55539263611E+03  0.00000000000E+00 0.  1.
         21   -1    0    0  501  502  0.00000000000E+00 -0.00000000000E+00 -0.66489004730E+03  0.66489004730E+03  0.00000000000E+00 0.  1.
    9000010    2    1    2  501    0  0.17508175604E+03 -0.44056940135E+02 -0.20675619171E+03  0.10152121667E+04  0.97740113839E+03 0.  0.
        -13    1    3    3    0    0  0.38644768311E+03  0.44540613969E+02 -0.50602453388E+03  0.63826837468E+03  0.10566000000E+00 0.  1.
          4    1    3    3  501    0 -0.21136592707E+03 -0.88597554105E+02  0.29926834216E+03  0.37694379202E+03  0.00000000000E+00 0.  1.
         13    1    1    2    0    0 -0.17508175604E+03  0.44056940135E+02  0.97258780526E+02  0.20507051671E+03  0.10566000000E+00 0. -1.
<mgrwt>
<rscale>  1 0.64887630E+03</rscale>
<asrwt>0</asrwt>
<pdfrwt beam="2">  1       21 0.10229078E+00 0.99393542E+03</pdfrwt>
<pdfrwt beam="1">  1        4 0.85445021E-01 0.99393542E+03</pdfrwt>
<totfact> 0.34893013E+01</totfact>
</mgrwt>
</event>
<event>
 6    1  0.1375310E-005  0.9312396E+03  0.7818608E-02  0.9878200E-01
         21   -1    0    0  501  502  0.00000000000E+00  0.00000000000E+00  0.28031994328E+03  0.28031994328E+03  0.00000000000E+00 0.  1.
          4   -1    0    0  502    0 -0.00000000000E+00 -0.00000000000E+00 -0.12895446059E+04  0.12895446059E+04  0.00000000000E+00 0.  1.
    9000010    2    1    2  501    0 -0.16084326161E+03  0.69417704423E+02 -0.55750762279E+03  0.10853672141E+04  0.91461350713E+03 0.  0.
        -13    1    3    3    0    0 -0.44628108947E+03  0.27341551575E+03 -0.51098154919E+03  0.73145403810E+03  0.10566000000E+00 0.  1.
          4    1    3    3  501    0  0.28543782786E+03 -0.20399781133E+03 -0.46526073598E+02  0.35391317597E+03  0.00000000000E+00 0.  1.
         13    1    1    2    0    0  0.16084326161E+03 -0.69417704423E+02 -0.45171703987E+03  0.48449733514E+03  0.10566000000E+00 0. -1.
<mgrwt>
<rscale>  1 0.61329526E+03</rscale>
<asrwt>0</asrwt>
<pdfrwt beam="1">  1       21 0.43126145E-01 0.93123963E+03</pdfrwt>
<pdfrwt beam="2">  1        4 0.19839148E+00 0.93123963E+03</pdfrwt>
<totfact> 0.27998826E+01</totfact>
</mgrwt>
</event>
<event>
 6    1  0.1375310E-005  0.1034345E+04  0.7818608E-02  0.9587945E-01
         21   -1    0    0  501  502  0.00000000000E+00  0.00000000000E+00  0.29306149816E+03  0.29306149816E+03  0.00000000000E+00 0.  1.
          4   -1    0    0  502    0 -0.00000000000E+00 -0.00000000000E+00 -0.16028717244E+04  0.16028717244E+04  0.00000000000E+00 0.  1.
    9000010    2    1    2  501    0  0.76073693142E+02 -0.32747354995E+03 -0.97404194024E+03  0.14207843135E+04  0.97818415013E+03 0.  0.
        -13    1    3    3    0    0  0.33827194187E+02  0.34290251102E+03 -0.21025024625E+03  0.40364785190E+03  0.10566000000E+00 0.  1.
          4    1    3    3  501    0  0.42246498955E+02 -0.67037606097E+03 -0.76379169399E+03  0.10171364616E+04  0.00000000000E+00 0.  1.
         13    1    1    2    0    0 -0.76073693142E+02  0.32747354995E+03 -0.33576828601E+03  0.47514890904E+03  0.10566000000E+00 0. -1.
<mgrwt>
<rscale>  1 0.78099193E+03</rscale>
<asrwt>0</asrwt>
<pdfrwt beam="1">  1       21 0.45086385E-01 0.10343454E+04</pdfrwt>
<pdfrwt beam="2">  1        4 0.24659565E+00 0.10343454E+04</pdfrwt>
<totfact> 0.12417024E+01</totfact>
</mgrwt>
</event>
<event>
 6    1  0.1375310E-005  0.1072542E+04  0.7818608E-02  0.9532493E-01
          4   -1    0    0  502    0 -0.00000000000E+00  0.00000000000E+00  0.58118551136E+03  0.58118551136E+03  0.00000000000E+00 0.  1.
         21   -1    0    0  501  502  0.00000000000E+00 -0.00000000000E+00 -0.90661064064E+03  0.90661064064E+03  0.00000000000E+00 0.  1.
    9000010    2    1    2  501    0  0.12425960659E+03 -0.34340935646E+03 -0.15113239326E+03  0.10831377715E+04  0.10084522774E+04 0.  0.
        -13    1    3    3    0    0  0.63889466790E+02 -0.62489614106E+03  0.17109534446E+03  0.65103815490E+03  0.10566000000E+00 0.  1.
          4    1    3    3  501    0  0.60370139805E+02  0.28148678459E+03 -0.32222773772E+03  0.43209961657E+03  0.00000000000E+00 0.  1.
         13    1    1    2    0    0 -0.12425960659E+03  0.34340935646E+03 -0.17429273602E+03  0.40465838053E+03  0.10566000000E+00 0. -1.
<mgrwt>
<rscale>  1 0.81930055E+03</rscale>
<asrwt>0</asrwt>
<pdfrwt beam="2">  1       21 0.13947856E+00 0.10725420E+04</pdfrwt>
<pdfrwt beam="1">  1        4 0.89413155E-01 0.10725420E+04</pdfrwt>
<totfact> 0.13912879E+01</totfact>
</mgrwt>
</event>
<event>
 6    1  0.1375310E-005  0.1072502E+04  0.7818608E-02  0.9884398E-01
         21   -1    0    0  501  502  0.00000000000E+00  0.00000000000E+00  0.87514619165E+03  0.87514619165E+03  0.00000000000E+00 0.  1.
          4   -1    0    0  502    0 -0.00000000000E+00 -0.00000000000E+00 -0.59340987515E+03  0.59340987515E+03  0.00000000000E+00 0.  1.
    9000010    2    1    2  501    0  0.10115366847E+03 -0.49021752872E+02  0.52979286669E+03  0.11962193999E+04  0.10665951313E+04 0.  0.
        -13    1    3    3    0    0  0.70628755405E+02  0.49639442389E+03  0.12620531185E+03  0.51703349704E+03  0.10566000000E+00 0.  1.
          4    1    3    3  501    0  0.30524913069E+02 -0.54541617676E+03  0.40358755484E+03  0.67918590284E+03  0.00000000000E+00 0.  1.
         13    1    1    2    0    0 -0.10115366847E+03  0.49021752872E+02 -0.24805655019E+03  0.27233666693E+03  0.10566000000E+00 0. -1.
<mgrwt>
<rscale>  1 0.61023394E+03</rscale>
<asrwt>0</asrwt>
<pdfrwt beam="1">  1       21 0.13463788E+00 0.10725019E+04</pdfrwt>
<pdfrwt beam="2">  1        4 0.91293827E-01 0.10725019E+04</pdfrwt>
<totfact> 0.14576070E+01</totfact>
</mgrwt>
</event>
<event>
 6    1  0.1375310E-005  0.1431215E+04  0.7818608E-02  0.9023112E-01
         21   -1    0    0  501  502  0.00000000000E+00  0.00000000000E+00  0.13924034592E+04  0.13924034592E+04  0.00000000000E+00 0. -1.
          4   -1    0    0  502    0 -0.00000000000E+00 -0.00000000000E+00 -0.10610799685E+04  0.10610799685E+04  0.00000000000E+00 0.  1.
    9000010    2    1    2  501    0 -0.99857804583E+03 -0.27009312596E+02  0.22704887666E+03  0.14491125685E+04  0.10249333770E+04 0.  0.
        -13    1    3    3    0    0 -0.12020390519E+04  0.10254007308E+02  0.28277017932E+03  0.12348935227E+04  0.10566000000E+00 0.  1.
          4    1    3    3  501    0  0.20346100610E+03 -0.37263319904E+02 -0.55721302659E+02  0.21421904580E+03  0.00000000000E+00 0.  1.
         13    1    1    2    0    0  0.99857804583E+03  0.27009312596E+02  0.10427461406E+03  0.10043708592E+04  0.10566000000E+00 0. -1.
<mgrwt>
<rscale>  1 0.13081690E+04</rscale>
<asrwt>0</asrwt>
<pdfrwt beam="1">  1       21 0.21421592E+00 0.14312149E+04</pdfrwt>
<pdfrwt beam="2">  1        4 0.16324307E+00 0.14312149E+04</pdfrwt>
<totfact> 0.79912231E-01</totfact>
</mgrwt>
</event>
<event>
 6    1  0.1375310E-005  0.9935930E+03  0.7818608E-02  0.1011581E+00
         21   -1    0    0  501  502  0.00000000000E+00  0.00000000000E+00  0.19786189550E+04  0.19786189550E+04  0.00000000000E+00 0.  1.
          4   -1    0    0  502    0 -0.00000000000E+00 -0.00000000000E+00 -0.19891840811E+03  0.19891840811E+03  0.00000000000E+00 0.  1.
    9000010    2    1    2  501    0 -0.60256405503E+02  0.31874189014E+02  0.18369968937E+04  0.20884886076E+04  0.99125187431E+03 0.  0.
        -13    1    3    3    0    0 -0.50547640249E+03 -0.12581616129E+03  0.99195414832E+03  0.11204057941E+04  0.10566000000E+00 0.  1.
          4    1    3    3  501    0  0.44521999699E+03  0.15769035030E+03  0.84504274535E+03  0.96808281349E+03  0.00000000000E+00 0.  1.
         13    1    1    2    0    0  0.60256405503E+02 -0.31874189014E+02 -0.57296346821E+02  0.89048755480E+02  0.10566000000E+00 0. -1.
<mgrwt>
<rscale>  1 0.50851147E+03</rscale>
<asrwt>0</asrwt>
<pdfrwt beam="1">  1       21 0.30440290E+00 0.99359301E+03</pdfrwt>
<pdfrwt beam="2">  1        4 0.30602833E-01 0.99359301E+03</pdfrwt>
<totfact> 0.10376783E+01</totfact>
</mgrwt>
</event>
<event>
 6    1  0.1375310E-005  0.1099937E+04  0.7818608E-02  0.9447907E-01
         21   -1    0    0  501  502  0.00000000000E+00  0.00000000000E+00  0.11172602297E+04  0.11172602297E+04  0.00000000000E+00 0.  1.
          4   -1    0    0  502    0 -0.00000000000E+00 -0.00000000000E+00 -0.58209929818E+03  0.58209929818E+03  0.00000000000E+00 0.  1.
    9000010    2    1    2  501    0 -0.36333102271E+02  0.45403713798E+03  0.57675258108E+03  0.12419759979E+04  0.10011947975E+04 0.  0.
        -13    1    3    3    0    0  0.12372375530E+03  0.71997781001E+03  0.57807399558E+03  0.93158207908E+03  0.10566000000E+00 0.  1.
          4    1    3    3  501    0 -0.16005685757E+03 -0.26594067202E+03 -0.13214145078E+01  0.31039391880E+03  0.00000000000E+00 0.  1.
         13    1    1    2    0    0  0.36333102271E+02 -0.45403713798E+03 -0.41591649598E+02  0.45738352995E+03  0.10566000000E+00 0. -1.
<mgrwt>
<rscale>  1 0.88235866E+03</rscale>
<asrwt>0</asrwt>
<pdfrwt beam="1">  1       21 0.17188619E+00 0.10999367E+04</pdfrwt>
<pdfrwt beam="2">  1        4 0.89553738E-01 0.10999367E+04</pdfrwt>
<totfact> 0.76474111E+00</totfact>
</mgrwt>
</event>
<event>
 6    1  0.1375310E-005  0.8845182E+03  0.7818608E-02  0.1028632E+00
          4   -1    0    0  502    0 -0.00000000000E+00  0.00000000000E+00  0.19231266192E+03  0.19231266192E+03  0.00000000000E+00 0.  1.
         21   -1    0    0  501  502  0.00000000000E+00 -0.00000000000E+00 -0.13956035825E+04  0.13956035825E+04  0.00000000000E+00 0.  1.
    9000010    2    1    2  501    0  0.46889127094E+02 -0.33576911370E+02 -0.12373117227E+04  0.15209578592E+04  0.88263611476E+03 0.  0.
        -13    1    3    3    0    0 -0.27276927742E+03  0.17617147382E+03 -0.13047349742E+03  0.34994686966E+03  0.10566000000E+00 0.  1.
          4    1    3    3  501    0  0.31965840451E+03 -0.20974838519E+03 -0.11068382252E+04  0.11710109895E+04  0.00000000000E+00 0.  1.
         13    1    1    2    0    0 -0.46889127094E+02  0.33576911370E+02  0.34020802088E+02  0.66958385252E+02  0.10566000000E+00 0. -1.
<mgrwt>
<rscale>  1 0.44696194E+03</rscale>
<asrwt>0</asrwt>
<pdfrwt beam="2">  1       21 0.21470824E+00 0.88451824E+03</pdfrwt>
<pdfrwt beam="1">  1        4 0.29586563E-01 0.88451824E+03</pdfrwt>
<totfact> 0.41697437E+01</totfact>
</mgrwt>
</event>
<event>
 6    1  0.1375310E-005  0.9985726E+03  0.7818608E-02  0.9941724E-01
         21   -1    0    0  501  502  0.00000000000E+00  0.00000000000E+00  0.28901622118E+03  0.28901622118E+03  0.00000000000E+00 0.  1.
          4   -1    0    0  502    0 -0.00000000000E+00 -0.00000000000E+00 -0.15153600295E+04  0.15153600295E+04  0.00000000000E+00 0.  1.
    9000010    2    1    2  501    0 -0.11511411270E+03  0.13215262232E+02 -0.59481271542E+03  0.11623034864E+04  0.99182726625E+03 0.  0.
        -13    1    3    3    0    0  0.14675081956E+03  0.43282955841E+03 -0.11081148829E+03  0.47027271533E+03  0.10566000000E+00 0.  1.
          4    1    3    3  501    0 -0.26186493227E+03 -0.41961429618E+03 -0.48400122713E+03  0.69203077112E+03  0.00000000000E+00 0.  1.
         13    1    1    2    0    0  0.11511411270E+03 -0.13215262232E+02 -0.63153109293E+03  0.64207276426E+03  0.10566000000E+00 0. -1.
<mgrwt>
<rscale>  1 0.58281096E+03</rscale>
<asrwt>0</asrwt>
<pdfrwt beam="1">  1       21 0.44464034E-01 0.99857260E+03</pdfrwt>
<pdfrwt beam="2">  1        4 0.23313231E+00 0.99857260E+03</pdfrwt>
<totfact> 0.15581177E+01</totfact>
</mgrwt>
</event>
<event>
 6    1  0.1375310E-005  0.1200190E+04  0.7818608E-02  0.9287034E-01
          4   -1    0    0  502    0 -0.00000000000E+00  0.00000000000E+00  0.45743502263E+03  0.45743502263E+03  0.00000000000E+00 0.  1.
         21   -1    0    0  501  502  0.00000000000E+00 -0.00000000000E+00 -0.19902681363E+04  0.19902681363E+04  0.00000000000E+00 0. -1.
    9000010    2    1    2  501    0  0.51394708243E+03  0.35696079301E+03 -0.64796198376E+03  0.13639321781E+04  0.10241550872E+04 0.  0.
        -13    1    3    3    0    0 -0.17243288749E+03  0.78664145851E+02  0.17415063006E+03  0.25738997970E+03  0.10566000000E+00 0.  1.
          4    1    3    3  501    0  0.68637996992E+03  0.27829664716E+03 -0.82211261382E+03  0.11065421984E+04  0.00000000000E+00 0.  1.
         13    1    1    2    0    0 -0.51394708243E+03 -0.35696079301E+03 -0.88487112994E+03  0.10837709809E+04  0.10566000000E+00 0. -1.
<mgrwt>
<rscale>  1 0.10198534E+04</rscale>
<asrwt>0</asrwt>
<pdfrwt beam="2">  1       21 0.30619510E+00 0.12001901E+04</pdfrwt>
<pdfrwt beam="1">  1        4 0.70374619E-01 0.12001901E+04</pdfrwt>
<totfact> 0.17085089E+00</totfact>
</mgrwt>
</event>
<event>
 6    1  0.1375310E-005  0.1176594E+04  0.7818608E-02  0.9297419E-01
         21   -1    0    0  501  502  0.00000000000E+00  0.00000000000E+00  0.10537244970E+04  0.10537244970E+04  0.00000000000E+00 0. -1.
          4   -1    0    0  502    0 -0.00000000000E+00 -0.00000000000E+00 -0.78327781769E+03  0.78327781769E+03  0.00000000000E+00 0.  1.
    9000010    2    1    2  501    0  0.61726752168E+03 -0.16672226020E+03  0.20435535430E+03  0.11942087399E+04  0.98770334527E+03 0.  0.
        -13    1    3    3    0    0  0.10975025683E+03 -0.67574007397E+02 -0.38744115753E+03  0.40831608720E+03  0.10566000000E+00 0.  1.
          4    1    3    3  501    0  0.50751726485E+03 -0.99148252804E+02  0.59179651184E+03  0.78589265271E+03  0.00000000000E+00 0.  1.
         13    1    1    2    0    0 -0.61726752168E+03  0.16672226020E+03  0.66091325002E+02  0.64279357478E+03  0.10566000000E+00 0. -1.
<mgrwt>
<rscale>  1 0.10102082E+04</rscale>
<asrwt>0</asrwt>
<pdfrwt beam="1">  1       21 0.16211146E+00 0.11765940E+04</pdfrwt>
<pdfrwt beam="2">  1        4 0.12050428E+00 0.11765940E+04</pdfrwt>
<totfact> 0.43617121E+00</totfact>
</mgrwt>
</event>
<event>
 6    1  0.1375310E-005  0.8991108E+03  0.7818608E-02  0.1013094E+00
          4   -1    0    0  502    0 -0.00000000000E+00  0.00000000000E+00  0.36159112521E+03  0.36159112521E+03  0.00000000000E+00 0.  1.
         21   -1    0    0  501  502  0.00000000000E+00 -0.00000000000E+00 -0.89743533645E+03  0.89743533645E+03  0.00000000000E+00 0.  1.
    9000010    2    1    2  501    0  0.46191028658E+02 -0.74683774624E+02 -0.65400317189E+03  0.11118095181E+04  0.89481225874E+03 0.  0.
        -13    1    3    3    0    0 -0.34781859787E+03  0.14148918508E+03 -0.52272333457E+03  0.64361219860E+03  0.10566000000E+00 0.  1.
          4    1    3    3  501    0  0.39400962653E+03 -0.21617295971E+03 -0.13127983732E+03  0.46819731951E+03  0.00000000000E+00 0.  1.
         13    1    1    2    0    0 -0.46191028658E+02  0.74683774624E+02  0.11815896065E+03  0.14721694354E+03  0.10566000000E+00 0. -1.
<mgrwt>
<rscale>  1 0.50263275E+03</rscale>
<asrwt>0</asrwt>
<pdfrwt beam="2">  1       21 0.13806698E+00 0.89911081E+03</pdfrwt>
<pdfrwt beam="1">  1        4 0.55629404E-01 0.89911081E+03</pdfrwt>
<totfact> 0.42254544E+01</totfact>
</mgrwt>
</event>
<event>
 6    1  0.1375310E-005  0.1199624E+04  0.7818608E-02  0.9280005E-01
         21   -1    0    0  501  502  0.00000000000E+00  0.00000000000E+00  0.21324001706E+04  0.21324001706E+04  0.00000000000E+00 0.  1.
          4   -1    0    0  502    0 -0.00000000000E+00 -0.00000000000E+00 -0.71072466092E+03  0.71072466092E+03  0.00000000000E+00 0.  1.
    9000010    2    1    2  501    0 -0.81750211941E+02 -0.63778041081E+03  0.17495744541E+04  0.21213460021E+04  0.10127443611E+04 0.  0.
        -13    1    3    3    0    0 -0.38221145557E+03  0.10027700710E+03  0.69605570737E+03  0.80039654787E+03  0.10566000000E+00 0.  1.
          4    1    3    3  501    0  0.30046124362E+03 -0.73805741791E+03  0.10535187467E+04  0.13209494543E+04  0.00000000000E+00 0.  1.
         13    1    1    2    0    0  0.81750211941E+02  0.63778041081E+03 -0.32789894445E+03  0.72177882935E+03  0.10566000000E+00 0. -1.
<mgrwt>
<rscale>  1 0.10264466E+04</rscale>
<asrwt>0</asrwt>
<pdfrwt beam="1">  1       21 0.32806156E+00 0.11996241E+04</pdfrwt>
<pdfrwt beam="2">  1        4 0.10934226E+00 0.11996241E+04</pdfrwt>
<totfact> 0.44199502E-01</totfact>
</mgrwt>
</event>
<event>
 6    1  0.1375310E-005  0.1000596E+04  0.7818608E-02  0.9793376E-01
         21   -1    0    0  501  502  0.00000000000E+00  0.00000000000E+00  0.37930416662E+03  0.37930416662E+03  0.00000000000E+00 0.  1.
          4   -1    0    0  502    0 -0.00000000000E+00 -0.00000000000E+00 -0.14895959234E+04  0.14895959234E+04  0.00000000000E+00 0.  1.
    9000010    2    1    2  501    0  0.16226382456E+03  0.91339849487E+02 -0.31042220968E+03  0.10476426271E+04  0.98311780016E+03 0.  0.
        -13    1    3    3    0    0  0.24824312222E+03 -0.40115121173E+03 -0.26012471669E+02  0.47246545085E+03  0.10566000000E+00 0.  1.
          4    1    3    3  501    0 -0.85979297664E+02  0.49249106121E+03 -0.28440973801E+03  0.57517717625E+03  0.00000000000E+00 0.  1.
         13    1    1    2    0    0 -0.16226382456E+03 -0.91339849487E+02 -0.79986954713E+03  0.82125746296E+03  0.10566000000E+00 0. -1.
<mgrwt>
<rscale>  1 0.65719218E+03</rscale>
<asrwt>0</asrwt>
<pdfrwt beam="1">  1       21 0.58354487E-01 0.10005964E+04</pdfrwt>
<pdfrwt beam="2">  1        4 0.22916860E+00 0.10005964E+04</pdfrwt>
<totfact> 0.91476056E+00</totfact>
</mgrwt>
</event>
<event>
 6    1  0.1375310E-005  0.1157774E+04  0.7818608E-02  0.9328300E-01
          4   -1    0    0  502    0 -0.00000000000E+00  0.00000000000E+00  0.75003877758E+03  0.75003877758E+03  0.00000000000E+00 0.  1.
         21   -1    0    0  501  502  0.00000000000E+00 -0.00000000000E+00 -0.11529009962E+04  0.11529009962E+04  0.00000000000E+00 0. -1.
    9000010    2    1    2  501    0  0.17216905941E+03 -0.57441264182E+03 -0.55552347906E+03  0.12841526215E+04  0.99037848901E+03 0.  0.
        -13    1    3    3    0    0 -0.35306481874E+03 -0.40024446125E+03 -0.49424444751E+03  0.72741183662E+03  0.10566000000E+00 0.  1.
          4    1    3    3  501    0  0.52523387815E+03 -0.17416818058E+03 -0.61279031553E+02  0.55674078492E+03  0.00000000000E+00 0.  1.
         13    1    1    2    0    0 -0.17216905941E+03  0.57441264182E+03  0.15266126049E+03  0.61878715220E+03  0.10566000000E+00 0. -1.
<mgrwt>
<rscale>  1 0.98218711E+03</rscale>
<asrwt>0</asrwt>
<pdfrwt beam="2">  1       21 0.17736938E+00 0.11577744E+04</pdfrwt>
<pdfrwt beam="1">  1        4 0.11539058E+00 0.11577744E+04</pdfrwt>
<totfact> 0.37407613E+00</totfact>
</mgrwt>
</event>
<event>
 6    1  0.1375310E-005  0.1053212E+04  0.7818608E-02  0.9566831E-01
          4   -1    0    0  502    0 -0.00000000000E+00  0.00000000000E+00  0.10033386901E+04  0.10033386901E+04  0.00000000000E+00 0.  1.
         21   -1    0    0  501  502  0.00000000000E+00 -0.00000000000E+00 -0.73609632893E+03  0.73609632893E+03  0.00000000000E+00 0.  1.
    9000010    2    1    2  501    0  0.20782565901E+03 -0.27217684633E+03 -0.28368559163E+03  0.10907491470E+04  0.99598415982E+03 0.  0.
        -13    1    3    3    0    0 -0.33691314758E+03  0.53191246212E+02  0.92107867920E+02  0.35330390344E+03  0.10566000000E+00 0.  1.
          4    1    3    3  501    0  0.54473880659E+03 -0.32536809254E+03 -0.37579345955E+03  0.73744524359E+03  0.00000000000E+00 0.  1.
         13    1    1    2    0    0 -0.20782565901E+03  0.27217684633E+03  0.55092795282E+03  0.64868587204E+03  0.10566000000E+00 0. -1.
<mgrwt>
<rscale>  1 0.79530942E+03</rscale>
<asrwt>0</asrwt>
<pdfrwt beam="2">  1       21 0.11324559E+00 0.10532123E+04</pdfrwt>
<pdfrwt beam="1">  1        4 0.15435980E+00 0.10532123E+04</pdfrwt>
<totfact> 0.61157774E+00</totfact>
</mgrwt>
</event>
<event>
 6    1  0.1375310E-005  0.1057885E+04  0.7818608E-02  0.9905004E-01
          4   -1    0    0  502    0 -0.00000000000E+00  0.00000000000E+00  0.16944934338E+04  0.16944934338E+04  0.00000000000E+00 0.  1.
         21   -1    0    0  501  502  0.00000000000E+00 -0.00000000000E+00 -0.21481722530E+03  0.21481722530E+03  0.00000000000E+00 0.  1.
    9000010    2    1    2  501    0  0.81135288470E+02 -0.73698418953E+02  0.11531980691E+04  0.15649236984E+04  0.10521910489E+04 0.  0.
        -13    1    3    3    0    0  0.10793095172E+03  0.43635351475E+03  0.87405351742E+03  0.98286471228E+03  0.10566000000E+00 0.  1.
          4    1    3    3  501    0 -0.26795663253E+02 -0.51005193370E+03  0.27914455168E+03  0.58205898617E+03  0.00000000000E+00 0.  1.
         13    1    1    2    0    0 -0.81135288470E+02  0.73698418953E+02  0.32647813937E+03  0.34438696062E+03  0.10566000000E+00 0. -1.
<mgrwt>
<rscale>  1 0.60019390E+03</rscale>
<asrwt>0</asrwt>
<pdfrwt beam="2">  1       21 0.33048805E-01 0.10578849E+04</pdfrwt>
<pdfrwt beam="1">  1        4 0.26069129E+00 0.10578849E+04</pdfrwt>
<totfact> 0.19363334E+01</totfact>
</mgrwt>
</event>
<event>
 6    1  0.1375310E-005  0.9856719E+03  0.7818608E-02  0.9783183E-01
          4   -1    0    0  502    0 -0.00000000000E+00  0.00000000000E+00  0.97854305524E+03  0.97854305524E+03  0.00000000000E+00 0.  1.
         21   -1    0    0  501  502  0.00000000000E+00 -0.00000000000E+00 -0.46324992701E+03  0.46324992701E+03  0.00000000000E+00 0.  1.
    9000010    2    1    2  501    0 -0.17343001007E+03 -0.10247089226E+03  0.11331282360E+03  0.99216376987E+03  0.96486833200E+03 0.  0.
        -13    1    3    3    0    0 -0.16744905317E+03 -0.46872554958E+03  0.29987042321E+03  0.58108958699E+03  0.10566000000E+00 0.  1.
          4    1    3    3  501    0 -0.59809568928E+01  0.36625465732E+03 -0.18655759961E+03  0.41107418287E+03  0.00000000000E+00 0.  1.
         13    1    1    2    0    0  0.17343001007E+03  0.10247089226E+03  0.40198030463E+03  0.44962921238E+03  0.10566000000E+00 0. -1.
<mgrwt>
<rscale>  1 0.66272900E+03</rscale>
<asrwt>0</asrwt>
<pdfrwt beam="2">  1       21 0.71269220E-01 0.98567193E+03</pdfrwt>
<pdfrwt beam="1">  1        4 0.15054508E+00 0.98567193E+03</pdfrwt>
<totfact> 0.20213490E+01</totfact>
</mgrwt>
</event>
<event>
 6    1  0.1375310E-005  0.1072039E+04  0.7818608E-02  0.9510456E-01
         21   -1    0    0  501  502  0.00000000000E+00  0.00000000000E+00  0.21139223483E+04  0.21139223483E+04  0.00000000000E+00 0.  1.
          4   -1    0    0  502    0 -0.00000000000E+00 -0.00000000000E+00 -0.25483722164E+03  0.25483722164E+03  0.00000000000E+00 0.  1.
    9000010    2    1    2  501    0 -0.23913052037E+03  0.31425009138E+03  0.13191549953E+04  0.16998342500E+04  0.99665944549E+03 0.  0.
        -13    1    3    3    0    0 -0.32836194854E+03 -0.28934172988E+03  0.73319539068E+03  0.85388271910E+03  0.10566000000E+00 0.  1.
          4    1    3    3  501    0  0.89231428172E+02  0.60359182125E+03  0.58595960461E+03  0.84595153094E+03  0.00000000000E+00 0.  1.
         13    1    1    2    0    0  0.23913052037E+03 -0.31425009138E+03  0.53993013139E+03  0.66892531993E+03  0.10566000000E+00 0. -1.
<mgrwt>
<rscale>  1 0.83517278E+03</rscale>
<asrwt>0</asrwt>
<pdfrwt beam="1">  1       21 0.32521881E+00 0.10720385E+04</pdfrwt>
<pdfrwt beam="2">  1        4 0.39205728E-01 0.10720385E+04</pdfrwt>
<totfact> 0.46287740E+00</totfact>
</mgrwt>
</event>
<event>
 6    1  0.1375310E-005  0.1003737E+04  0.7818608E-02  0.1012828E+00
         21   -1    0    0  501  502  0.00000000000E+00  0.00000000000E+00  0.10613929820E+04  0.10613929820E+04  0.00000000000E+00 0.  1.
          4   -1    0    0  502    0 -0.00000000000E+00 -0.00000000000E+00 -0.27227270937E+03  0.27227270937E+03  0.00000000000E+00 0.  1.
    9000010    2    1    2  501    0 -0.16307622425E+02 -0.61508572990E+02  0.77592113536E+03  0.12686774502E+04  0.10017183343E+04 0.  0.
        -13    1    3    3    0    0 -0.33729420747E+03 -0.31922450797E+03  0.71495460134E+03  0.85254428743E+03  0.10566000000E+00 0.  1.
          4    1    3    3  501    0  0.32098658504E+03  0.25771593498E+03  0.60966534015E+02  0.41613316281E+03  0.00000000000E+00 0.  1.
         13    1    1    2    0    0  0.16307622425E+02  0.61508572990E+02  0.13199137318E+02  0.64988241171E+02  0.10566000000E+00 0. -1.
<mgrwt>
<rscale>  1 0.50365944E+03</rscale>
<asrwt>0</asrwt>
<pdfrwt beam="1">  1       21 0.16329123E+00 0.10037374E+04</pdfrwt>
<pdfrwt beam="2">  1        4 0.41888110E-01 0.10037374E+04</pdfrwt>
<totfact> 0.47484933E+01</totfact>
</mgrwt>
</event>
<event>
 6    1  0.1375310E-005  0.1065052E+04  0.7818608E-02  0.9543404E-01
          4   -1    0    0  502    0 -0.00000000000E+00  0.00000000000E+00  0.46841596945E+03  0.46841596945E+03  0.00000000000E+00 0.  1.
         21   -1    0    0  501  502  0.00000000000E+00 -0.00000000000E+00 -0.11433367407E+04  0.11433367407E+04  0.00000000000E+00 0.  1.
    9000010    2    1    2  501    0  0.35286641472E+03  0.66618497624E+02 -0.65870058671E+03  0.12522866667E+04  0.10026877389E+04 0.  0.
        -13    1    3    3    0    0  0.21430203685E+03  0.26603653821E+03 -0.86730385273E+03  0.93215706122E+03  0.10566000000E+00 0.  1.
          4    1    3    3  501    0  0.13856437787E+03 -0.19941804058E+03  0.20860326601E+03  0.32012960550E+03  0.00000000000E+00 0.  1.
         13    1    1    2    0    0 -0.35286641472E+03 -0.66618497624E+02 -0.16220184578E+02  0.35946604348E+03  0.10566000000E+00 0. -1.
<mgrwt>
<rscale>  1 0.81158102E+03</rscale>
<asrwt>0</asrwt>
<pdfrwt beam="2">  1       21 0.17589796E+00 0.10650518E+04</pdfrwt>
<pdfrwt beam="1">  1        4 0.72063996E-01 0.10650518E+04</pdfrwt>
<totfact> 0.11826401E+01</totfact>
</mgrwt>
</event>
<event>
 6    1  0.1375310E-005  0.1220807E+04  0.7818608E-02  0.9243475E-01
          4   -1    0    0  502    0 -0.00000000000E+00  0.00000000000E+00  0.11163302538E+04  0.11163302538E+04  0.00000000000E+00 0.  1.
         21   -1    0    0  501  502  0.00000000000E+00 -0.00000000000E+00 -0.10562951770E+04  0.10562951770E+04  0.00000000000E+00 0.  1.
    9000010    2    1    2  501    0  0.55775615538E+03  0.41967196557E+03 -0.45746572578E+03  0.13037045026E+04  0.10015757846E+04 0.  0.
        -13    1    3    3    0    0  0.44650435923E+02  0.10345776198E+03  0.30885031901E+03  0.32876389805E+03  0.10566000000E+00 0.  1.
          4    1    3    3  501    0  0.51310571946E+03  0.31621420359E+03 -0.76631604479E+03  0.97494060455E+03  0.00000000000E+00 0.  1.
         13    1    1    2    0    0 -0.55775615538E+03 -0.41967196557E+03  0.51750080264E+03  0.86892092819E+03  0.10566000000E+00 0. -1.
<mgrwt>
<rscale>  1 0.10615748E+04</rscale>
<asrwt>0</asrwt>
<pdfrwt beam="2">  1       21 0.16250695E+00 0.12208073E+04</pdfrwt>
<pdfrwt beam="1">  1        4 0.17174312E+00 0.12208073E+04</pdfrwt>
<totfact> 0.16731316E+00</totfact>
</mgrwt>
</event>
<event>
 6    1  0.1375310E-005  0.1083534E+04  0.7818608E-02  0.9492933E-01
          4   -1    0    0  502    0 -0.00000000000E+00  0.00000000000E+00  0.15308320732E+04  0.15308320732E+04  0.00000000000E+00 0.  1.
         21   -1    0    0  501  502  0.00000000000E+00 -0.00000000000E+00 -0.37196034963E+03  0.37196034963E+03  0.00000000000E+00 0.  1.
    9000010    2    1    2  501    0  0.36180909173E+03  0.18557867019E+03  0.70146671738E+03  0.12907755828E+04  0.10043409719E+04 0.  0.
        -13    1    3    3    0    0 -0.86490083169E+02  0.53366496346E+02 -0.22843454408E+03  0.25002173808E+03  0.10566000000E+00 0.  1.
          4    1    3    3  501    0  0.44829917490E+03  0.13221217385E+03  0.92990126146E+03  0.10407538447E+04  0.00000000000E+00 0.  1.
         13    1    1    2    0    0 -0.36180909173E+03 -0.18557867019E+03  0.45740500625E+03  0.61201684012E+03  0.10566000000E+00 0. -1.
<mgrwt>
<rscale>  1 0.84806843E+03</rscale>
<asrwt>0</asrwt>
<pdfrwt beam="2">  1       21 0.57224670E-01 0.10835341E+04</pdfrwt>
<pdfrwt beam="1">  1        4 0.23551262E+00 0.10835341E+04</pdfrwt>
<totfact> 0.86298083E+00</totfact>
</mgrwt>
</event>
<event>
 6    1  0.1375310E-005  0.1063619E+04  0.7818608E-02  0.9545383E-01
         21   -1    0    0  501  502  0.00000000000E+00  0.00000000000E+00  0.57488990616E+03  0.57488990616E+03  0.00000000000E+00 0.  1.
          4   -1    0    0  502    0 -0.00000000000E+00 -0.00000000000E+00 -0.90599423388E+03  0.90599423388E+03  0.00000000000E+00 0.  1.
    9000010    2    1    2  501    0  0.33252273953E+03  0.13287425216E+03 -0.35681399638E+03  0.11218744780E+04  0.10015284206E+04 0.  0.
        -13    1    3    3    0    0  0.23906777856E+03  0.64300054222E+01 -0.70250971239E+03  0.74210151252E+03  0.10566000000E+00 0.  1.
          4    1    3    3  501    0  0.93454960969E+02  0.12644424673E+03  0.34569571601E+03  0.37977296551E+03  0.00000000000E+00 0.  1.
         13    1    1    2    0    0 -0.33252273953E+03 -0.13287425216E+03  0.25709668659E+02  0.35900966201E+03  0.10566000000E+00 0. -1.
<mgrwt>
<rscale>  1 0.81019049E+03</rscale>
<asrwt>0</asrwt>
<pdfrwt beam="1">  1       21 0.88444601E-01 0.10636193E+04</pdfrwt>
<pdfrwt beam="2">  1        4 0.13938373E+00 0.10636193E+04</pdfrwt>
<totfact> 0.14817408E+01</totfact>
</mgrwt>
</event>
<event>
 6    1  0.1375310E-005  0.1060649E+04  0.7818608E-02  0.9574275E-01
         21   -1    0    0  501  502  0.00000000000E+00  0.00000000000E+00  0.11872782365E+04  0.11872782365E+04  0.00000000000E+00 0.  1.
          4   -1    0    0  502    0 -0.00000000000E+00 -0.00000000000E+00 -0.40925361720E+03  0.40925361720E+03  0.00000000000E+00 0.  1.
    9000010    2    1    2  501    0 -0.31866091423E+03 -0.72498744811E+02  0.52646677887E+03  0.11841216156E+04  0.10090470182E+04 0.  0.
        -13    1    3    3    0    0  0.97522462775E+02  0.22590271189E+03 -0.18476820068E+03  0.30770434695E+03  0.10566000000E+00 0.  1.
          4    1    3    3  501    0 -0.41618337701E+03 -0.29840145670E+03  0.71123497955E+03  0.87641726865E+03  0.00000000000E+00 0.  1.
         13    1    1    2    0    0  0.31866091423E+03  0.72498744811E+02  0.25155784046E+03  0.41241023813E+03  0.10566000000E+00 0. -1.
<mgrwt>
<rscale>  1 0.79022493E+03</rscale>
<asrwt>0</asrwt>
<pdfrwt beam="1">  1       21 0.18265819E+00 0.10606492E+04</pdfrwt>
<pdfrwt beam="2">  1        4 0.62962095E-01 0.10606492E+04</pdfrwt>
<totfact> 0.14266534E+01</totfact>
</mgrwt>
</event>
<event>
 6    1  0.1375310E-005  0.8589070E+03  0.7818608E-02  0.1042784E+00
          4   -1    0    0  502    0 -0.00000000000E+00  0.00000000000E+00  0.30800453559E+03  0.30800453559E+03  0.00000000000E+00 0.  1.
         21   -1    0    0  501  502  0.00000000000E+00 -0.00000000000E+00 -0.71126777041E+03  0.71126777041E+03  0.00000000000E+00 0.  1.
    9000010    2    1    2  501    0 -0.30179904141E+02  0.28604923969E+02 -0.43886366181E+03  0.96453228541E+03  0.85789984709E+03 0.  0.
        -13    1    3    3    0    0 -0.26533886653E+03  0.19201973544E+03  0.10995620393E+03  0.34549482028E+03  0.10566000000E+00 0.  1.
          4    1    3    3  501    0  0.23515896239E+03 -0.16341481148E+03 -0.54881986574E+03  0.61903746513E+03  0.00000000000E+00 0.  1.
         13    1    1    2    0    0  0.30179904141E+02 -0.28604923969E+02  0.35600426991E+02  0.54740020600E+02  0.10566000000E+00 0. -1.
<mgrwt>
<rscale>  1 0.40288998E+03</rscale>
<asrwt>0</asrwt>
<pdfrwt beam="2">  1       21 0.10942581E+00 0.85890699E+03</pdfrwt>
<pdfrwt beam="1">  1        4 0.47385314E-01 0.85890699E+03</pdfrwt>
<totfact> 0.10912538E+02</totfact>
</mgrwt>
</event>
<event>
 6    1  0.1375310E-005  0.1025825E+04  0.7818608E-02  0.9857262E-01
          4   -1    0    0  502    0 -0.00000000000E+00  0.00000000000E+00  0.30541713545E+03  0.30541713545E+03  0.00000000000E+00 0.  1.
         21   -1    0    0  501  502  0.00000000000E+00 -0.00000000000E+00 -0.11132117078E+04  0.11132117078E+04  0.00000000000E+00 0.  1.
    9000010    2    1    2  501    0 -0.12149929521E+03  0.70059016536E+02 -0.71673386043E+03  0.12514092004E+04  0.10161925092E+04 0.  0.
        -13    1    3    3    0    0  0.10183884723E+03  0.93347617536E+02  0.23551529262E+03  0.27304284046E+03  0.10566000000E+00 0.  1.
          4    1    3    3  501    0 -0.22333814243E+03 -0.23288601000E+02 -0.95224915306E+03  0.97836635996E+03  0.00000000000E+00 0.  1.
         13    1    1    2    0    0  0.12149929521E+03 -0.70059016536E+02 -0.91060711939E+02  0.16721964286E+03  0.10566000000E+00 0. -1.
<mgrwt>
<rscale>  1 0.62378020E+03</rscale>
<asrwt>0</asrwt>
<pdfrwt beam="2">  1       21 0.17126334E+00 0.10258253E+04</pdfrwt>
<pdfrwt beam="1">  1        4 0.46987252E-01 0.10258253E+04</pdfrwt>
<totfact> 0.32506287E+01</totfact>
</mgrwt>
</event>
<event>
 6    1  0.1375310E-005  0.1082711E+04  0.7818608E-02  0.9488151E-01
         21   -1    0    0  501  502  0.00000000000E+00  0.00000000000E+00  0.12438219295E+04  0.12438219295E+04  0.00000000000E+00 0.  1.
          4   -1    0    0  502    0 -0.00000000000E+00 -0.00000000000E+00 -0.77698230242E+03  0.77698230242E+03  0.00000000000E+00 0.  1.
    9000010    2    1    2  501    0 -0.76783537245E+02 -0.40727108131E+03  0.90978404689E+03  0.14142028673E+04  0.10002486154E+04 0.  0.
        -13    1    3    3    0    0 -0.44201337745E+03 -0.52865458529E+03  0.66774606913E+03  0.95955006144E+03  0.10566000000E+00 0.  1.
          4    1    3    3  501    0  0.36522984021E+03  0.12138350398E+03  0.24203797775E+03  0.45465280588E+03  0.00000000000E+00 0.  1.
         13    1    1    2    0    0  0.76783537245E+02  0.40727108131E+03 -0.44294441984E+03  0.60660136457E+03  0.10566000000E+00 0. -1.
<mgrwt>
<rscale>  1 0.85163076E+03</rscale>
<asrwt>0</asrwt>
<pdfrwt beam="1">  1       21 0.19135722E+00 0.10827108E+04</pdfrwt>
<pdfrwt beam="2">  1        4 0.11953574E+00 0.10827108E+04</pdfrwt>
<totfact> 0.27440786E+00</totfact>
</mgrwt>
</event>
<event>
 6    1  0.1375310E-005  0.1079373E+04  0.7818608E-02  0.9469767E-01
          4   -1    0    0  502    0 -0.00000000000E+00  0.00000000000E+00  0.20148979023E+04  0.20148979023E+04  0.00000000000E+00 0.  1.
         21   -1    0    0  501  502  0.00000000000E+00 -0.00000000000E+00 -0.36775738705E+03  0.36775738705E+03  0.00000000000E+00 0.  1.
    9000010    2    1    2  501    0 -0.30464108880E+03  0.32605072376E+03  0.57857186265E+03  0.12246595018E+04  0.98281749460E+03 0.  0.
        -13    1    3    3    0    0  0.88390629474E+02  0.24431083770E+03 -0.21375375278E+03  0.33643924680E+03  0.10566000000E+00 0.  1.
          4    1    3    3  501    0 -0.39303171827E+03  0.81739886059E+02  0.79232561543E+03  0.88822025501E+03  0.00000000000E+00 0.  1.
         13    1    1    2    0    0  0.30464108880E+03 -0.32605072376E+03  0.10685686526E+04  0.11579957875E+04  0.10566000000E+00 0. -1.
<mgrwt>
<rscale>  1 0.86549917E+03</rscale>
<asrwt>0</asrwt>
<pdfrwt beam="2">  1       21 0.56578061E-01 0.10793727E+04</pdfrwt>
<pdfrwt beam="1">  1        4 0.30998429E+00 0.10793727E+04</pdfrwt>
<totfact> 0.30602606E+00</totfact>
</mgrwt>
</event>
<event>
 6    1  0.1375310E-005  0.1004524E+04  0.7818608E-02  0.9965831E-01
         21   -1    0    0  501  502  0.00000000000E+00  0.00000000000E+00  0.43780347294E+03  0.43780347294E+03  0.00000000000E+00 0.  1.
          4   -1    0    0  502    0 -0.00000000000E+00 -0.00000000000E+00 -0.76610078293E+03  0.76610078293E+03  0.00000000000E+00 0.  1.
    9000010    2    1    2  501    0 -0.73773958301E+02  0.75303130708E+02 -0.17776862652E+03  0.10201325112E+04  0.99897722570E+03 0.  0.
        -13    1    3    3    0    0 -0.40630204350E+03  0.16009204564E+03  0.22478295029E+03  0.49116005491E+03  0.10566000000E+00 0.  1.
          4    1    3    3  501    0  0.33252808520E+03 -0.84788914936E+02 -0.40255157681E+03  0.52897245631E+03  0.00000000000E+00 0.  1.
         13    1    1    2    0    0  0.73773958301E+02 -0.75303130708E+02 -0.15052868348E+03  0.18377174465E+03  0.10566000000E+00 0. -1.
<mgrwt>
<rscale>  1 0.57174189E+03</rscale>
<asrwt>0</asrwt>
<pdfrwt beam="1">  1       21 0.67354381E-01 0.10045241E+04</pdfrwt>
<pdfrwt beam="2">  1        4 0.11786166E+00 0.10045241E+04</pdfrwt>
<totfact> 0.43301611E+01</totfact>
</mgrwt>
</event>
<event>
 6    1  0.1375310E-005  0.1013716E+04  0.7818608E-02  0.9848835E-01
          4   -1    0    0  502    0 -0.00000000000E+00  0.00000000000E+00  0.18062146947E+04  0.18062146947E+04  0.00000000000E+00 0.  1.
         21   -1    0    0  501  502  0.00000000000E+00 -0.00000000000E+00 -0.19011200296E+03  0.19011200296E+03  0.00000000000E+00 0.  1.
    9000010    2    1    2  501    0  0.13748633829E+03  0.58388238912E+02  0.13165990746E+04  0.16616416106E+04  0.10026505070E+04 0.  0.
        -13    1    3    3    0    0  0.31582014897E+02 -0.46722482021E+03  0.50289649297E+03  0.68716908406E+03  0.10566000000E+00 0.  1.
          4    1    3    3  501    0  0.10590432340E+03  0.52561305912E+03  0.81370258163E+03  0.97447252654E+03  0.00000000000E+00 0.  1.
         13    1    1    2    0    0 -0.13748633829E+03 -0.58388238912E+02  0.29950361713E+03  0.33468508706E+03  0.10566000000E+00 0. -1.
<mgrwt>
<rscale>  1 0.62806374E+03</rscale>
<asrwt>0</asrwt>
<pdfrwt beam="2">  1       21 0.29248002E-01 0.10137158E+04</pdfrwt>
<pdfrwt beam="1">  1        4 0.27787917E+00 0.10137158E+04</pdfrwt>
<totfact> 0.19534930E+01</totfact>
</mgrwt>
</event>
<event>
 6    1  0.1375310E-005  0.1068490E+04  0.7818608E-02  0.9504534E-01
          4   -1    0    0  502    0 -0.00000000000E+00  0.00000000000E+00  0.60292656013E+03  0.60292656013E+03  0.00000000000E+00 0.  1.
         21   -1    0    0  501  502  0.00000000000E+00 -0.00000000000E+00 -0.11635731165E+04  0.11635731165E+04  0.00000000000E+00 0.  1.
    9000010    2    1    2  501    0  0.32848068587E+03  0.24060293980E+03 -0.76189344025E+03  0.13123084668E+04  0.98786768450E+03 0.  0.
        -13    1    3    3    0    0  0.77305878078E+02 -0.20680458354E+03  0.14934348472E+03  0.26654797345E+03  0.10566000000E+00 0.  1.
          4    1    3    3  501    0  0.25117480779E+03  0.44740752334E+03 -0.91123692497E+03  0.10457604933E+04  0.00000000000E+00 0.  1.
         13    1    1    2    0    0 -0.32848068587E+03 -0.24060293980E+03  0.20124688390E+03  0.45419120982E+03  0.10566000000E+00 0. -1.
<mgrwt>
<rscale>  1 0.83950361E+03</rscale>
<asrwt>0</asrwt>
<pdfrwt beam="2">  1       21 0.17901125E+00 0.10684905E+04</pdfrwt>
<pdfrwt beam="1">  1        4 0.92757934E-01 0.10684905E+04</pdfrwt>
<totfact> 0.62594532E+00</totfact>
</mgrwt>
</event>
<event>
 6    1  0.1375310E-005  0.1016678E+04  0.7818608E-02  0.9717548E-01
         21   -1    0    0  501  502  0.00000000000E+00  0.00000000000E+00  0.45322118352E+03  0.45322118352E+03  0.00000000000E+00 0.  1.
          4   -1    0    0  502    0 -0.00000000000E+00 -0.00000000000E+00 -0.91939326263E+03  0.91939326263E+03  0.00000000000E+00 0.  1.
    9000010    2    1    2  501    0 -0.41137799086E+02  0.22449820764E+03 -0.22639709349E+03  0.10415799787E+04  0.99072773473E+03 0.  0.
        -13    1    3    3    0    0  0.22043232255E+03  0.37156672278E+03  0.23452430831E+03  0.49158305570E+03  0.10566000000E+00 0.  1.
          4    1    3    3  501    0 -0.26157012163E+03 -0.14706851515E+03 -0.46092140179E+03  0.54999692300E+03  0.00000000000E+00 0.  1.
         13    1    1    2    0    0  0.41137799086E+02 -0.22449820764E+03 -0.23977498561E+03  0.33103446744E+03  0.10566000000E+00 0. -1.
<mgrwt>
<rscale>  1 0.69981551E+03</rscale>
<asrwt>0</asrwt>
<pdfrwt beam="1">  1       21 0.69726336E-01 0.10166775E+04</pdfrwt>
<pdfrwt beam="2">  1        4 0.14144512E+00 0.10166775E+04</pdfrwt>
<totfact> 0.25019401E+01</totfact>
</mgrwt>
</event>
<event>
 6    1  0.1375310E-005  0.1026341E+04  0.7818608E-02  0.9679293E-01
         21   -1    0    0  501  502  0.00000000000E+00  0.00000000000E+00  0.16186995673E+04  0.16186995673E+04  0.00000000000E+00 0.  1.
          4   -1    0    0  502    0 -0.00000000000E+00 -0.00000000000E+00 -0.26322929658E+03  0.26322929658E+03  0.00000000000E+00 0.  1.
    9000010    2    1    2  501    0 -0.19953628058E+03  0.15428662098E+03  0.12244460406E+04  0.15976992934E+04  0.99486473317E+03 0.  0.
        -13    1    3    3    0    0 -0.41990845044E+03  0.47658902390E+03  0.78709266365E+03  0.10114223039E+04  0.10566000000E+00 0.  1.
          4    1    3    3  501    0  0.22037216986E+03 -0.32230240292E+03  0.43735337690E+03  0.58627698954E+03  0.00000000000E+00 0.  1.
         13    1    1    2    0    0  0.19953628058E+03 -0.15428662098E+03  0.13102423022E+03  0.28422957050E+03  0.10566000000E+00 0. -1.
<mgrwt>
<rscale>  1 0.72263178E+03</rscale>
<asrwt>0</asrwt>
<pdfrwt beam="1">  1       21 0.24903070E+00 0.10263406E+04</pdfrwt>
<pdfrwt beam="2">  1        4 0.40496816E-01 0.10263406E+04</pdfrwt>
<totfact> 0.13090961E+01</totfact>
</mgrwt>
</event>
<event>
 6    1  0.1375310E-005  0.1033115E+04  0.7818608E-02  0.9698070E-01
         21   -1    0    0  501  502  0.00000000000E+00  0.00000000000E+00  0.64559619359E+03  0.64559619359E+03  0.00000000000E+00 0.  1.
          4   -1    0    0  502    0 -0.00000000000E+00 -0.00000000000E+00 -0.66474176475E+03  0.66474176475E+03  0.00000000000E+00 0.  1.
    9000010    2    1    2  501    0 -0.10035720242E+03  0.20936189466E+03  0.11936565027E+03  0.10399875549E+04  0.10066886236E+04 0.  0.
        -13    1    3    3    0    0  0.28339221676E+03  0.21312783336E+03 -0.30508089576E+03  0.46777022778E+03  0.10566000000E+00 0.  1.
          4    1    3    3  501    0 -0.38374941918E+03 -0.37659386946E+01  0.42444654603E+03  0.57221732712E+03  0.00000000000E+00 0.  1.
         13    1    1    2    0    0  0.10035720242E+03 -0.20936189466E+03 -0.13851122143E+03  0.27035040344E+03  0.10566000000E+00 0. -1.
<mgrwt>
<rscale>  1 0.71131834E+03</rscale>
<asrwt>0</asrwt>
<pdfrwt beam="1">  1       21 0.99322491E-01 0.10331147E+04</pdfrwt>
<pdfrwt beam="2">  1        4 0.10226796E+00 0.10331147E+04</pdfrwt>
<totfact> 0.24416844E+01</totfact>
</mgrwt>
</event>
<event>
 6    1  0.1375310E-005  0.1012726E+04  0.7818608E-02  0.9704478E-01
          4   -1    0    0  502    0 -0.00000000000E+00  0.00000000000E+00  0.47832988491E+03  0.47832988491E+03  0.00000000000E+00 0.  1.
         21   -1    0    0  501  502  0.00000000000E+00 -0.00000000000E+00 -0.84559717471E+03  0.84559717471E+03  0.00000000000E+00 0.  1.
    9000010    2    1    2  501    0  0.23870097687E+03  0.34906959879E+02 -0.38166461564E+03  0.10822579752E+04  0.98357399003E+03 0.  0.
        -13    1    3    3    0    0 -0.19344463663E+03  0.29579514445E+03  0.11739220113E+03  0.37241983698E+03  0.10566000000E+00 0.  1.
          4    1    3    3  501    0  0.43214561350E+03 -0.26088818458E+03 -0.49905681677E+03  0.70983813823E+03  0.00000000000E+00 0.  1.
         13    1    1    2    0    0 -0.23870097687E+03 -0.34906959879E+02  0.14397325831E+02  0.24166908441E+03  0.10566000000E+00 0. -1.
<mgrwt>
<rscale>  1 0.70750793E+03</rscale>
<asrwt>0</asrwt>
<pdfrwt beam="2">  1       21 0.13009187E+00 0.10127262E+04</pdfrwt>
<pdfrwt beam="1">  1        4 0.73589213E-01 0.10127262E+04</pdfrwt>
<totfact> 0.26449416E+01</totfact>
</mgrwt>
</event>
<event>
 6    1  0.1375310E-005  0.1291074E+04  0.7818608E-02  0.9415371E-01
          4   -1    0    0  502    0 -0.00000000000E+00  0.00000000000E+00  0.50293834254E+03  0.50293834254E+03  0.00000000000E+00 0.  1.
         21   -1    0    0  501  502  0.00000000000E+00 -0.00000000000E+00 -0.13906696601E+04  0.13906696601E+04  0.00000000000E+00 0.  1.
    9000010    2    1    2  501    0  0.12245585970E+03  0.29147678115E+03 -0.90549029233E+03  0.15769543372E+04  0.12517660167E+04 0.  0.
        -13    1    3    3    0    0 -0.47345290539E+03 -0.14633799089E+03 -0.59663180307E+03  0.77559137488E+03  0.10566000000E+00 0.  1.
          4    1    3    3  501    0  0.59590876509E+03  0.43781477204E+03 -0.30885848926E+03  0.80136296228E+03  0.00000000000E+00 0.  1.
         13    1    1    2    0    0 -0.12245585970E+03 -0.29147678115E+03  0.17758974746E+02  0.31665366550E+03  0.10566000000E+00 0. -1.
<mgrwt>
<rscale>  1 0.90821461E+03</rscale>
<asrwt>0</asrwt>
<pdfrwt beam="2">  1       21 0.21394918E+00 0.12910741E+04</pdfrwt>
<pdfrwt beam="1">  1        4 0.77375129E-01 0.12910741E+04</pdfrwt>
<totfact> 0.52998317E+00</totfact>
</mgrwt>
</event>
<event>
 6    1  0.1375310E-005  0.9950938E+03  0.7818608E-02  0.9763792E-01
          4   -1    0    0  502    0 -0.00000000000E+00  0.00000000000E+00  0.23749495881E+03  0.23749495881E+03  0.00000000000E+00 0.  1.
         21   -1    0    0  501  502  0.00000000000E+00 -0.00000000000E+00 -0.15507691111E+04  0.15507691111E+04  0.00000000000E+00 0.  1.
    9000010    2    1    2  501    0  0.14907117127E+02  0.20818621953E+03 -0.11655715810E+04  0.15325693596E+04  0.97295837911E+03 0.  0.
        -13    1    3    3    0    0  0.87415200878E+02  0.59290921188E+03 -0.77339796879E+03  0.97843097874E+03  0.10566000000E+00 0.  1.
          4    1    3    3  501    0 -0.72508083752E+02 -0.38472299235E+03 -0.39217361224E+03  0.55413838091E+03  0.00000000000E+00 0.  1.
         13    1    1    2    0    0 -0.14907117127E+02 -0.20818621953E+03 -0.14770257130E+03  0.25569471030E+03  0.10566000000E+00 0. -1.
<mgrwt>
<rscale>  1 0.67342411E+03</rscale>
<asrwt>0</asrwt>
<pdfrwt beam="2">  1       21 0.23857986E+00 0.99509383E+03</pdfrwt>
<pdfrwt beam="1">  1        4 0.36537687E-01 0.99509383E+03</pdfrwt>
<totfact> 0.18893512E+01</totfact>
</mgrwt>
</event>
<event>
 6    1  0.1375310E-005  0.1006081E+04  0.7818608E-02  0.9995487E-01
          4   -1    0    0  502    0 -0.00000000000E+00  0.00000000000E+00  0.64300572651E+03  0.64300572651E+03  0.00000000000E+00 0.  1.
         21   -1    0    0  501  502  0.00000000000E+00 -0.00000000000E+00 -0.55633525203E+03  0.55633525203E+03  0.00000000000E+00 0.  1.
    9000010    2    1    2  501    0 -0.68203315861E+02 -0.66892980934E+02 -0.77857255963E+02  0.10090891758E+04  0.10015352461E+04 0.  0.
        -13    1    3    3    0    0  0.35899764851E+02  0.10192453253E+02  0.45712605981E+03  0.45864684120E+03  0.10566000000E+00 0.  1.
          4    1    3    3  501    0 -0.10410308071E+03 -0.77085434187E+02 -0.53498331577E+03  0.55044233461E+03  0.00000000000E+00 0.  1.
         13    1    1    2    0    0  0.68203315861E+02  0.66892980934E+02  0.16452773044E+03  0.19025180273E+03  0.10566000000E+00 0. -1.
<mgrwt>
<rscale>  1 0.55848567E+03</rscale>
<asrwt>0</asrwt>
<pdfrwt beam="2">  1       21 0.85590039E-01 0.10060811E+04</pdfrwt>
<pdfrwt beam="1">  1        4 0.98923958E-01 0.10060811E+04</pdfrwt>
<totfact> 0.38074398E+01</totfact>
</mgrwt>
</event>
<event>
 6    1  0.1375310E-005  0.1123116E+04  0.7818608E-02  0.9393281E-01
         21   -1    0    0  501  502  0.00000000000E+00  0.00000000000E+00  0.65003640163E+03  0.65003640163E+03  0.00000000000E+00 0.  1.
          4   -1    0    0  502    0 -0.00000000000E+00 -0.00000000000E+00 -0.11397314374E+04  0.11397314374E+04  0.00000000000E+00 0.  1.
    9000010    2    1    2  501    0  0.20845987010E+03 -0.47605115643E+03 -0.57720845350E+03  0.12627585123E+04  0.99564513790E+03 0.  0.
        -13    1    3    3    0    0  0.23341629360E+03 -0.22067545409E+03 -0.83766364100E+03  0.89714057359E+03  0.10566000000E+00 0.  1.
          4    1    3    3  501    0 -0.24956423504E+02 -0.25537570235E+03  0.26045518750E+03  0.36561793872E+03  0.00000000000E+00 0.  1.
         13    1    1    2    0    0 -0.20845987010E+03  0.47605115643E+03  0.87513417752E+02  0.52700932671E+03  0.10566000000E+00 0. -1.
<mgrwt>
<rscale>  1 0.92630734E+03</rscale>
<asrwt>0</asrwt>
<pdfrwt beam="1">  1       21 0.10000560E+00 0.11231160E+04</pdfrwt>
<pdfrwt beam="2">  1        4 0.17534330E+00 0.11231160E+04</pdfrwt>
<totfact> 0.58186837E+00</totfact>
</mgrwt>
</event>
<event>
 6    1  0.1375310E-005  0.1079413E+04  0.7818608E-02  0.9475701E-01
          4   -1    0    0  502    0 -0.00000000000E+00  0.00000000000E+00  0.18505934672E+04  0.18505934672E+04  0.00000000000E+00 0.  1.
         21   -1    0    0  501  502  0.00000000000E+00 -0.00000000000E+00 -0.31643927821E+03  0.31643927821E+03  0.00000000000E+00 0. -1.
    9000010    2    1    2  501    0 -0.30534718584E+03 -0.31255470341E+03  0.12194072935E+04  0.16285227957E+04  0.98701823802E+03 0.  0.
        -13    1    3    3    0    0  0.48836989944E+02  0.28368066963E+03  0.87142117236E+02  0.30075493956E+03  0.10566000000E+00 0.  1.
          4    1    3    3  501    0 -0.35418417578E+03 -0.59623537304E+03  0.11322651763E+04  0.13277678562E+04  0.00000000000E+00 0.  1.
         13    1    1    2    0    0  0.30534718584E+03  0.31255470341E+03  0.31474689545E+03  0.53850994966E+03  0.10566000000E+00 0. -1.
<mgrwt>
<rscale>  1 0.86099236E+03</rscale>
<asrwt>0</asrwt>
<pdfrwt beam="2">  1       21 0.48682967E-01 0.10794130E+04</pdfrwt>
<pdfrwt beam="1">  1        4 0.28470668E+00 0.10794130E+04</pdfrwt>
<totfact> 0.60945622E+00</totfact>
</mgrwt>
</event>
<event>
 6    1  0.1375310E-005  0.1021620E+04  0.7818608E-02  0.9778650E-01
         21   -1    0    0  501  502  0.00000000000E+00  0.00000000000E+00  0.51326694931E+03  0.51326694931E+03  0.00000000000E+00 0.  1.
          4   -1    0    0  502    0 -0.00000000000E+00 -0.00000000000E+00 -0.11968029683E+04  0.11968029683E+04  0.00000000000E+00 0.  1.
    9000010    2    1    2  501    0  0.14599042561E+03 -0.11140206847E+03 -0.20238654833E+02  0.10218206679E+04  0.10049797257E+04 0.  0.
        -13    1    3    3    0    0  0.79596475575E+02 -0.55983431002E+03 -0.49033303331E+02  0.56758640716E+03  0.10566000000E+00 0.  1.
          4    1    3    3  501    0  0.66393950034E+02  0.44843224155E+03  0.28794648498E+02  0.45423426075E+03  0.00000000000E+00 0.  1.
         13    1    1    2    0    0 -0.14599042561E+03  0.11140206847E+03 -0.66329736417E+03  0.68824924970E+03  0.10566000000E+00 0. -1.
<mgrwt>
<rscale>  1 0.66521022E+03</rscale>
<asrwt>0</asrwt>
<pdfrwt beam="1">  1       21 0.78964147E-01 0.10216202E+04</pdfrwt>
<pdfrwt beam="2">  1        4 0.18412353E+00 0.10216202E+04</pdfrwt>
<totfact> 0.90327421E+00</totfact>
</mgrwt>
</event>
<event>
 6    1  0.1375310E-005  0.9825189E+03  0.7818608E-02  0.9975275E-01
          4   -1    0    0  502    0 -0.00000000000E+00  0.00000000000E+00  0.16325201599E+04  0.16325201599E+04  0.00000000000E+00 0.  1.
         21   -1    0    0  501  502  0.00000000000E+00 -0.00000000000E+00 -0.18256344222E+03  0.18256344222E+03  0.00000000000E+00 0.  1.
    9000010    2    1    2  501    0  0.47840725625E+02  0.98316835460E+02  0.13042338704E+04  0.16329021142E+04  0.97641609503E+03 0.  0.
        -13    1    3    3    0    0  0.37189876307E+03  0.31672529159E+03  0.10726596169E+04  0.11786527331E+04  0.10566000000E+00 0.  1.
          4    1    3    3  501    0 -0.32405803745E+03 -0.21840845613E+03  0.23157425349E+03  0.45424938109E+03  0.00000000000E+00 0.  1.
         13    1    1    2    0    0 -0.47840725625E+02 -0.98316835460E+02  0.14572284728E+03  0.18218148794E+03  0.10566000000E+00 0. -1.
<mgrwt>
<rscale>  1 0.56747813E+03</rscale>
<asrwt>0</asrwt>
<pdfrwt beam="2">  1       21 0.28086684E-01 0.98251887E+03</pdfrwt>
<pdfrwt beam="1">  1        4 0.25115694E+00 0.98251887E+03</pdfrwt>
<totfact> 0.31061219E+01</totfact>
</mgrwt>
</event>
<event>
 6    1  0.1375310E-005  0.1045669E+04  0.7818608E-02  0.9692552E-01
          4   -1    0    0  502    0 -0.00000000000E+00  0.00000000000E+00  0.28022882012E+04  0.28022882012E+04  0.00000000000E+00 0.  1.
         21   -1    0    0  501  502  0.00000000000E+00 -0.00000000000E+00 -0.19887681099E+03  0.19887681099E+03  0.00000000000E+00 0. -1.
    9000010    2    1    2  501    0 -0.22187859403E+03 -0.52891871284E+02  0.25648723763E+04  0.27698363990E+04  0.10204879764E+04 0.  0.
        -13    1    3    3    0    0 -0.55516078255E+03  0.84469207780E+02  0.21409496331E+04  0.22133693511E+04  0.10566000000E+00 0.  1.
          4    1    3    3  501    0  0.33328218852E+03 -0.13736107906E+03  0.42392274317E+03  0.55646704790E+03  0.00000000000E+00 0.  1.
         13    1    1    2    0    0  0.22187859403E+03  0.52891871284E+02  0.38539013922E+02  0.23132861322E+03  0.10566000000E+00 0. -1.
<mgrwt>
<rscale>  1 0.71461970E+03</rscale>
<asrwt>0</asrwt>
<pdfrwt beam="2">  1       21 0.30596434E-01 0.10456689E+04</pdfrwt>
<pdfrwt beam="1">  1        4 0.43112123E+00 0.10456689E+04</pdfrwt>
<totfact> 0.17453865E+00</totfact>
</mgrwt>
</event>
<event>
 6    1  0.1375310E-005  0.1043988E+04  0.7818608E-02  0.9575101E-01
          4   -1    0    0  502    0 -0.00000000000E+00  0.00000000000E+00  0.10984538967E+04  0.10984538967E+04  0.00000000000E+00 0.  1.
         21   -1    0    0  501  502  0.00000000000E+00 -0.00000000000E+00 -0.65949469830E+03  0.65949469830E+03  0.00000000000E+00 0.  1.
    9000010    2    1    2  501    0  0.33567083966E+03  0.64060804563E+02 -0.17185660352E+03  0.10580381334E+04  0.98647417614E+03 0.  0.
        -13    1    3    3    0    0  0.48431059326E+03 -0.33345927468E+03 -0.22652417258E+03  0.63013097888E+03  0.10566000000E+00 0.  1.
          4    1    3    3  501    0 -0.14863975360E+03  0.39752007924E+03  0.54667569060E+02  0.42790715448E+03  0.00000000000E+00 0.  1.
         13    1    1    2    0    0 -0.33567083966E+03 -0.64060804563E+02  0.61081580192E+03  0.69991046164E+03  0.10566000000E+00 0. -1.
<mgrwt>
<rscale>  1 0.78966329E+03</rscale>
<asrwt>0</asrwt>
<pdfrwt beam="2">  1       21 0.10146072E+00 0.10439875E+04</pdfrwt>
<pdfrwt beam="1">  1        4 0.16899291E+00 0.10439875E+04</pdfrwt>
<totfact> 0.62889504E+00</totfact>
</mgrwt>
</event>
<event>
 6    1  0.1375310E-005  0.1063064E+04  0.7818608E-02  0.9503176E-01
         21   -1    0    0  501  502  0.00000000000E+00  0.00000000000E+00  0.90517439535E+03  0.90517439535E+03  0.00000000000E+00 0.  1.
          4   -1    0    0  502    0 -0.00000000000E+00 -0.00000000000E+00 -0.78995332855E+03  0.78995332855E+03  0.00000000000E+00 0.  1.
    9000010    2    1    2  501    0 -0.29038541684E+03  0.29705216797E+03  0.45705720154E+03  0.11571540861E+04  0.97854004141E+03 0.  0.
        -13    1    3    3    0    0 -0.62243208972E+03  0.12755319556E+03  0.45988298862E+03  0.78433659764E+03  0.10566000000E+00 0.  1.
          4    1    3    3  501    0  0.33204667288E+03  0.16949897240E+03 -0.28257870718E+01  0.37281748845E+03  0.00000000000E+00 0.  1.
         13    1    1    2    0    0  0.29038541684E+03 -0.29705216797E+03 -0.34183613474E+03  0.53797363782E+03  0.10566000000E+00 0. -1.
<mgrwt>
<rscale>  1 0.84050079E+03</rscale>
<asrwt>0</asrwt>
<pdfrwt beam="1">  1       21 0.13925760E+00 0.10630636E+04</pdfrwt>
<pdfrwt beam="2">  1        4 0.12153128E+00 0.10630636E+04</pdfrwt>
<totfact> 0.66226462E+00</totfact>
</mgrwt>
</event>
<event>
 6    1  0.1375310E-005  0.1017861E+04  0.7818608E-02  0.9971985E-01
          4   -1    0    0  502    0 -0.00000000000E+00  0.00000000000E+00  0.69126209054E+03  0.69126209054E+03  0.00000000000E+00 0.  1.
         21   -1    0    0  501  502  0.00000000000E+00 -0.00000000000E+00 -0.50207864710E+03  0.50207864710E+03  0.00000000000E+00 0.  1.
    9000010    2    1    2  501    0  0.52441707060E+02  0.84406231026E+02  0.28321975786E+03  0.10565292466E+04  0.10129985554E+04 0.  0.
        -13    1    3    3    0    0 -0.33453146753E+03  0.26076311955E+03 -0.14958383465E+03  0.44975998270E+03  0.10566000000E+00 0.  1.
          4    1    3    3  501    0  0.38697317459E+03 -0.17635688853E+03  0.43280359250E+03  0.60676926395E+03  0.00000000000E+00 0.  1.
         13    1    1    2    0    0 -0.52441707060E+02 -0.84406231026E+02 -0.94036314411E+02  0.13681149099E+03  0.10566000000E+00 0. -1.
<mgrwt>
<rscale>  1 0.56895909E+03</rscale>
<asrwt>0</asrwt>
<pdfrwt beam="2">  1       21 0.77242868E-01 0.10178608E+04</pdfrwt>
<pdfrwt beam="1">  1        4 0.10634801E+00 0.10178608E+04</pdfrwt>
<totfact> 0.40652798E+01</totfact>
</mgrwt>
</event>
<event>
 6    1  0.1375310E-005  0.9785406E+03  0.7818608E-02  0.9714544E-01
          4   -1    0    0  502    0 -0.00000000000E+00  0.00000000000E+00  0.95765474326E+03  0.95765474326E+03  0.00000000000E+00 0.  1.
         21   -1    0    0  501  502  0.00000000000E+00 -0.00000000000E+00 -0.40003805845E+03  0.40003805845E+03  0.00000000000E+00 0. -1.
    9000010    2    1    2  501    0 -0.28143035505E+02  0.25702182809E+03  0.46071490651E+03  0.10815728706E+04  0.94376342308E+03 0.  0.
        -13    1    3    3    0    0  0.28471269941E+03  0.89584114613E+02 -0.18043823730E+03  0.34877586419E+03  0.10566000000E+00 0.  1.
          4    1    3    3  501    0 -0.31285573491E+03  0.16743771348E+03  0.64115314381E+03  0.73279700640E+03  0.00000000000E+00 0.  1.
         13    1    1    2    0    0  0.28143035505E+02 -0.25702182809E+03  0.96901778297E+02  0.27611993112E+03  0.10566000000E+00 0. -1.
<mgrwt>
<rscale>  1 0.70157434E+03</rscale>
<asrwt>0</asrwt>
<pdfrwt beam="2">  1       21 0.61544317E-01 0.97854057E+03</pdfrwt>
<pdfrwt beam="1">  1        4 0.14733150E+00 0.97854057E+03</pdfrwt>
<totfact> 0.29889204E+01</totfact>
</mgrwt>
</event>
<event>
 6    1  0.1375310E-005  0.1016832E+04  0.7818608E-02  0.9854604E-01
          4   -1    0    0  502    0 -0.00000000000E+00  0.00000000000E+00  0.10816861024E+04  0.10816861024E+04  0.00000000000E+00 0.  1.
         21   -1    0    0  501  502  0.00000000000E+00 -0.00000000000E+00 -0.37555724173E+03  0.37555724173E+03  0.00000000000E+00 0.  1.
    9000010    2    1    2  501    0 -0.13918686999E+03 -0.41539673335E+02  0.35460304368E+03  0.10768896398E+04  0.10064042172E+04 0.  0.
        -13    1    3    3    0    0 -0.39395534281E+03  0.20189750890E+03  0.52396045368E+03  0.68592855635E+03  0.10566000000E+00 0.  1.
          4    1    3    3  501    0  0.25476847283E+03 -0.24343718224E+03 -0.16935741000E+03  0.39096108344E+03  0.00000000000E+00 0.  1.
         13    1    1    2    0    0  0.13918686999E+03  0.41539673335E+02  0.35152581699E+03  0.38035370435E+03  0.10566000000E+00 0. -1.
<mgrwt>
<rscale>  1 0.62512744E+03</rscale>
<asrwt>0</asrwt>
<pdfrwt beam="2">  1       21 0.57778038E-01 0.10168323E+04</pdfrwt>
<pdfrwt beam="1">  1        4 0.16641325E+00 0.10168323E+04</pdfrwt>
<totfact> 0.24584136E+01</totfact>
</mgrwt>
</event>
<event>
 6    1  0.1375310E-005  0.9999274E+03  0.7818608E-02  0.9818741E-01
         21   -1    0    0  501  502  0.00000000000E+00  0.00000000000E+00  0.24893682357E+03  0.24893682357E+03  0.00000000000E+00 0.  1.
          4   -1    0    0  502    0 -0.00000000000E+00 -0.00000000000E+00 -0.13812314999E+04  0.13812314999E+04  0.00000000000E+00 0.  1.
    9000010    2    1    2  501    0 -0.14773001524E+03 -0.87473486040E+02 -0.94011032256E+03  0.13724657718E+04  0.98507822425E+03 0.  0.
        -13    1    3    3    0    0  0.21483095577E+03 -0.33832712286E+03 -0.83970118805E+02  0.40947353228E+03  0.10566000000E+00 0.  1.
          4    1    3    3  501    0 -0.36256097102E+03  0.25085363682E+03 -0.85614020376E+03  0.96299223948E+03  0.00000000000E+00 0.  1.
         13    1    1    2    0    0  0.14773001524E+03  0.87473486040E+02 -0.19218435377E+03  0.25770255172E+03  0.10566000000E+00 0. -1.
<mgrwt>
<rscale>  1 0.64366445E+03</rscale>
<asrwt>0</asrwt>
<pdfrwt beam="1">  1       21 0.38297973E-01 0.99992744E+03</pdfrwt>
<pdfrwt beam="2">  1        4 0.21249715E+00 0.99992744E+03</pdfrwt>
<totfact> 0.28844767E+01</totfact>
</mgrwt>
</event>
<event>
 6    1  0.1375310E-005  0.1092438E+04  0.7818608E-02  0.9531102E-01
         21   -1    0    0  501  502  0.00000000000E+00  0.00000000000E+00  0.33353112974E+03  0.33353112974E+03  0.00000000000E+00 0.  1.
          4   -1    0    0  502    0 -0.00000000000E+00 -0.00000000000E+00 -0.15707379344E+04  0.15707379344E+04  0.00000000000E+00 0.  1.
    9000010    2    1    2  501    0  0.26871410831E+03  0.21999502029E+03 -0.85021168118E+03  0.13842976056E+04  0.10357677718E+04 0.  0.
        -13    1    3    3    0    0 -0.18330224206E+03 -0.31872856567E+03 -0.16699709859E+03  0.40382626539E+03  0.10566000000E+00 0.  1.
          4    1    3    3  501    0  0.45201635037E+03  0.53872358596E+03 -0.68321458259E+03  0.98047134019E+03  0.00000000000E+00 0.  1.
         13    1    1    2    0    0 -0.26871410831E+03 -0.21999502029E+03 -0.38699512345E+03  0.51997145854E+03  0.10566000000E+00 0. -1.
<mgrwt>
<rscale>  1 0.82029146E+03</rscale>
<asrwt>0</asrwt>
<pdfrwt beam="1">  1       21 0.51312482E-01 0.10924376E+04</pdfrwt>
<pdfrwt beam="2">  1        4 0.24165199E+00 0.10924376E+04</pdfrwt>
<totfact> 0.10023700E+01</totfact>
</mgrwt>
</event>
<event>
 6    1  0.1375310E-005  0.1036211E+04  0.7818608E-02  0.9665671E-01
          4   -1    0    0  502    0 -0.00000000000E+00  0.00000000000E+00  0.19385943732E+04  0.19385943732E+04  0.00000000000E+00 0.  1.
         21   -1    0    0  501  502  0.00000000000E+00 -0.00000000000E+00 -0.21593665971E+03  0.21593665971E+03  0.00000000000E+00 0.  1.
    9000010    2    1    2  501    0 -0.23869770800E+03 -0.94199839608E+02  0.14165412235E+04  0.17550845131E+04  0.10039334662E+04 0.  0.
        -13    1    3    3    0    0  0.84255252933E+02 -0.50589108844E+03  0.68877014678E+03  0.85873690225E+03  0.10566000000E+00 0.  1.
          4    1    3    3  501    0 -0.32295296094E+03  0.41169124884E+03  0.72777107672E+03  0.89634761084E+03  0.00000000000E+00 0.  1.
         13    1    1    2    0    0  0.23869770800E+03  0.94199839608E+02  0.30611648996E+03  0.39944651979E+03  0.10566000000E+00 0. -1.
<mgrwt>
<rscale>  1 0.73098045E+03</rscale>
<asrwt>0</asrwt>
<pdfrwt beam="2">  1       21 0.33221026E-01 0.10362107E+04</pdfrwt>
<pdfrwt beam="1">  1        4 0.29824528E+00 0.10362107E+04</pdfrwt>
<totfact> 0.11266692E+01</totfact>
</mgrwt>
</event>
<event>
 6    1  0.1375310E-005  0.1071813E+04  0.7818608E-02  0.9497524E-01
         21   -1    0    0  501  502  0.00000000000E+00  0.00000000000E+00  0.66055904502E+03  0.66055904502E+03  0.00000000000E+00 0.  1.
          4   -1    0    0  502    0 -0.00000000000E+00 -0.00000000000E+00 -0.10313030995E+04  0.10313030995E+04  0.00000000000E+00 0.  1.
    9000010    2    1    2  501    0 -0.31169476494E+03 -0.27158169325E+03  0.86667371936E+02  0.10753108759E+04  0.98887410926E+03 0.  0.
        -13    1    3    3    0    0 -0.70687546561E+02  0.34028595749E+02 -0.42514487023E+03  0.43232261844E+03  0.10566000000E+00 0.  1.
          4    1    3    3  501    0 -0.24100721838E+03 -0.30561028900E+03  0.51181224217E+03  0.64298825750E+03  0.00000000000E+00 0.  1.
         13    1    1    2    0    0  0.31169476494E+03  0.27158169325E+03 -0.45741142641E+03  0.61655126857E+03  0.10566000000E+00 0. -1.
<mgrwt>
<rscale>  1 0.84466628E+03</rscale>
<asrwt>0</asrwt>
<pdfrwt beam="1">  1       21 0.10162447E+00 0.10718126E+04</pdfrwt>
<pdfrwt beam="2">  1        4 0.15866201E+00 0.10718126E+04</pdfrwt>
<totfact> 0.74409744E+00</totfact>
</mgrwt>
</event>
<event>
 6    1  0.1375310E-005  0.1097133E+04  0.7818608E-02  0.9457406E-01
          4   -1    0    0  502    0 -0.00000000000E+00  0.00000000000E+00  0.69640605102E+03  0.69640605102E+03  0.00000000000E+00 0.  1.
         21   -1    0    0  501  502  0.00000000000E+00 -0.00000000000E+00 -0.87384144944E+03  0.87384144944E+03  0.00000000000E+00 0. -1.
    9000010    2    1    2  501    0 -0.37990217988E+03  0.22948331523E+03 -0.13831152489E+02  0.10972204202E+04  0.10033509313E+04 0.  0.
        -13    1    3    3    0    0  0.39958798063E+02  0.52950644358E+03 -0.17085066374E+03  0.55782052651E+03  0.10566000000E+00 0.  1.
          4    1    3    3  501    0 -0.41986097794E+03 -0.30002312835E+03  0.15701951125E+03  0.53939989364E+03  0.00000000000E+00 0.  1.
         13    1    1    2    0    0  0.37990217988E+03 -0.22948331523E+03 -0.16360424593E+03  0.47302708030E+03  0.10566000000E+00 0. -1.
<mgrwt>
<rscale>  1 0.87498303E+03</rscale>
<asrwt>0</asrwt>
<pdfrwt beam="2">  1       21 0.13443715E+00 0.10971332E+04</pdfrwt>
<pdfrwt beam="1">  1        4 0.10713939E+00 0.10971332E+04</pdfrwt>
<totfact> 0.99269621E+00</totfact>
</mgrwt>
</event>
<event>
 6    1  0.1375310E-005  0.9029362E+03  0.7818608E-02  0.9962992E-01
          4   -1    0    0  502    0 -0.00000000000E+00  0.00000000000E+00  0.11897107952E+04  0.11897107952E+04  0.00000000000E+00 0.  1.
         21   -1    0    0  501  502  0.00000000000E+00 -0.00000000000E+00 -0.28152172284E+03  0.28152172284E+03  0.00000000000E+00 0.  1.
    9000010    2    1    2  501    0  0.87836441339E+02 -0.11720792245E+03  0.48826428022E+03  0.10264968890E+04  0.89097750718E+03 0.  0.
        -13    1    3    3    0    0  0.47351207405E+03 -0.87326234072E+02  0.40870439161E+03  0.63156856027E+03  0.10566000000E+00 0.  1.
          4    1    3    3  501    0 -0.38567563271E+03 -0.29881688381E+02  0.79559888604E+02  0.39492832874E+03  0.00000000000E+00 0.  1.
         13    1    1    2    0    0 -0.87836441339E+02  0.11720792245E+03  0.41992479215E+03  0.44473562905E+03  0.10566000000E+00 0. -1.
<mgrwt>
<rscale>  1 0.57303175E+03</rscale>
<asrwt>0</asrwt>
<pdfrwt beam="2">  1       21 0.43311035E-01 0.90293624E+03</pdfrwt>
<pdfrwt beam="1">  1        4 0.18303243E+00 0.90293624E+03</pdfrwt>
<totfact> 0.35335832E+01</totfact>
</mgrwt>
</event>
<event>
 6    1  0.1375310E-005  0.9957181E+03  0.7818608E-02  0.9926771E-01
         21   -1    0    0  501  502  0.00000000000E+00  0.00000000000E+00  0.13319835078E+04  0.13319835078E+04  0.00000000000E+00 0.  1.
          4   -1    0    0  502    0 -0.00000000000E+00 -0.00000000000E+00 -0.23649414371E+03  0.23649414371E+03  0.00000000000E+00 0.  1.
    9000010    2    1    2  501    0  0.31001323689E+02 -0.11860242547E+03  0.92959512218E+03  0.13622047060E+04  0.98814318415E+03 0.  0.
        -13    1    3    3    0    0  0.20512246007E+03 -0.44979807706E+03  0.84436920362E+03  0.97844412050E+03  0.10566000000E+00 0.  1.
          4    1    3    3  501    0 -0.17412113638E+03  0.33119565159E+03  0.85225918555E+02  0.38376058547E+03  0.00000000000E+00 0.  1.
         13    1    1    2    0    0 -0.31001323689E+02  0.11860242547E+03  0.16589424188E+03  0.20627294552E+03  0.10566000000E+00 0. -1.
<mgrwt>
<rscale>  1 0.58981209E+03</rscale>
<asrwt>0</asrwt>
<pdfrwt beam="1">  1       21 0.20492053E+00 0.99571812E+03</pdfrwt>
<pdfrwt beam="2">  1        4 0.36383715E-01 0.99571812E+03</pdfrwt>
<totfact> 0.31768578E+01</totfact>
</mgrwt>
</event>
<event>
 6    1  0.1375310E-005  0.1311484E+04  0.7818608E-02  0.9140938E-01
         21   -1    0    0  501  502  0.00000000000E+00  0.00000000000E+00  0.15602084684E+04  0.15602084684E+04  0.00000000000E+00 0.  1.
          4   -1    0    0  502    0 -0.00000000000E+00 -0.00000000000E+00 -0.73526474348E+03  0.73526474348E+03  0.00000000000E+00 0.  1.
    9000010    2    1    2  501    0  0.55141224481E+03  0.61539757190E+03  0.43462625758E+03  0.13816256471E+04  0.10184398900E+04 0.  0.
        -13    1    3    3    0    0  0.58506402742E+03  0.63015947438E+02  0.56205052598E+03  0.81373935061E+03  0.10566000000E+00 0.  1.
          4    1    3    3  501    0 -0.33651782610E+02  0.55238162447E+03 -0.12742426840E+03  0.56788629645E+03  0.00000000000E+00 0.  1.
         13    1    1    2    0    0 -0.55141224481E+03 -0.61539757190E+03  0.39031746731E+03  0.91384756479E+03  0.10566000000E+00 0. -1.
<mgrwt>
<rscale>  1 0.11684402E+04</rscale>
<asrwt>0</asrwt>
<pdfrwt beam="1">  1       21 0.24003207E+00 0.13114837E+04</pdfrwt>
<pdfrwt beam="2">  1        4 0.11311765E+00 0.13114837E+04</pdfrwt>
<totfact> 0.14361833E+00</totfact>
</mgrwt>
</event>
<event>
 6    1  0.1375310E-005  0.1021303E+04  0.7818608E-02  0.1017193E+00
         21   -1    0    0  501  502  0.00000000000E+00  0.00000000000E+00  0.90457028735E+03  0.90457028735E+03  0.00000000000E+00 0.  1.
          4   -1    0    0  502    0 -0.00000000000E+00 -0.00000000000E+00 -0.50006425205E+03  0.50006425205E+03  0.00000000000E+00 0.  1.
    9000010    2    1    2  501    0 -0.52816517815E+02 -0.21216485851E+01  0.61192035865E+03  0.11905906218E+04  0.10199340261E+04 0.  0.
        -13    1    3    3    0    0  0.22968304813E+03  0.21873894794E+02  0.81163676066E+03  0.84379322840E+03  0.10566000000E+00 0.  1.
          4    1    3    3  501    0 -0.28249956595E+03 -0.23995543379E+02 -0.19971640201E+03  0.34679739344E+03  0.00000000000E+00 0.  1.
         13    1    1    2    0    0  0.52816517815E+02  0.21216485851E+01 -0.20741432335E+03  0.21404391756E+03  0.10566000000E+00 0. -1.
<mgrwt>
<rscale>  1 0.48713137E+03</rscale>
<asrwt>0</asrwt>
<pdfrwt beam="1">  1       21 0.13916466E+00 0.10213028E+04</pdfrwt>
<pdfrwt beam="2">  1        4 0.76932962E-01 0.10213028E+04</pdfrwt>
<totfact> 0.19934894E+01</totfact>
</mgrwt>
</event>
<event>
 6    1  0.1375310E-005  0.1012002E+04  0.7818608E-02  0.1004979E+00
          4   -1    0    0  502    0 -0.00000000000E+00  0.00000000000E+00  0.10909094741E+04  0.10909094741E+04  0.00000000000E+00 0.  1.
         21   -1    0    0  501  502  0.00000000000E+00 -0.00000000000E+00 -0.40599616939E+03  0.40599616939E+03  0.00000000000E+00 0.  1.
    9000010    2    1    2  501    0  0.71901939232E+02  0.33119467598E+02  0.23348270022E+03  0.10385865518E+04  0.10089009199E+04 0.  0.
        -13    1    3    3    0    0  0.17005955945E+03  0.45313348063E+03  0.34343386584E+03  0.59346190813E+03  0.10566000000E+00 0.  1.
          4    1    3    3  501    0 -0.98157620218E+02 -0.42001401303E+03 -0.10995116562E+03  0.44512464364E+03  0.00000000000E+00 0.  1.
         13    1    1    2    0    0 -0.71901939232E+02 -0.33119467598E+02  0.45143060451E+03  0.45831909174E+03  0.10566000000E+00 0. -1.
<mgrwt>
<rscale>  1 0.53520076E+03</rscale>
<asrwt>0</asrwt>
<pdfrwt beam="2">  1       21 0.62460949E-01 0.10120019E+04</pdfrwt>
<pdfrwt beam="1">  1        4 0.16783223E+00 0.10120019E+04</pdfrwt>
<totfact> 0.20185833E+01</totfact>
</mgrwt>
</event>
<event>
 6    1  0.1375310E-005  0.1031710E+04  0.7818608E-02  0.9668852E-01
          4   -1    0    0  502    0 -0.00000000000E+00  0.00000000000E+00  0.12647852205E+04  0.12647852205E+04  0.00000000000E+00 0.  1.
         21   -1    0    0  501  502  0.00000000000E+00 -0.00000000000E+00 -0.72120323830E+03  0.72120323830E+03  0.00000000000E+00 0.  1.
    9000010    2    1    2  501    0  0.22217451614E+03  0.12959334785E+03 -0.32375696460E+03  0.10813156941E+04  0.99913417854E+03 0.  0.
        -13    1    3    3    0    0  0.19742006196E+03 -0.28632645606E+03  0.20840228566E+03  0.40544918810E+03  0.10566000000E+00 0.  1.
          4    1    3    3  501    0  0.24754454179E+02  0.41591980390E+03 -0.53215925025E+03  0.67586650598E+03  0.00000000000E+00 0.  1.
         13    1    1    2    0    0 -0.22217451614E+03 -0.12959334785E+03  0.86733894684E+03  0.90467276476E+03  0.10566000000E+00 0. -1.
<mgrwt>
<rscale>  1 0.72901973E+03</rscale>
<asrwt>0</asrwt>
<pdfrwt beam="2">  1       21 0.11095434E+00 0.10317098E+04</pdfrwt>
<pdfrwt beam="1">  1        4 0.19458234E+00 0.10317098E+04</pdfrwt>
<totfact> 0.33381452E+00</totfact>
</mgrwt>
</event>
<event>
 6    1  0.1375310E-005  0.9993918E+03  0.7818608E-02  0.9999628E-01
         21   -1    0    0  501  502  0.00000000000E+00  0.00000000000E+00  0.59348074077E+03  0.59348074077E+03  0.00000000000E+00 0.  1.
          4   -1    0    0  502    0 -0.00000000000E+00 -0.00000000000E+00 -0.51463190469E+03  0.51463190469E+03  0.00000000000E+00 0.  1.
    9000010    2    1    2  501    0 -0.95320826291E+02  0.12966574028E+02  0.29109113817E+02  0.99981563210E+03  0.99475110742E+03 0.  0.
        -13    1    3    3    0    0 -0.53148451383E+03  0.65332661529E+01 -0.10835641021E+03  0.54245699812E+03  0.10566000000E+00 0.  1.
          4    1    3    3  501    0  0.43616368754E+03  0.64333078754E+01  0.13746552402E+03  0.45735863398E+03  0.00000000000E+00 0.  1.
         13    1    1    2    0    0  0.95320826291E+02 -0.12966574028E+02  0.49739722266E+02  0.10829701336E+03  0.10566000000E+00 0. -1.
<mgrwt>
<rscale>  1 0.55666545E+03</rscale>
<asrwt>0</asrwt>
<pdfrwt beam="1">  1       21 0.91304730E-01 0.99939179E+03</pdfrwt>
<pdfrwt beam="2">  1        4 0.79174139E-01 0.99939179E+03</pdfrwt>
<totfact> 0.54980622E+01</totfact>
</mgrwt>
</event>
<event>
 6    1  0.1375310E-005  0.1018201E+04  0.7818608E-02  0.9765444E-01
         21   -1    0    0  501  502  0.00000000000E+00  0.00000000000E+00  0.48622299803E+03  0.48622299803E+03  0.00000000000E+00 0.  1.
          4   -1    0    0  502    0 -0.00000000000E+00 -0.00000000000E+00 -0.75585312720E+03  0.75585312720E+03  0.00000000000E+00 0.  1.
    9000010    2    1    2  501    0 -0.13013145371E+02 -0.19332956981E+03 -0.21351688951E+03  0.10403476658E+04  0.99959398713E+03 0.  0.
        -13    1    3    3    0    0 -0.32240666234E+03  0.14938505785E+03 -0.40651440081E+03  0.53992214315E+03  0.10566000000E+00 0.  1.
          4    1    3    3  501    0  0.30939351697E+03 -0.34271462766E+03  0.19299751130E+03  0.50042552265E+03  0.00000000000E+00 0.  1.
         13    1    1    2    0    0  0.13013145371E+02  0.19332956981E+03 -0.56113239655E+02  0.20172845943E+03  0.10566000000E+00 0. -1.
<mgrwt>
<rscale>  1 0.67250453E+03</rscale>
<asrwt>0</asrwt>
<pdfrwt beam="1">  1       21 0.74803539E-01 0.10182013E+04</pdfrwt>
<pdfrwt beam="2">  1        4 0.11628510E+00 0.10182013E+04</pdfrwt>
<totfact> 0.35144602E+01</totfact>
</mgrwt>
</event>
<event>
 6    1  0.1375310E-005  0.1036442E+04  0.7818608E-02  0.9920035E-01
          4   -1    0    0  502    0 -0.00000000000E+00  0.00000000000E+00  0.28035809908E+03  0.28035809908E+03  0.00000000000E+00 0.  1.
         21   -1    0    0  501  502  0.00000000000E+00 -0.00000000000E+00 -0.14200167295E+04  0.14200167295E+04  0.00000000000E+00 0.  1.
    9000010    2    1    2  501    0  0.58929951493E+02  0.94144301532E+02 -0.11903074183E+04  0.15783043589E+04  0.10304741677E+04 0.  0.
        -13    1    3    3    0    0  0.17954169535E+03  0.43582579007E+03 -0.11117443652E+04  0.12075408417E+04  0.10566000000E+00 0.  1.
          4    1    3    3  501    0 -0.12061174385E+03 -0.34168148854E+03 -0.78563053183E+02  0.37076351721E+03  0.00000000000E+00 0.  1.
         13    1    1    2    0    0 -0.58929951493E+02 -0.94144301532E+02  0.50648787927E+02  0.12207046972E+03  0.10566000000E+00 0. -1.
<mgrwt>
<rscale>  1 0.59300075E+03</rscale>
<asrwt>0</asrwt>
<pdfrwt beam="2">  1       21 0.21846411E+00 0.10364424E+04</pdfrwt>
<pdfrwt beam="1">  1        4 0.43132016E-01 0.10364424E+04</pdfrwt>
<totfact> 0.18129701E+01</totfact>
</mgrwt>
</event>
<event>
 6    1  0.1375310E-005  0.1019383E+04  0.7818608E-02  0.9696794E-01
         21   -1    0    0  501  502  0.00000000000E+00  0.00000000000E+00  0.22258864344E+03  0.22258864344E+03  0.00000000000E+00 0.  1.
          4   -1    0    0  502    0 -0.00000000000E+00 -0.00000000000E+00 -0.18090584571E+04  0.18090584571E+04  0.00000000000E+00 0.  1.
    9000010    2    1    2  501    0 -0.24271822050E+03  0.25405645452E+00 -0.13604399259E+04  0.16999820279E+04  0.99006560586E+03 0.  0.
        -13    1    3    3    0    0  0.41349607934E+02  0.89109314182E+02 -0.13966916806E+04  0.14001421077E+04  0.10566000000E+00 0.  1.
          4    1    3    3  501    0 -0.28406782844E+03 -0.88855257727E+02  0.36251754712E+02  0.29983992012E+03  0.00000000000E+00 0.  1.
         13    1    1    2    0    0  0.24271822050E+03 -0.25405645452E+00 -0.22602988769E+03  0.33166507263E+03  0.10566000000E+00 0. -1.
<mgrwt>
<rscale>  1 0.71208006E+03</rscale>
<asrwt>0</asrwt>
<pdfrwt beam="1">  1       21 0.34244406E-01 0.10193832E+04</pdfrwt>
<pdfrwt beam="2">  1        4 0.27831669E+00 0.10193832E+04</pdfrwt>
<totfact> 0.14082127E+01</totfact>
</mgrwt>
</event>
<event>
 6    1  0.1375310E-005  0.1027173E+04  0.7818608E-02  0.9740632E-01
          4   -1    0    0  502    0 -0.00000000000E+00  0.00000000000E+00  0.14897285546E+03  0.14897285546E+03  0.00000000000E+00 0.  1.
         21   -1    0    0  501  502  0.00000000000E+00 -0.00000000000E+00 -0.26298735650E+04  0.26298735650E+04  0.00000000000E+00 0.  1.
    9000010    2    1    2  501    0 -0.11508699516E+03 -0.16955160838E+03 -0.22277374001E+04  0.24531403616E+04  0.10065241903E+04 0.  0.
        -13    1    3    3    0    0 -0.44355760148E+03 -0.15433729611E+03 -0.19968953507E+04  0.20513786583E+04  0.10566000000E+00 0.  1.
          4    1    3    3  501    0  0.32847060633E+03 -0.15214312272E+02 -0.23084204944E+03  0.40176170339E+03  0.00000000000E+00 0.  1.
         13    1    1    2    0    0  0.11508699516E+03  0.16955160838E+03 -0.25316330944E+03  0.32570605885E+03  0.10566000000E+00 0. -1.
<mgrwt>
<rscale>  1 0.68648241E+03</rscale>
<asrwt>0</asrwt>
<pdfrwt beam="2">  1       21 0.40459593E+00 0.10271727E+04</pdfrwt>
<pdfrwt beam="1">  1        4 0.22918901E-01 0.10271727E+04</pdfrwt>
<totfact> 0.41509065E+00</totfact>
</mgrwt>
</event>
<event>
 6    1  0.1375310E-005  0.1107184E+04  0.7818608E-02  0.9468021E-01
          4   -1    0    0  502    0 -0.00000000000E+00  0.00000000000E+00  0.14107048976E+04  0.14107048976E+04  0.00000000000E+00 0.  1.
         21   -1    0    0  501  502  0.00000000000E+00 -0.00000000000E+00 -0.41722087771E+03  0.41722087771E+03  0.00000000000E+00 0.  1.
    9000010    2    1    2  501    0 -0.24589056847E+03 -0.33553297794E+03  0.81730365068E+03  0.13761691101E+04  0.10260660852E+04 0.  0.
        -13    1    3    3    0    0  0.20009822866E+02 -0.36799050989E+03  0.99073125595E+03  0.10570552687E+04  0.10566000000E+00 0.  1.
          4    1    3    3  501    0 -0.26590039134E+03  0.32457531957E+02 -0.17342760527E+03  0.31911384139E+03  0.00000000000E+00 0.  1.
         13    1    1    2    0    0  0.24589056847E+03  0.33553297794E+03  0.17618036925E+03  0.45175666527E+03  0.10566000000E+00 0. -1.
<mgrwt>
<rscale>  1 0.86683136E+03</rscale>
<asrwt>0</asrwt>
<pdfrwt beam="2">  1       21 0.64187828E-01 0.11071839E+04</pdfrwt>
<pdfrwt beam="1">  1        4 0.21703152E+00 0.11071839E+04</pdfrwt>
<totfact> 0.87201596E+00</totfact>
</mgrwt>
</event>
<event>
 6    1  0.1375310E-005  0.1053335E+04  0.7818608E-02  0.9613940E-01
         21   -1    0    0  501  502  0.00000000000E+00  0.00000000000E+00  0.39761578969E+03  0.39761578969E+03  0.00000000000E+00 0.  1.
          4   -1    0    0  502    0 -0.00000000000E+00 -0.00000000000E+00 -0.11572908767E+04  0.11572908767E+04  0.00000000000E+00 0.  1.
    9000010    2    1    2  501    0  0.25779937200E+02 -0.29008060449E+03 -0.50545174485E+03  0.11683308250E+04  0.10122766855E+04 0.  0.
        -13    1    3    3    0    0  0.24262101550E+02 -0.21589395460E+03  0.29393436238E+03  0.36550823487E+03  0.10566000000E+00 0.  1.
          4    1    3    3  501    0  0.15178356509E+01 -0.74186649895E+02 -0.79938610723E+03  0.80282259017E+03  0.00000000000E+00 0.  1.
         13    1    1    2    0    0 -0.25779937200E+02  0.29008060449E+03 -0.25422334218E+03  0.38657584138E+03  0.10566000000E+00 0. -1.
<mgrwt>
<rscale>  1 0.76380372E+03</rscale>
<asrwt>0</asrwt>
<pdfrwt beam="1">  1       21 0.61171661E-01 0.10533354E+04</pdfrwt>
<pdfrwt beam="2">  1        4 0.17804475E+00 0.10533354E+04</pdfrwt>
<totfact> 0.17812376E+01</totfact>
</mgrwt>
</event>
<event>
 6    1  0.1375310E-005  0.7457579E+03  0.7818608E-02  0.1031298E+00
          4   -1    0    0  502    0 -0.00000000000E+00  0.00000000000E+00  0.27739579548E+03  0.27739579548E+03  0.00000000000E+00 0.  1.
         21   -1    0    0  501  502  0.00000000000E+00 -0.00000000000E+00 -0.81292042556E+03  0.81292042556E+03  0.00000000000E+00 0.  1.
    9000010    2    1    2  501    0 -0.45478505922E+02  0.76393211136E+02 -0.61838016287E+03  0.96878734511E+03  0.74043951611E+03 0.  0.
        -13    1    3    3    0    0  0.14998286812E+03 -0.22346312082E+03 -0.17905292922E+02  0.26972437371E+03  0.10566000000E+00 0.  1.
          4    1    3    3  501    0 -0.19546137404E+03  0.29985633195E+03 -0.60047486995E+03  0.69906297141E+03  0.00000000000E+00 0.  1.
         13    1    1    2    0    0  0.45478505922E+02 -0.76393211136E+02  0.82855532788E+02  0.12152887594E+03  0.10566000000E+00 0. -1.
<mgrwt>
<rscale>  1 0.43820855E+03</rscale>
<asrwt>0</asrwt>
<pdfrwt beam="2">  1       21 0.12506468E+00 0.74575793E+03</pdfrwt>
<pdfrwt beam="1">  1        4 0.42676277E-01 0.74575793E+03</pdfrwt>
<totfact> 0.97272867E+01</totfact>
</mgrwt>
</event>
<event>
 6    1  0.1375310E-005  0.9935570E+03  0.7818608E-02  0.9917526E-01
         21   -1    0    0  501  502  0.00000000000E+00  0.00000000000E+00  0.11622081558E+04  0.11622081558E+04  0.00000000000E+00 0.  1.
          4   -1    0    0  502    0 -0.00000000000E+00 -0.00000000000E+00 -0.39656398173E+03  0.39656398173E+03  0.00000000000E+00 0.  1.
    9000010    2    1    2  501    0  0.72425839480E+02 -0.10444160103E+03  0.92325395402E+03  0.13563013886E+04  0.98539435906E+03 0.  0.
        -13    1    3    3    0    0  0.31319112639E+03 -0.42195553583E+03  0.76380016160E+03  0.92710617185E+03  0.10566000000E+00 0.  1.
          4    1    3    3  501    0 -0.24076528691E+03  0.31751393479E+03  0.15945379243E+03  0.42919521676E+03  0.00000000000E+00 0.  1.
         13    1    1    2    0    0 -0.72425839480E+02  0.10444160103E+03 -0.15760977998E+03  0.20247074890E+03  0.10566000000E+00 0. -1.
<mgrwt>
<rscale>  1 0.59419383E+03</rscale>
<asrwt>0</asrwt>
<pdfrwt beam="1">  1       21 0.17880125E+00 0.99355704E+03</pdfrwt>
<pdfrwt beam="2">  1        4 0.61009844E-01 0.99355704E+03</pdfrwt>
<totfact> 0.16433425E+01</totfact>
</mgrwt>
</event>
<event>
 6    1  0.1375310E-005  0.1076351E+04  0.7818608E-02  0.9656690E-01
          4   -1    0    0  502    0 -0.00000000000E+00  0.00000000000E+00  0.63245000068E+03  0.63245000068E+03  0.00000000000E+00 0.  1.
         21   -1    0    0  501  502  0.00000000000E+00 -0.00000000000E+00 -0.72639846517E+03  0.72639846517E+03  0.00000000000E+00 0. -1.
    9000010    2    1    2  501    0 -0.73180377977E+02  0.22438837666E+03  0.58392429024E+02  0.10779334070E+04  0.10501548661E+04 0.  0.
        -13    1    3    3    0    0  0.22225703713E+03 -0.34309877387E+03  0.14189314855E+03  0.43272235435E+03  0.10566000000E+00 0.  1.
          4    1    3    3  501    0 -0.29543741511E+03  0.56748715053E+03 -0.83500719529E+02  0.64521105262E+03  0.00000000000E+00 0.  1.
         13    1    1    2    0    0  0.73180377977E+02 -0.22438837666E+03 -0.15234089351E+03  0.28091505887E+03  0.10566000000E+00 0. -1.
<mgrwt>
<rscale>  1 0.73655075E+03</rscale>
<asrwt>0</asrwt>
<pdfrwt beam="2">  1       21 0.11175361E+00 0.10763507E+04</pdfrwt>
<pdfrwt beam="1">  1        4 0.97300000E-01 0.10763507E+04</pdfrwt>
<totfact> 0.20384566E+01</totfact>
</mgrwt>
</event>
<event>
 6    1  0.1375310E-005  0.1124854E+04  0.7818608E-02  0.9400963E-01
         21   -1    0    0  501  502  0.00000000000E+00  0.00000000000E+00  0.13894096325E+04  0.13894096325E+04  0.00000000000E+00 0.  1.
          4   -1    0    0  502    0 -0.00000000000E+00 -0.00000000000E+00 -0.49966583246E+03  0.49966583246E+03  0.00000000000E+00 0.  1.
    9000010    2    1    2  501    0 -0.27731559385E+03  0.41996664017E+03  0.79381502333E+03  0.13767491444E+04  0.10059920466E+04 0.  0.
        -13    1    3    3    0    0 -0.52936902882E+03  0.61104415177E+03  0.57884517908E+03  0.99431799571E+03  0.10566000000E+00 0.  1.
          4    1    3    3  501    0  0.25205343497E+03 -0.19107751160E+03  0.21496984425E+03  0.38243114865E+03  0.00000000000E+00 0.  1.
         13    1    1    2    0    0  0.27731559385E+03 -0.41996664017E+03  0.95928776748E+02  0.51232632064E+03  0.10566000000E+00 0. -1.
<mgrwt>
<rscale>  1 0.91996495E+03</rscale>
<asrwt>0</asrwt>
<pdfrwt beam="1">  1       21 0.21375533E+00 0.11248537E+04</pdfrwt>
<pdfrwt beam="2">  1        4 0.76871667E-01 0.11248537E+04</pdfrwt>
<totfact> 0.55069773E+00</totfact>
</mgrwt>
</event>
<event>
 6    1  0.1375310E-005  0.1022293E+04  0.7818608E-02  0.9769242E-01
         21   -1    0    0  501  502  0.00000000000E+00  0.00000000000E+00  0.12013371528E+04  0.12013371528E+04  0.00000000000E+00 0.  1.
          4   -1    0    0  502    0 -0.00000000000E+00 -0.00000000000E+00 -0.34644672347E+03  0.34644672347E+03  0.00000000000E+00 0.  1.
    9000010    2    1    2  501    0  0.10873924023E+03  0.15465933227E+03  0.89007601818E+03  0.13554774327E+04  0.10046591566E+04 0.  0.
        -13    1    3    3    0    0  0.40050772583E+03  0.42928118115E+03  0.35177381440E+03  0.68442209096E+03  0.10566000000E+00 0.  1.
          4    1    3    3  501    0 -0.29176848560E+03 -0.27462184888E+03  0.53830220378E+03  0.67105534174E+03  0.00000000000E+00 0.  1.
         13    1    1    2    0    0 -0.10873924023E+03 -0.15465933227E+03 -0.35185588820E+02  0.19230644359E+03  0.10566000000E+00 0. -1.
<mgrwt>
<rscale>  1 0.67039639E+03</rscale>
<asrwt>0</asrwt>
<pdfrwt beam="1">  1       21 0.18482110E+00 0.10222934E+04</pdfrwt>
<pdfrwt beam="2">  1        4 0.53299497E-01 0.10222934E+04</pdfrwt>
<totfact> 0.19835737E+01</totfact>
</mgrwt>
</event>
<event>
 6    1  0.1375310E-005  0.1030641E+04  0.7818608E-02  0.1014714E+00
          4   -1    0    0  502    0 -0.00000000000E+00  0.00000000000E+00  0.10475979626E+04  0.10475979626E+04  0.00000000000E+00 0.  1.
         21   -1    0    0  501  502  0.00000000000E+00 -0.00000000000E+00 -0.33679739599E+03  0.33679739599E+03  0.00000000000E+00 0.  1.
    9000010    2    1    2  501    0 -0.19908457386E+02 -0.51783631388E+02  0.46194612992E+03  0.11294317671E+04  0.10291472190E+04 0.  0.
        -13    1    3    3    0    0  0.33157446202E+03 -0.35086777474E+03  0.90748431470E+01  0.48283763644E+03  0.10566000000E+00 0.  1.
          4    1    3    3  501    0 -0.35148291941E+03  0.29908414335E+03  0.45287128678E+03  0.64659413068E+03  0.00000000000E+00 0.  1.
         13    1    1    2    0    0  0.19908457386E+02  0.51783631388E+02  0.24885443666E+03  0.25496359144E+03  0.10566000000E+00 0. -1.
<mgrwt>
<rscale>  1 0.49643520E+03</rscale>
<asrwt>0</asrwt>
<pdfrwt beam="2">  1       21 0.51814984E-01 0.10306415E+04</pdfrwt>
<pdfrwt beam="1">  1        4 0.16116892E+00 0.10306415E+04</pdfrwt>
<totfact> 0.34085103E+01</totfact>
</mgrwt>
</event>
<event>
 6    1  0.1375310E-005  0.9540053E+03  0.7818608E-02  0.1010512E+00
         21   -1    0    0  501  502  0.00000000000E+00  0.00000000000E+00  0.20635714391E+04  0.20635714391E+04  0.00000000000E+00 0.  1.
          4   -1    0    0  502    0 -0.00000000000E+00 -0.00000000000E+00 -0.26948095335E+03  0.26948095335E+03  0.00000000000E+00 0.  1.
    9000010    2    1    2  501    0  0.11580572219E+02 -0.78743340588E+02  0.19427946139E+04  0.21643883707E+04  0.95067948543E+03 0.  0.
        -13    1    3    3    0    0 -0.39190896175E+03  0.15974438788E+03  0.54449841276E+03  0.68962992715E+03  0.10566000000E+00 0.  1.
          4    1    3    3  501    0  0.40348953397E+03 -0.23848772847E+03  0.13982962012E+04  0.14747584436E+04  0.00000000000E+00 0.  1.
         13    1    1    2    0    0 -0.11580572219E+02  0.78743340588E+02 -0.14870412816E+03  0.16866402176E+03  0.10566000000E+00 0. -1.
<mgrwt>
<rscale>  1 0.51271767E+03</rscale>
<asrwt>0</asrwt>
<pdfrwt beam="1">  1       21 0.31747252E+00 0.95400530E+03</pdfrwt>
<pdfrwt beam="2">  1        4 0.41458610E-01 0.95400530E+03</pdfrwt>
<totfact> 0.47180070E+00</totfact>
</mgrwt>
</event>
<event>
 6    1  0.1375310E-005  0.1005290E+04  0.7818608E-02  0.9950006E-01
          4   -1    0    0  502    0 -0.00000000000E+00  0.00000000000E+00  0.16380053340E+03  0.16380053340E+03  0.00000000000E+00 0.  1.
         21   -1    0    0  501  502  0.00000000000E+00 -0.00000000000E+00 -0.20984959694E+04  0.20984959694E+04  0.00000000000E+00 0.  1.
    9000010    2    1    2  501    0 -0.99863770148E+02 -0.47546310883E+02 -0.18943412701E+04  0.21445599573E+04  0.99918723913E+03 0.  0.
        -13    1    3    3    0    0 -0.20002115159E+03  0.21986296562E+03 -0.79899132608E+02  0.30778574900E+03  0.10566000000E+00 0.  1.
          4    1    3    3  501    0  0.10015738144E+03 -0.26740927650E+03 -0.18144421375E+04  0.18367742083E+04  0.00000000000E+00 0.  1.
         13    1    1    2    0    0  0.99863770148E+02  0.47546310883E+02 -0.40354165933E+02  0.11773654547E+03  0.10566000000E+00 0. -1.
<mgrwt>
<rscale>  1 0.57897814E+03</rscale>
<asrwt>0</asrwt>
<pdfrwt beam="2">  1       21 0.32284551E+00 0.10052903E+04</pdfrwt>
<pdfrwt beam="1">  1        4 0.25200084E-01 0.10052903E+04</pdfrwt>
<totfact> 0.11584120E+01</totfact>
</mgrwt>
</event>
<event>
 6    1  0.1375310E-005  0.8819784E+03  0.7818608E-02  0.1008504E+00
          4   -1    0    0  502    0 -0.00000000000E+00  0.00000000000E+00  0.86239083946E+03  0.86239083946E+03  0.00000000000E+00 0.  1.
         21   -1    0    0  501  502  0.00000000000E+00 -0.00000000000E+00 -0.32147941446E+03  0.32147941446E+03  0.00000000000E+00 0.  1.
    9000010    2    1    2  501    0 -0.66026168367E+02  0.84424036210E+02  0.31982629544E+03  0.93817630105E+03  0.87544219672E+03 0.  0.
        -13    1    3    3    0    0 -0.33036809236E+03 -0.22754085541E+03 -0.26922336278E+02  0.40204818205E+03  0.10566000000E+00 0.  1.
          4    1    3    3  501    0  0.26434192400E+03  0.31196489163E+03  0.34674863172E+03  0.53612811900E+03  0.00000000000E+00 0.  1.
         13    1    1    2    0    0  0.66026168367E+02 -0.84424036210E+02  0.22108512956E+03  0.24569395287E+03  0.10566000000E+00 0. -1.
<mgrwt>
<rscale>  1 0.52073737E+03</rscale>
<asrwt>0</asrwt>
<pdfrwt beam="2">  1       21 0.49458372E-01 0.88197841E+03</pdfrwt>
<pdfrwt beam="1">  1        4 0.13267551E+00 0.88197841E+03</pdfrwt>
<totfact> 0.64106065E+01</totfact>
</mgrwt>
</event>
<event>
 6    1  0.1375310E-005  0.1103824E+04  0.7818608E-02  0.9429547E-01
         21   -1    0    0  501  502  0.00000000000E+00  0.00000000000E+00  0.17082730413E+04  0.17082730413E+04  0.00000000000E+00 0.  1.
          4   -1    0    0  502    0 -0.00000000000E+00 -0.00000000000E+00 -0.43015158128E+03  0.43015158128E+03  0.00000000000E+00 0.  1.
    9000010    2    1    2  501    0  0.29099336882E+03  0.38299931324E+03  0.12336148633E+04  0.16553651408E+04  0.99351019299E+03 0.  0.
        -13    1    3    3    0    0 -0.15493674839E+03 -0.73864379438E+02 -0.84101853161E+02  0.19113993675E+03  0.10566000000E+00 0.  1.
          4    1    3    3  501    0  0.44593011721E+03  0.45686369268E+03  0.13177167165E+04  0.14642252040E+04  0.00000000000E+00 0.  1.
         13    1    1    2    0    0 -0.29099336882E+03 -0.38299931324E+03  0.44506596655E+02  0.48305948179E+03  0.10566000000E+00 0. -1.
<mgrwt>
<rscale>  1 0.89683453E+03</rscale>
<asrwt>0</asrwt>
<pdfrwt beam="1">  1       21 0.26281123E+00 0.11038243E+04</pdfrwt>
<pdfrwt beam="2">  1        4 0.66177167E-01 0.11038243E+04</pdfrwt>
<totfact> 0.37230815E+00</totfact>
</mgrwt>
</event>
<event>
 6    1  0.1375310E-005  0.1007309E+04  0.7818608E-02  0.1003616E+00
          4   -1    0    0  502    0 -0.00000000000E+00  0.00000000000E+00  0.32925855195E+03  0.32925855195E+03  0.00000000000E+00 0.  1.
         21   -1    0    0  501  502  0.00000000000E+00 -0.00000000000E+00 -0.15960465216E+04  0.15960465216E+04  0.00000000000E+00 0.  1.
    9000010    2    1    2  501    0  0.42452402188E+00  0.83765690420E+02 -0.14257101069E+04  0.17456578415E+04  0.10038202625E+04 0.  0.
        -13    1    3    3    0    0 -0.35080130360E+03  0.21676778235E+03 -0.12766422313E+04  0.13415905575E+04  0.10566000000E+00 0.  1.
          4    1    3    3  501    0  0.35122582762E+03 -0.13300209193E+03 -0.14906787564E+03  0.40406728400E+03  0.00000000000E+00 0.  1.
         13    1    1    2    0    0 -0.42452402188E+00 -0.83765690420E+02  0.15892213727E+03  0.17964723207E+03  0.10566000000E+00 0. -1.
<mgrwt>
<rscale>  1 0.54092886E+03</rscale>
<asrwt>0</asrwt>
<pdfrwt beam="2">  1       21 0.24554562E+00 0.10073093E+04</pdfrwt>
<pdfrwt beam="1">  1        4 0.50655162E-01 0.10073093E+04</pdfrwt>
<totfact> 0.86766154E+00</totfact>
</mgrwt>
</event>
<event>
 6    1  0.1375310E-005  0.1045881E+04  0.7818608E-02  0.9680283E-01
         21   -1    0    0  501  502  0.00000000000E+00  0.00000000000E+00  0.21785875670E+03  0.21785875670E+03  0.00000000000E+00 0.  1.
          4   -1    0    0  502    0 -0.00000000000E+00 -0.00000000000E+00 -0.20557773704E+04  0.20557773704E+04  0.00000000000E+00 0.  1.
    9000010    2    1    2  501    0  0.13853331839E+03 -0.19298519762E+03 -0.11940017719E+04  0.15872953392E+04  0.10185438114E+04 0.  0.
        -13    1    3    3    0    0 -0.38892584037E+03 -0.95674353029E+02 -0.87732581759E+03  0.96442599121E+03  0.10566000000E+00 0.  1.
          4    1    3    3  501    0  0.52745915876E+03 -0.97310844588E+02 -0.31667595429E+03  0.62286934798E+03  0.00000000000E+00 0.  1.
         13    1    1    2    0    0 -0.13853331839E+03  0.19298519762E+03 -0.64391684181E+03  0.68634078790E+03  0.10566000000E+00 0. -1.
<mgrwt>
<rscale>  1 0.72202949E+03</rscale>
<asrwt>0</asrwt>
<pdfrwt beam="1">  1       21 0.33516730E-01 0.10458806E+04</pdfrwt>
<pdfrwt beam="2">  1        4 0.31627346E+00 0.10458806E+04</pdfrwt>
<totfact> 0.85335040E+00</totfact>
</mgrwt>
</event>
<event>
 6    1  0.1375310E-005  0.9930854E+03  0.7818608E-02  0.1011654E+00
         21   -1    0    0  501  502  0.00000000000E+00  0.00000000000E+00  0.54186361262E+03  0.54186361262E+03  0.00000000000E+00 0.  1.
          4   -1    0    0  502    0 -0.00000000000E+00 -0.00000000000E+00 -0.66230417417E+03  0.66230417417E+03  0.00000000000E+00 0.  1.
    9000010    2    1    2  501    0 -0.33622356514E+02 -0.59243249331E+02  0.76256858159E+02  0.99600892550E+03  0.99074640842E+03 0.  0.
        -13    1    3    3    0    0 -0.10970062895E+03 -0.18045514251E+03 -0.42507881513E+03  0.47464754996E+03  0.10566000000E+00 0.  1.
          4    1    3    3  501    0  0.76078272435E+02  0.12121189318E+03  0.50133567329E+03  0.52136137553E+03  0.00000000000E+00 0.  1.
         13    1    1    2    0    0  0.33622356514E+02  0.59243249331E+02 -0.19669741971E+03  0.20815886129E+03  0.10566000000E+00 0. -1.
<mgrwt>
<rscale>  1 0.50822670E+03</rscale>
<asrwt>0</asrwt>
<pdfrwt beam="1">  1       21 0.83363632E-01 0.99308543E+03</pdfrwt>
<pdfrwt beam="2">  1        4 0.10189295E+00 0.99308543E+03</pdfrwt>
<totfact> 0.37786983E+01</totfact>
</mgrwt>
</event>
<event>
 6    1  0.1375310E-005  0.1017630E+04  0.7818608E-02  0.9836828E-01
          4   -1    0    0  502    0 -0.00000000000E+00  0.00000000000E+00  0.60275702693E+03  0.60275702693E+03  0.00000000000E+00 0.  1.
         21   -1    0    0  501  502  0.00000000000E+00 -0.00000000000E+00 -0.63247935291E+03  0.63247935291E+03  0.00000000000E+00 0.  1.
    9000010    2    1    2  501    0  0.13683715804E+02  0.15292815914E+03 -0.16461554023E+03  0.10308581610E+04  0.10059801221E+04 0.  0.
        -13    1    3    3    0    0 -0.21945537588E+03  0.36172734868E+03  0.26507458040E+03  0.49927135019E+03  0.10566000000E+00 0.  1.
          4    1    3    3  501    0  0.23313909168E+03 -0.20879918954E+03 -0.42969012063E+03  0.53158681077E+03  0.00000000000E+00 0.  1.
         13    1    1    2    0    0 -0.13683715804E+02 -0.15292815914E+03  0.13489321425E+03  0.20437821888E+03  0.10566000000E+00 0. -1.
<mgrwt>
<rscale>  1 0.63423052E+03</rscale>
<asrwt>0</asrwt>
<pdfrwt beam="2">  1       21 0.97304515E-01 0.10176297E+04</pdfrwt>
<pdfrwt beam="1">  1        4 0.92731851E-01 0.10176297E+04</pdfrwt>
<totfact> 0.32521362E+01</totfact>
</mgrwt>
</event>
<event>
 6    1  0.1375310E-005  0.1042740E+04  0.7818608E-02  0.9389391E-01
         21   -1    0    0  501  502  0.00000000000E+00  0.00000000000E+00  0.61791149031E+03  0.61791149031E+03  0.00000000000E+00 0.  1.
          4   -1    0    0  502    0 -0.00000000000E+00 -0.00000000000E+00 -0.13763773896E+04  0.13763773896E+04  0.00000000000E+00 0.  1.
    9000010    2    1    2  501    0 -0.58621284345E+03  0.29991882015E+03 -0.75321446776E+02  0.10454563601E+04  0.80852265521E+03 0.  0.
        -13    1    3    3    0    0 -0.25831071931E+03 -0.25208572441E+03  0.10977764438E+03  0.37725691847E+03  0.10566000000E+00 0.  1.
          4    1    3    3  501    0 -0.32790212414E+03  0.55200454456E+03 -0.18509909115E+03  0.66819944162E+03  0.00000000000E+00 0.  1.
         13    1    1    2    0    0  0.58621284345E+03 -0.29991882015E+03 -0.68314445250E+03  0.94883251981E+03  0.10566000000E+00 0. -1.
<mgrwt>
<rscale>  1 0.92953903E+03</rscale>
<asrwt>0</asrwt>
<pdfrwt beam="1">  1       21 0.95063307E-01 0.10427395E+04</pdfrwt>
<pdfrwt beam="2">  1        4 0.21175037E+00 0.10427395E+04</pdfrwt>
<totfact> 0.37800153E+00</totfact>
</mgrwt>
</event>
<event>
 6    1  0.1375310E-005  0.1020342E+04  0.7818608E-02  0.9846743E-01
         21   -1    0    0  501  502  0.00000000000E+00  0.00000000000E+00  0.40144956745E+03  0.40144956745E+03  0.00000000000E+00 0.  1.
          4   -1    0    0  502    0 -0.00000000000E+00 -0.00000000000E+00 -0.85169943390E+03  0.85169943390E+03  0.00000000000E+00 0.  1.
    9000010    2    1    2  501    0 -0.10523388471E+03  0.10332500514E+03 -0.41504312674E+03  0.11015252800E+04  0.10096271185E+04 0.  0.
        -13    1    3    3    0    0 -0.53509095603E+03 -0.46995265153E+02 -0.35099508458E+03  0.64166069440E+03  0.10566000000E+00 0.  1.
          4    1    3    3  501    0  0.42985707132E+03  0.15032027029E+03 -0.64048042165E+02  0.45986458565E+03  0.00000000000E+00 0.  1.
         13    1    1    2    0    0  0.10523388471E+03 -0.10332500514E+03 -0.35206739710E+02  0.15162372131E+03  0.10566000000E+00 0. -1.
<mgrwt>
<rscale>  1 0.62913273E+03</rscale>
<asrwt>0</asrwt>
<pdfrwt beam="1">  1       21 0.61761472E-01 0.10203417E+04</pdfrwt>
<pdfrwt beam="2">  1        4 0.13103068E+00 0.10203417E+04</pdfrwt>
<totfact> 0.40179237E+01</totfact>
</mgrwt>
</event>
<event>
 6    1  0.1375310E-005  0.1011896E+04  0.7818608E-02  0.9717220E-01
         21   -1    0    0  501  502  0.00000000000E+00  0.00000000000E+00  0.47999799405E+03  0.47999799405E+03  0.00000000000E+00 0. -1.
          4   -1    0    0  502    0 -0.00000000000E+00 -0.00000000000E+00 -0.87492215371E+03  0.87492215371E+03  0.00000000000E+00 0.  1.
    9000010    2    1    2  501    0 -0.16565105746E+02 -0.23114763974E+03 -0.15916790801E+03  0.10243378502E+04  0.98500252507E+03 0.  0.
        -13    1    3    3    0    0 -0.43629491029E+03  0.13302771500E+03 -0.78024239516E+02  0.46274984043E+03  0.10566000000E+00 0.  1.
          4    1    3    3  501    0  0.41972980454E+03 -0.36417535474E+03 -0.81143668491E+02  0.56158800980E+03  0.00000000000E+00 0.  1.
         13    1    1    2    0    0  0.16565105746E+02  0.23114763974E+03 -0.23575625165E+03  0.33058229753E+03  0.10566000000E+00 0. -1.
<mgrwt>
<rscale>  1 0.70000702E+03</rscale>
<asrwt>0</asrwt>
<pdfrwt beam="1">  1       21 0.73845847E-01 0.10118960E+04</pdfrwt>
<pdfrwt beam="2">  1        4 0.13460341E+00 0.10118960E+04</pdfrwt>
<totfact> 0.24969904E+01</totfact>
</mgrwt>
</event>
<event>
 6    1  0.1375310E-005  0.1197036E+04  0.7818608E-02  0.9280354E-01
          4   -1    0    0  502    0 -0.00000000000E+00  0.00000000000E+00  0.49893656329E+03  0.49893656329E+03  0.00000000000E+00 0.  1.
         21   -1    0    0  501  502  0.00000000000E+00 -0.00000000000E+00 -0.19783924290E+04  0.19783924290E+04  0.00000000000E+00 0. -1.
    9000010    2    1    2  501    0 -0.23947978916E+03  0.60034784916E+03 -0.13742264601E+04  0.18224691994E+04  0.10075353639E+04 0.  0.
        -13    1    3    3    0    0 -0.58305935595E+03  0.10229344476E+03 -0.68230625028E+03  0.90330725212E+03  0.10566000000E+00 0.  1.
          4    1    3    3  501    0  0.34357956679E+03  0.49805440440E+03 -0.69192020984E+03  0.91916194724E+03  0.00000000000E+00 0.  1.
         13    1    1    2    0    0  0.23947978916E+03 -0.60034784916E+03 -0.10522940555E+03  0.65485979290E+03  0.10566000000E+00 0. -1.
<mgrwt>
<rscale>  1 0.10261182E+04</rscale>
<asrwt>0</asrwt>
<pdfrwt beam="2">  1       21 0.30436806E+00 0.11970362E+04</pdfrwt>
<pdfrwt beam="1">  1        4 0.76759474E-01 0.11970362E+04</pdfrwt>
<totfact> 0.14414127E+00</totfact>
</mgrwt>
</event>
<event>
 6    1  0.1375310E-005  0.1205760E+04  0.7818608E-02  0.9274823E-01
         21   -1    0    0  501  502  0.00000000000E+00  0.00000000000E+00  0.91515430102E+03  0.91515430102E+03  0.00000000000E+00 0. -1.
          4   -1    0    0  502    0 -0.00000000000E+00 -0.00000000000E+00 -0.10464747276E+04  0.10464747276E+04  0.00000000000E+00 0.  1.
    9000010    2    1    2  501    0 -0.63912409454E+03 -0.89761630186E+02 -0.38861230739E+03  0.12668370586E+04  0.10184890030E+04 0.  0.
        -13    1    3    3    0    0  0.26043947098E+03  0.68789937719E+02 -0.19649367744E+03  0.33342247977E+03  0.10566000000E+00 0.  1.
          4    1    3    3  501    0 -0.89956356552E+03 -0.15855156791E+03 -0.19211862995E+03  0.93341457888E+03  0.00000000000E+00 0.  1.
         13    1    1    2    0    0  0.63912409454E+03  0.89761630186E+02  0.25729188079E+03  0.69479196999E+03  0.10566000000E+00 0. -1.
<mgrwt>
<rscale>  1 0.10313411E+04</rscale>
<asrwt>0</asrwt>
<pdfrwt beam="1">  1       21 0.14079297E+00 0.12057598E+04</pdfrwt>
<pdfrwt beam="2">  1        4 0.16099611E+00 0.12057598E+04</pdfrwt>
<totfact> 0.30090938E+00</totfact>
</mgrwt>
</event>
<event>
 6    1  0.1375310E-005  0.1000592E+04  0.7818608E-02  0.9601899E-01
          4   -1    0    0  502    0 -0.00000000000E+00  0.00000000000E+00  0.20050404965E+04  0.20050404965E+04  0.00000000000E+00 0.  1.
         21   -1    0    0  501  502  0.00000000000E+00 -0.00000000000E+00 -0.27761235443E+03  0.27761235443E+03  0.00000000000E+00 0.  1.
    9000010    2    1    2  501    0 -0.33721401438E+03  0.10780230880E+03  0.77214925127E+03  0.12638828083E+04  0.93586893192E+03 0.  0.
        -13    1    3    3    0    0 -0.37662414319E+03  0.47661279734E+03  0.34662354697E+03  0.69939502307E+03  0.10566000000E+00 0.  1.
          4    1    3    3  501    0  0.39410128807E+02 -0.36881048854E+03  0.42552570430E+03  0.56448778528E+03  0.00000000000E+00 0.  1.
         13    1    1    2    0    0  0.33721401438E+03 -0.10780230880E+03  0.95527889082E+03  0.10187700426E+04  0.10566000000E+00 0. -1.
<mgrwt>
<rscale>  1 0.77170588E+03</rscale>
<asrwt>0</asrwt>
<pdfrwt beam="2">  1       21 0.42709594E-01 0.10005925E+04</pdfrwt>
<pdfrwt beam="1">  1        4 0.30846776E+00 0.10005925E+04</pdfrwt>
<totfact> 0.58038436E+00</totfact>
</mgrwt>
</event>
<event>
 6    1  0.1375310E-005  0.1035016E+04  0.7818608E-02  0.9677999E-01
         21   -1    0    0  501  502  0.00000000000E+00  0.00000000000E+00  0.42558287578E+03  0.42558287578E+03  0.00000000000E+00 0.  1.
          4   -1    0    0  502    0 -0.00000000000E+00 -0.00000000000E+00 -0.96652455533E+03  0.96652455533E+03  0.00000000000E+00 0.  1.
    9000010    2    1    2  501    0  0.23693718484E+03  0.69830432750E+02 -0.45443181319E+03  0.11303833645E+04  0.10051083320E+04 0.  0.
        -13    1    3    3    0    0  0.42480183501E+03  0.61790078370E+02 -0.69996911458E+03  0.82111593904E+03  0.10566000000E+00 0.  1.
          4    1    3    3  501    0 -0.18786465016E+03  0.80403543804E+01  0.24553730140E+03  0.30926742547E+03  0.00000000000E+00 0.  1.
         13    1    1    2    0    0 -0.23693718484E+03 -0.69830432750E+02 -0.86509866358E+02  0.26172406661E+03  0.10566000000E+00 0. -1.
<mgrwt>
<rscale>  1 0.72341986E+03</rscale>
<asrwt>0</asrwt>
<pdfrwt beam="1">  1       21 0.65474290E-01 0.10350161E+04</pdfrwt>
<pdfrwt beam="2">  1        4 0.14869608E+00 0.10350161E+04</pdfrwt>
<totfact> 0.25237009E+01</totfact>
</mgrwt>
</event>
<event>
 6    1  0.1375310E-005  0.9776066E+03  0.7818608E-02  0.9828248E-01
         21   -1    0    0  501  502  0.00000000000E+00  0.00000000000E+00  0.17311970708E+03  0.17311970708E+03  0.00000000000E+00 0.  1.
          4   -1    0    0  502    0 -0.00000000000E+00 -0.00000000000E+00 -0.21054007976E+04  0.21054007976E+04  0.00000000000E+00 0.  1.
    9000010    2    1    2  501    0 -0.58845162536E+02 -0.16809205616E+03 -0.13311819911E+04  0.16515932115E+04  0.96124760090E+03 0.  0.
        -13    1    3    3    0    0 -0.42314855550E+03  0.18779885280E+03 -0.54789915094E+03  0.71729812484E+03  0.10566000000E+00 0.  1.
          4    1    3    3  501    0  0.36430339296E+03 -0.35589090896E+03 -0.78328284019E+03  0.93429508665E+03  0.00000000000E+00 0.  1.
         13    1    1    2    0    0  0.58845162536E+02  0.16809205616E+03 -0.60109909940E+03  0.62692729320E+03  0.10566000000E+00 0. -1.
<mgrwt>
<rscale>  1 0.63868366E+03</rscale>
<asrwt>0</asrwt>
<pdfrwt beam="1">  1       21 0.26633801E-01 0.97760659E+03</pdfrwt>
<pdfrwt beam="2">  1        4 0.32390782E+00 0.97760659E+03</pdfrwt>
<totfact> 0.12260532E+01</totfact>
</mgrwt>
</event>
<event>
 6    1  0.1375310E-005  0.1006194E+04  0.7818608E-02  0.9921073E-01
         21   -1    0    0  501  502  0.00000000000E+00  0.00000000000E+00  0.14287772542E+04  0.14287772542E+04  0.00000000000E+00 0.  1.
          4   -1    0    0  502    0 -0.00000000000E+00 -0.00000000000E+00 -0.63045077586E+03  0.63045077586E+03  0.00000000000E+00 0.  1.
    9000010    2    1    2  501    0  0.65580678708E+02 -0.10166852317E+03  0.12425286768E+04  0.15988445830E+04  0.99889397521E+03 0.  0.
        -13    1    3    3    0    0 -0.12817421072E+03 -0.24593412220E+02  0.13554440774E+04  0.13617129369E+04  0.10566000000E+00 0.  1.
          4    1    3    3  501    0  0.19375488943E+03 -0.77075110952E+02 -0.11291540057E+03  0.23713164612E+03  0.00000000000E+00 0.  1.
         13    1    1    2    0    0 -0.65580678708E+02  0.10166852317E+03 -0.44420219851E+03  0.46038344708E+03  0.10566000000E+00 0. -1.
<mgrwt>
<rscale>  1 0.59250774E+03</rscale>
<asrwt>0</asrwt>
<pdfrwt beam="1">  1       21 0.21981188E+00 0.10061941E+04</pdfrwt>
<pdfrwt beam="2">  1        4 0.96992428E-01 0.10061941E+04</pdfrwt>
<totfact> 0.29658719E+00</totfact>
</mgrwt>
</event>
<event>
 6    1  0.1375310E-005  0.1093009E+04  0.7818608E-02  0.9471538E-01
          4   -1    0    0  502    0 -0.00000000000E+00  0.00000000000E+00  0.12096067340E+04  0.12096067340E+04  0.00000000000E+00 0.  1.
         21   -1    0    0  501  502  0.00000000000E+00 -0.00000000000E+00 -0.11347097839E+04  0.11347097839E+04  0.00000000000E+00 0.  1.
    9000010    2    1    2  501    0  0.38948118825E+03 -0.17516885042E+03 -0.81088749530E+03  0.13609580802E+04  0.10061255607E+04 0.  0.
        -13    1    3    3    0    0  0.35645390746E+03 -0.50953809494E+03 -0.18198032548E+03  0.64792384457E+03  0.10566000000E+00 0.  1.
          4    1    3    3  501    0  0.33027280791E+02  0.33436924452E+03 -0.62890716982E+03  0.71303423565E+03  0.00000000000E+00 0.  1.
         13    1    1    2    0    0 -0.38948118825E+03  0.17516885042E+03  0.88578444536E+03  0.98335843768E+03  0.10566000000E+00 0. -1.
<mgrwt>
<rscale>  1 0.86415139E+03</rscale>
<asrwt>0</asrwt>
<pdfrwt beam="2">  1       21 0.17457074E+00 0.10930089E+04</pdfrwt>
<pdfrwt beam="1">  1        4 0.18609334E+00 0.10930089E+04</pdfrwt>
<totfact> 0.10951044E+00</totfact>
</mgrwt>
</event>
<event>
 6    1  0.1375310E-005  0.1013540E+04  0.7818608E-02  0.9899741E-01
         21   -1    0    0  501  502  0.00000000000E+00  0.00000000000E+00  0.31407548517E+03  0.31407548517E+03  0.00000000000E+00 0.  1.
          4   -1    0    0  502    0 -0.00000000000E+00 -0.00000000000E+00 -0.10352480844E+04  0.10352480844E+04  0.00000000000E+00 0.  1.
    9000010    2    1    2  501    0  0.12662940442E+03 -0.58198456401E+01 -0.63457979286E+03  0.11958074403E+04  0.10055819430E+04 0.  0.
        -13    1    3    3    0    0 -0.39124391753E+03  0.18917029753E+03 -0.41364686081E+03  0.59996745003E+03  0.10566000000E+00 0.  1.
          4    1    3    3  501    0  0.51787332195E+03 -0.19499014317E+03 -0.22093293205E+03  0.59583999025E+03  0.00000000000E+00 0.  1.
         13    1    1    2    0    0 -0.12662940442E+03  0.58198456401E+01 -0.86592806323E+02  0.15351612925E+03  0.10566000000E+00 0. -1.
<mgrwt>
<rscale>  1 0.60273858E+03</rscale>
<asrwt>0</asrwt>
<pdfrwt beam="1">  1       21 0.48319305E-01 0.10135403E+04</pdfrwt>
<pdfrwt beam="2">  1        4 0.15926894E+00 0.10135403E+04</pdfrwt>
<totfact> 0.41022970E+01</totfact>
</mgrwt>
</event>
<event>
 6    1  0.1375310E-005  0.1162975E+04  0.7818608E-02  0.9305811E-01
         21   -1    0    0  501  502  0.00000000000E+00  0.00000000000E+00  0.31476270813E+03  0.31476270813E+03  0.00000000000E+00 0. -1.
          4   -1    0    0  502    0 -0.00000000000E+00 -0.00000000000E+00 -0.34433830412E+04  0.34433830412E+04  0.00000000000E+00 0.  1.
    9000010    2    1    2  501    0  0.59570769061E+03 -0.23970437579E+03 -0.99676061212E+03  0.15316795535E+04  0.96963121659E+03 0.  0.
        -13    1    3    3    0    0 -0.15134245615E+03  0.15959692294E+03 -0.50834964360E+03  0.55389086304E+03  0.10566000000E+00 0.  1.
          4    1    3    3  501    0  0.74705014676E+03 -0.39930129873E+03 -0.48841096852E+03  0.97778869042E+03  0.00000000000E+00 0.  1.
         13    1    1    2    0    0 -0.59570769061E+03  0.23970437579E+03 -0.21318597210E+04  0.22264661959E+04  0.10566000000E+00 0. -1.
<mgrwt>
<rscale>  1 0.10024964E+04</rscale>
<asrwt>0</asrwt>
<pdfrwt beam="1">  1       21 0.48425031E-01 0.11629749E+04</pdfrwt>
<pdfrwt beam="2">  1        4 0.52975124E+00 0.11629749E+04</pdfrwt>
<totfact> 0.11144942E-01</totfact>
</mgrwt>
</event>
<event>
 6    1  0.1375310E-005  0.1000552E+04  0.7818608E-02  0.9983933E-01
         21   -1    0    0  501  502  0.00000000000E+00  0.00000000000E+00  0.96934193675E+03  0.96934193675E+03  0.00000000000E+00 0.  1.
          4   -1    0    0  502    0 -0.00000000000E+00 -0.00000000000E+00 -0.31414906316E+03  0.31414906316E+03  0.00000000000E+00 0.  1.
    9000010    2    1    2  501    0 -0.99535052860E+02  0.15496590197E+02  0.61848237350E+03  0.11762760614E+04  0.99546851044E+03 0.  0.
        -13    1    3    3    0    0  0.42475290785E+03  0.17043048580E+02  0.95393396683E+02  0.43566662659E+03  0.10566000000E+00 0.  1.
          4    1    3    3  501    0 -0.52428796071E+03 -0.15464583833E+01  0.52308897682E+03  0.74060943482E+03  0.00000000000E+00 0.  1.
         13    1    1    2    0    0  0.99535052860E+02 -0.15496590197E+02  0.36710500083E+02  0.10721493849E+03  0.10566000000E+00 0. -1.
<mgrwt>
<rscale>  1 0.56360405E+03</rscale>
<asrwt>0</asrwt>
<pdfrwt beam="1">  1       21 0.14912953E+00 0.10005523E+04</pdfrwt>
<pdfrwt beam="2">  1        4 0.48330625E-01 0.10005523E+04</pdfrwt>
<totfact> 0.45628488E+01</totfact>
</mgrwt>
</event>
<event>
 6    1  0.1375310E-005  0.1299701E+04  0.7818608E-02  0.9129098E-01
         21   -1    0    0  501  502  0.00000000000E+00  0.00000000000E+00  0.50111297465E+03  0.50111297465E+03  0.00000000000E+00 0.  1.
          4   -1    0    0  502    0 -0.00000000000E+00 -0.00000000000E+00 -0.24311703899E+04  0.24311703899E+04  0.00000000000E+00 0.  1.
    9000010    2    1    2  501    0  0.87457976780E+03 -0.15343977352E+03 -0.95050703278E+03  0.16101818188E+04  0.94909869658E+03 0.  0.
        -13    1    3    3    0    0  0.10756234205E+04 -0.58412796423E+02 -0.77950651992E+03  0.13296647033E+04  0.10566000000E+00 0.  1.
          4    1    3    3  501    0 -0.20104365270E+03 -0.95026977102E+02 -0.17100051286E+03  0.28051711546E+03  0.00000000000E+00 0.  1.
         13    1    1    2    0    0 -0.87457976780E+03  0.15343977352E+03 -0.97955038247E+03  0.13221015458E+04  0.10566000000E+00 0. -1.
<mgrwt>
<rscale>  1 0.11816209E+04</rscale>
<asrwt>0</asrwt>
<pdfrwt beam="1">  1       21 0.77094304E-01 0.12997007E+04</pdfrwt>
<pdfrwt beam="2">  1        4 0.37402621E+00 0.12997007E+04</pdfrwt>
<totfact> 0.56614344E-01</totfact>
</mgrwt>
</event>
<event>
 6    1  0.1375310E-005  0.1062625E+04  0.7818608E-02  0.9546317E-01
         21   -1    0    0  501  502  0.00000000000E+00  0.00000000000E+00  0.12194153489E+04  0.12194153489E+04  0.00000000000E+00 0.  1.
          4   -1    0    0  502    0 -0.00000000000E+00 -0.00000000000E+00 -0.64979805764E+03  0.64979805764E+03  0.00000000000E+00 0.  1.
    9000010    2    1    2  501    0 -0.30333156623E+03 -0.19001784098E+03  0.89208810912E+03  0.13874414082E+04  0.10005276846E+04 0.  0.
        -13    1    3    3    0    0 -0.24694942997E+03 -0.59988037936E+03  0.55714406331E+03  0.85513157406E+03  0.10566000000E+00 0.  1.
          4    1    3    3  501    0 -0.56382136263E+02  0.40986253838E+03  0.33494404581E+03  0.53230983410E+03  0.00000000000E+00 0.  1.
         13    1    1    2    0    0  0.30333156623E+03  0.19001784098E+03 -0.32247081782E+03  0.48177199843E+03  0.10566000000E+00 0. -1.
<mgrwt>
<rscale>  1 0.80953546E+03</rscale>
<asrwt>0</asrwt>
<pdfrwt beam="1">  1       21 0.18760236E+00 0.10626253E+04</pdfrwt>
<pdfrwt beam="2">  1        4 0.99968932E-01 0.10626253E+04</pdfrwt>
<totfact> 0.45427300E+00</totfact>
</mgrwt>
</event>
<event>
 6    1  0.1375310E-005  0.9959383E+03  0.7818608E-02  0.1008496E+00
          4   -1    0    0  502    0 -0.00000000000E+00  0.00000000000E+00  0.45095430567E+03  0.45095430567E+03  0.00000000000E+00 0.  1.
         21   -1    0    0  501  502  0.00000000000E+00 -0.00000000000E+00 -0.72342960104E+03  0.72342960104E+03  0.00000000000E+00 0.  1.
    9000010    2    1    2  501    0 -0.60857143195E+02  0.42889603415E+02 -0.11800186648E+03  0.10029045746E+04  0.99315156710E+03 0.  0.
        -13    1    3    3    0    0 -0.45704272653E+02 -0.36467649959E+03 -0.37159280609E+03  0.52264620404E+03  0.10566000000E+00 0.  1.
          4    1    3    3  501    0 -0.15152870543E+02  0.40756610300E+03  0.25359093962E+03  0.48025837052E+03  0.00000000000E+00 0.  1.
         13    1    1    2    0    0  0.60857143195E+02 -0.42889603415E+02 -0.15447342889E+03  0.17147933215E+03  0.10566000000E+00 0. -1.
<mgrwt>
<rscale>  1 0.52076727E+03</rscale>
<asrwt>0</asrwt>
<pdfrwt beam="2">  1       21 0.11129686E+00 0.99593832E+03</pdfrwt>
<pdfrwt beam="1">  1        4 0.69377586E-01 0.99593832E+03</pdfrwt>
<totfact> 0.45359124E+01</totfact>
</mgrwt>
</event>
<event>
 6    1  0.1375310E-005  0.1016456E+04  0.7818608E-02  0.9792004E-01
         21   -1    0    0  501  502  0.00000000000E+00  0.00000000000E+00  0.98947141630E+03  0.98947141630E+03  0.00000000000E+00 0.  1.
          4   -1    0    0  502    0 -0.00000000000E+00 -0.00000000000E+00 -0.39636572610E+03  0.39636572610E+03  0.00000000000E+00 0.  1.
    9000010    2    1    2  501    0 -0.17730453777E+03  0.19994843697E+02  0.64024194680E+03  0.12012876078E+04  0.10006725105E+04 0.  0.
        -13    1    3    3    0    0 -0.28326615624E+03 -0.18197471144E+03 -0.15741475553E+03  0.37166372879E+03  0.10566000000E+00 0.  1.
          4    1    3    3  501    0  0.10596161847E+03  0.20196955514E+03  0.79765670232E+03  0.82962387897E+03  0.00000000000E+00 0.  1.
         13    1    1    2    0    0  0.17730453777E+03 -0.19994843697E+02 -0.47136256597E+02  0.18454953465E+03  0.10566000000E+00 0. -1.
<mgrwt>
<rscale>  1 0.65793403E+03</rscale>
<asrwt>0</asrwt>
<pdfrwt beam="1">  1       21 0.15222637E+00 0.10164557E+04</pdfrwt>
<pdfrwt beam="2">  1        4 0.60979343E-01 0.10164557E+04</pdfrwt>
<totfact> 0.26150922E+01</totfact>
</mgrwt>
</event>
<event>
 6    1  0.1375310E-005  0.1011285E+04  0.7818608E-02  0.9845445E-01
         21   -1    0    0  501  502  0.00000000000E+00  0.00000000000E+00  0.19103251925E+04  0.19103251925E+04  0.00000000000E+00 0.  1.
          4   -1    0    0  502    0 -0.00000000000E+00 -0.00000000000E+00 -0.29383566023E+03  0.29383566023E+03  0.00000000000E+00 0.  1.
    9000010    2    1    2  501    0 -0.88361098807E+02  0.12382339772E+03  0.17371009747E+04  0.20100293282E+04  0.99977906876E+03 0.  0.
        -13    1    3    3    0    0 -0.39070180560E+03 -0.26739925449E+03  0.56007725208E+03  0.73337357579E+03  0.10566000000E+00 0.  1.
          4    1    3    3  501    0  0.30234070679E+03  0.39122265221E+03  0.11770237226E+04  0.12766557524E+04  0.00000000000E+00 0.  1.
         13    1    1    2    0    0  0.88361098807E+02 -0.12382339772E+03 -0.12061144243E+03  0.19413152452E+03  0.10566000000E+00 0. -1.
<mgrwt>
<rscale>  1 0.62979694E+03</rscale>
<asrwt>0</asrwt>
<pdfrwt beam="1">  1       21 0.29389618E+00 0.10112854E+04</pdfrwt>
<pdfrwt beam="2">  1        4 0.45205487E-01 0.10112854E+04</pdfrwt>
<totfact> 0.54718889E+00</totfact>
</mgrwt>
</event>
<event>
 6    1  0.1375310E-005  0.1001587E+04  0.7818608E-02  0.9974587E-01
         21   -1    0    0  501  502  0.00000000000E+00  0.00000000000E+00  0.33303178387E+03  0.33303178387E+03  0.00000000000E+00 0.  1.
          4   -1    0    0  502    0 -0.00000000000E+00 -0.00000000000E+00 -0.95731329281E+03  0.95731329281E+03  0.00000000000E+00 0.  1.
    9000010    2    1    2  501    0 -0.57436072306E+02 -0.86025410474E+02 -0.47445090268E+03  0.11082777941E+04  0.99623126643E+03 0.  0.
        -13    1    3    3    0    0 -0.33716549943E+03 -0.32229297462E+03 -0.56345290763E+03  0.73145917574E+03  0.10566000000E+00 0.  1.
          4    1    3    3  501    0  0.27972942712E+03  0.23626756415E+03  0.89002004947E+02  0.37681861837E+03  0.00000000000E+00 0.  1.
         13    1    1    2    0    0  0.57436072306E+02  0.86025410474E+02 -0.14983060625E+03  0.18206728257E+03  0.10566000000E+00 0. -1.
<mgrwt>
<rscale>  1 0.56778743E+03</rscale>
<asrwt>0</asrwt>
<pdfrwt beam="1">  1       21 0.51235660E-01 0.10015867E+04</pdfrwt>
<pdfrwt beam="2">  1        4 0.14727896E+00 0.10015867E+04</pdfrwt>
<totfact> 0.44715451E+01</totfact>
</mgrwt>
</event>
<event>
 6    1  0.1375310E-005  0.1049826E+04  0.7818608E-02  0.9551494E-01
         21   -1    0    0  501  502  0.00000000000E+00  0.00000000000E+00  0.86729592373E+03  0.86729592373E+03  0.00000000000E+00 0.  1.
          4   -1    0    0  502    0 -0.00000000000E+00 -0.00000000000E+00 -0.57944708418E+03  0.57944708418E+03  0.00000000000E+00 0.  1.
    9000010    2    1    2  501    0 -0.11064340230E+03  0.34739580569E+03  0.16947446227E+03  0.10634176727E+04  0.98448450717E+03 0.  0.
        -13    1    3    3    0    0 -0.10064988505E+03  0.69372095614E+03  0.14691645824E+03  0.71621478706E+03  0.10566000000E+00 0.  1.
          4    1    3    3  501    0 -0.99935172566E+01 -0.34632515044E+03  0.22558004028E+02  0.34720288559E+03  0.00000000000E+00 0.  1.
         13    1    1    2    0    0  0.11064340230E+03 -0.34739580569E+03  0.11837437729E+03  0.38332533525E+03  0.10566000000E+00 0. -1.
<mgrwt>
<rscale>  1 0.80591521E+03</rscale>
<asrwt>0</asrwt>
<pdfrwt beam="1">  1       21 0.13343014E+00 0.10498264E+04</pdfrwt>
<pdfrwt beam="2">  1        4 0.89145706E-01 0.10498264E+04</pdfrwt>
<totfact> 0.15830739E+01</totfact>
</mgrwt>
</event>
<event>
 6    1  0.1375310E-005  0.1081376E+04  0.7818608E-02  0.9480399E-01
          4   -1    0    0  502    0 -0.00000000000E+00  0.00000000000E+00  0.28343089667E+03  0.28343089667E+03  0.00000000000E+00 0.  1.
         21   -1    0    0  501  502  0.00000000000E+00 -0.00000000000E+00 -0.20905526190E+04  0.20905526190E+04  0.00000000000E+00 0.  1.
    9000010    2    1    2  501    0 -0.81550004088E+02  0.41960760559E+03 -0.10662371831E+04  0.15186292864E+04  0.99330369633E+03 0.  0.
        -13    1    3    3    0    0  0.25994225534E+03  0.35260381080E+03 -0.10850248582E+04  0.11701189587E+04  0.10566000000E+00 0.  1.
          4    1    3    3  501    0 -0.34149225943E+03  0.67003794795E+02  0.18787675129E+02  0.34851032768E+03  0.00000000000E+00 0.  1.
         13    1    1    2    0    0  0.81550004088E+02 -0.41960760559E+03 -0.74088453923E+03  0.85535422923E+03  0.10566000000E+00 0. -1.
<mgrwt>
<rscale>  1 0.85744451E+03</rscale>
<asrwt>0</asrwt>
<pdfrwt beam="2">  1       21 0.32162348E+00 0.10813756E+04</pdfrwt>
<pdfrwt beam="1">  1        4 0.43604753E-01 0.10813756E+04</pdfrwt>
<totfact> 0.39132221E+00</totfact>
</mgrwt>
</event>
<event>
 6    1  0.1375310E-005  0.1015867E+04  0.7818608E-02  0.9745886E-01
         21   -1    0    0  501  502  0.00000000000E+00  0.00000000000E+00  0.12889299875E+04  0.12889299875E+04  0.00000000000E+00 0.  1.
          4   -1    0    0  502    0 -0.00000000000E+00 -0.00000000000E+00 -0.33196021610E+03  0.33196021610E+03  0.00000000000E+00 0.  1.
    9000010    2    1    2  501    0 -0.13761232755E+03  0.15620144490E+03  0.97991070941E+03  0.14114568207E+04  0.99430846032E+03 0.  0.
        -13    1    3    3    0    0  0.31119577383E+03 -0.14217139880E+03  0.75226310096E+03  0.82641109656E+03  0.10566000000E+00 0.  1.
          4    1    3    3  501    0 -0.44880810139E+03  0.29837284370E+03  0.22764760845E+03  0.58504572416E+03  0.00000000000E+00 0.  1.
         13    1    1    2    0    0  0.13761232755E+03 -0.15620144490E+03 -0.22940937972E+02  0.20943338292E+03  0.10566000000E+00 0. -1.
<mgrwt>
<rscale>  1 0.68349249E+03</rscale>
<asrwt>0</asrwt>
<pdfrwt beam="1">  1       21 0.19829692E+00 0.10158668E+04</pdfrwt>
<pdfrwt beam="2">  1        4 0.51070803E-01 0.10158668E+04</pdfrwt>
<totfact> 0.17479375E+01</totfact>
</mgrwt>
</event>
<event>
 6    1  0.1375310E-005  0.1027905E+04  0.7818608E-02  0.9726894E-01
         21   -1    0    0  501  502  0.00000000000E+00  0.00000000000E+00  0.60037562978E+03  0.60037562978E+03  0.00000000000E+00 0.  1.
          4   -1    0    0  502    0 -0.00000000000E+00 -0.00000000000E+00 -0.66349057404E+03  0.66349057404E+03  0.00000000000E+00 0.  1.
    9000010    2    1    2  501    0 -0.11008975732E+03 -0.18357532717E+03  0.34767476037E+02  0.10284928094E+04  0.10053700942E+04 0.  0.
        -13    1    3    3    0    0  0.25757133196E+03 -0.48498287980E+03 -0.22757803615E+02  0.54960832739E+03  0.10566000000E+00 0.  1.
          4    1    3    3  501    0 -0.36766108928E+03  0.30140755263E+03  0.57525279651E+02  0.47888448205E+03  0.00000000000E+00 0.  1.
         13    1    1    2    0    0  0.11008975732E+03  0.18357532717E+03 -0.97882420297E+02  0.23537339438E+03  0.10566000000E+00 0. -1.
<mgrwt>
<rscale>  1 0.69437843E+03</rscale>
<asrwt>0</asrwt>
<pdfrwt beam="1">  1       21 0.92365482E-01 0.10279050E+04</pdfrwt>
<pdfrwt beam="2">  1        4 0.10207547E+00 0.10279050E+04</pdfrwt>
<totfact> 0.29320715E+01</totfact>
</mgrwt>
</event>
<event>
 6    1  0.1375310E-005  0.1261461E+04  0.7818608E-02  0.9194771E-01
         21   -1    0    0  501  502  0.00000000000E+00  0.00000000000E+00  0.16730153765E+04  0.16730153765E+04  0.00000000000E+00 0. -1.
          4   -1    0    0  502    0 -0.00000000000E+00 -0.00000000000E+00 -0.61854112420E+03  0.61854112420E+03  0.00000000000E+00 0.  1.
    9000010    2    1    2  501    0 -0.26644896384E+03 -0.70996969337E+03  0.79011054206E+03  0.14884748123E+04  0.10080826267E+04 0.  0.
        -13    1    3    3    0    0  0.10659366450E+03 -0.79213422389E+03  0.76386577047E+03  0.11055902335E+04  0.10566000000E+00 0.  1.
          4    1    3    3  501    0 -0.37304262834E+03  0.82164530521E+02  0.26244771598E+02  0.38288457878E+03  0.00000000000E+00 0.  1.
         13    1    1    2    0    0  0.26644896384E+03  0.70996969337E+03  0.26436371025E+03  0.80308168843E+03  0.10566000000E+00 0. -1.
<mgrwt>
<rscale>  1 0.11107559E+04</rscale>
<asrwt>0</asrwt>
<pdfrwt beam="1">  1       21 0.25738698E+00 0.12614605E+04</pdfrwt>
<pdfrwt beam="2">  1        4 0.95160174E-01 0.12614605E+04</pdfrwt>
<totfact> 0.17062660E+00</totfact>
</mgrwt>
</event>
<event>
 6    1  0.1375310E-005  0.1126591E+04  0.7818608E-02  0.9369387E-01
          4   -1    0    0  502    0 -0.00000000000E+00  0.00000000000E+00  0.13270410887E+04  0.13270410887E+04  0.00000000000E+00 0.  1.
         21   -1    0    0  501  502  0.00000000000E+00 -0.00000000000E+00 -0.78490772158E+03  0.78490772158E+03  0.00000000000E+00 0.  1.
    9000010    2    1    2  501    0  0.44518748652E+03  0.34138071152E+03 -0.23759433315E+03  0.11513719075E+04  0.97697160346E+03 0.  0.
        -13    1    3    3    0    0  0.24761353037E+03 -0.20948543676E+03 -0.42704090517E+03  0.53624672912E+03  0.10566000000E+00 0.  1.
          4    1    3    3  501    0  0.19757395615E+03  0.55086614828E+03  0.18944657203E+03  0.61512517842E+03  0.00000000000E+00 0.  1.
         13    1    1    2    0    0 -0.44518748652E+03 -0.34138071152E+03  0.77972770026E+03  0.96057690273E+03  0.10566000000E+00 0. -1.
<mgrwt>
<rscale>  1 0.94638381E+03</rscale>
<asrwt>0</asrwt>
<pdfrwt beam="2">  1       21 0.12075503E+00 0.11265905E+04</pdfrwt>
<pdfrwt beam="1">  1        4 0.20416017E+00 0.11265905E+04</pdfrwt>
<totfact> 0.22904159E+00</totfact>
</mgrwt>
</event>
<event>
 6    1  0.1375310E-005  0.1077224E+04  0.7818608E-02  0.9557245E-01
         21   -1    0    0  501  502  0.00000000000E+00  0.00000000000E+00  0.74067332046E+03  0.74067332046E+03  0.00000000000E+00 0.  1.
          4   -1    0    0  502    0 -0.00000000000E+00 -0.00000000000E+00 -0.67755469503E+03  0.67755469503E+03  0.00000000000E+00 0.  1.
    9000010    2    1    2  501    0 -0.26632992596E+03  0.19625328983E+03 -0.18882117028E+02  0.10773891736E+04  0.10251653105E+04 0.  0.
        -13    1    3    3    0    0  0.10454574040E+03  0.40531604813E+03  0.32513990397E+03  0.53002535697E+03  0.10566000000E+00 0.  1.
          4    1    3    3  501    0 -0.37087566636E+03 -0.20906275830E+03 -0.34402202100E+03  0.54736381662E+03  0.00000000000E+00 0.  1.
         13    1    1    2    0    0  0.26632992596E+03 -0.19625328983E+03  0.82000742457E+02  0.34083884191E+03  0.10566000000E+00 0. -1.
<mgrwt>
<rscale>  1 0.80191799E+03</rscale>
<asrwt>0</asrwt>
<pdfrwt beam="1">  1       21 0.11394974E+00 0.10772237E+04</pdfrwt>
<pdfrwt beam="2">  1        4 0.10423918E+00 0.10772237E+04</pdfrwt>
<totfact> 0.16417162E+01</totfact>
</mgrwt>
</event>
<event>
 6    1  0.1375310E-005  0.1018598E+04  0.7818608E-02  0.9680366E-01
         21   -1    0    0  501  502  0.00000000000E+00  0.00000000000E+00  0.44800756873E+03  0.44800756873E+03  0.00000000000E+00 0.  1.
          4   -1    0    0  502    0 -0.00000000000E+00 -0.00000000000E+00 -0.93445382655E+03  0.93445382655E+03  0.00000000000E+00 0.  1.
    9000010    2    1    2  501    0 -0.65074361847E+02 -0.24872064316E+03 -0.29051080280E+03  0.10592163727E+04  0.98561968672E+03 0.  0.
        -13    1    3    3    0    0  0.42951333184E+03 -0.98590930358E+02 -0.31512138703E+03  0.54175951631E+03  0.10566000000E+00 0.  1.
          4    1    3    3  501    0 -0.49458769369E+03 -0.15012971280E+03  0.24610584229E+02  0.51745685644E+03  0.00000000000E+00 0.  1.
         13    1    1    2    0    0  0.65074361847E+02  0.24872064316E+03 -0.19593545501E+03  0.32324502254E+03  0.10566000000E+00 0. -1.
<mgrwt>
<rscale>  1 0.72197919E+03</rscale>
<asrwt>0</asrwt>
<pdfrwt beam="1">  1       21 0.68924242E-01 0.10185984E+04</pdfrwt>
<pdfrwt beam="2">  1        4 0.14376213E+00 0.10185984E+04</pdfrwt>
<totfact> 0.24604669E+01</totfact>
</mgrwt>
</event>
<event>
 6    1  0.1375310E-005  0.9319788E+03  0.7818608E-02  0.9933650E-01
          4   -1    0    0  502    0 -0.00000000000E+00  0.00000000000E+00  0.62572186758E+03  0.62572186758E+03  0.00000000000E+00 0.  1.
         21   -1    0    0  501  502  0.00000000000E+00 -0.00000000000E+00 -0.64256175021E+03  0.64256175021E+03  0.00000000000E+00 0.  1.
    9000010    2    1    2  501    0  0.12871694438E+03  0.69425882636E+02 -0.27488970689E+03  0.97167322027E+03  0.92043277380E+03 0.  0.
        -13    1    3    3    0    0 -0.22936442090E+02  0.45291090704E+03 -0.32261470441E+03  0.55653807485E+03  0.10566000000E+00 0.  1.
          4    1    3    3  501    0  0.15165338647E+03 -0.38348502441E+03  0.47724997520E+02  0.41513514542E+03  0.00000000000E+00 0.  1.
         13    1    1    2    0    0 -0.12871694438E+03 -0.69425882636E+02  0.25804982426E+03  0.29661039752E+03  0.10566000000E+00 0. -1.
<mgrwt>
<rscale>  1 0.58657809E+03</rscale>
<asrwt>0</asrwt>
<pdfrwt beam="2">  1       21 0.98855654E-01 0.93197881E+03</pdfrwt>
<pdfrwt beam="1">  1        4 0.96264903E-01 0.93197881E+03</pdfrwt>
<totfact> 0.28852120E+01</totfact>
</mgrwt>
</event>
<event>
 6    1  0.1375310E-005  0.1070852E+04  0.7818608E-02  0.9581997E-01
          4   -1    0    0  502    0 -0.00000000000E+00  0.00000000000E+00  0.15729695259E+04  0.15729695259E+04  0.00000000000E+00 0.  1.
         21   -1    0    0  501  502  0.00000000000E+00 -0.00000000000E+00 -0.43382451633E+03  0.43382451633E+03  0.00000000000E+00 0.  1.
    9000010    2    1    2  501    0 -0.12233485420E+03  0.28399680540E+03  0.29939200018E+03  0.11119168831E+04  0.10252334286E+04 0.  0.
        -13    1    3    3    0    0 -0.34175744679E+03  0.46150581382E+03  0.50339816702E+03  0.76367237370E+03  0.10566000000E+00 0.  1.
          4    1    3    3  501    0  0.21942259259E+03 -0.17750900842E+03 -0.20400616684E+03  0.34824450938E+03  0.00000000000E+00 0.  1.
         13    1    1    2    0    0  0.12233485420E+03 -0.28399680540E+03  0.83975300944E+03  0.89487715920E+03  0.10566000000E+00 0. -1.
<mgrwt>
<rscale>  1 0.78499272E+03</rscale>
<asrwt>0</asrwt>
<pdfrwt beam="2">  1       21 0.66742234E-01 0.10708518E+04</pdfrwt>
<pdfrwt beam="1">  1        4 0.24199531E+00 0.10708518E+04</pdfrwt>
<totfact> 0.55738361E+00</totfact>
</mgrwt>
</event>
<event>
 6    1  0.1375310E-005  0.1120091E+04  0.7818608E-02  0.9404674E-01
         21   -1    0    0  501  502  0.00000000000E+00  0.00000000000E+00  0.19076862796E+04  0.19076862796E+04  0.00000000000E+00 0. -1.
          4   -1    0    0  502    0 -0.00000000000E+00 -0.00000000000E+00 -0.46362094163E+03  0.46362094163E+03  0.00000000000E+00 0.  1.
    9000010    2    1    2  501    0  0.44207832911E+03 -0.23994352575E+03  0.36048181447E+03  0.11766694484E+04  0.10007985350E+04 0.  0.
        -13    1    3    3    0    0  0.55724775915E+03  0.14057339821E+03  0.49342601001E+03  0.75746629224E+03  0.10566000000E+00 0.  1.
          4    1    3    3  501    0 -0.11516943003E+03 -0.38051692396E+03 -0.13294419555E+03  0.41920315620E+03  0.00000000000E+00 0.  1.
         13    1    1    2    0    0 -0.44207832911E+03  0.23994352575E+03  0.10835835235E+04  0.11946377728E+04  0.10566000000E+00 0. -1.
<mgrwt>
<rscale>  1 0.91691995E+03</rscale>
<asrwt>0</asrwt>
<pdfrwt beam="1">  1       21 0.29349019E+00 0.11200910E+04</pdfrwt>
<pdfrwt beam="2">  1        4 0.71326300E-01 0.11200910E+04</pdfrwt>
<totfact> 0.20167725E+00</totfact>
</mgrwt>
</event>
<event>
 6    1  0.1375310E-005  0.1016764E+04  0.7818608E-02  0.9801471E-01
         21   -1    0    0  501  502  0.00000000000E+00  0.00000000000E+00  0.15863040566E+04  0.15863040566E+04  0.00000000000E+00 0.  1.
          4   -1    0    0  502    0 -0.00000000000E+00 -0.00000000000E+00 -0.22328450252E+03  0.22328450252E+03  0.00000000000E+00 0.  1.
    9000010    2    1    2  501    0 -0.16880605096E+03 -0.36962764641E+02  0.11866110608E+04  0.15626438356E+04  0.10019721645E+04 0.  0.
        -13    1    3    3    0    0  0.31507193877E+03 -0.31349429576E+03  0.66120977704E+03  0.79671034918E+03  0.10566000000E+00 0.  1.
          4    1    3    3  501    0 -0.48387798973E+03  0.27653153112E+03  0.52540128378E+03  0.76593348644E+03  0.00000000000E+00 0.  1.
         13    1    1    2    0    0  0.16880605096E+03  0.36962764641E+02  0.17640849327E+03  0.24694472352E+03  0.10566000000E+00 0. -1.
<mgrwt>
<rscale>  1 0.65283684E+03</rscale>
<asrwt>0</asrwt>
<pdfrwt beam="1">  1       21 0.24404677E+00 0.10167645E+04</pdfrwt>
<pdfrwt beam="2">  1        4 0.34351463E-01 0.10167645E+04</pdfrwt>
<totfact> 0.19661483E+01</totfact>
</mgrwt>
</event>
<event>
 6    1  0.1375310E-005  0.1011602E+04  0.7818608E-02  0.9820460E-01
         21   -1    0    0  501  502  0.00000000000E+00  0.00000000000E+00  0.45276160952E+03  0.45276160952E+03  0.00000000000E+00 0.  1.
          4   -1    0    0  502    0 -0.00000000000E+00 -0.00000000000E+00 -0.78382667381E+03  0.78382667381E+03  0.00000000000E+00 0.  1.
    9000010    2    1    2  501    0  0.13983888485E+03 -0.87352303705E+02 -0.21296475910E+03  0.10337754831E+04  0.99807435706E+03 0.  0.
        -13    1    3    3    0    0  0.45110044853E+03  0.16251807476E+03 -0.36918471604E+03  0.60514552383E+03  0.10566000000E+00 0.  1.
          4    1    3    3  501    0 -0.31126156368E+03 -0.24987037847E+03  0.15621995694E+03  0.42862995929E+03  0.00000000000E+00 0.  1.
         13    1    1    2    0    0 -0.13983888485E+03  0.87352303705E+02 -0.11810030518E+03  0.20281280021E+03  0.10566000000E+00 0. -1.
<mgrwt>
<rscale>  1 0.64276022E+03</rscale>
<asrwt>0</asrwt>
<pdfrwt beam="1">  1       21 0.69655632E-01 0.10116016E+04</pdfrwt>
<pdfrwt beam="2">  1        4 0.12058872E+00 0.10116016E+04</pdfrwt>
<totfact> 0.37840079E+01</totfact>
</mgrwt>
</event>
<event>
 6    1  0.1375310E-005  0.1029588E+04  0.7818608E-02  0.9622536E-01
          4   -1    0    0  502    0 -0.00000000000E+00  0.00000000000E+00  0.34497025810E+03  0.34497025810E+03  0.00000000000E+00 0.  1.
         21   -1    0    0  501  502  0.00000000000E+00 -0.00000000000E+00 -0.15001760132E+04  0.15001760132E+04  0.00000000000E+00 0.  1.
    9000010    2    1    2  501    0  0.22506115103E+03  0.20261746314E+03 -0.11482330898E+04  0.15422354143E+04  0.98404496159E+03 0.  0.
        -13    1    3    3    0    0 -0.16093053136E+03  0.26570965015E+03  0.18992878274E+02  0.31122499047E+03  0.10566000000E+00 0.  1.
          4    1    3    3  501    0  0.38599168239E+03 -0.63092187012E+02 -0.11672259681E+04  0.12310104238E+04  0.00000000000E+00 0.  1.
         13    1    1    2    0    0 -0.22506115103E+03 -0.20261746314E+03 -0.69726652728E+01  0.30291085701E+03  0.10566000000E+00 0. -1.
<mgrwt>
<rscale>  1 0.75822386E+03</rscale>
<asrwt>0</asrwt>
<pdfrwt beam="2">  1       21 0.23079631E+00 0.10295877E+04</pdfrwt>
<pdfrwt beam="1">  1        4 0.53072348E-01 0.10295877E+04</pdfrwt>
<totfact> 0.97480195E+00</totfact>
</mgrwt>
</event>
<event>
 6    1  0.1375310E-005  0.1093994E+04  0.7818608E-02  0.9463313E-01
         21   -1    0    0  501  502  0.00000000000E+00  0.00000000000E+00  0.52547410360E+03  0.52547410360E+03  0.00000000000E+00 0.  1.
          4   -1    0    0  502    0 -0.00000000000E+00 -0.00000000000E+00 -0.23368387371E+04  0.23368387371E+04  0.00000000000E+00 0.  1.
    9000010    2    1    2  501    0 -0.50294642059E+02 -0.43553620122E+03 -0.10328034205E+03  0.10988579103E+04  0.10022976326E+04 0.  0.
        -13    1    3    3    0    0  0.46981676830E+03 -0.28302462989E+03 -0.95873049354E+02  0.55679654242E+03  0.10566000000E+00 0.  1.
          4    1    3    3  501    0 -0.52011141036E+03 -0.15251157134E+03 -0.74072926966E+01  0.54206136789E+03  0.00000000000E+00 0.  1.
         13    1    1    2    0    0  0.50294642059E+02  0.43553620122E+03 -0.17080842914E+04  0.17634549304E+04  0.10566000000E+00 0. -1.
<mgrwt>
<rscale>  1 0.87043485E+03</rscale>
<asrwt>0</asrwt>
<pdfrwt beam="1">  1       21 0.80842168E-01 0.10939935E+04</pdfrwt>
<pdfrwt beam="2">  1        4 0.35951366E+00 0.10939935E+04</pdfrwt>
<totfact> 0.65275236E-01</totfact>
</mgrwt>
</event>
<event>
 6    1  0.1375310E-005  0.1021997E+04  0.7818608E-02  0.9782481E-01
         21   -1    0    0  501  502  0.00000000000E+00  0.00000000000E+00  0.15164099406E+04  0.15164099406E+04  0.00000000000E+00 0.  1.
          4   -1    0    0  502    0 -0.00000000000E+00 -0.00000000000E+00 -0.29109962090E+03  0.29109962090E+03  0.00000000000E+00 0.  1.
    9000010    2    1    2  501    0 -0.12755021309E+03 -0.12860907682E+03  0.12607406316E+04  0.16229433954E+04  0.10058175644E+04 0.  0.
        -13    1    3    3    0    0 -0.35532017350E+03  0.17528070261E+02  0.23582612740E+02  0.35653304157E+03  0.10566000000E+00 0.  1.
          4    1    3    3  501    0  0.22776996041E+03 -0.14613714708E+03  0.12371580188E+04  0.12664103538E+04  0.00000000000E+00 0.  1.
         13    1    1    2    0    0  0.12755021309E+03  0.12860907682E+03 -0.35430311911E+02  0.18456616610E+03  0.10566000000E+00 0. -1.
<mgrwt>
<rscale>  1 0.66311219E+03</rscale>
<asrwt>0</asrwt>
<pdfrwt beam="1">  1       21 0.23329383E+00 0.10219972E+04</pdfrwt>
<pdfrwt beam="2">  1        4 0.44784558E-01 0.10219972E+04</pdfrwt>
<totfact> 0.13436020E+01</totfact>
</mgrwt>
</event>
<event>
 6    1  0.1375310E-005  0.9890106E+03  0.7818608E-02  0.1010843E+00
         21   -1    0    0  501  502  0.00000000000E+00  0.00000000000E+00  0.60588914766E+03  0.60588914766E+03  0.00000000000E+00 0.  1.
          4   -1    0    0  502    0 -0.00000000000E+00 -0.00000000000E+00 -0.46483396223E+03  0.46483396223E+03  0.00000000000E+00 0.  1.
    9000010    2    1    2  501    0 -0.92939146552E+00  0.70703540606E+02  0.14650898468E+03  0.99980336996E+03  0.98647962045E+03 0.  0.
        -13    1    3    3    0    0 -0.59877932723E+02  0.50821379027E+03  0.21124912478E+03  0.55361794347E+03  0.10566000000E+00 0.  1.
          4    1    3    3  501    0  0.58948541257E+02 -0.43751024966E+03 -0.64740140104E+02  0.44618542649E+03  0.00000000000E+00 0.  1.
         13    1    1    2    0    0  0.92939146552E+00 -0.70703540606E+02 -0.54537992464E+01  0.70919739938E+02  0.10566000000E+00 0. -1.
<mgrwt>
<rscale>  1 0.51141150E+03</rscale>
<asrwt>0</asrwt>
<pdfrwt beam="1">  1       21 0.93213715E-01 0.98901056E+03</pdfrwt>
<pdfrwt beam="2">  1        4 0.71512917E-01 0.98901056E+03</pdfrwt>
<totfact> 0.65931907E+01</totfact>
</mgrwt>
</event>
<event>
 6    1  0.1375310E-005  0.8054271E+03  0.7818608E-02  0.9831060E-01
         21   -1    0    0  501  502  0.00000000000E+00  0.00000000000E+00  0.38172143689E+03  0.38172143689E+03  0.00000000000E+00 0.  1.
          4   -1    0    0  502    0 -0.00000000000E+00 -0.00000000000E+00 -0.87624148759E+03  0.87624148759E+03  0.00000000000E+00 0.  1.
    9000010    2    1    2  501    0  0.76492459713E+01 -0.31546462132E+03 -0.20827577355E+03  0.83192039651E+03  0.74103732026E+03 0.  0.
        -13    1    3    3    0    0 -0.18063891927E+03 -0.47939978734E+03 -0.26370055250E+03  0.57618796222E+03  0.10566000000E+00 0.  1.
          4    1    3    3  501    0  0.18828816524E+03  0.16393516602E+03  0.55424778945E+02  0.25573243429E+03  0.00000000000E+00 0.  1.
         13    1    1    2    0    0 -0.76492459713E+01  0.31546462132E+03 -0.28624427715E+03  0.42604252796E+03  0.10566000000E+00 0. -1.
<mgrwt>
<rscale>  1 0.63721977E+03</rscale>
<asrwt>0</asrwt>
<pdfrwt beam="1">  1       21 0.58726376E-01 0.80542706E+03</pdfrwt>
<pdfrwt beam="2">  1        4 0.13480638E+00 0.80542706E+03</pdfrwt>
<totfact> 0.42606522E+01</totfact>
</mgrwt>
</event>
<event>
 6    1  0.1375310E-005  0.1104047E+04  0.7818608E-02  0.9451885E-01
         21   -1    0    0  501  502  0.00000000000E+00  0.00000000000E+00  0.54611201732E+03  0.54611201732E+03  0.00000000000E+00 0.  1.
          4   -1    0    0  502    0 -0.00000000000E+00 -0.00000000000E+00 -0.18219354901E+04  0.18219354901E+04  0.00000000000E+00 0.  1.
    9000010    2    1    2  501    0 -0.30740274946E+03 -0.32055023167E+03 -0.96957476059E+02  0.11082959642E+04  0.10107770727E+04 0.  0.
        -13    1    3    3    0    0 -0.36798863421E+03  0.14164430221E+03 -0.39249629313E+03  0.55635608610E+03  0.10566000000E+00 0.  1.
          4    1    3    3  501    0  0.60585884758E+02 -0.46219453388E+03  0.29553881707E+03  0.55193987805E+03  0.00000000000E+00 0.  1.
         13    1    1    2    0    0  0.30740274946E+03  0.32055023167E+03 -0.11788659967E+04  0.12597515433E+04  0.10566000000E+00 0. -1.
<mgrwt>
<rscale>  1 0.87926021E+03</rscale>
<asrwt>0</asrwt>
<pdfrwt beam="1">  1       21 0.84017234E-01 0.11040467E+04</pdfrwt>
<pdfrwt beam="2">  1        4 0.28029777E+00 0.11040467E+04</pdfrwt>
<totfact> 0.18826789E+00</totfact>
</mgrwt>
</event>
<event>
 6    1  0.1375310E-005  0.1016830E+04  0.7818608E-02  0.9722811E-01
          4   -1    0    0  502    0 -0.00000000000E+00  0.00000000000E+00  0.68252849064E+03  0.68252849064E+03  0.00000000000E+00 0.  1.
         21   -1    0    0  501  502  0.00000000000E+00 -0.00000000000E+00 -0.68638760537E+03  0.68638760537E+03  0.00000000000E+00 0.  1.
    9000010    2    1    2  501    0 -0.14889953869E+03 -0.16755953775E+03 -0.23848441101E+03  0.10444221637E+04  0.99181428218E+03 0.  0.
        -13    1    3    3    0    0 -0.56375983423E+03 -0.20550707127E+03 -0.15065424763E+03  0.61867198137E+03  0.10566000000E+00 0.  1.
          4    1    3    3  501    0  0.41486029554E+03  0.37947533520E+02 -0.87830163377E+02  0.42575018229E+03  0.00000000000E+00 0.  1.
         13    1    1    2    0    0  0.14889953869E+03  0.16755953775E+03  0.23462529628E+03  0.32449393235E+03  0.10566000000E+00 0. -1.
<mgrwt>
<rscale>  1 0.69674726E+03</rscale>
<asrwt>0</asrwt>
<pdfrwt beam="2">  1       21 0.10559809E+00 0.10168298E+04</pdfrwt>
<pdfrwt beam="1">  1        4 0.10500438E+00 0.10168298E+04</pdfrwt>
<totfact> 0.19675328E+01</totfact>
</mgrwt>
</event>
<event>
 6    1  0.1375310E-005  0.1043448E+04  0.7818608E-02  0.9852145E-01
         21   -1    0    0  501  502  0.00000000000E+00  0.00000000000E+00  0.64864261112E+03  0.64864261112E+03  0.00000000000E+00 0.  1.
          4   -1    0    0  502    0 -0.00000000000E+00 -0.00000000000E+00 -0.66002041531E+03  0.66002041531E+03  0.00000000000E+00 0.  1.
    9000010    2    1    2  501    0 -0.13341372949E+03  0.23669160008E+02  0.19526203655E+03  0.10615608466E+04  0.10346133170E+04 0.  0.
        -13    1    3    3    0    0  0.48200187820E+02  0.49177629158E+03  0.25476689908E+03  0.55594366900E+03  0.10566000000E+00 0.  1.
          4    1    3    3  501    0 -0.18161391731E+03 -0.46810713157E+03 -0.59504862537E+02  0.50561717757E+03  0.00000000000E+00 0.  1.
         13    1    1    2    0    0  0.13341372949E+03 -0.23669160008E+02 -0.20663984074E+03  0.24710217986E+03  0.10566000000E+00 0. -1.
<mgrwt>
<rscale>  1 0.62637681E+03</rscale>
<asrwt>0</asrwt>
<pdfrwt beam="1">  1       21 0.99791171E-01 0.10434482E+04</pdfrwt>
<pdfrwt beam="2">  1        4 0.10154160E+00 0.10434482E+04</pdfrwt>
<totfact> 0.24532221E+01</totfact>
</mgrwt>
</event>
<event>
 6    1  0.1375310E-005  0.9657563E+03  0.7818608E-02  0.9913233E-01
         21   -1    0    0  501  502  0.00000000000E+00  0.00000000000E+00  0.25596869858E+04  0.25596869858E+04  0.00000000000E+00 0.  1.
          4   -1    0    0  502    0 -0.00000000000E+00 -0.00000000000E+00 -0.16964048508E+03  0.16964048508E+03  0.00000000000E+00 0.  1.
    9000010    2    1    2  501    0 -0.30947283191E+02  0.13685416629E+03  0.24016356865E+04  0.25885399801E+04  0.95550952932E+03 0.  0.
        -13    1    3    3    0    0 -0.42521259307E+02 -0.32658172577E+03  0.33207476207E+03  0.46769363889E+03  0.10566000000E+00 0.  1.
          4    1    3    3  501    0  0.11573976116E+02  0.46343589205E+03  0.20695609244E+04  0.21208463412E+04  0.00000000000E+00 0.  1.
         13    1    1    2    0    0  0.30947283191E+02 -0.13685416629E+03 -0.11589185808E+02  0.14078749077E+03  0.10566000000E+00 0. -1.
<mgrwt>
<rscale>  1 0.59624202E+03</rscale>
<asrwt>0</asrwt>
<pdfrwt beam="1">  1       21 0.39379797E+00 0.96575631E+03</pdfrwt>
<pdfrwt beam="2">  1        4 0.26098538E-01 0.96575631E+03</pdfrwt>
<totfact> 0.38634438E+00</totfact>
</mgrwt>
</event>
<event>
 6    1  0.1375310E-005  0.1044841E+04  0.7818608E-02  0.9629360E-01
         21   -1    0    0  501  502  0.00000000000E+00  0.00000000000E+00  0.32816411098E+03  0.32816411098E+03  0.00000000000E+00 0.  1.
          4   -1    0    0  502    0 -0.00000000000E+00 -0.00000000000E+00 -0.13441786367E+04  0.13441786367E+04  0.00000000000E+00 0.  1.
    9000010    2    1    2  501    0  0.23583953014E+03  0.15661031786E+03 -0.78285136535E+03  0.13055837721E+04  0.10057562578E+04 0.  0.
        -13    1    3    3    0    0 -0.12798495965E+03 -0.15974403144E+00  0.20476551311E+03  0.24147277681E+03  0.10566000000E+00 0.  1.
          4    1    3    3  501    0  0.36382448980E+03  0.15677006189E+03 -0.98761687847E+03  0.10641109953E+04  0.00000000000E+00 0.  1.
         13    1    1    2    0    0 -0.23583953014E+03 -0.15661031786E+03 -0.23316316034E+03  0.36675897554E+03  0.10566000000E+00 0. -1.
<mgrwt>
<rscale>  1 0.75383036E+03</rscale>
<asrwt>0</asrwt>
<pdfrwt beam="1">  1       21 0.50486786E-01 0.10448410E+04</pdfrwt>
<pdfrwt beam="2">  1        4 0.20679671E+00 0.10448410E+04</pdfrwt>
<totfact> 0.17391752E+01</totfact>
</mgrwt>
</event>
<event>
 6    1  0.1375310E-005  0.1019022E+04  0.7818608E-02  0.9798000E-01
          4   -1    0    0  502    0 -0.00000000000E+00  0.00000000000E+00  0.93639976184E+03  0.93639976184E+03  0.00000000000E+00 0.  1.
         21   -1    0    0  501  502  0.00000000000E+00 -0.00000000000E+00 -0.38776803492E+03  0.38776803492E+03  0.00000000000E+00 0.  1.
    9000010    2    1    2  501    0  0.40056846033E+02 -0.16894381563E+03  0.39691502374E+03  0.10935934423E+04  0.10041207682E+04 0.  0.
        -13    1    3    3    0    0  0.45698342597E+02 -0.57586053960E+03  0.91709385046E+02  0.58490539582E+03  0.10566000000E+00 0.  1.
          4    1    3    3  501    0 -0.56414965636E+01  0.40691672397E+03  0.30520563870E+03  0.50868804647E+03  0.00000000000E+00 0.  1.
         13    1    1    2    0    0 -0.40056846033E+02  0.16894381563E+03  0.15171670318E+03  0.23057435448E+03  0.10566000000E+00 0. -1.
<mgrwt>
<rscale>  1 0.65469994E+03</rscale>
<asrwt>0</asrwt>
<pdfrwt beam="2">  1       21 0.59656621E-01 0.10190216E+04</pdfrwt>
<pdfrwt beam="1">  1        4 0.14406150E+00 0.10190216E+04</pdfrwt>
<totfact> 0.33892681E+01</totfact>
</mgrwt>
</event>
<event>
 6    1  0.1375310E-005  0.1080588E+04  0.7818608E-02  0.9469653E-01
          4   -1    0    0  502    0 -0.00000000000E+00  0.00000000000E+00  0.36817825416E+03  0.36817825416E+03  0.00000000000E+00 0.  1.
         21   -1    0    0  501  502  0.00000000000E+00 -0.00000000000E+00 -0.18396581430E+04  0.18396581430E+04  0.00000000000E+00 0.  1.
    9000010    2    1    2  501    0 -0.61577947047E+02 -0.44061662150E+03 -0.13815277772E+04  0.17539352579E+04  0.98475125741E+03 0.  0.
        -13    1    3    3    0    0  0.10623079641E+03 -0.29897571790E+03 -0.14797429796E+04  0.15133772692E+04  0.10566000000E+00 0.  1.
          4    1    3    3  501    0 -0.16780874346E+03 -0.14164090359E+03  0.98215202401E+02  0.24055798871E+03  0.00000000000E+00 0.  1.
         13    1    1    2    0    0  0.61577947047E+02  0.44061662150E+03 -0.89952111664E+02  0.45390113930E+03  0.10566000000E+00 0. -1.
<mgrwt>
<rscale>  1 0.86558619E+03</rscale>
<asrwt>0</asrwt>
<pdfrwt beam="2">  1       21 0.28302433E+00 0.10805878E+04</pdfrwt>
<pdfrwt beam="1">  1        4 0.56642808E-01 0.10805878E+04</pdfrwt>
<totfact> 0.39217750E+00</totfact>
</mgrwt>
</event>
<event>
 6    1  0.1375310E-005  0.9597532E+03  0.7818608E-02  0.9892043E-01
          4   -1    0    0  502    0 -0.00000000000E+00  0.00000000000E+00  0.21364834803E+03  0.21364834803E+03  0.00000000000E+00 0.  1.
         21   -1    0    0  501  502  0.00000000000E+00 -0.00000000000E+00 -0.21974620807E+04  0.21974620807E+04  0.00000000000E+00 0.  1.
    9000010    2    1    2  501    0 -0.28004589405E+02  0.15045442938E+03 -0.20348131000E+04  0.22497978781E+04  0.94747313849E+03 0.  0.
        -13    1    3    3    0    0  0.43554712864E+03  0.22270246848E+03 -0.10998610077E+04  0.12037408102E+04  0.10566000000E+00 0.  1.
          4    1    3    3  501    0 -0.46355171805E+03 -0.72248039102E+02 -0.93495209231E+03  0.10460570679E+04  0.00000000000E+00 0.  1.
         13    1    1    2    0    0  0.28004589405E+02 -0.15045442938E+03  0.50999367325E+02  0.16131255059E+03  0.10566000000E+00 0. -1.
<mgrwt>
<rscale>  1 0.60648476E+03</rscale>
<asrwt>0</asrwt>
<pdfrwt beam="2">  1       21 0.33807109E+00 0.95975317E+03</pdfrwt>
<pdfrwt beam="1">  1        4 0.32868976E-01 0.95975317E+03</pdfrwt>
<totfact> 0.55945182E+00</totfact>
</mgrwt>
</event>
<event>
 6    1  0.1375310E-005  0.1020586E+04  0.7818608E-02  0.9771727E-01
         21   -1    0    0  501  502  0.00000000000E+00  0.00000000000E+00  0.39550912981E+03  0.39550912981E+03  0.00000000000E+00 0.  1.
          4   -1    0    0  502    0 -0.00000000000E+00 -0.00000000000E+00 -0.10489615595E+04  0.10489615595E+04  0.00000000000E+00 0.  1.
    9000010    2    1    2  501    0 -0.15264463234E+03  0.11052411714E+03 -0.33450414104E+03  0.10740061347E+04  0.10030354893E+04 0.  0.
        -13    1    3    3    0    0 -0.11117678290E+03  0.16872954570E+02 -0.69253935125E+03  0.70160939122E+03  0.10566000000E+00 0.  1.
          4    1    3    3  501    0 -0.41467849437E+02  0.93651162571E+02  0.35803521021E+03  0.37239674346E+03  0.00000000000E+00 0.  1.
         13    1    1    2    0    0  0.15264463234E+03 -0.11052411714E+03 -0.31894828867E+03  0.37046455466E+03  0.10566000000E+00 0. -1.
<mgrwt>
<rscale>  1 0.66902174E+03</rscale>
<asrwt>0</asrwt>
<pdfrwt beam="1">  1       21 0.60847559E-01 0.10205862E+04</pdfrwt>
<pdfrwt beam="2">  1        4 0.16137870E+00 0.10205862E+04</pdfrwt>
<totfact> 0.23853363E+01</totfact>
</mgrwt>
</event>
<event>
 6    1  0.1375310E-005  0.1013940E+04  0.7818608E-02  0.9866744E-01
         21   -1    0    0  501  502  0.00000000000E+00  0.00000000000E+00  0.42498379568E+03  0.42498379568E+03  0.00000000000E+00 0.  1.
          4   -1    0    0  502    0 -0.00000000000E+00 -0.00000000000E+00 -0.91003483296E+03  0.91003483296E+03  0.00000000000E+00 0.  1.
    9000010    2    1    2  501    0  0.12974183295E+03 -0.54810066541E+02 -0.22398731346E+03  0.10383852427E+04  0.10041098092E+04 0.  0.
        -13    1    3    3    0    0  0.16565783363E+03 -0.51836466743E+03 -0.17103245977E+03  0.57043541242E+03  0.10566000000E+00 0.  1.
          4    1    3    3  501    0 -0.35916000679E+02  0.46355460089E+03 -0.52954853687E+02  0.46794983026E+03  0.00000000000E+00 0.  1.
         13    1    1    2    0    0 -0.12974183295E+03  0.54810066541E+02 -0.26106372381E+03  0.29663338596E+03  0.10566000000E+00 0. -1.
<mgrwt>
<rscale>  1 0.61900455E+03</rscale>
<asrwt>0</asrwt>
<pdfrwt beam="1">  1       21 0.65382123E-01 0.10139396E+04</pdfrwt>
<pdfrwt beam="2">  1        4 0.14000536E+00 0.10139396E+04</pdfrwt>
<totfact> 0.29765911E+01</totfact>
</mgrwt>
</event>
<event>
 6    1  0.1375310E-005  0.1157089E+04  0.7818608E-02  0.9414428E-01
          4   -1    0    0  502    0 -0.00000000000E+00  0.00000000000E+00  0.26086482293E+04  0.26086482293E+04  0.00000000000E+00 0.  1.
         21   -1    0    0  501  502  0.00000000000E+00 -0.00000000000E+00 -0.25089878596E+03  0.25089878596E+03  0.00000000000E+00 0. -1.
    9000010    2    1    2  501    0 -0.42603621364E+03  0.11261197351E+03  0.14920015980E+04  0.18881008485E+04  0.10698914590E+04 0.  0.
        -13    1    3    3    0    0 -0.34920410920E+02 -0.22879673953E+03  0.13215611505E+04  0.13416747999E+04  0.10566000000E+00 0.  1.
          4    1    3    3  501    0 -0.39111580272E+03  0.34140871304E+03  0.17044044751E+03  0.54642604864E+03  0.00000000000E+00 0.  1.
         13    1    1    2    0    0  0.42603621364E+03 -0.11261197351E+03  0.86574784537E+03  0.97144616672E+03  0.10566000000E+00 0. -1.
<mgrwt>
<rscale>  1 0.90897742E+03</rscale>
<asrwt>0</asrwt>
<pdfrwt beam="2">  1       21 0.38599815E-01 0.11570895E+04</pdfrwt>
<pdfrwt beam="1">  1        4 0.40133048E+00 0.11570895E+04</pdfrwt>
<totfact> 0.17321440E+00</totfact>
</mgrwt>
</event>
<event>
 6    1  0.1375310E-005  0.1066000E+04  0.7818608E-02  0.9552204E-01
         21   -1    0    0  501  502  0.00000000000E+00  0.00000000000E+00  0.86157248472E+03  0.86157248472E+03  0.00000000000E+00 0.  1.
          4   -1    0    0  502    0 -0.00000000000E+00 -0.00000000000E+00 -0.71818381332E+03  0.71818381332E+03  0.00000000000E+00 0.  1.
    9000010    2    1    2  501    0  0.46873662887E+02 -0.34421382325E+03  0.40971239537E+03  0.11420250637E+04  0.10078078700E+04 0.  0.
        -13    1    3    3    0    0  0.34646498644E+03  0.13829089291E+03  0.43557531472E+03  0.57348777131E+03  0.10566000000E+00 0.  1.
          4    1    3    3  501    0 -0.29959132355E+03 -0.48250471616E+03 -0.25862919344E+02  0.56853729241E+03  0.00000000000E+00 0.  1.
         13    1    1    2    0    0 -0.46873662887E+02  0.34421382325E+03 -0.26632372397E+03  0.43773123432E+03  0.10566000000E+00 0. -1.
<mgrwt>
<rscale>  1 0.80542035E+03</rscale>
<asrwt>0</asrwt>
<pdfrwt beam="1">  1       21 0.13254961E+00 0.10660005E+04</pdfrwt>
<pdfrwt beam="2">  1        4 0.11048982E+00 0.10660005E+04</pdfrwt>
<totfact> 0.95900669E+00</totfact>
</mgrwt>
</event>
<event>
 6    1  0.1375310E-005  0.1004927E+04  0.7818608E-02  0.9811926E-01
          4   -1    0    0  502    0 -0.00000000000E+00  0.00000000000E+00  0.12521858255E+04  0.12521858255E+04  0.00000000000E+00 0.  1.
         21   -1    0    0  501  502  0.00000000000E+00 -0.00000000000E+00 -0.27775984801E+03  0.27775984801E+03  0.00000000000E+00 0.  1.
    9000010    2    1    2  501    0 -0.16051477222E+03 -0.64398188159E+02  0.80194822801E+03  0.12856902663E+04  0.98993251367E+03 0.  0.
        -13    1    3    3    0    0 -0.36691548675E+03  0.37094977379E+03  0.45045003703E+03  0.68930106348E+03  0.10566000000E+00 0.  1.
          4    1    3    3  501    0  0.20640071453E+03 -0.43534796195E+03  0.35149819098E+03  0.59638920278E+03  0.00000000000E+00 0.  1.
         13    1    1    2    0    0  0.16051477222E+03  0.64398188159E+02  0.17247774946E+03  0.24425540723E+03  0.10566000000E+00 0. -1.
<mgrwt>
<rscale>  1 0.64726458E+03</rscale>
<asrwt>0</asrwt>
<pdfrwt beam="2">  1       21 0.42732285E-01 0.10049271E+04</pdfrwt>
<pdfrwt beam="1">  1        4 0.19264397E+00 0.10049271E+04</pdfrwt>
<totfact> 0.30965601E+01</totfact>
</mgrwt>
</event>
<event>
 6    1  0.1375310E-005  0.1000660E+04  0.7818608E-02  0.9897385E-01
         21   -1    0    0  501  502  0.00000000000E+00  0.00000000000E+00  0.49844480759E+03  0.49844480759E+03  0.00000000000E+00 0.  1.
          4   -1    0    0  502    0 -0.00000000000E+00 -0.00000000000E+00 -0.64846153890E+03  0.64846153890E+03  0.00000000000E+00 0.  1.
    9000010    2    1    2  501    0 -0.71795470216E+02  0.11162881862E+03 -0.16181782741E+03  0.10136589836E+04  0.99181850307E+03 0.  0.
        -13    1    3    3    0    0 -0.25290129321E+03  0.60116669442E+02 -0.53547821273E+03  0.59523945226E+03  0.10566000000E+00 0.  1.
          4    1    3    3  501    0  0.18110582300E+03  0.51512149181E+02  0.37366038532E+03  0.41841953133E+03  0.00000000000E+00 0.  1.
         13    1    1    2    0    0  0.71795470216E+02 -0.11162881862E+03  0.11801096097E+02  0.13324736292E+03  0.10566000000E+00 0. -1.
<mgrwt>
<rscale>  1 0.60388184E+03</rscale>
<asrwt>0</asrwt>
<pdfrwt beam="1">  1       21 0.76683817E-01 0.10006595E+04</pdfrwt>
<pdfrwt beam="2">  1        4 0.99763313E-01 0.10006595E+04</pdfrwt>
<totfact> 0.48372169E+01</totfact>
</mgrwt>
</event>
<event>
 6    1  0.1375310E-005  0.1199335E+04  0.7818608E-02  0.9263751E-01
          4   -1    0    0  502    0 -0.00000000000E+00  0.00000000000E+00  0.88822541195E+03  0.88822541195E+03  0.00000000000E+00 0.  1.
         21   -1    0    0  501  502  0.00000000000E+00 -0.00000000000E+00 -0.12749016953E+04  0.12749016953E+04  0.00000000000E+00 0.  1.
    9000010    2    1    2  501    0  0.46299583149E+03 -0.50223852854E+03 -0.72438383947E+03  0.14011198342E+04  0.98579722222E+03 0.  0.
        -13    1    3    3    0    0  0.56323205338E+03 -0.56899898303E+03 -0.15038172050E+03  0.81461945819E+03  0.10566000000E+00 0.  1.
          4    1    3    3  501    0 -0.10023622189E+03  0.66760454491E+02 -0.57400211897E+03  0.58650037600E+03  0.00000000000E+00 0.  1.
         13    1    1    2    0    0 -0.46299583149E+03  0.50223852854E+03  0.33770755615E+03  0.76200727304E+03  0.10566000000E+00 0. -1.
<mgrwt>
<rscale>  1 0.10418964E+04</rscale>
<asrwt>0</asrwt>
<pdfrwt beam="2">  1       21 0.19613872E+00 0.11993352E+04</pdfrwt>
<pdfrwt beam="1">  1        4 0.13665006E+00 0.11993352E+04</pdfrwt>
<totfact> 0.17730849E+00</totfact>
</mgrwt>
</event>
<event>
 6    1  0.1375310E-005  0.1005977E+04  0.7818608E-02  0.9793593E-01
          4   -1    0    0  502    0 -0.00000000000E+00  0.00000000000E+00  0.15010113585E+04  0.15010113585E+04  0.00000000000E+00 0.  1.
         21   -1    0    0  501  502  0.00000000000E+00 -0.00000000000E+00 -0.23853222012E+03  0.23853222012E+03  0.00000000000E+00 0.  1.
    9000010    2    1    2  501    0  0.18211443232E+03  0.19004866831E+02  0.99122352275E+03  0.14122723278E+04  0.98917248469E+03 0.  0.
        -13    1    3    3    0    0  0.21966376999E+03  0.26015739986E+03 -0.48823505597E+02  0.34397353155E+03  0.10566000000E+00 0.  1.
          4    1    3    3  501    0 -0.37549337669E+02 -0.24115253303E+03  0.10400470283E+04  0.10682987963E+04  0.00000000000E+00 0.  1.
         13    1    1    2    0    0 -0.18211443232E+03 -0.19004866831E+02  0.27125561566E+03  0.32727125082E+03  0.10566000000E+00 0. -1.
<mgrwt>
<rscale>  1 0.65707515E+03</rscale>
<asrwt>0</asrwt>
<pdfrwt beam="2">  1       21 0.36697266E-01 0.10059767E+04</pdfrwt>
<pdfrwt beam="1">  1        4 0.23092482E+00 0.10059767E+04</pdfrwt>
<totfact> 0.24040013E+01</totfact>
</mgrwt>
</event>
<event>
 6    1  0.1375310E-005  0.1173658E+04  0.7818608E-02  0.9305085E-01
          4   -1    0    0  502    0 -0.00000000000E+00  0.00000000000E+00  0.74302653566E+03  0.74302653566E+03  0.00000000000E+00 0.  1.
         21   -1    0    0  501  502  0.00000000000E+00 -0.00000000000E+00 -0.12513351063E+04  0.12513351063E+04  0.00000000000E+00 0. -1.
    9000010    2    1    2  501    0  0.30787320009E+03  0.54552641603E+03 -0.66458212197E+03  0.13487561805E+04  0.99251642792E+03 0.  0.
        -13    1    3    3    0    0  0.10824553577E+03  0.82099072656E+03 -0.41119805841E+03  0.92456839851E+03  0.10566000000E+00 0.  1.
          4    1    3    3  501    0  0.19962766432E+03 -0.27546431053E+03 -0.25338406355E+03  0.42418778200E+03  0.00000000000E+00 0.  1.
         13    1    1    2    0    0 -0.30787320009E+03 -0.54552641603E+03  0.15627355128E+03  0.64560546150E+03  0.10566000000E+00 0. -1.
<mgrwt>
<rscale>  1 0.10031602E+04</rscale>
<asrwt>0</asrwt>
<pdfrwt beam="2">  1       21 0.19251309E+00 0.11736583E+04</pdfrwt>
<pdfrwt beam="1">  1        4 0.11431177E+00 0.11736583E+04</pdfrwt>
<totfact> 0.29742870E+00</totfact>
</mgrwt>
</event>
<event>
 6    1  0.1375310E-005  0.1095471E+04  0.7818608E-02  0.9435173E-01
         21   -1    0    0  501  502  0.00000000000E+00  0.00000000000E+00  0.69428198371E+03  0.69428198371E+03  0.00000000000E+00 0.  1.
          4   -1    0    0  502    0 -0.00000000000E+00 -0.00000000000E+00 -0.91874927658E+03  0.91874927658E+03  0.00000000000E+00 0.  1.
    9000010    2    1    2  501    0  0.10737469488E+03  0.47025774452E+03 -0.27081439467E+03  0.11284492379E+04  0.98355761134E+03 0.  0.
        -13    1    3    3    0    0 -0.14673496612E+03 -0.17490050801E+03  0.18905328449E+03  0.29641608176E+03  0.10566000000E+00 0.  1.
          4    1    3    3  501    0  0.25410966100E+03  0.64515825254E+03 -0.45986767916E+03  0.83203315617E+03  0.00000000000E+00 0.  1.
         13    1    1    2    0    0 -0.10737469488E+03 -0.47025774452E+03  0.46347101808E+02  0.48458202236E+03  0.10566000000E+00 0. -1.
<mgrwt>
<rscale>  1 0.89236747E+03</rscale>
<asrwt>0</asrwt>
<pdfrwt beam="1">  1       21 0.10681261E+00 0.10954712E+04</pdfrwt>
<pdfrwt beam="2">  1        4 0.14134604E+00 0.10954712E+04</pdfrwt>
<totfact> 0.89383032E+00</totfact>
</mgrwt>
</event>
<event>
 6    1  0.1375310E-005  0.1050941E+04  0.7818608E-02  0.9549832E-01
          4   -1    0    0  502    0 -0.00000000000E+00  0.00000000000E+00  0.91069148698E+03  0.91069148698E+03  0.00000000000E+00 0.  1.
         21   -1    0    0  501  502  0.00000000000E+00 -0.00000000000E+00 -0.74928048401E+03  0.74928048401E+03  0.00000000000E+00 0.  1.
    9000010    2    1    2  501    0  0.13318025171E+03  0.34040268677E+03 -0.27928024123E+03  0.10874165130E+04  0.98532545435E+03 0.  0.
        -13    1    3    3    0    0 -0.42743471062E+03  0.19830360140E+03 -0.97488334670E+02  0.48117433091E+03  0.10566000000E+00 0.  1.
          4    1    3    3  501    0  0.56061496233E+03  0.14209908537E+03 -0.18179190656E+03  0.60624218208E+03  0.00000000000E+00 0.  1.
         13    1    1    2    0    0 -0.13318025171E+03 -0.34040268677E+03  0.44069124419E+03  0.57255545799E+03  0.10566000000E+00 0. -1.
<mgrwt>
<rscale>  1 0.80707530E+03</rscale>
<asrwt>0</asrwt>
<pdfrwt beam="2">  1       21 0.11527392E+00 0.10509411E+04</pdfrwt>
<pdfrwt beam="1">  1        4 0.14010638E+00 0.10509411E+04</pdfrwt>
<totfact> 0.75738356E+00</totfact>
</mgrwt>
</event>
<event>
 6    1  0.1375310E-005  0.1059577E+04  0.7818608E-02  0.9562900E-01
          4   -1    0    0  502    0 -0.00000000000E+00  0.00000000000E+00  0.47092989023E+03  0.47092989023E+03  0.00000000000E+00 0.  1.
         21   -1    0    0  501  502  0.00000000000E+00 -0.00000000000E+00 -0.10890956543E+04  0.10890956543E+04  0.00000000000E+00 0.  1.
    9000010    2    1    2  501    0 -0.25185573476E+03  0.22975558561E+03 -0.60218767807E+03  0.12187423034E+04  0.10032366930E+04 0.  0.
        -13    1    3    3    0    0  0.24008669113E+02  0.57310738019E+02  0.27564654025E+03  0.28256320214E+03  0.10566000000E+00 0.  1.
          4    1    3    3  501    0 -0.27586440388E+03  0.17244484759E+03 -0.87783421832E+03  0.93617910126E+03  0.00000000000E+00 0.  1.
         13    1    1    2    0    0  0.25185573476E+03 -0.22975558561E+03 -0.15978085959E+02  0.34128324109E+03  0.10566000000E+00 0. -1.
<mgrwt>
<rscale>  1 0.79801108E+03</rscale>
<asrwt>0</asrwt>
<pdfrwt beam="2">  1       21 0.16755318E+00 0.10595767E+04</pdfrwt>
<pdfrwt beam="1">  1        4 0.72450753E-01 0.10595767E+04</pdfrwt>
<totfact> 0.13492262E+01</totfact>
</mgrwt>
</event>
<event>
 6    1  0.1375310E-005  0.1047746E+04  0.7818608E-02  0.9598053E-01
         21   -1    0    0  501  502  0.00000000000E+00  0.00000000000E+00  0.10970469993E+04  0.10970469993E+04  0.00000000000E+00 0.  1.
          4   -1    0    0  502    0 -0.00000000000E+00 -0.00000000000E+00 -0.69575215223E+03  0.69575215223E+03  0.00000000000E+00 0.  1.
    9000010    2    1    2  501    0 -0.14333729585E+03  0.27761622332E+03  0.77681061881E+03  0.13043030371E+04  0.10000776606E+04 0.  0.
        -13    1    3    3    0    0  0.33616253061E+03 -0.14565912296E+03  0.46718859756E+03  0.59370617644E+03  0.10566000000E+00 0.  1.
          4    1    3    3  501    0 -0.47949982646E+03  0.42327534628E+03  0.30962202125E+03  0.71059686066E+03  0.00000000000E+00 0.  1.
         13    1    1    2    0    0  0.14333729585E+03 -0.27761622332E+03 -0.37551577174E+03  0.48849611443E+03  0.10566000000E+00 0. -1.
<mgrwt>
<rscale>  1 0.77425200E+03</rscale>
<asrwt>0</asrwt>
<pdfrwt beam="1">  1       21 0.16877646E+00 0.10477460E+04</pdfrwt>
<pdfrwt beam="2">  1        4 0.10703879E+00 0.10477460E+04</pdfrwt>
<totfact> 0.52900050E+00</totfact>
</mgrwt>
</event>
<event>
 6    1  0.1375310E-005  0.1030300E+04  0.7818608E-02  0.9714333E-01
         21   -1    0    0  501  502  0.00000000000E+00  0.00000000000E+00  0.66310774562E+03  0.66310774562E+03  0.00000000000E+00 0.  1.
          4   -1    0    0  502    0 -0.00000000000E+00 -0.00000000000E+00 -0.65730633123E+03  0.65730633123E+03  0.00000000000E+00 0.  1.
    9000010    2    1    2  501    0  0.20221682597E+03 -0.90810208190E+02  0.17042397109E+03  0.10443004481E+04  0.10061714354E+04 0.  0.
        -13    1    3    3    0    0 -0.36201594656E+03  0.24558238302E-01 -0.14681865717E+03  0.39065493140E+03  0.10566000000E+00 0.  1.
          4    1    3    3  501    0  0.56423277253E+03 -0.90834766428E+02  0.31724262826E+03  0.65364551675E+03  0.00000000000E+00 0.  1.
         13    1    1    2    0    0 -0.20221682597E+03  0.90810208190E+02 -0.16462255671E+03  0.27611362870E+03  0.10566000000E+00 0. -1.
<mgrwt>
<rscale>  1 0.70169807E+03</rscale>
<asrwt>0</asrwt>
<pdfrwt beam="1">  1       21 0.10201658E+00 0.10303005E+04</pdfrwt>
<pdfrwt beam="2">  1        4 0.10112405E+00 0.10303005E+04</pdfrwt>
<totfact> 0.23482239E+01</totfact>
</mgrwt>
</event>
<event>
 6    1  0.1375310E-005  0.1247426E+04  0.7818608E-02  0.9214028E-01
          4   -1    0    0  502    0 -0.00000000000E+00  0.00000000000E+00  0.12765734375E+04  0.12765734375E+04  0.00000000000E+00 0.  1.
         21   -1    0    0  501  502  0.00000000000E+00 -0.00000000000E+00 -0.76673860153E+03  0.76673860153E+03  0.00000000000E+00 0.  1.
    9000010    2    1    2  501    0  0.31423505987E+03 -0.65871831473E+03  0.28410567975E+03  0.12793701865E+04  0.10116415105E+04 0.  0.
        -13    1    3    3    0    0  0.34681085241E+02  0.10660039699E+03  0.43632491674E+03  0.45049513476E+03  0.10566000000E+00 0.  1.
          4    1    3    3  501    0  0.27955397463E+03 -0.76531871172E+03 -0.15221923699E+03  0.82887505171E+03  0.00000000000E+00 0.  1.
         13    1    1    2    0    0 -0.31423505987E+03  0.65871831473E+03  0.22572915626E+03  0.76394185261E+03  0.10566000000E+00 0. -1.
<mgrwt>
<rscale>  1 0.10909799E+04</rscale>
<asrwt>0</asrwt>
<pdfrwt beam="2">  1       21 0.11795978E+00 0.12474262E+04</pdfrwt>
<pdfrwt beam="1">  1        4 0.19639591E+00 0.12474262E+04</pdfrwt>
<totfact> 0.27011826E+00</totfact>
</mgrwt>
</event>
<event>
 6    1  0.1375310E-005  0.1020444E+04  0.7818608E-02  0.1004764E+00
         21   -1    0    0  501  502  0.00000000000E+00  0.00000000000E+00  0.70031963830E+03  0.70031963830E+03  0.00000000000E+00 0.  1.
          4   -1    0    0  502    0 -0.00000000000E+00 -0.00000000000E+00 -0.49854142836E+03  0.49854142836E+03  0.00000000000E+00 0.  1.
    9000010    2    1    2  501    0 -0.55690925687E+02  0.54231045994E+02  0.30920408136E+03  0.10662608609E+04  0.10174785374E+04 0.  0.
        -13    1    3    3    0    0  0.27956684742E+02 -0.47936334748E+03  0.15478902103E+03  0.50451010626E+03  0.10566000000E+00 0.  1.
          4    1    3    3  501    0 -0.83647610429E+02  0.53359439347E+03  0.15441506033E+03  0.56175075463E+03  0.00000000000E+00 0.  1.
         13    1    1    2    0    0  0.55690925687E+02 -0.54231045994E+02 -0.10742587141E+03  0.13260020576E+03  0.10566000000E+00 0. -1.
<mgrwt>
<rscale>  1 0.53609752E+03</rscale>
<asrwt>0</asrwt>
<pdfrwt beam="1">  1       21 0.10774148E+00 0.10204436E+04</pdfrwt>
<pdfrwt beam="2">  1        4 0.76698681E-01 0.10204436E+04</pdfrwt>
<totfact> 0.39181756E+01</totfact>
</mgrwt>
</event>
<event>
 6    1  0.1375310E-005  0.1064676E+04  0.7818608E-02  0.1022262E+00
          4   -1    0    0  502    0 -0.00000000000E+00  0.00000000000E+00  0.10739636507E+04  0.10739636507E+04  0.00000000000E+00 0.  1.
         21   -1    0    0  501  502  0.00000000000E+00 -0.00000000000E+00 -0.30833081083E+03  0.30833081083E+03  0.00000000000E+00 0.  1.
    9000010    2    1    2  501    0 -0.39572382169E+02  0.59567894509E+01  0.62169855429E+03  0.12329005309E+04  0.10639234794E+04 0.  0.
        -13    1    3    3    0    0 -0.32058738858E+03  0.40081508752E+03  0.10387577125E+03  0.52365942664E+03  0.10566000000E+00 0.  1.
          4    1    3    3  501    0  0.28101500641E+03 -0.39485829807E+03  0.51782278304E+03  0.70924110429E+03  0.00000000000E+00 0.  1.
         13    1    1    2    0    0  0.39572382169E+02 -0.59567894509E+01  0.14393428553E+03  0.14939393056E+03  0.10566000000E+00 0. -1.
<mgrwt>
<rscale>  1 0.46878945E+03</rscale>
<asrwt>0</asrwt>
<pdfrwt beam="2">  1       21 0.47435510E-01 0.10646758E+04</pdfrwt>
<pdfrwt beam="1">  1        4 0.16522517E+00 0.10646758E+04</pdfrwt>
<totfact> 0.38393198E+01</totfact>
</mgrwt>
</event>
<event>
 6    1  0.1375310E-005  0.1139368E+04  0.7818608E-02  0.9363623E-01
          4   -1    0    0  502    0 -0.00000000000E+00  0.00000000000E+00  0.22096279938E+04  0.22096279938E+04  0.00000000000E+00 0.  1.
         21   -1    0    0  501  502  0.00000000000E+00 -0.00000000000E+00 -0.54141536841E+03  0.54141536841E+03  0.00000000000E+00 0. -1.
    9000010    2    1    2  501    0  0.14225649409E+03 -0.53513735828E+03  0.16772685346E+03  0.11516477059E+04  0.99576665886E+03 0.  0.
        -13    1    3    3    0    0 -0.99780875812E+02 -0.22195397252E+03 -0.39482921585E+03  0.46379942858E+03  0.10566000000E+00 0.  1.
          4    1    3    3  501    0  0.24203736990E+03 -0.31318338576E+03  0.56255606932E+03  0.68784827737E+03  0.00000000000E+00 0.  1.
         13    1    1    2    0    0 -0.14225649409E+03  0.53513735828E+03  0.15004857719E+04  0.15993956563E+04  0.10566000000E+00 0. -1.
<mgrwt>
<rscale>  1 0.95130811E+03</rscale>
<asrwt>0</asrwt>
<pdfrwt beam="2">  1       21 0.83294673E-01 0.11393683E+04</pdfrwt>
<pdfrwt beam="1">  1        4 0.33994276E+00 0.11393683E+04</pdfrwt>
<totfact> 0.80858707E-01</totfact>
</mgrwt>
</event>
<event>
 6    1  0.1375310E-005  0.1034082E+04  0.7818608E-02  0.9649277E-01
          4   -1    0    0  502    0 -0.00000000000E+00  0.00000000000E+00  0.34556073690E+03  0.34556073690E+03  0.00000000000E+00 0.  1.
         21   -1    0    0  501  502  0.00000000000E+00 -0.00000000000E+00 -0.15074616938E+04  0.15074616938E+04  0.00000000000E+00 0.  1.
    9000010    2    1    2  501    0  0.18697334205E+03 -0.19882320363E+03 -0.11924690624E+04  0.15783879151E+04  0.99741478272E+03 0.  0.
        -13    1    3    3    0    0  0.48909052139E+03  0.78884775579E+02 -0.10186505455E+04  0.11327317824E+04  0.10566000000E+00 0.  1.
          4    1    3    3  501    0 -0.30211717934E+03 -0.27770797921E+03 -0.17381851694E+03  0.44565613269E+03  0.00000000000E+00 0.  1.
         13    1    1    2    0    0 -0.18697334205E+03  0.19882320363E+03  0.30568105491E+02  0.27463451563E+03  0.10566000000E+00 0. -1.
<mgrwt>
<rscale>  1 0.74118790E+03</rscale>
<asrwt>0</asrwt>
<pdfrwt beam="2">  1       21 0.23191718E+00 0.10340822E+04</pdfrwt>
<pdfrwt beam="1">  1        4 0.53163192E-01 0.10340822E+04</pdfrwt>
<totfact> 0.95446568E+00</totfact>
</mgrwt>
</event>
<event>
 6    1  0.1375310E-005  0.1041225E+04  0.7818608E-02  0.9700204E-01
          4   -1    0    0  502    0 -0.00000000000E+00  0.00000000000E+00  0.85782980345E+03  0.85782980345E+03  0.00000000000E+00 0.  1.
         21   -1    0    0  501  502  0.00000000000E+00 -0.00000000000E+00 -0.53246511349E+03  0.53246511349E+03  0.00000000000E+00 0. -1.
    9000010    2    1    2  501    0 -0.21792965861E+03 -0.56647878786E+02  0.60967897963E+02  0.10430083018E+04  0.10165859112E+04 0.  0.
        -13    1    3    3    0    0 -0.21362386349E+03 -0.39914335971E+03 -0.30179790598E+03  0.54408874632E+03  0.10566000000E+00 0.  1.
          4    1    3    3  501    0 -0.43057951207E+01  0.34249548092E+03  0.36276580395E+03  0.49891955547E+03  0.00000000000E+00 0.  1.
         13    1    1    2    0    0  0.21792965861E+03  0.56647878786E+02  0.26439679200E+03  0.34728661515E+03  0.10566000000E+00 0. -1.
<mgrwt>
<rscale>  1 0.71004666E+03</rscale>
<asrwt>0</asrwt>
<pdfrwt beam="2">  1       21 0.81917710E-01 0.10412249E+04</pdfrwt>
<pdfrwt beam="1">  1        4 0.13197382E+00 0.10412249E+04</pdfrwt>
<totfact> 0.20555259E+01</totfact>
</mgrwt>
</event>
<event>
 6    1  0.1375310E-005  0.1098993E+04  0.7818608E-02  0.9442863E-01
          4   -1    0    0  502    0 -0.00000000000E+00  0.00000000000E+00  0.73741889809E+03  0.73741889809E+03  0.00000000000E+00 0.  1.
         21   -1    0    0  501  502  0.00000000000E+00 -0.00000000000E+00 -0.88171365936E+03  0.88171365936E+03  0.00000000000E+00 0.  1.
    9000010    2    1    2  501    0  0.14341903492E+03 -0.44221470841E+03 -0.28139785482E+03  0.11344469508E+04  0.99582240558E+03 0.  0.
        -13    1    3    3    0    0  0.37441897508E+03  0.18306929561E+03 -0.16355939230E+02  0.41709886575E+03  0.10566000000E+00 0.  1.
          4    1    3    3  501    0 -0.23099994017E+03 -0.62528400402E+03 -0.26504191559E+03  0.71734808500E+03  0.00000000000E+00 0.  1.
         13    1    1    2    0    0 -0.14341903492E+03  0.44221470841E+03  0.13710309355E+03  0.48468560670E+03  0.10566000000E+00 0. -1.
<mgrwt>
<rscale>  1 0.88630607E+03</rscale>
<asrwt>0</asrwt>
<pdfrwt beam="2">  1       21 0.13564825E+00 0.10989928E+04</pdfrwt>
<pdfrwt beam="1">  1        4 0.11344906E+00 0.10989928E+04</pdfrwt>
<totfact> 0.84134856E+00</totfact>
</mgrwt>
</event>
<event>
 6    1  0.1375310E-005  0.1190483E+04  0.7818608E-02  0.9309820E-01
          4   -1    0    0  502    0 -0.00000000000E+00  0.00000000000E+00  0.50386292612E+03  0.50386292612E+03  0.00000000000E+00 0.  1.
         21   -1    0    0  501  502  0.00000000000E+00 -0.00000000000E+00 -0.15859181563E+04  0.15859181563E+04  0.00000000000E+00 0.  1.
    9000010    2    1    2  501    0 -0.27764169016E+03  0.52052691273E+03 -0.63252569122E+03  0.13480870804E+04  0.10340294248E+04 0.  0.
        -13    1    3    3    0    0 -0.71683615422E+02 -0.75213113418E+02  0.24587345505E+03  0.26692568294E+03  0.10566000000E+00 0.  1.
          4    1    3    3  501    0 -0.20595807474E+03  0.59574002615E+03 -0.87839914627E+03  0.10811613975E+04  0.00000000000E+00 0.  1.
         13    1    1    2    0    0  0.27764169016E+03 -0.52052691273E+03 -0.44952953894E+03  0.74169400195E+03  0.10566000000E+00 0. -1.
<mgrwt>
<rscale>  1 0.99883802E+03</rscale>
<asrwt>0</asrwt>
<pdfrwt beam="2">  1       21 0.24398740E+00 0.11904831E+04</pdfrwt>
<pdfrwt beam="1">  1        4 0.77517375E-01 0.11904831E+04</pdfrwt>
<totfact> 0.33922147E+00</totfact>
</mgrwt>
</event>
<event>
 6    1  0.1375310E-005  0.1023700E+04  0.7818608E-02  0.9736000E-01
          4   -1    0    0  502    0 -0.00000000000E+00  0.00000000000E+00  0.52104334147E+03  0.52104334147E+03  0.00000000000E+00 0.  1.
         21   -1    0    0  501  502  0.00000000000E+00 -0.00000000000E+00 -0.11337713459E+04  0.11337713459E+04  0.00000000000E+00 0.  1.
    9000010    2    1    2  501    0 -0.19023454243E+03  0.89481235724E+02 -0.85518646409E+03  0.13339063070E+04  0.10018812679E+04 0.  0.
        -13    1    3    3    0    0 -0.48308787587E+03 -0.25578875790E+03 -0.60981597255E+03  0.81894890928E+03  0.10566000000E+00 0.  1.
          4    1    3    3  501    0  0.29285333343E+03  0.34526999362E+03 -0.24537049154E+03  0.51495739777E+03  0.00000000000E+00 0.  1.
         13    1    1    2    0    0  0.19023454243E+03 -0.89481235724E+02  0.24245845970E+03  0.32090838027E+03  0.10566000000E+00 0. -1.
<mgrwt>
<rscale>  1 0.68913225E+03</rscale>
<asrwt>0</asrwt>
<pdfrwt beam="2">  1       21 0.17442636E+00 0.10237002E+04</pdfrwt>
<pdfrwt beam="1">  1        4 0.80160514E-01 0.10237002E+04</pdfrwt>
<totfact> 0.95636385E+00</totfact>
</mgrwt>
</event>
<event>
 6    1  0.1375310E-005  0.9943006E+03  0.7818608E-02  0.9865105E-01
          4   -1    0    0  502    0 -0.00000000000E+00  0.00000000000E+00  0.71513268958E+03  0.71513268958E+03  0.00000000000E+00 0.  1.
         21   -1    0    0  501  502  0.00000000000E+00 -0.00000000000E+00 -0.49581122406E+03  0.49581122406E+03  0.00000000000E+00 0.  1.
    9000010    2    1    2  501    0  0.78648293598E+02 -0.12790485754E+03  0.66221726401E+02  0.99650336722E+03  0.98289797902E+03 0.  0.
        -13    1    3    3    0    0  0.89954472875E+02 -0.30621442495E+03  0.46243062834E+03  0.56187292018E+03  0.10566000000E+00 0.  1.
          4    1    3    3  501    0 -0.11306179277E+02  0.17830956741E+03 -0.39620890194E+03  0.43463044704E+03  0.00000000000E+00 0.  1.
         13    1    1    2    0    0 -0.78648293598E+02  0.12790485754E+03  0.15309973912E+03  0.21444054642E+03  0.10566000000E+00 0. -1.
<mgrwt>
<rscale>  1 0.61982641E+03</rscale>
<asrwt>0</asrwt>
<pdfrwt beam="2">  1       21 0.76278649E-01 0.99430058E+03</pdfrwt>
<pdfrwt beam="1">  1        4 0.11002041E+00 0.99430058E+03</pdfrwt>
<totfact> 0.38591374E+01</totfact>
</mgrwt>
</event>
<event>
 6    1  0.1375310E-005  0.1049351E+04  0.7818608E-02  0.9605197E-01
          4   -1    0    0  502    0 -0.00000000000E+00  0.00000000000E+00  0.20515439507E+04  0.20515439507E+04  0.00000000000E+00 0.  1.
         21   -1    0    0  501  502  0.00000000000E+00 -0.00000000000E+00 -0.22388894670E+03  0.22388894670E+03  0.00000000000E+00 0.  1.
    9000010    2    1    2  501    0 -0.26705610578E+03 -0.14417623187E+03  0.13566708848E+04  0.17151367247E+04  0.10045060205E+04 0.  0.
        -13    1    3    3    0    0 -0.41318997988E+03  0.41337674593E+02  0.87744346835E+02  0.42442177651E+03  0.10566000000E+00 0.  1.
          4    1    3    3  501    0  0.14613387409E+03 -0.18551390646E+03  0.12689265380E+04  0.12907149482E+04  0.00000000000E+00 0.  1.
         13    1    1    2    0    0  0.26705610578E+03  0.14417623187E+03  0.47098411923E+03  0.56029617275E+03  0.10566000000E+00 0. -1.
<mgrwt>
<rscale>  1 0.76953171E+03</rscale>
<asrwt>0</asrwt>
<pdfrwt beam="2">  1       21 0.34444455E-01 0.10493513E+04</pdfrwt>
<pdfrwt beam="1">  1        4 0.31562213E+00 0.10493513E+04</pdfrwt>
<totfact> 0.81414512E+00</totfact>
</mgrwt>
</event>
<event>
 6    1  0.1375310E-005  0.1002662E+04  0.7818608E-02  0.9891523E-01
         21   -1    0    0  501  502  0.00000000000E+00  0.00000000000E+00  0.42033741715E+03  0.42033741715E+03  0.00000000000E+00 0.  1.
          4   -1    0    0  502    0 -0.00000000000E+00 -0.00000000000E+00 -0.82775779093E+03  0.82775779093E+03  0.00000000000E+00 0.  1.
    9000010    2    1    2  501    0  0.13162147640E+03  0.27407639559E+02 -0.23567746150E+03  0.10299873659E+04  0.99360692238E+03 0.  0.
        -13    1    3    3    0    0 -0.52117399560E+02 -0.17222454569E+03 -0.57098077415E+03  0.59866231975E+03  0.10566000000E+00 0.  1.
          4    1    3    3  501    0  0.18373887596E+03  0.19963218525E+03  0.33530331265E+03  0.43132504611E+03  0.00000000000E+00 0.  1.
         13    1    1    2    0    0 -0.13162147640E+03 -0.27407639559E+02 -0.17174291229E+03  0.21810784223E+03  0.10566000000E+00 0. -1.
<mgrwt>
<rscale>  1 0.60673878E+03</rscale>
<asrwt>0</asrwt>
<pdfrwt beam="1">  1       21 0.64667295E-01 0.10026615E+04</pdfrwt>
<pdfrwt beam="2">  1        4 0.12734735E+00 0.10026615E+04</pdfrwt>
<totfact> 0.39036649E+01</totfact>
</mgrwt>
</event>
<event>
 6    1  0.1375310E-005  0.1003157E+04  0.7818608E-02  0.1006616E+00
          4   -1    0    0  502    0 -0.00000000000E+00  0.00000000000E+00  0.54464510455E+03  0.54464510455E+03  0.00000000000E+00 0.  1.
         21   -1    0    0  501  502  0.00000000000E+00 -0.00000000000E+00 -0.62324207266E+03  0.62324207266E+03  0.00000000000E+00 0.  1.
    9000010    2    1    2  501    0  0.37208342074E+02 -0.67680889986E+02 -0.20105572426E+03  0.10231069240E+04  0.10001795890E+04 0.  0.
        -13    1    3    3    0    0  0.10885585368E+02 -0.40554655628E+02 -0.61048961347E+03  0.61193198591E+03  0.10566000000E+00 0.  1.
          4    1    3    3  501    0  0.26322756706E+02 -0.27126234358E+02  0.40943388921E+03  0.41117493813E+03  0.00000000000E+00 0.  1.
         13    1    1    2    0    0 -0.37208342074E+02  0.67680889986E+02  0.12245875614E+03  0.14478025317E+03  0.10566000000E+00 0. -1.
<mgrwt>
<rscale>  1 0.52842048E+03</rscale>
<asrwt>0</asrwt>
<pdfrwt beam="2">  1       21 0.95883396E-01 0.10031572E+04</pdfrwt>
<pdfrwt beam="1">  1        4 0.83791554E-01 0.10031572E+04</pdfrwt>
<totfact> 0.42811066E+01</totfact>
</mgrwt>
</event>
<event>
 6    1  0.1375310E-005  0.1027807E+04  0.7818608E-02  0.9671107E-01
          4   -1    0    0  502    0 -0.00000000000E+00  0.00000000000E+00  0.99789722716E+03  0.99789722716E+03  0.00000000000E+00 0.  1.
         21   -1    0    0  501  502  0.00000000000E+00 -0.00000000000E+00 -0.51283779086E+03  0.51283779086E+03  0.00000000000E+00 0.  1.
    9000010    2    1    2  501    0  0.23840938797E+03  0.99076973434E+02  0.80683497822E+02  0.10309692484E+04  0.99485299485E+03 0.  0.
        -13    1    3    3    0    0 -0.20413723624E+02  0.17520784536E+03 -0.42370804583E+03  0.45895863480E+03  0.10566000000E+00 0.  1.
          4    1    3    3  501    0  0.25882311159E+03 -0.76130871927E+02  0.50439154365E+03  0.57201061359E+03  0.00000000000E+00 0.  1.
         13    1    1    2    0    0 -0.23840938797E+03 -0.99076973434E+02  0.40437593847E+03  0.47976576964E+03  0.10566000000E+00 0. -1.
<mgrwt>
<rscale>  1 0.72763418E+03</rscale>
<asrwt>0</asrwt>
<pdfrwt beam="2">  1       21 0.78898122E-01 0.10278073E+04</pdfrwt>
<pdfrwt beam="1">  1        4 0.15352265E+00 0.10278073E+04</pdfrwt>
<totfact> 0.15076603E+01</totfact>
</mgrwt>
</event>
<event>
 6    1  0.1375310E-005  0.1089577E+04  0.7818608E-02  0.9490432E-01
         21   -1    0    0  501  502  0.00000000000E+00  0.00000000000E+00  0.70830675900E+03  0.70830675900E+03  0.00000000000E+00 0.  1.
          4   -1    0    0  502    0 -0.00000000000E+00 -0.00000000000E+00 -0.81473288787E+03  0.81473288787E+03  0.00000000000E+00 0.  1.
    9000010    2    1    2  501    0 -0.33423360054E+03 -0.22591003563E+03  0.49091053116E+02  0.10906820992E+04  0.10121413272E+04 0.  0.
        -13    1    3    3    0    0 -0.45769464745E+03 -0.46716449176E+03 -0.23791923006E+03  0.69594010077E+03  0.10566000000E+00 0.  1.
          4    1    3    3  501    0  0.12346104691E+03  0.24125445613E+03  0.28701028318E+03  0.39474199847E+03  0.00000000000E+00 0.  1.
         13    1    1    2    0    0  0.33423360054E+03  0.22591003563E+03 -0.15551718199E+03  0.43235754762E+03  0.10566000000E+00 0. -1.
<mgrwt>
<rscale>  1 0.84992900E+03</rscale>
<asrwt>0</asrwt>
<pdfrwt beam="1">  1       21 0.10897027E+00 0.10895768E+04</pdfrwt>
<pdfrwt beam="2">  1        4 0.12534352E+00 0.10895768E+04</pdfrwt>
<totfact> 0.11609072E+01</totfact>
</mgrwt>
</event>
<event>
 6    1  0.1375310E-005  0.1071326E+04  0.7818608E-02  0.9554289E-01
         21   -1    0    0  501  502  0.00000000000E+00  0.00000000000E+00  0.47389014918E+03  0.47389014918E+03  0.00000000000E+00 0.  1.
          4   -1    0    0  502    0 -0.00000000000E+00 -0.00000000000E+00 -0.11235927082E+04  0.11235927082E+04  0.00000000000E+00 0.  1.
    9000010    2    1    2  501    0  0.33730023300E+03  0.40951832613E+02 -0.30597357744E+03  0.11141629595E+04  0.10160171113E+04 0.  0.
        -13    1    3    3    0    0  0.52871209848E+03 -0.38251211665E+02 -0.57011586635E+03  0.77848041112E+03  0.10566000000E+00 0.  1.
          4    1    3    3  501    0 -0.19141186548E+03  0.79203044278E+02  0.26414228892E+03  0.33568254834E+03  0.00000000000E+00 0.  1.
         13    1    1    2    0    0 -0.33730023300E+03 -0.40951832613E+02 -0.34372898161E+03  0.48331989793E+03  0.10566000000E+00 0. -1.
<mgrwt>
<rscale>  1 0.80396984E+03</rscale>
<asrwt>0</asrwt>
<pdfrwt beam="1">  1       21 0.72906177E-01 0.10713259E+04</pdfrwt>
<pdfrwt beam="2">  1        4 0.17286042E+00 0.10713259E+04</pdfrwt>
<totfact> 0.12981531E+01</totfact>
</mgrwt>
</event>
<event>
 6    1  0.1375310E-005  0.1008492E+04  0.7818608E-02  0.1004384E+00
          4   -1    0    0  502    0 -0.00000000000E+00  0.00000000000E+00  0.15888451066E+03  0.15888451066E+03  0.00000000000E+00 0.  1.
         21   -1    0    0  501  502  0.00000000000E+00 -0.00000000000E+00 -0.19310044851E+04  0.19310044851E+04  0.00000000000E+00 0.  1.
    9000010    2    1    2  501    0 -0.64044290702E+02  0.50391124010E+02 -0.17177844441E+04  0.19919436152E+04  0.10051940276E+04 0.  0.
        -13    1    3    3    0    0 -0.85643589681E+02 -0.31261554797E+03 -0.10808725358E+03  0.34168138790E+03  0.10566000000E+00 0.  1.
          4    1    3    3  501    0  0.21599298979E+02  0.36300667198E+03 -0.16096971905E+04  0.16502622273E+04  0.00000000000E+00 0.  1.
         13    1    1    2    0    0  0.64044290702E+02 -0.50391124010E+02 -0.54335530286E+02  0.97945380524E+02  0.10566000000E+00 0. -1.
<mgrwt>
<rscale>  1 0.53769138E+03</rscale>
<asrwt>0</asrwt>
<pdfrwt beam="2">  1       21 0.29707764E+00 0.10084919E+04</pdfrwt>
<pdfrwt beam="1">  1        4 0.24443769E-01 0.10084919E+04</pdfrwt>
<totfact> 0.17753240E+01</totfact>
</mgrwt>
</event>
<event>
 6    1  0.1375310E-005  0.1106368E+04  0.7818608E-02  0.9436435E-01
          4   -1    0    0  502    0 -0.00000000000E+00  0.00000000000E+00  0.71782146553E+03  0.71782146553E+03  0.00000000000E+00 0.  1.
         21   -1    0    0  501  502  0.00000000000E+00 -0.00000000000E+00 -0.10104184259E+04  0.10104184259E+04  0.00000000000E+00 0.  1.
    9000010    2    1    2  501    0  0.41508841849E+03 -0.21214077637E+03 -0.50476002428E+03  0.12160726522E+04  0.10033682819E+04 0.  0.
        -13    1    3    3    0    0  0.40992345593E+03 -0.58024870565E+03 -0.45726608860E+03  0.84487755745E+03  0.10566000000E+00 0.  1.
          4    1    3    3  501    0  0.51649625584E+01  0.36810792928E+03 -0.47493935680E+02  0.37119509474E+03  0.00000000000E+00 0.  1.
         13    1    1    2    0    0 -0.41508841849E+03  0.21214077637E+03  0.21216306387E+03  0.51216723929E+03  0.10566000000E+00 0. -1.
<mgrwt>
<rscale>  1 0.89136932E+03</rscale>
<asrwt>0</asrwt>
<pdfrwt beam="2">  1       21 0.15544899E+00 0.11063679E+04</pdfrwt>
<pdfrwt beam="1">  1        4 0.11043407E+00 0.11063679E+04</pdfrwt>
<totfact> 0.61646805E+00</totfact>
</mgrwt>
</event>
<event>
 6    1  0.1375310E-005  0.9958379E+03  0.7818608E-02  0.9654690E-01
          4   -1    0    0  502    0 -0.00000000000E+00  0.00000000000E+00  0.30634809156E+03  0.30634809156E+03  0.00000000000E+00 0.  1.
         21   -1    0    0  501  502  0.00000000000E+00 -0.00000000000E+00 -0.19442514719E+04  0.19442514719E+04  0.00000000000E+00 0.  1.
    9000010    2    1    2  501    0  0.10107398773E+03 -0.28250677218E+03 -0.16745932201E+04  0.19483212433E+04  0.94956157631E+03 0.  0.
        -13    1    3    3    0    0  0.24309974859E+02  0.16286116420E+03 -0.14201846786E+04  0.14296990124E+04  0.10566000000E+00 0.  1.
          4    1    3    3  501    0  0.76764012874E+02 -0.44536793638E+03 -0.25440854151E+03  0.51862223093E+03  0.00000000000E+00 0.  1.
         13    1    1    2    0    0 -0.10107398773E+03  0.28250677218E+03  0.36689839712E+02  0.30227832014E+03  0.10566000000E+00 0. -1.
<mgrwt>
<rscale>  1 0.73779808E+03</rscale>
<asrwt>0</asrwt>
<pdfrwt beam="2">  1       21 0.29911562E+00 0.99583795E+03</pdfrwt>
<pdfrwt beam="1">  1        4 0.47130474E-01 0.99583795E+03</pdfrwt>
<totfact> 0.46682063E+00</totfact>
</mgrwt>
</event>
<event>
 6    1  0.1375310E-005  0.1099249E+04  0.7818608E-02  0.9659889E-01
          4   -1    0    0  502    0 -0.00000000000E+00  0.00000000000E+00  0.36975020228E+03  0.36975020228E+03  0.00000000000E+00 0.  1.
         21   -1    0    0  501  502  0.00000000000E+00 -0.00000000000E+00 -0.14377058710E+04  0.14377058710E+04  0.00000000000E+00 0.  1.
    9000010    2    1    2  501    0 -0.46230196950E+02 -0.21426013118E+03 -0.11331987666E+04  0.15787612813E+04  0.10771736646E+04 0.  0.
        -13    1    3    3    0    0  0.77814208249E+01 -0.56251734794E+03 -0.22735232464E+03  0.60677459400E+03  0.10566000000E+00 0.  1.
          4    1    3    3  501    0 -0.54011617774E+02  0.34825721675E+03 -0.90584644191E+03  0.97198668725E+03  0.00000000000E+00 0.  1.
         13    1    1    2    0    0  0.46230196950E+02  0.21426013118E+03  0.65243097827E+02  0.22869479203E+03  0.10566000000E+00 0. -1.
<mgrwt>
<rscale>  1 0.73456055E+03</rscale>
<asrwt>0</asrwt>
<pdfrwt beam="2">  1       21 0.22118552E+00 0.10992487E+04</pdfrwt>
<pdfrwt beam="1">  1        4 0.56884647E-01 0.10992487E+04</pdfrwt>
<totfact> 0.96209853E+00</totfact>
</mgrwt>
</event>
<event>
 6    1  0.1375310E-005  0.1127206E+04  0.7818608E-02  0.9391889E-01
          4   -1    0    0  502    0 -0.00000000000E+00  0.00000000000E+00  0.45915510710E+03  0.45915510710E+03  0.00000000000E+00 0.  1.
         21   -1    0    0  501  502  0.00000000000E+00 -0.00000000000E+00 -0.14820024163E+04  0.14820024163E+04  0.00000000000E+00 0. -1.
    9000010    2    1    2  501    0  0.47725366298E+03 -0.19781242741E+03 -0.62330775873E+03  0.12880628298E+04  0.10018445369E+04 0.  0.
        -13    1    3    3    0    0  0.27089889117E+03  0.27902399514E+03  0.96152307966E+02  0.40060688536E+03  0.10566000000E+00 0.  1.
          4    1    3    3  501    0  0.20635477181E+03 -0.47683642256E+03 -0.71946006669E+03  0.88745594442E+03  0.00000000000E+00 0.  1.
         13    1    1    2    0    0 -0.47725366298E+03  0.19781242741E+03 -0.39953955045E+03  0.65309469360E+03  0.10566000000E+00 0. -1.
<mgrwt>
<rscale>  1 0.92746227E+03</rscale>
<asrwt>0</asrwt>
<pdfrwt beam="2">  1       21 0.22800038E+00 0.11272060E+04</pdfrwt>
<pdfrwt beam="1">  1        4 0.70639246E-01 0.11272060E+04</pdfrwt>
<totfact> 0.53649661E+00</totfact>
</mgrwt>
</event>
<event>
 6    1  0.1375310E-005  0.1043062E+04  0.7818608E-02  0.9426887E-01
          4   -1    0    0  502    0 -0.00000000000E+00  0.00000000000E+00  0.63884291385E+03  0.63884291385E+03  0.00000000000E+00 0.  1.
         21   -1    0    0  501  502  0.00000000000E+00 -0.00000000000E+00 -0.19925155522E+04  0.19925155522E+04  0.00000000000E+00 0. -1.
    9000010    2    1    2  501    0 -0.39230581340E+02 -0.57413354012E+03 -0.16742753591E+04  0.19726062546E+04  0.86994775545E+03 0.  0.
        -13    1    3    3    0    0  0.30684021802E+03 -0.43049427810E+02 -0.10011079226E+04  0.10479605224E+04  0.10566000000E+00 0.  1.
          4    1    3    3  501    0 -0.34607079936E+03 -0.53108411231E+03 -0.67316743645E+03  0.92464573217E+03  0.00000000000E+00 0.  1.
         13    1    1    2    0    0  0.39230581340E+02  0.57413354012E+03  0.32060272072E+03  0.65875221146E+03  0.10566000000E+00 0. -1.
<mgrwt>
<rscale>  1 0.89895627E+03</rscale>
<asrwt>0</asrwt>
<pdfrwt beam="2">  1       21 0.30654085E+00 0.10430616E+04</pdfrwt>
<pdfrwt beam="1">  1        4 0.98283525E-01 0.10430616E+04</pdfrwt>
<totfact> 0.80536513E-01</totfact>
</mgrwt>
</event>
<event>
 6    1  0.1375310E-005  0.1204283E+04  0.7818608E-02  0.9635700E-01
         21   -1    0    0  501  502  0.00000000000E+00  0.00000000000E+00  0.58046589565E+03  0.58046589565E+03  0.00000000000E+00 0.  1.
          4   -1    0    0  502    0 -0.00000000000E+00 -0.00000000000E+00 -0.86283787811E+03  0.86283787811E+03  0.00000000000E+00 0.  1.
    9000010    2    1    2  501    0 -0.16090765473E+03  0.82761000324E+02 -0.13867205507E+03  0.12122402829E+04  0.11906115689E+04 0.  0.
        -13    1    3    3    0    0 -0.41043546938E+03  0.44967059100E+03 -0.36939638386E+03  0.71211980348E+03  0.10566000000E+00 0.  1.
          4    1    3    3  501    0  0.24952781466E+03 -0.36690959067E+03  0.23072432879E+03  0.50012047939E+03  0.00000000000E+00 0.  1.
         13    1    1    2    0    0  0.16090765473E+03 -0.82761000324E+02 -0.14369992739E+03  0.23106349089E+03  0.10566000000E+00 0. -1.
<mgrwt>
<rscale>  1 0.74977723E+03</rscale>
<asrwt>0</asrwt>
<pdfrwt beam="1">  1       21 0.89302445E-01 0.12042826E+04</pdfrwt>
<pdfrwt beam="2">  1        4 0.13274429E+00 0.12042826E+04</pdfrwt>
<totfact> 0.16231443E+01</totfact>
</mgrwt>
</event>
<event>
 6    1  0.1375310E-005  0.1003628E+04  0.7818608E-02  0.9777896E-01
          4   -1    0    0  502    0 -0.00000000000E+00  0.00000000000E+00  0.24762677226E+03  0.24762677226E+03  0.00000000000E+00 0.  1.
         21   -1    0    0  501  502  0.00000000000E+00 -0.00000000000E+00 -0.14513674101E+04  0.14513674101E+04  0.00000000000E+00 0.  1.
    9000010    2    1    2  501    0 -0.17104342803E+03  0.91917066747E+02 -0.97987272633E+03  0.14026473342E+04  0.98466460430E+03 0.  0.
        -13    1    3    3    0    0  0.50146286405E+02 -0.34098182656E+03 -0.82231297538E+03  0.89161757314E+03  0.10566000000E+00 0.  1.
          4    1    3    3  501    0 -0.22118971443E+03  0.43289889330E+03 -0.15755975095E+03  0.51102976108E+03  0.00000000000E+00 0.  1.
         13    1    1    2    0    0  0.17104342803E+03 -0.91917066747E+02 -0.22386791148E+03  0.29634684811E+03  0.10566000000E+00 0. -1.
<mgrwt>
<rscale>  1 0.66562391E+03</rscale>
<asrwt>0</asrwt>
<pdfrwt beam="2">  1       21 0.22328730E+00 0.10036279E+04</pdfrwt>
<pdfrwt beam="1">  1        4 0.38096426E-01 0.10036279E+04</pdfrwt>
<totfact> 0.21806190E+01</totfact>
</mgrwt>
</event>
<event>
 6    1  0.1375310E-005  0.9121736E+03  0.7818608E-02  0.1010583E+00
         21   -1    0    0  501  502  0.00000000000E+00  0.00000000000E+00  0.19865382769E+04  0.19865382769E+04  0.00000000000E+00 0.  1.
          4   -1    0    0  502    0 -0.00000000000E+00 -0.00000000000E+00 -0.13008302755E+03  0.13008302755E+03  0.00000000000E+00 0.  1.
    9000010    2    1    2  501    0  0.76521197887E+02 -0.48974093925E+02  0.17699356225E+04  0.19911636917E+04  0.90763802462E+03 0.  0.
        -13    1    3    3    0    0  0.36777579735E+03  0.14671420796E+03  0.34986414430E+03  0.52838340868E+03  0.10566000000E+00 0.  1.
          4    1    3    3  501    0 -0.29125459946E+03 -0.19568830189E+03  0.14200714782E+04  0.14627802830E+04  0.00000000000E+00 0.  1.
         13    1    1    2    0    0 -0.76521197887E+02  0.48974093925E+02  0.86519626875E+02  0.12545761276E+03  0.10566000000E+00 0. -1.
<mgrwt>
<rscale>  1 0.51243759E+03</rscale>
<asrwt>0</asrwt>
<pdfrwt beam="1">  1       21 0.30562125E+00 0.91217363E+03</pdfrwt>
<pdfrwt beam="2">  1        4 0.20012775E-01 0.91217363E+03</pdfrwt>
<totfact> 0.23270613E+01</totfact>
</mgrwt>
</event>
<event>
 6    1  0.1375310E-005  0.1196878E+04  0.7818608E-02  0.9242303E-01
         21   -1    0    0  501  502  0.00000000000E+00  0.00000000000E+00  0.76397822822E+03  0.76397822822E+03  0.00000000000E+00 0. -1.
          4   -1    0    0  502    0 -0.00000000000E+00 -0.00000000000E+00 -0.12575669581E+04  0.12575669581E+04  0.00000000000E+00 0.  1.
    9000010    2    1    2  501    0 -0.54216101905E+03  0.50941070311E+03 -0.16471297793E+03  0.12081589887E+04  0.93759263113E+03 0.  0.
        -13    1    3    3    0    0 -0.43336362691E+03  0.74015843402E+03  0.71257400253E+02  0.86064869071E+03  0.10566000000E+00 0.  1.
          4    1    3    3  501    0 -0.10879739214E+03 -0.23074773090E+03 -0.23597037818E+03  0.34751029802E+03  0.00000000000E+00 0.  1.
         13    1    1    2    0    0  0.54216101905E+03 -0.50941070311E+03 -0.32887575196E+03  0.81338619758E+03  0.10566000000E+00 0. -1.
<mgrwt>
<rscale>  1 0.10627255E+04</rscale>
<asrwt>0</asrwt>
<pdfrwt beam="1">  1       21 0.11753511E+00 0.11968783E+04</pdfrwt>
<pdfrwt beam="2">  1        4 0.19347184E+00 0.11968783E+04</pdfrwt>
<totfact> 0.28700564E+00</totfact>
</mgrwt>
</event>
<event>
 6    1  0.1375310E-005  0.1046329E+04  0.7818608E-02  0.9591461E-01
         21   -1    0    0  501  502  0.00000000000E+00  0.00000000000E+00  0.18753854148E+04  0.18753854148E+04  0.00000000000E+00 0.  1.
          4   -1    0    0  502    0 -0.00000000000E+00 -0.00000000000E+00 -0.24985210038E+03  0.24985210038E+03  0.00000000000E+00 0.  1.
    9000010    2    1    2  501    0 -0.15431583490E+03 -0.28133477579E+03  0.12895130236E+04  0.16606169388E+04  0.99591272034E+03 0.  0.
        -13    1    3    3    0    0  0.22898211837E+03 -0.39967737441E+03  0.11450842465E+04  0.12342579782E+04  0.10566000000E+00 0.  1.
          4    1    3    3  501    0 -0.38329795326E+03  0.11834259862E+03  0.14442877713E+03  0.42635896060E+03  0.00000000000E+00 0.  1.
         13    1    1    2    0    0  0.15431583490E+03  0.28133477579E+03  0.33602029083E+03  0.46462057636E+03  0.10566000000E+00 0. -1.
<mgrwt>
<rscale>  1 0.77863912E+03</rscale>
<asrwt>0</asrwt>
<pdfrwt beam="1">  1       21 0.28852082E+00 0.10463292E+04</pdfrwt>
<pdfrwt beam="2">  1        4 0.38438786E-01 0.10463292E+04</pdfrwt>
<totfact> 0.81952530E+00</totfact>
</mgrwt>
</event>
<event>
 6    1  0.1375310E-005  0.1012713E+04  0.7818608E-02  0.9838373E-01
          4   -1    0    0  502    0 -0.00000000000E+00  0.00000000000E+00  0.30954282242E+03  0.30954282242E+03  0.00000000000E+00 0.  1.
         21   -1    0    0  501  502  0.00000000000E+00 -0.00000000000E+00 -0.20564065804E+04  0.20564065804E+04  0.00000000000E+00 0.  1.
    9000010    2    1    2  501    0  0.13554394533E+03  0.75193266482E+02 -0.18968485045E+04  0.21502606831E+04  0.10007799798E+04 0.  0.
        -13    1    3    3    0    0  0.48553282542E+03  0.33553218118E+02 -0.45602242182E+03  0.66695157499E+03  0.10566000000E+00 0.  1.
          4    1    3    3  501    0 -0.34998888009E+03  0.41640048364E+02 -0.14408260826E+04  0.14833091081E+04  0.00000000000E+00 0.  1.
         13    1    1    2    0    0 -0.13554394533E+03 -0.75193266482E+02  0.14998474653E+03  0.21568871968E+03  0.10566000000E+00 0. -1.
<mgrwt>
<rscale>  1 0.63343242E+03</rscale>
<asrwt>0</asrwt>
<pdfrwt beam="2">  1       21 0.31637023E+00 0.10127126E+04</pdfrwt>
<pdfrwt beam="1">  1        4 0.47621975E-01 0.10127126E+04</pdfrwt>
<totfact> 0.35565259E+00</totfact>
</mgrwt>
</event>
<event>
 6    1  0.1375310E-005  0.1000265E+04  0.7818608E-02  0.1009548E+00
         21   -1    0    0  501  502  0.00000000000E+00  0.00000000000E+00  0.54278826362E+03  0.54278826362E+03  0.00000000000E+00 0.  1.
          4   -1    0    0  502    0 -0.00000000000E+00 -0.00000000000E+00 -0.54566031677E+03  0.54566031677E+03  0.00000000000E+00 0.  1.
    9000010    2    1    2  501    0  0.69141995494E+02 -0.16728131207E+02  0.47326114262E+02  0.10013835869E+04  0.99773186836E+03 0.  0.
        -13    1    3    3    0    0  0.50880482527E+03  0.85793317136E+02  0.15207925532E+03  0.53793210961E+03  0.10566000000E+00 0.  1.
          4    1    3    3  501    0 -0.43966282978E+03 -0.10252144834E+03 -0.10475314105E+03  0.46345147731E+03  0.00000000000E+00 0.  1.
         13    1    1    2    0    0 -0.69141995494E+02  0.16728131207E+02 -0.50198167404E+02  0.87064993478E+02  0.10566000000E+00 0. -1.
<mgrwt>
<rscale>  1 0.51654707E+03</rscale>
<asrwt>0</asrwt>
<pdfrwt beam="1">  1       21 0.83505887E-01 0.10002646E+04</pdfrwt>
<pdfrwt beam="2">  1        4 0.83947741E-01 0.10002646E+04</pdfrwt>
<totfact> 0.59503881E+01</totfact>
</mgrwt>
</event>
<event>
 6    1  0.1375310E-005  0.1002184E+04  0.7818608E-02  0.9696437E-01
         21   -1    0    0  501  502  0.00000000000E+00  0.00000000000E+00  0.38186084045E+03  0.38186084045E+03  0.00000000000E+00 0.  1.
          4   -1    0    0  502    0 -0.00000000000E+00 -0.00000000000E+00 -0.10416807871E+04  0.10416807871E+04  0.00000000000E+00 0.  1.
    9000010    2    1    2  501    0  0.10443737908E+03 -0.23344012872E+03 -0.56713550028E+03  0.11515271471E+04  0.96900497156E+03 0.  0.
        -13    1    3    3    0    0  0.27184297533E+03 -0.42060571389E+02  0.20211252151E+03  0.34134612553E+03  0.10566000000E+00 0.  1.
          4    1    3    3  501    0 -0.16740559625E+03 -0.19137955733E+03 -0.76924802179E+03  0.81018102153E+03  0.00000000000E+00 0.  1.
         13    1    1    2    0    0 -0.10443737908E+03  0.23344012872E+03 -0.92684446393E+02  0.27201448052E+03  0.10566000000E+00 0. -1.
<mgrwt>
<rscale>  1 0.71229350E+03</rscale>
<asrwt>0</asrwt>
<pdfrwt beam="1">  1       21 0.58747822E-01 0.10021837E+04</pdfrwt>
<pdfrwt beam="2">  1        4 0.16025858E+00 0.10021837E+04</pdfrwt>
<totfact> 0.26341073E+01</totfact>
</mgrwt>
</event>
<event>
 6    1  0.1375310E-005  0.9900400E+03  0.7818608E-02  0.1010033E+00
          4   -1    0    0  502    0 -0.00000000000E+00  0.00000000000E+00  0.55121635417E+03  0.55121635417E+03  0.00000000000E+00 0.  1.
         21   -1    0    0  501  502  0.00000000000E+00 -0.00000000000E+00 -0.51202768449E+03  0.51202768449E+03  0.00000000000E+00 0.  1.
    9000010    2    1    2  501    0  0.61142416450E+02  0.38533968511E+02  0.31198569797E+02  0.99053149037E+03  0.98739861294E+03 0.  0.
        -13    1    3    3    0    0 -0.30120194775E+03  0.27803970837E+03  0.27387711400E+03  0.49298821234E+03  0.10566000000E+00 0.  1.
          4    1    3    3  501    0  0.36234436420E+03 -0.23950573986E+03 -0.24267854421E+03  0.49754327803E+03  0.00000000000E+00 0.  1.
         13    1    1    2    0    0 -0.61142416450E+02 -0.38533968511E+02  0.79900998866E+01  0.72712548290E+02  0.10566000000E+00 0. -1.
<mgrwt>
<rscale>  1 0.51461496E+03</rscale>
<asrwt>0</asrwt>
<pdfrwt beam="2">  1       21 0.78773489E-01 0.99004004E+03</pdfrwt>
<pdfrwt beam="1">  1        4 0.84802517E-01 0.99004004E+03</pdfrwt>
<totfact> 0.66749163E+01</totfact>
</mgrwt>
</event>
<event>
 6    1  0.1375310E-005  0.1050926E+04  0.7818608E-02  0.9635844E-01
          4   -1    0    0  502    0 -0.00000000000E+00  0.00000000000E+00  0.86342241133E+03  0.86342241133E+03  0.00000000000E+00 0.  1.
         21   -1    0    0  501  502  0.00000000000E+00 -0.00000000000E+00 -0.50698554509E+03  0.50698554509E+03  0.00000000000E+00 0.  1.
    9000010    2    1    2  501    0 -0.13041344260E+03 -0.23886208773E+03  0.29201111252E+03  0.10907412765E+04  0.10150779672E+04 0.  0.
        -13    1    3    3    0    0  0.17845288327E+03  0.33697589543E+03  0.20083662608E+03  0.43096815101E+03  0.10566000000E+00 0.  1.
          4    1    3    3  501    0 -0.30886632587E+03 -0.57583798316E+03  0.91174486437E+02  0.65977312546E+03  0.00000000000E+00 0.  1.
         13    1    1    2    0    0  0.13041344260E+03  0.23886208773E+03  0.64425753717E+02  0.27966667995E+03  0.10566000000E+00 0. -1.
<mgrwt>
<rscale>  1 0.74968572E+03</rscale>
<asrwt>0</asrwt>
<pdfrwt beam="2">  1       21 0.77997776E-01 0.10509263E+04</pdfrwt>
<pdfrwt beam="1">  1        4 0.13283422E+00 0.10509263E+04</pdfrwt>
<totfact> 0.22666632E+01</totfact>
</mgrwt>
</event>
<event>
 6    1  0.1375310E-005  0.1000326E+04  0.7818608E-02  0.9990191E-01
         21   -1    0    0  501  502  0.00000000000E+00  0.00000000000E+00  0.27773283058E+03  0.27773283058E+03  0.00000000000E+00 0.  1.
          4   -1    0    0  502    0 -0.00000000000E+00 -0.00000000000E+00 -0.13458442070E+04  0.13458442070E+04  0.00000000000E+00 0.  1.
    9000010    2    1    2  501    0  0.37510640317E+02 -0.91433331412E+02 -0.64770425402E+03  0.11917098566E+04  0.99543180556E+03 0.  0.
        -13    1    3    3    0    0  0.89167861429E+02  0.43879578599E+03 -0.41449166433E+03  0.61016063481E+03  0.10566000000E+00 0.  1.
          4    1    3    3  501    0 -0.51657221112E+02 -0.53022911740E+03 -0.23321258968E+03  0.58154922183E+03  0.00000000000E+00 0.  1.
         13    1    1    2    0    0 -0.37510640317E+02  0.91433331412E+02 -0.42040712237E+03  0.43186718089E+03  0.10566000000E+00 0. -1.
<mgrwt>
<rscale>  1 0.56082435E+03</rscale>
<asrwt>0</asrwt>
<pdfrwt beam="1">  1       21 0.42728128E-01 0.10003257E+04</pdfrwt>
<pdfrwt beam="2">  1        4 0.20705295E+00 0.10003257E+04</pdfrwt>
<totfact> 0.24870527E+01</totfact>
</mgrwt>
</event>
<event>
 6    1  0.1375310E-005  0.1016338E+04  0.7818608E-02  0.9840148E-01
         21   -1    0    0  501  502  0.00000000000E+00  0.00000000000E+00  0.44771224118E+03  0.44771224118E+03  0.00000000000E+00 0.  1.
          4   -1    0    0  502    0 -0.00000000000E+00 -0.00000000000E+00 -0.78547227256E+03  0.78547227256E+03  0.00000000000E+00 0.  1.
    9000010    2    1    2  501    0 -0.72309326798E+02 -0.13422954761E+03 -0.21836541069E+03  0.10395319981E+04  0.10048368586E+04 0.  0.
        -13    1    3    3    0    0 -0.93042723932E+02  0.42482559684E+03  0.10665464617E+02  0.43502586073E+03  0.10566000000E+00 0.  1.
          4    1    3    3  501    0  0.20733397133E+02 -0.55905514445E+03 -0.22903087531E+03  0.60450613738E+03  0.00000000000E+00 0.  1.
         13    1    1    2    0    0  0.72309326798E+02  0.13422954761E+03 -0.11939462069E+03  0.19365251562E+03  0.10566000000E+00 0. -1.
<mgrwt>
<rscale>  1 0.63251777E+03</rscale>
<asrwt>0</asrwt>
<pdfrwt beam="1">  1       21 0.68878806E-01 0.10163382E+04</pdfrwt>
<pdfrwt beam="2">  1        4 0.12084189E+00 0.10163382E+04</pdfrwt>
<totfact> 0.38602909E+01</totfact>
</mgrwt>
</event>
<event>
 6    1  0.1375310E-005  0.1253018E+04  0.7818608E-02  0.9189252E-01
         21   -1    0    0  501  502  0.00000000000E+00  0.00000000000E+00  0.92510580518E+03  0.92510580518E+03  0.00000000000E+00 0. -1.
          4   -1    0    0  502    0 -0.00000000000E+00 -0.00000000000E+00 -0.12421036227E+04  0.12421036227E+04  0.00000000000E+00 0.  1.
    9000010    2    1    2  501    0  0.78968586500E+03 -0.18394259361E+02  0.12976475154E+03  0.12597189770E+04  0.97268232027E+03 0.  0.
        -13    1    3    3    0    0  0.88142332175E+03 -0.16256893181E+03 -0.17226775603E+03  0.91269486722E+03  0.10566000000E+00 0.  1.
          4    1    3    3  501    0 -0.91737456753E+02  0.14417467245E+03  0.30203250757E+03  0.34702410980E+03  0.00000000000E+00 0.  1.
         13    1    1    2    0    0 -0.78968586500E+03  0.18394259361E+02 -0.44676256910E+03  0.90749045090E+03  0.10566000000E+00 0. -1.
<mgrwt>
<rscale>  1 0.11165056E+04</rscale>
<asrwt>0</asrwt>
<pdfrwt beam="1">  1       21 0.14232397E+00 0.12530176E+04</pdfrwt>
<pdfrwt beam="2">  1        4 0.19109287E+00 0.12530176E+04</pdfrwt>
<totfact> 0.17744849E+00</totfact>
</mgrwt>
</event>
<event>
 6    1  0.1375310E-005  0.1101108E+04  0.7818608E-02  0.9567742E-01
          4   -1    0    0  502    0 -0.00000000000E+00  0.00000000000E+00  0.39392742501E+03  0.39392742501E+03  0.00000000000E+00 0.  1.
         21   -1    0    0  501  502  0.00000000000E+00 -0.00000000000E+00 -0.15983946598E+04  0.15983946598E+04  0.00000000000E+00 0.  1.
    9000010    2    1    2  501    0 -0.29683231395E+03  0.33687100113E+02 -0.12757240065E+04  0.16852035703E+04  0.10598089872E+04 0.  0.
        -13    1    3    3    0    0 -0.42303554305E+03  0.19572038340E+03 -0.13787638316E+04  0.14554227062E+04  0.10566000000E+00 0.  1.
          4    1    3    3  501    0  0.12620322910E+03 -0.16203328329E+03  0.10303982516E+03  0.22978086408E+03  0.00000000000E+00 0.  1.
         13    1    1    2    0    0  0.29683231395E+03 -0.33687100113E+02  0.71256771639E+02  0.30711851456E+03  0.10566000000E+00 0. -1.
<mgrwt>
<rscale>  1 0.79468504E+03</rscale>
<asrwt>0</asrwt>
<pdfrwt beam="2">  1       21 0.24590688E+00 0.11011082E+04</pdfrwt>
<pdfrwt beam="1">  1        4 0.60604218E-01 0.11011082E+04</pdfrwt>
<totfact> 0.57896222E+00</totfact>
</mgrwt>
</event>
<event>
 6    1  0.1375310E-005  0.1040751E+04  0.7818608E-02  0.9622318E-01
         21   -1    0    0  501  502  0.00000000000E+00  0.00000000000E+00  0.86825279423E+03  0.86825279423E+03  0.00000000000E+00 0.  1.
          4   -1    0    0  502    0 -0.00000000000E+00 -0.00000000000E+00 -0.66171613271E+03  0.66171613271E+03  0.00000000000E+00 0.  1.
    9000010    2    1    2  501    0 -0.27386961747E+03 -0.10527875923E+03  0.46410913519E+03  0.11395438062E+04  0.99853623493E+03 0.  0.
        -13    1    3    3    0    0 -0.22580358923E+02 -0.47841671533E+03  0.49479680864E+03  0.68863366104E+03  0.10566000000E+00 0.  1.
          4    1    3    3  501    0 -0.25128925855E+03  0.37313795610E+03 -0.30687673448E+02  0.45091014520E+03  0.00000000000E+00 0.  1.
         13    1    1    2    0    0  0.27386961747E+03  0.10527875923E+03 -0.25757247367E+03  0.39042512070E+03  0.10566000000E+00 0. -1.
<mgrwt>
<rscale>  1 0.75836469E+03</rscale>
<asrwt>0</asrwt>
<pdfrwt beam="1">  1       21 0.13357735E+00 0.10407511E+04</pdfrwt>
<pdfrwt beam="2">  1        4 0.10180248E+00 0.10407511E+04</pdfrwt>
<totfact> 0.11511267E+01</totfact>
</mgrwt>
</event>
<event>
 6    1  0.1375310E-005  0.9944696E+03  0.7818608E-02  0.9979694E-01
          4   -1    0    0  502    0 -0.00000000000E+00  0.00000000000E+00  0.59252391575E+03  0.59252391575E+03  0.00000000000E+00 0.  1.
         21   -1    0    0  501  502  0.00000000000E+00 -0.00000000000E+00 -0.51138764028E+03  0.51138764028E+03  0.00000000000E+00 0.  1.
    9000010    2    1    2  501    0 -0.10097754806E+03 -0.24802038575E+02  0.95068572868E+02  0.99900337521E+03  0.98901875806E+03 0.  0.
        -13    1    3    3    0    0 -0.50997237208E+03  0.94398863882E+01  0.24004862636E+03  0.56372359000E+03  0.10566000000E+00 0.  1.
          4    1    3    3  501    0  0.40899482402E+03 -0.34241924964E+02 -0.14498005349E+03  0.43527978521E+03  0.00000000000E+00 0.  1.
         13    1    1    2    0    0  0.10097754806E+03  0.24802038575E+02 -0.13932297400E+02  0.10490818083E+03  0.10566000000E+00 0. -1.
<mgrwt>
<rscale>  1 0.56549662E+03</rscale>
<asrwt>0</asrwt>
<pdfrwt beam="2">  1       21 0.78675022E-01 0.99446956E+03</pdfrwt>
<pdfrwt beam="1">  1        4 0.91157525E-01 0.99446956E+03</pdfrwt>
<totfact> 0.56507294E+01</totfact>
</mgrwt>
</event>
<event>
 6    1  0.1375310E-005  0.1008851E+04  0.7818608E-02  0.9769925E-01
          4   -1    0    0  502    0 -0.00000000000E+00  0.00000000000E+00  0.61840217201E+03  0.61840217201E+03  0.00000000000E+00 0.  1.
         21   -1    0    0  501  502  0.00000000000E+00 -0.00000000000E+00 -0.62584539809E+03  0.62584539809E+03  0.00000000000E+00 0.  1.
    9000010    2    1    2  501    0 -0.24245554478E+02 -0.19477201983E+03 -0.12325462072E+03  0.10163522500E+04  0.98957375066E+03 0.  0.
        -13    1    3    3    0    0 -0.50287866365E+03 -0.13298540348E+03 -0.82353591889E+01  0.52023062212E+03  0.10566000000E+00 0.  1.
          4    1    3    3  501    0  0.47863310917E+03 -0.61786616346E+02 -0.11501926153E+03  0.49612162791E+03  0.00000000000E+00 0.  1.
         13    1    1    2    0    0  0.24245554478E+02  0.19477201983E+03  0.11581139464E+03  0.22789532007E+03  0.10566000000E+00 0. -1.
<mgrwt>
<rscale>  1 0.67001830E+03</rscale>
<asrwt>0</asrwt>
<pdfrwt beam="2">  1       21 0.96283907E-01 0.10088509E+04</pdfrwt>
<pdfrwt beam="1">  1        4 0.95138796E-01 0.10088509E+04</pdfrwt>
<totfact> 0.31428863E+01</totfact>
</mgrwt>
</event>
<event>
 6    1  0.1375310E-005  0.1073654E+04  0.7818608E-02  0.9427655E-01
         21   -1    0    0  501  502  0.00000000000E+00  0.00000000000E+00  0.21009656617E+04  0.21009656617E+04  0.00000000000E+00 0.  1.
          4   -1    0    0  502    0 -0.00000000000E+00 -0.00000000000E+00 -0.32968395817E+03  0.32968395817E+03  0.00000000000E+00 0.  1.
    9000010    2    1    2  501    0 -0.18890677904E+03  0.49115451275E+03  0.14823192699E+04  0.18303015327E+04  0.93584975075E+03 0.  0.
        -13    1    3    3    0    0  0.21930058486E+03  0.52557320043E+03  0.12130351966E+04  0.13400650488E+04  0.10566000000E+00 0.  1.
          4    1    3    3  501    0 -0.40820736390E+03 -0.34418687684E+02  0.26928407326E+03  0.49023648387E+03  0.00000000000E+00 0.  1.
         13    1    1    2    0    0  0.18890677904E+03 -0.49115451275E+03  0.28896243358E+03  0.60034808715E+03  0.10566000000E+00 0. -1.
<mgrwt>
<rscale>  1 0.89834326E+03</rscale>
<asrwt>0</asrwt>
<pdfrwt beam="1">  1       21 0.32322548E+00 0.10736542E+04</pdfrwt>
<pdfrwt beam="2">  1        4 0.50720610E-01 0.10736542E+04</pdfrwt>
<totfact> 0.27905666E+00</totfact>
</mgrwt>
</event>
<event>
 6    1  0.1375310E-005  0.1118729E+04  0.7818608E-02  0.9323495E-01
         21   -1    0    0  501  502  0.00000000000E+00  0.00000000000E+00  0.82723705700E+03  0.82723705700E+03  0.00000000000E+00 0. -1.
          4   -1    0    0  502    0 -0.00000000000E+00 -0.00000000000E+00 -0.11166806968E+04  0.11166806968E+04  0.00000000000E+00 0.  1.
    9000010    2    1    2  501    0  0.40474911772E+03 -0.54189892645E+03  0.16247215496E+03  0.11304657322E+04  0.89111125887E+03 0.  0.
        -13    1    3    3    0    0  0.54527670536E+03 -0.31510979175E+03  0.42213439515E+03  0.75816774199E+03  0.10566000000E+00 0.  1.
          4    1    3    3  501    0 -0.14052758764E+03 -0.22678913469E+03 -0.25966224019E+03  0.37229799017E+03  0.00000000000E+00 0.  1.
         13    1    1    2    0    0 -0.40474911772E+03  0.54189892645E+03 -0.45191579475E+03  0.81345202162E+03  0.10566000000E+00 0. -1.
<mgrwt>
<rscale>  1 0.98648362E+03</rscale>
<asrwt>0</asrwt>
<pdfrwt beam="1">  1       21 0.12726724E+00 0.11187294E+04</pdfrwt>
<pdfrwt beam="2">  1        4 0.17179703E+00 0.11187294E+04</pdfrwt>
<totfact> 0.33270328E+00</totfact>
</mgrwt>
</event>
<event>
 6    1  0.1375310E-005  0.9943839E+03  0.7818608E-02  0.9816134E-01
          4   -1    0    0  502    0 -0.00000000000E+00  0.00000000000E+00  0.95360907415E+03  0.95360907415E+03  0.00000000000E+00 0.  1.
         21   -1    0    0  501  502  0.00000000000E+00 -0.00000000000E+00 -0.36912192421E+03  0.36912192421E+03  0.00000000000E+00 0.  1.
    9000010    2    1    2  501    0  0.11130865725E+03  0.13641966990E+03  0.41232936039E+03  0.10764826295E+04  0.97867226721E+03 0.  0.
        -13    1    3    3    0    0 -0.30413285493E+03 -0.54164402517E+02 -0.15688235286E+03  0.34647173010E+03  0.10566000000E+00 0.  1.
          4    1    3    3  501    0  0.41544151218E+03  0.19058407242E+03  0.56921171325E+03  0.73001089938E+03  0.00000000000E+00 0.  1.
         13    1    1    2    0    0 -0.11130865725E+03 -0.13641966990E+03  0.17215778955E+03  0.24624836889E+03  0.10566000000E+00 0. -1.
<mgrwt>
<rscale>  1 0.64503859E+03</rscale>
<asrwt>0</asrwt>
<pdfrwt beam="2">  1       21 0.56787989E-01 0.99438390E+03</pdfrwt>
<pdfrwt beam="1">  1        4 0.14670909E+00 0.99438390E+03</pdfrwt>
<totfact> 0.36095280E+01</totfact>
</mgrwt>
</event>
<event>
 6    1  0.1375310E-005  0.9673145E+03  0.7818608E-02  0.1028214E+00
         21   -1    0    0  501  502  0.00000000000E+00  0.00000000000E+00  0.11785525378E+04  0.11785525378E+04  0.00000000000E+00 0.  1.
          4   -1    0    0  502    0 -0.00000000000E+00 -0.00000000000E+00 -0.25428050681E+03  0.25428050681E+03  0.00000000000E+00 0.  1.
    9000010    2    1    2  501    0  0.44478767489E+02 -0.38562821627E+01  0.96932088023E+03  0.13694087461E+04  0.96628366091E+03 0.  0.
        -13    1    3    3    0    0  0.37133402564E+03 -0.31903273229E+03  0.35150036557E+03  0.60268014820E+03  0.10566000000E+00 0.  1.
          4    1    3    3  501    0 -0.32685525815E+03  0.31517645013E+03  0.61782051466E+03  0.76672859789E+03  0.00000000000E+00 0.  1.
         13    1    1    2    0    0 -0.44478767489E+02  0.38562821627E+01 -0.45048849200E+02  0.63424298559E+02  0.10566000000E+00 0. -1.
<mgrwt>
<rscale>  1 0.44835374E+03</rscale>
<asrwt>0</asrwt>
<pdfrwt beam="1">  1       21 0.18131577E+00 0.96731450E+03</pdfrwt>
<pdfrwt beam="2">  1        4 0.39120079E-01 0.96731450E+03</pdfrwt>
<totfact> 0.40265298E+01</totfact>
</mgrwt>
</event>
<event>
 6    1  0.1375310E-005  0.9547325E+03  0.7818608E-02  0.9796710E-01
          4   -1    0    0  502    0 -0.00000000000E+00  0.00000000000E+00  0.75891797525E+03  0.75891797525E+03  0.00000000000E+00 0.  1.
         21   -1    0    0  501  502  0.00000000000E+00 -0.00000000000E+00 -0.50389722967E+03  0.50389722967E+03  0.00000000000E+00 0.  1.
    9000010    2    1    2  501    0 -0.52012899186E+01  0.21195021535E+03  0.32243044646E+02  0.95527681317E+03  0.93089431659E+03 0.  0.
        -13    1    3    3    0    0  0.36451107104E+03  0.29989758523E+03 -0.19697214522E+03  0.51147328346E+03  0.10566000000E+00 0.  1.
          4    1    3    3  501    0 -0.36971236096E+03 -0.87947369886E+02  0.22921518986E+03  0.44380352971E+03  0.00000000000E+00 0.  1.
         13    1    1    2    0    0  0.52012899186E+01 -0.21195021535E+03  0.22277770093E+03  0.30753839175E+03  0.10566000000E+00 0. -1.
<mgrwt>
<rscale>  1 0.65539398E+03</rscale>
<asrwt>0</asrwt>
<pdfrwt beam="2">  1       21 0.77522651E-01 0.95473252E+03</pdfrwt>
<pdfrwt beam="1">  1        4 0.11675661E+00 0.95473252E+03</pdfrwt>
<totfact> 0.32198626E+01</totfact>
</mgrwt>
</event>
<event>
 6    1  0.1375310E-005  0.1039858E+04  0.7818608E-02  0.1009641E+00
         21   -1    0    0  501  502  0.00000000000E+00  0.00000000000E+00  0.19379802864E+03  0.19379802864E+03  0.00000000000E+00 0.  1.
          4   -1    0    0  502    0 -0.00000000000E+00 -0.00000000000E+00 -0.16796621106E+04  0.16796621106E+04  0.00000000000E+00 0.  1.
    9000010    2    1    2  501    0  0.55670634795E+02  0.29780301176E+02 -0.12335447803E+04  0.16133618365E+04  0.10379391141E+04 0.  0.
        -13    1    3    3    0    0 -0.55451582744E+02 -0.29941271635E+03 -0.12287165406E+04  0.12658859353E+04  0.10566000000E+00 0.  1.
          4    1    3    3  501    0  0.11112221754E+03  0.32919301753E+03 -0.48282396199E+01  0.34747590120E+03  0.00000000000E+00 0.  1.
         13    1    1    2    0    0 -0.55670634795E+02 -0.29780301176E+02 -0.25231930171E+03  0.26009830276E+03  0.10566000000E+00 0. -1.
<mgrwt>
<rscale>  1 0.51617726E+03</rscale>
<asrwt>0</asrwt>
<pdfrwt beam="1">  1       21 0.29815080E-01 0.10398575E+04</pdfrwt>
<pdfrwt beam="2">  1        4 0.25840957E+00 0.10398575E+04</pdfrwt>
<totfact> 0.24700100E+01</totfact>
</mgrwt>
</event>
<event>
 6    1  0.1375310E-005  0.9999706E+03  0.7818608E-02  0.1045492E+00
         21   -1    0    0  501  502  0.00000000000E+00  0.00000000000E+00  0.20522009438E+03  0.20522009438E+03  0.00000000000E+00 0.  1.
          4   -1    0    0  502    0 -0.00000000000E+00 -0.00000000000E+00 -0.12791201148E+04  0.12791201148E+04  0.00000000000E+00 0.  1.
    9000010    2    1    2  501    0  0.21240831657E+02  0.11943555660E+02 -0.10539944778E+04  0.14528749387E+04  0.99967365024E+03 0.  0.
        -13    1    3    3    0    0 -0.23974487200E+03 -0.29454323407E+03 -0.96994021322E+03  0.10416416604E+04  0.10566000000E+00 0.  1.
          4    1    3    3  501    0  0.26098570366E+03  0.30648678973E+03 -0.84054264554E+02  0.41123327830E+03  0.00000000000E+00 0.  1.
         13    1    1    2    0    0 -0.21240831657E+02 -0.11943555660E+02 -0.19905542627E+02  0.31465270420E+02  0.10566000000E+00 0. -1.
<mgrwt>
<rscale>  1 0.39509223E+03</rscale>
<asrwt>0</asrwt>
<pdfrwt beam="1">  1       21 0.31572322E-01 0.99997061E+03</pdfrwt>
<pdfrwt beam="2">  1        4 0.19678771E+00 0.99997061E+03</pdfrwt>
<totfact> 0.54371724E+01</totfact>
</mgrwt>
</event>
<event>
 6    1  0.1375310E-005  0.1084613E+04  0.7818608E-02  0.9447875E-01
         21   -1    0    0  501  502  0.00000000000E+00  0.00000000000E+00  0.87023975860E+03  0.87023975860E+03  0.00000000000E+00 0.  1.
          4   -1    0    0  502    0 -0.00000000000E+00 -0.00000000000E+00 -0.95972346203E+03  0.95972346203E+03  0.00000000000E+00 0.  1.
    9000010    2    1    2  501    0 -0.69661784792E+02 -0.46998688025E+03  0.39223619022E+03  0.11533580928E+04  0.97501037405E+03 0.  0.
        -13    1    3    3    0    0  0.68144943040E+00  0.27287559783E+03 -0.61942620796E+02  0.27981861214E+03  0.10566000000E+00 0.  1.
          4    1    3    3  501    0 -0.70343234223E+02 -0.74286247808E+03  0.45417881101E+03  0.87353948069E+03  0.00000000000E+00 0.  1.
         13    1    1    2    0    0  0.69661784792E+02  0.46998688025E+03 -0.48171989365E+03  0.67660512781E+03  0.10566000000E+00 0. -1.
<mgrwt>
<rscale>  1 0.88238338E+03</rscale>
<asrwt>0</asrwt>
<pdfrwt beam="1">  1       21 0.13388304E+00 0.10846131E+04</pdfrwt>
<pdfrwt beam="2">  1        4 0.14764976E+00 0.10846131E+04</pdfrwt>
<totfact> 0.44298714E+00</totfact>
</mgrwt>
</event>
<event>
 6    1  0.1375310E-005  0.1001064E+04  0.7818608E-02  0.1002388E+00
          4   -1    0    0  502    0 -0.00000000000E+00  0.00000000000E+00  0.44600000822E+03  0.44600000822E+03  0.00000000000E+00 0.  1.
         21   -1    0    0  501  502  0.00000000000E+00 -0.00000000000E+00 -0.77880306376E+03  0.77880306376E+03  0.00000000000E+00 0.  1.
    9000010    2    1    2  501    0 -0.80937144272E+02 -0.36265893537E+02 -0.43325816504E+03  0.10907983088E+04  0.99712701128E+03 0.  0.
        -13    1    3    3    0    0 -0.31814581461E+03  0.38116446923E+03 -0.33987718476E+03  0.60168066601E+03  0.10566000000E+00 0.  1.
          4    1    3    3  501    0  0.23720867034E+03 -0.41743036277E+03 -0.93380980275E+02  0.48911764283E+03  0.00000000000E+00 0.  1.
         13    1    1    2    0    0  0.80937144272E+02  0.36265893537E+02  0.10045510950E+03  0.13400476314E+03  0.10566000000E+00 0. -1.
<mgrwt>
<rscale>  1 0.54615488E+03</rscale>
<asrwt>0</asrwt>
<pdfrwt beam="2">  1       21 0.11981586E+00 0.10010636E+04</pdfrwt>
<pdfrwt beam="1">  1        4 0.68615386E-01 0.10010636E+04</pdfrwt>
<totfact> 0.38472619E+01</totfact>
</mgrwt>
</event>
<event>
 6    1  0.1375310E-005  0.9963508E+03  0.7818608E-02  0.9966465E-01
         21   -1    0    0  501  502  0.00000000000E+00  0.00000000000E+00  0.99591989907E+03  0.99591989907E+03  0.00000000000E+00 0.  1.
          4   -1    0    0  502    0 -0.00000000000E+00 -0.00000000000E+00 -0.53727892395E+03  0.53727892395E+03  0.00000000000E+00 0.  1.
    9000010    2    1    2  501    0  0.32886180045E+02  0.10267980520E+03  0.73397238627E+03  0.12375097289E+04  0.99049998594E+03 0.  0.
        -13    1    3    3    0    0  0.17428455845E+03 -0.40129032616E+03  0.49936091419E+03  0.66390539008E+03  0.10566000000E+00 0.  1.
          4    1    3    3  501    0 -0.14139837840E+03  0.50397013136E+03  0.23461147208E+03  0.57360433885E+03  0.00000000000E+00 0.  1.
         13    1    1    2    0    0 -0.32886180045E+02 -0.10267980520E+03 -0.27533141115E+03  0.29568909409E+03  0.10566000000E+00 0. -1.
<mgrwt>
<rscale>  1 0.57145456E+03</rscale>
<asrwt>0</asrwt>
<pdfrwt beam="1">  1       21 0.15321845E+00 0.99635077E+03</pdfrwt>
<pdfrwt beam="2">  1        4 0.82658296E-01 0.99635077E+03</pdfrwt>
<totfact> 0.12995019E+01</totfact>
</mgrwt>
</event>
<event>
 6    1  0.1375310E-005  0.1047152E+04  0.7818608E-02  0.9526517E-01
         21   -1    0    0  501  502  0.00000000000E+00  0.00000000000E+00  0.60329018359E+03  0.60329018359E+03  0.00000000000E+00 0.  1.
          4   -1    0    0  502    0 -0.00000000000E+00 -0.00000000000E+00 -0.13943982421E+04  0.13943982421E+04  0.00000000000E+00 0.  1.
    9000010    2    1    2  501    0  0.11252583114E+03 -0.38452546294E+03  0.68403207508E+02  0.10493838744E+04  0.96747383574E+03 0.  0.
        -13    1    3    3    0    0  0.35928511555E+03 -0.23356070547E+03 -0.34131041955E+03  0.54784049782E+03  0.10566000000E+00 0.  1.
          4    1    3    3  501    0 -0.24675928441E+03 -0.15096475747E+03  0.40971362706E+03  0.50154337663E+03  0.00000000000E+00 0.  1.
         13    1    1    2    0    0 -0.11252583114E+03  0.38452546294E+03 -0.85951126603E+03  0.94830455125E+03  0.10566000000E+00 0. -1.
<mgrwt>
<rscale>  1 0.82356734E+03</rscale>
<asrwt>0</asrwt>
<pdfrwt beam="1">  1       21 0.92813876E-01 0.10471521E+04</pdfrwt>
<pdfrwt beam="2">  1        4 0.21452280E+00 0.10471521E+04</pdfrwt>
<totfact> 0.38432610E+00</totfact>
</mgrwt>
</event>
<event>
 6    1  0.1375310E-005  0.1004842E+04  0.7818608E-02  0.1004952E+00
         21   -1    0    0  501  502  0.00000000000E+00  0.00000000000E+00  0.53828475124E+03  0.53828475124E+03  0.00000000000E+00 0.  1.
          4   -1    0    0  502    0 -0.00000000000E+00 -0.00000000000E+00 -0.64159186359E+03  0.64159186359E+03  0.00000000000E+00 0.  1.
    9000010    2    1    2  501    0  0.67536562906E+01  0.80651330641E+02  0.50462257061E+02  0.10061087261E+04  0.10015777955E+04 0.  0.
        -13    1    3    3    0    0  0.24643534295E+03  0.46611133758E+03 -0.81277485409E+02  0.53347558339E+03  0.10566000000E+00 0.  1.
          4    1    3    3  501    0 -0.23968168666E+03 -0.38546000694E+03  0.13173974247E+03  0.47263314274E+03  0.00000000000E+00 0.  1.
         13    1    1    2    0    0 -0.67536562906E+01 -0.80651330641E+02 -0.15376936941E+03  0.17376788869E+03  0.10566000000E+00 0. -1.
<mgrwt>
<rscale>  1 0.53531054E+03</rscale>
<asrwt>0</asrwt>
<pdfrwt beam="1">  1       21 0.82813039E-01 0.10048424E+04</pdfrwt>
<pdfrwt beam="2">  1        4 0.98706440E-01 0.10048424E+04</pdfrwt>
<totfact> 0.41405678E+01</totfact>
</mgrwt>
</event>
<event>
 6    1  0.1375310E-005  0.1200527E+04  0.7818608E-02  0.9271025E-01
         21   -1    0    0  501  502  0.00000000000E+00  0.00000000000E+00  0.52302741784E+03  0.52302741784E+03  0.00000000000E+00 0.  1.
          4   -1    0    0  502    0 -0.00000000000E+00 -0.00000000000E+00 -0.16612002101E+04  0.16612002101E+04  0.00000000000E+00 0.  1.
    9000010    2    1    2  501    0  0.43287749392E+02  0.66165145706E+03 -0.76077293864E+03  0.14212812730E+04  0.10008039333E+04 0.  0.
        -13    1    3    3    0    0  0.27885664454E+03  0.67852591676E+03 -0.88895781433E+03  0.11525642953E+04  0.10566000000E+00 0.  1.
          4    1    3    3  501    0 -0.23556889515E+03 -0.16874459696E+02  0.12818487570E+03  0.26871697771E+03  0.00000000000E+00 0.  1.
         13    1    1    2    0    0 -0.43287749392E+02 -0.66165145706E+03 -0.37739985365E+03  0.76294635498E+03  0.10566000000E+00 0. -1.
<mgrwt>
<rscale>  1 0.10349472E+04</rscale>
<asrwt>0</asrwt>
<pdfrwt beam="1">  1       21 0.80465758E-01 0.12005270E+04</pdfrwt>
<pdfrwt beam="2">  1        4 0.25556926E+00 0.12005270E+04</pdfrwt>
<totfact> 0.29280971E+00</totfact>
</mgrwt>
</event>
<event>
 6    1  0.1375310E-005  0.1012332E+04  0.7818608E-02  0.9940331E-01
         21   -1    0    0  501  502  0.00000000000E+00  0.00000000000E+00  0.44029572191E+03  0.44029572191E+03  0.00000000000E+00 0.  1.
          4   -1    0    0  502    0 -0.00000000000E+00 -0.00000000000E+00 -0.86344384466E+03  0.86344384466E+03  0.00000000000E+00 0.  1.
    9000010    2    1    2  501    0 -0.10776720661E+03 -0.29396559163E+02 -0.16928649686E+03  0.10263884087E+04  0.10061497498E+04 0.  0.
        -13    1    3    3    0    0  0.33935086173E+03  0.57550966152E+02 -0.39006141351E+03  0.52021057134E+03  0.10566000000E+00 0.  1.
          4    1    3    3  501    0 -0.44711806835E+03 -0.86947525315E+02  0.22077491665E+03  0.50617783735E+03  0.00000000000E+00 0.  1.
         13    1    1    2    0    0  0.10776720661E+03  0.29396559163E+02 -0.25386162589E+03  0.27735115788E+03  0.10566000000E+00 0. -1.
<mgrwt>
<rscale>  1 0.58345847E+03</rscale>
<asrwt>0</asrwt>
<pdfrwt beam="1">  1       21 0.67737804E-01 0.10123316E+04</pdfrwt>
<pdfrwt beam="2">  1        4 0.13283751E+00 0.10123316E+04</pdfrwt>
<totfact> 0.31501685E+01</totfact>
</mgrwt>
</event>
<event>
 6    1  0.1375310E-005  0.1065572E+04  0.7818608E-02  0.9553483E-01
         21   -1    0    0  501  502  0.00000000000E+00  0.00000000000E+00  0.41496371545E+03  0.41496371545E+03  0.00000000000E+00 0.  1.
          4   -1    0    0  502    0 -0.00000000000E+00 -0.00000000000E+00 -0.23678488913E+04  0.23678488913E+04  0.00000000000E+00 0.  1.
    9000010    2    1    2  501    0 -0.30578855610E+03  0.16247912453E+03 -0.31850872071E+03  0.11121562940E+04  0.10077389097E+04 0.  0.
        -13    1    3    3    0    0 -0.30175924665E+03  0.48069926769E+03  0.11027115684E+03  0.57817831860E+03  0.10566000000E+00 0.  1.
          4    1    3    3  501    0 -0.40293094461E+01 -0.31822014316E+03 -0.42877987755E+03  0.53397797542E+03  0.00000000000E+00 0.  1.
         13    1    1    2    0    0  0.30578855610E+03 -0.16247912453E+03 -0.16343764552E+04  0.16706563128E+04  0.10566000000E+00 0. -1.
<mgrwt>
<rscale>  1 0.80453008E+03</rscale>
<asrwt>0</asrwt>
<pdfrwt beam="1">  1       21 0.63840571E-01 0.10655721E+04</pdfrwt>
<pdfrwt beam="2">  1        4 0.36428445E+00 0.10655721E+04</pdfrwt>
<totfact> 0.10520074E+00</totfact>
</mgrwt>
</event>
<event>
 6    1  0.1375310E-005  0.9943309E+03  0.7818608E-02  0.9844061E-01
          4   -1    0    0  502    0 -0.00000000000E+00  0.00000000000E+00  0.19401171740E+03  0.19401171740E+03  0.00000000000E+00 0.  1.
         21   -1    0    0  501  502  0.00000000000E+00 -0.00000000000E+00 -0.17250731494E+04  0.17250731494E+04  0.00000000000E+00 0.  1.
    9000010    2    1    2  501    0 -0.14817207356E+03  0.62347818573E+02 -0.13547587359E+04  0.16804955424E+04  0.98125013218E+03 0.  0.
        -13    1    3    3    0    0 -0.15853014162E+03 -0.44807279744E+03 -0.54392371993E+03  0.72232545426E+03  0.10566000000E+00 0.  1.
          4    1    3    3  501    0  0.10358068062E+02  0.51042061601E+03 -0.81083501593E+03  0.95817008818E+03  0.00000000000E+00 0.  1.
         13    1    1    2    0    0  0.14817207356E+03 -0.62347818573E+02 -0.17630269609E+03  0.23858932432E+03  0.10566000000E+00 0. -1.
<mgrwt>
<rscale>  1 0.63050634E+03</rscale>
<asrwt>0</asrwt>
<pdfrwt beam="2">  1       21 0.26539588E+00 0.99433095E+03</pdfrwt>
<pdfrwt beam="1">  1        4 0.29847955E-01 0.99433095E+03</pdfrwt>
<totfact> 0.19071847E+01</totfact>
</mgrwt>
</event>
<event>
 6    1  0.1375310E-005  0.1098911E+04  0.7818608E-02  0.9461015E-01
         21   -1    0    0  501  502  0.00000000000E+00  0.00000000000E+00  0.13094986616E+04  0.13094986616E+04  0.00000000000E+00 0. -1.
          4   -1    0    0  502    0 -0.00000000000E+00 -0.00000000000E+00 -0.54027994988E+03  0.54027994988E+03  0.00000000000E+00 0.  1.
    9000010    2    1    2  501    0 -0.39418041089E+03  0.18654092163E+03  0.17507522571E+03  0.11127696530E+04  0.10086769821E+04 0.  0.
        -13    1    3    3    0    0 -0.71824833977E+03  0.18504720456E+03  0.24522944668E+03  0.78119180627E+03  0.10566000000E+00 0.  1.
          4    1    3    3  501    0  0.32406792888E+03  0.14937170697E+01 -0.70154220963E+02  0.33157784672E+03  0.00000000000E+00 0.  1.
         13    1    1    2    0    0  0.39418041089E+03 -0.18654092163E+03  0.59414348603E+03  0.73700895851E+03  0.10566000000E+00 0. -1.
<mgrwt>
<rscale>  1 0.87220038E+03</rscale>
<asrwt>0</asrwt>
<pdfrwt beam="1">  1       21 0.20146133E+00 0.10989108E+04</pdfrwt>
<pdfrwt beam="2">  1        4 0.83119993E-01 0.10989108E+04</pdfrwt>
<totfact> 0.55943566E+00</totfact>
</mgrwt>
</event>
<event>
 6    1  0.1375310E-005  0.1031667E+04  0.7818608E-02  0.9554082E-01
         21   -1    0    0  501  502  0.00000000000E+00  0.00000000000E+00  0.36452199823E+03  0.36452199823E+03  0.00000000000E+00 0.  1.
          4   -1    0    0  502    0 -0.00000000000E+00 -0.00000000000E+00 -0.20167057206E+04  0.20167057206E+04  0.00000000000E+00 0.  1.
    9000010    2    1    2  501    0  0.23435082632E+03  0.30009530529E+03 -0.45973774267E+03  0.11294669878E+04  0.95883230153E+03 0.  0.
        -13    1    3    3    0    0 -0.34555667835E+03  0.55974382925E+02  0.24718924332E+00  0.35006088294E+03  0.10566000000E+00 0.  1.
          4    1    3    3  501    0  0.57990750468E+03  0.24412092237E+03 -0.45998493191E+03  0.77940610486E+03  0.00000000000E+00 0.  1.
         13    1    1    2    0    0 -0.23435082632E+03 -0.30009530529E+03 -0.11924459797E+04  0.12517607311E+04  0.10566000000E+00 0. -1.
<mgrwt>
<rscale>  1 0.80411330E+03</rscale>
<asrwt>0</asrwt>
<pdfrwt beam="1">  1       21 0.56080307E-01 0.10316670E+04</pdfrwt>
<pdfrwt beam="2">  1        4 0.31026242E+00 0.10316670E+04</pdfrwt>
<totfact> 0.31294419E+00</totfact>
</mgrwt>
</event>
<event>
 6    1  0.1375310E-005  0.9792836E+03  0.7818608E-02  0.9952632E-01
         21   -1    0    0  501  502  0.00000000000E+00  0.00000000000E+00  0.17010271371E+03  0.17010271371E+03  0.00000000000E+00 0.  1.
          4   -1    0    0  502    0 -0.00000000000E+00 -0.00000000000E+00 -0.17933665877E+04  0.17933665877E+04  0.00000000000E+00 0.  1.
    9000010    2    1    2  501    0 -0.11863996751E+03  0.20037033718E+01 -0.13724711668E+04  0.16860230005E+04  0.97206841219E+03 0.  0.
        -13    1    3    3    0    0  0.35729701964E+03  0.20179347088E+03 -0.88746998479E+03  0.97774472650E+03  0.10566000000E+00 0.  1.
          4    1    3    3  501    0 -0.47593698715E+03 -0.19978976751E+03 -0.48500118199E+03  0.70827827403E+03  0.00000000000E+00 0.  1.
         13    1    1    2    0    0  0.11863996751E+03 -0.20037033718E+01 -0.25079270716E+03  0.27744630084E+03  0.10566000000E+00 0. -1.
<mgrwt>
<rscale>  1 0.57776956E+03</rscale>
<asrwt>0</asrwt>
<pdfrwt beam="1">  1       21 0.26169647E-01 0.97928364E+03</pdfrwt>
<pdfrwt beam="2">  1        4 0.27590256E+00 0.97928364E+03</pdfrwt>
<totfact> 0.25188043E+01</totfact>
</mgrwt>
</event>
<event>
 6    1  0.1375310E-005  0.9970922E+03  0.7818608E-02  0.9979673E-01
         21   -1    0    0  501  502  0.00000000000E+00  0.00000000000E+00  0.22435305145E+04  0.22435305145E+04  0.00000000000E+00 0.  1.
          4   -1    0    0  502    0 -0.00000000000E+00 -0.00000000000E+00 -0.13534881986E+03  0.13534881986E+03  0.00000000000E+00 0.  1.
    9000010    2    1    2  501    0  0.97596547080E+02  0.33442860346E+02  0.19478875573E+04  0.21882547491E+04  0.99174059098E+03 0.  0.
        -13    1    3    3    0    0  0.13951883773E+03  0.45209218345E+03  0.53569883310E+03  0.71472099407E+03  0.10566000000E+00 0.  1.
          4    1    3    3  501    0 -0.41922290653E+02 -0.41864932310E+03  0.14121887242E+04  0.14735337550E+04  0.00000000000E+00 0.  1.
         13    1    1    2    0    0 -0.97596547080E+02 -0.33442860346E+02  0.16029413732E+03  0.19062458533E+03  0.10566000000E+00 0. -1.
<mgrwt>
<rscale>  1 0.56550594E+03</rscale>
<asrwt>0</asrwt>
<pdfrwt beam="1">  1       21 0.34515851E+00 0.99709223E+03</pdfrwt>
<pdfrwt beam="2">  1        4 0.20822897E-01 0.99709223E+03</pdfrwt>
<totfact> 0.12064060E+01</totfact>
</mgrwt>
</event>
<event>
 6    1  0.1375310E-005  0.1080209E+04  0.7818608E-02  0.9495426E-01
          4   -1    0    0  502    0 -0.00000000000E+00  0.00000000000E+00  0.16130628285E+03  0.16130628285E+03  0.00000000000E+00 0.  1.
         21   -1    0    0  501  502  0.00000000000E+00 -0.00000000000E+00 -0.35900521544E+04  0.35900521544E+04  0.00000000000E+00 0.  1.
    9000010    2    1    2  501    0  0.27805517525E+03  0.29697143157E+03 -0.28138100073E+04  0.30140302607E+04  0.10006722458E+04 0.  0.
        -13    1    3    3    0    0  0.47557569788E+03  0.47961707545E+03 -0.11920222950E+04  0.13700809999E+04  0.10566000000E+00 0.  1.
          4    1    3    3  501    0 -0.19752052264E+03 -0.18264564388E+03 -0.16217877123E+04  0.16439492607E+04  0.00000000000E+00 0.  1.
         13    1    1    2    0    0 -0.27805517525E+03 -0.29697143157E+03 -0.61493586420E+03  0.73732817653E+03  0.10566000000E+00 0. -1.
<mgrwt>
<rscale>  1 0.84621910E+03</rscale>
<asrwt>0</asrwt>
<pdfrwt beam="2">  1       21 0.55231572E+00 0.10802091E+04</pdfrwt>
<pdfrwt beam="1">  1        4 0.24816351E-01 0.10802091E+04</pdfrwt>
<totfact> 0.31980925E-01</totfact>
</mgrwt>
</event>
<event>
 6    1  0.1375310E-005  0.1001418E+04  0.7818608E-02  0.1020041E+00
         21   -1    0    0  501  502  0.00000000000E+00  0.00000000000E+00  0.29004327054E+03  0.29004327054E+03  0.00000000000E+00 0.  1.
          4   -1    0    0  502    0 -0.00000000000E+00 -0.00000000000E+00 -0.10784557753E+04  0.10784557753E+04  0.00000000000E+00 0.  1.
    9000010    2    1    2  501    0  0.49457940789E+02 -0.14099489157E+02 -0.58733397567E+03  0.11609479207E+04  0.10000969914E+04 0.  0.
        -13    1    3    3    0    0 -0.15117897511E+03 -0.47224465414E+03 -0.35268740450E+03  0.60848871176E+03  0.10566000000E+00 0.  1.
          4    1    3    3  501    0  0.20063691590E+03  0.45814516499E+03 -0.23464657117E+03  0.55245920898E+03  0.00000000000E+00 0.  1.
         13    1    1    2    0    0 -0.49457940789E+02  0.14099489157E+02 -0.20107852907E+03  0.20755112507E+03  0.10566000000E+00 0. -1.
<mgrwt>
<rscale>  1 0.47671930E+03</rscale>
<asrwt>0</asrwt>
<pdfrwt beam="1">  1       21 0.44622042E-01 0.10014184E+04</pdfrwt>
<pdfrwt beam="2">  1        4 0.16591627E+00 0.10014184E+04</pdfrwt>
<totfact> 0.43472913E+01</totfact>
</mgrwt>
</event>
<event>
 6    1  0.1375310E-005  0.1006314E+04  0.7818608E-02  0.9829976E-01
          4   -1    0    0  502    0 -0.00000000000E+00  0.00000000000E+00  0.57891729383E+03  0.57891729383E+03  0.00000000000E+00 0.  1.
         21   -1    0    0  501  502  0.00000000000E+00 -0.00000000000E+00 -0.84946561183E+03  0.84946561183E+03  0.00000000000E+00 0.  1.
    9000010    2    1    2  501    0  0.11796492839E+03 -0.11156498419E+03 -0.51847124648E+03  0.11320245758E+04  0.99312876146E+03 0.  0.
        -13    1    3    3    0    0  0.22516340630E+03 -0.51358654011E+03 -0.16086096659E+03  0.58339176842E+03  0.10566000000E+00 0.  1.
          4    1    3    3  501    0 -0.10719847791E+03  0.40202155592E+03 -0.35761027989E+03  0.54863280742E+03  0.00000000000E+00 0.  1.
         13    1    1    2    0    0 -0.11796492839E+03  0.11156498419E+03  0.24792292848E+03  0.29635832983E+03  0.10566000000E+00 0. -1.
<mgrwt>
<rscale>  1 0.63778355E+03</rscale>
<asrwt>0</asrwt>
<pdfrwt beam="2">  1       21 0.13068702E+00 0.10063137E+04</pdfrwt>
<pdfrwt beam="1">  1        4 0.89064199E-01 0.10063137E+04</pdfrwt>
<totfact> 0.16846115E+01</totfact>
</mgrwt>
</event>
<event>
 6    1  0.1375310E-005  0.1032986E+04  0.7818608E-02  0.9682495E-01
         21   -1    0    0  501  502  0.00000000000E+00  0.00000000000E+00  0.37498185059E+03  0.37498185059E+03  0.00000000000E+00 0.  1.
          4   -1    0    0  502    0 -0.00000000000E+00 -0.00000000000E+00 -0.13722558094E+04  0.13722558094E+04  0.00000000000E+00 0.  1.
    9000010    2    1    2  501    0 -0.47360259977E+02  0.24011194184E+03 -0.41066686925E+03  0.11116240765E+04  0.10035756429E+04 0.  0.
        -13    1    3    3    0    0  0.44601155227E+02 -0.19612395610E+03 -0.59584189669E+03  0.62887315591E+03  0.10566000000E+00 0.  1.
          4    1    3    3  501    0 -0.91961415203E+02  0.43623589794E+03  0.18517502744E+03  0.48275092059E+03  0.00000000000E+00 0.  1.
         13    1    1    2    0    0  0.47360259977E+02 -0.24011194184E+03 -0.58660708958E+03  0.63561358352E+03  0.10566000000E+00 0. -1.
<mgrwt>
<rscale>  1 0.72068643E+03</rscale>
<asrwt>0</asrwt>
<pdfrwt beam="1">  1       21 0.57689515E-01 0.10329864E+04</pdfrwt>
<pdfrwt beam="2">  1        4 0.21111628E+00 0.10329864E+04</pdfrwt>
<totfact> 0.12188730E+01</totfact>
</mgrwt>
</event>
<event>
 6    1  0.1375310E-005  0.1007404E+04  0.7818608E-02  0.9911434E-01
          4   -1    0    0  502    0 -0.00000000000E+00  0.00000000000E+00  0.48735188429E+03  0.48735188429E+03  0.00000000000E+00 0.  1.
         21   -1    0    0  501  502  0.00000000000E+00 -0.00000000000E+00 -0.69811246772E+03  0.69811246772E+03  0.00000000000E+00 0.  1.
    9000010    2    1    2  501    0 -0.10850425036E+03 -0.60709028287E+02 -0.88816074351E+02  0.10113114510E+04  0.99970185428E+03 0.  0.
        -13    1    3    3    0    0  0.35473201206E+03  0.16956224606E+03 -0.25421535313E+03  0.46820039790E+03  0.10566000000E+00 0.  1.
          4    1    3    3  501    0 -0.46323626241E+03 -0.23027127435E+03  0.16539927878E+03  0.54311105312E+03  0.00000000000E+00 0.  1.
         13    1    1    2    0    0  0.10850425036E+03  0.60709028287E+02 -0.12194450908E+03  0.17415290098E+03  0.10566000000E+00 0. -1.
<mgrwt>
<rscale>  1 0.59710352E+03</rscale>
<asrwt>0</asrwt>
<pdfrwt beam="2">  1       21 0.10740192E+00 0.10074039E+04</pdfrwt>
<pdfrwt beam="1">  1        4 0.74977213E-01 0.10074039E+04</pdfrwt>
<totfact> 0.41635302E+01</totfact>
</mgrwt>
</event>
<event>
 6    1  0.1375310E-005  0.9888572E+03  0.7818608E-02  0.1054851E+00
         21   -1    0    0  501  502  0.00000000000E+00  0.00000000000E+00  0.12066810992E+04  0.12066810992E+04  0.00000000000E+00 0.  1.
          4   -1    0    0  502    0 -0.00000000000E+00 -0.00000000000E+00 -0.22264550317E+03  0.22264550317E+03  0.00000000000E+00 0.  1.
    9000010    2    1    2  501    0  0.12007858553E+02  0.15104405899E+02  0.99843947045E+03  0.14052472646E+04  0.98866888635E+03 0.  0.
        -13    1    3    3    0    0  0.23525547391E+03 -0.22918957456E+03  0.10219942306E+04  0.10734734360E+04  0.10566000000E+00 0.  1.
          4    1    3    3  501    0 -0.22324761536E+03  0.24429398046E+03 -0.23554760194E+02  0.33177382866E+03  0.00000000000E+00 0.  1.
         13    1    1    2    0    0 -0.12007858553E+02 -0.15104405899E+02 -0.14403874410E+02  0.24079337754E+02  0.10566000000E+00 0. -1.
<mgrwt>
<rscale>  1 0.36958817E+03</rscale>
<asrwt>0</asrwt>
<pdfrwt beam="1">  1       21 0.18564324E+00 0.98885717E+03</pdfrwt>
<pdfrwt beam="2">  1        4 0.34253155E-01 0.98885717E+03</pdfrwt>
<totfact> 0.48855715E+01</totfact>
</mgrwt>
</event>
<event>
 6    1  0.1375310E-005  0.1016241E+04  0.7818608E-02  0.9836312E-01
         21   -1    0    0  501  502  0.00000000000E+00  0.00000000000E+00  0.63237157889E+03  0.63237157889E+03  0.00000000000E+00 0.  1.
          4   -1    0    0  502    0 -0.00000000000E+00 -0.00000000000E+00 -0.55562739152E+03  0.55562739152E+03  0.00000000000E+00 0.  1.
    9000010    2    1    2  501    0  0.15328703905E+03  0.18744498462E+02  0.13027117409E+03  0.10245565584E+04  0.10044387936E+04 0.  0.
        -13    1    3    3    0    0  0.26584513085E+03 -0.30597864768E+03  0.41363178755E+03  0.57912678514E+03  0.10566000000E+00 0.  1.
          4    1    3    3  501    0 -0.11255809180E+03  0.32472314614E+03 -0.28336061346E+03  0.44542977328E+03  0.00000000000E+00 0.  1.
         13    1    1    2    0    0 -0.15328703905E+03 -0.18744498462E+02 -0.53526986721E+02  0.16344241198E+03  0.10566000000E+00 0. -1.
<mgrwt>
<rscale>  1 0.63449710E+03</rscale>
<asrwt>0</asrwt>
<pdfrwt beam="1">  1       21 0.97287935E-01 0.10162409E+04</pdfrwt>
<pdfrwt beam="2">  1        4 0.85481137E-01 0.10162409E+04</pdfrwt>
<totfact> 0.39393708E+01</totfact>
</mgrwt>
</event>
<event>
 6    1  0.1375310E-005  0.1005191E+04  0.7818608E-02  0.9861027E-01
          4   -1    0    0  502    0 -0.00000000000E+00  0.00000000000E+00  0.14040416388E+04  0.14040416388E+04  0.00000000000E+00 0.  1.
         21   -1    0    0  501  502  0.00000000000E+00 -0.00000000000E+00 -0.24100647772E+03  0.24100647772E+03  0.00000000000E+00 0.  1.
    9000010    2    1    2  501    0  0.13092316260E+03  0.67406917904E+02  0.10824024649E+04  0.14771606246E+04  0.99434593967E+03 0.  0.
        -13    1    3    3    0    0 -0.20549556370E+03  0.44872192357E+03  0.47478206163E+03  0.68483414678E+03  0.10566000000E+00 0.  1.
          4    1    3    3  501    0  0.33641872630E+03 -0.38131500567E+03  0.60762040325E+03  0.79232647779E+03  0.00000000000E+00 0.  1.
         13    1    1    2    0    0 -0.13092316260E+03 -0.67406917904E+02  0.80632696185E+02  0.16788749193E+03  0.10566000000E+00 0. -1.
<mgrwt>
<rscale>  1 0.62187813E+03</rscale>
<asrwt>0</asrwt>
<pdfrwt beam="2">  1       21 0.37077921E-01 0.10051907E+04</pdfrwt>
<pdfrwt beam="1">  1        4 0.21600640E+00 0.10051907E+04</pdfrwt>
<totfact> 0.29269704E+01</totfact>
</mgrwt>
</event>
<event>
 6    1  0.1375310E-005  0.1013507E+04  0.7818608E-02  0.9820523E-01
         21   -1    0    0  501  502  0.00000000000E+00  0.00000000000E+00  0.28788468434E+03  0.28788468434E+03  0.00000000000E+00 0.  1.
          4   -1    0    0  502    0 -0.00000000000E+00 -0.00000000000E+00 -0.12401059194E+04  0.12401059194E+04  0.00000000000E+00 0.  1.
    9000010    2    1    2  501    0  0.11481767098E+03  0.11698658105E+03 -0.71781253359E+03  0.12419549273E+04  0.10001641117E+04 0.  0.
        -13    1    3    3    0    0  0.16384819877E+03 -0.41377349266E+03 -0.16664382918E+03  0.47521038755E+03  0.10566000000E+00 0.  1.
          4    1    3    3  501    0 -0.49030527785E+02  0.53076007370E+03 -0.55116870441E+03  0.76674453973E+03  0.00000000000E+00 0.  1.
         13    1    1    2    0    0 -0.11481767098E+03 -0.11698658105E+03 -0.23440870147E+03  0.28603567646E+03  0.10566000000E+00 0. -1.
<mgrwt>
<rscale>  1 0.64272703E+03</rscale>
<asrwt>0</asrwt>
<pdfrwt beam="1">  1       21 0.44289952E-01 0.10135074E+04</pdfrwt>
<pdfrwt beam="2">  1        4 0.19078552E+00 0.10135074E+04</pdfrwt>
<totfact> 0.29520752E+01</totfact>
</mgrwt>
</event>
<event>
 6    1  0.1375310E-005  0.9195222E+03  0.7818608E-02  0.1046417E+00
          4   -1    0    0  502    0 -0.00000000000E+00  0.00000000000E+00  0.24565758413E+03  0.24565758413E+03  0.00000000000E+00 0.  1.
         21   -1    0    0  501  502  0.00000000000E+00 -0.00000000000E+00 -0.17672776555E+04  0.17672776555E+04  0.00000000000E+00 0.  1.
    9000010    2    1    2  501    0 -0.27161316209E+02  0.13915082486E+02 -0.16456954490E+04  0.18851617012E+04  0.91901564832E+03 0.  0.
        -13    1    3    3    0    0 -0.96486345416E+02  0.67308460563E+02 -0.17471946831E+04  0.17511508546E+04  0.10566000000E+00 0.  1.
          4    1    3    3  501    0  0.69325029207E+02 -0.53393378077E+02  0.10149923402E+03  0.13401084659E+03  0.00000000000E+00 0.  1.
         13    1    1    2    0    0  0.27161316209E+02 -0.13915082486E+02  0.12407537769E+03  0.12777353847E+03  0.10566000000E+00 0. -1.
<mgrwt>
<rscale>  1 0.39247537E+03</rscale>
<asrwt>0</asrwt>
<pdfrwt beam="2">  1       21 0.27188886E+00 0.91952223E+03</pdfrwt>
<pdfrwt beam="1">  1        4 0.37793475E-01 0.91952223E+03</pdfrwt>
<totfact> 0.10997767E+01</totfact>
</mgrwt>
</event>
<event>
 6    1  0.1375310E-005  0.1043820E+04  0.7818608E-02  0.9686916E-01
         21   -1    0    0  501  502  0.00000000000E+00  0.00000000000E+00  0.56045998211E+03  0.56045998211E+03  0.00000000000E+00 0.  1.
          4   -1    0    0  502    0 -0.00000000000E+00 -0.00000000000E+00 -0.97681402563E+03  0.97681402563E+03  0.00000000000E+00 0.  1.
    9000010    2    1    2  501    0  0.22793726237E+03  0.51554576396E+02  0.18075412479E+02  0.10439767005E+04  0.10173236264E+04 0.  0.
        -13    1    3    3    0    0  0.97858109899E+02  0.53056174811E+03 -0.54854286499E+02  0.54229234011E+03  0.10566000000E+00 0.  1.
          4    1    3    3  501    0  0.13007915248E+03 -0.47900717172E+03  0.72929698978E+02  0.50168436039E+03  0.00000000000E+00 0.  1.
         13    1    1    2    0    0 -0.22793726237E+03 -0.51554576396E+02 -0.43442945599E+03  0.49329730723E+03  0.10566000000E+00 0. -1.
<mgrwt>
<rscale>  1 0.71801176E+03</rscale>
<asrwt>0</asrwt>
<pdfrwt beam="1">  1       21 0.86224614E-01 0.10438202E+04</pdfrwt>
<pdfrwt beam="2">  1        4 0.15027908E+00 0.10438202E+04</pdfrwt>
<totfact> 0.12917865E+01</totfact>
</mgrwt>
</event>
<event>
 6    1  0.1375310E-005  0.1134167E+04  0.7818608E-02  0.9390802E-01
          4   -1    0    0  502    0 -0.00000000000E+00  0.00000000000E+00  0.37918606416E+03  0.37918606416E+03  0.00000000000E+00 0.  1.
         21   -1    0    0  501  502  0.00000000000E+00 -0.00000000000E+00 -0.18043637601E+04  0.18043637601E+04  0.00000000000E+00 0.  1.
    9000010    2    1    2  501    0  0.50681967711E+03  0.48635512100E+02 -0.10964001310E+04  0.15774753268E+04  0.10134611789E+04 0.  0.
        -13    1    3    3    0    0  0.61321953233E+03 -0.12259052632E+02 -0.12431710115E+04  0.13862404749E+04  0.10566000000E+00 0.  1.
          4    1    3    3  501    0 -0.10639985522E+03  0.60894564732E+02  0.14677088053E+03  0.19123485189E+03  0.00000000000E+00 0.  1.
         13    1    1    2    0    0 -0.50681967711E+03 -0.48635512100E+02 -0.32877756500E+03  0.60607449753E+03  0.10566000000E+00 0. -1.
<mgrwt>
<rscale>  1 0.92836508E+03</rscale>
<asrwt>0</asrwt>
<pdfrwt beam="2">  1       21 0.27759442E+00 0.11341672E+04</pdfrwt>
<pdfrwt beam="1">  1        4 0.58336318E-01 0.11341672E+04</pdfrwt>
<totfact> 0.39457423E+00</totfact>
</mgrwt>
</event>
<event>
 6    1  0.1375310E-005  0.1161707E+04  0.7818608E-02  0.9334296E-01
         21   -1    0    0  501  502  0.00000000000E+00  0.00000000000E+00  0.29306084183E+03  0.29306084183E+03  0.00000000000E+00 0.  1.
          4   -1    0    0  502    0 -0.00000000000E+00 -0.00000000000E+00 -0.26468250171E+04  0.26468250171E+04  0.00000000000E+00 0.  1.
    9000010    2    1    2  501    0  0.55377534351E+03 -0.17515568262E+03 -0.13579089317E+04  0.17870310018E+04  0.10060897030E+04 0.  0.
        -13    1    3    3    0    0  0.14890374607E+03 -0.37241969391E+03 -0.50531806342E+02  0.40425515287E+03  0.10566000000E+00 0.  1.
          4    1    3    3  501    0  0.40487159744E+03  0.19726401128E+03 -0.13073771254E+04  0.13827758490E+04  0.00000000000E+00 0.  1.
         13    1    1    2    0    0 -0.55377534351E+03  0.17515568262E+03 -0.99585524357E+03  0.11528548571E+04  0.10566000000E+00 0. -1.
<mgrwt>
<rscale>  1 0.97685927E+03</rscale>
<asrwt>0</asrwt>
<pdfrwt beam="1">  1       21 0.45086284E-01 0.11617070E+04</pdfrwt>
<pdfrwt beam="2">  1        4 0.40720384E+00 0.11617070E+04</pdfrwt>
<totfact> 0.11344520E+00</totfact>
</mgrwt>
</event>
<event>
 6    1  0.1375310E-005  0.1074947E+04  0.7818608E-02  0.9522405E-01
          4   -1    0    0  502    0 -0.00000000000E+00  0.00000000000E+00  0.17643295588E+04  0.17643295588E+04  0.00000000000E+00 0.  1.
         21   -1    0    0  501  502  0.00000000000E+00 -0.00000000000E+00 -0.33213667657E+03  0.33213667657E+03  0.00000000000E+00 0. -1.
    9000010    2    1    2  501    0 -0.65374147588E+02 -0.36997813525E+03  0.72784664176E+03  0.12981797972E+04  0.10071506601E+04 0.  0.
        -13    1    3    3    0    0  0.94085071380E+01 -0.64363925274E+03  0.15982370954E+03  0.66325231773E+03  0.10566000000E+00 0.  1.
          4    1    3    3  501    0 -0.74782654726E+02  0.27366111749E+03  0.56802293222E+03  0.63492747948E+03  0.00000000000E+00 0.  1.
         13    1    1    2    0    0  0.65374147588E+02  0.36997813525E+03  0.70434624052E+03  0.79828643821E+03  0.10566000000E+00 0. -1.
<mgrwt>
<rscale>  1 0.82651965E+03</rscale>
<asrwt>0</asrwt>
<pdfrwt beam="2">  1       21 0.51097951E-01 0.10749465E+04</pdfrwt>
<pdfrwt beam="1">  1        4 0.27143531E+00 0.10749465E+04</pdfrwt>
<totfact> 0.66295417E+00</totfact>
</mgrwt>
</event>
<event>
 6    1  0.1375310E-005  0.1198128E+04  0.7818608E-02  0.9353403E-01
          4   -1    0    0  502    0 -0.00000000000E+00  0.00000000000E+00  0.11089186649E+04  0.11089186649E+04  0.00000000000E+00 0.  1.
         21   -1    0    0  501  502  0.00000000000E+00 -0.00000000000E+00 -0.68315527984E+03  0.68315527984E+03  0.00000000000E+00 0. -1.
    9000010    2    1    2  501    0 -0.47936075215E+03 -0.11965245153E+03  0.10436107343E+03  0.12026650061E+04  0.10915165795E+04 0.  0.
        -13    1    3    3    0    0 -0.67069437517E+03  0.21294473263E+03  0.30814943013E+03  0.76820081131E+03  0.10566000000E+00 0.  1.
          4    1    3    3  501    0  0.19133362303E+03 -0.33259718416E+03 -0.20378835670E+03  0.43446419477E+03  0.00000000000E+00 0.  1.
         13    1    1    2    0    0  0.47936075215E+03  0.11965245153E+03  0.32140231159E+03  0.58940893861E+03  0.10566000000E+00 0. -1.
<mgrwt>
<rscale>  1 0.96011728E+03</rscale>
<asrwt>0</asrwt>
<pdfrwt beam="2">  1       21 0.10510081E+00 0.11981285E+04</pdfrwt>
<pdfrwt beam="1">  1        4 0.17060287E+00 0.11981285E+04</pdfrwt>
<totfact> 0.55085837E+00</totfact>
</mgrwt>
</event>
<event>
 6    1  0.1375310E-005  0.1079219E+04  0.7818608E-02  0.9477935E-01
          4   -1    0    0  502    0 -0.00000000000E+00  0.00000000000E+00  0.87094893316E+03  0.87094893316E+03  0.00000000000E+00 0.  1.
         21   -1    0    0  501  502  0.00000000000E+00 -0.00000000000E+00 -0.93126284815E+03  0.93126284815E+03  0.00000000000E+00 0.  1.
    9000010    2    1    2  501    0  0.40822691121E+03  0.14664416704E+03 -0.49570946176E+03  0.11876200338E+04  0.98821037815E+03 0.  0.
        -13    1    3    3    0    0  0.18753178984E+02  0.20290236215E+03 -0.71061034816E+03  0.73924835364E+03  0.10566000000E+00 0.  1.
          4    1    3    3  501    0  0.38947373223E+03 -0.56258195111E+02  0.21490088639E+03  0.44837168018E+03  0.00000000000E+00 0.  1.
         13    1    1    2    0    0 -0.40822691121E+03 -0.14664416704E+03  0.43539554677E+03  0.61459174749E+03  0.10566000000E+00 0. -1.
<mgrwt>
<rscale>  1 0.85930288E+03</rscale>
<asrwt>0</asrwt>
<pdfrwt beam="2">  1       21 0.14327121E+00 0.10792189E+04</pdfrwt>
<pdfrwt beam="1">  1        4 0.13399214E+00 0.10792189E+04</pdfrwt>
<totfact> 0.47621463E+00</totfact>
</mgrwt>
</event>
<event>
 6    1  0.1375310E-005  0.1054590E+04  0.7818608E-02  0.9669349E-01
          4   -1    0    0  502    0 -0.00000000000E+00  0.00000000000E+00  0.12420148003E+04  0.12420148003E+04  0.00000000000E+00 0.  1.
         21   -1    0    0  501  502  0.00000000000E+00 -0.00000000000E+00 -0.60778273691E+03  0.60778273691E+03  0.00000000000E+00 0.  1.
    9000010    2    1    2  501    0  0.21085734061E+03  0.11551188087E+03 -0.11697230608E+03  0.10610568773E+04  0.10268180772E+04 0.  0.
        -13    1    3    3    0    0 -0.14213751337E+03  0.33007166901E+03  0.30440646480E+03  0.47097100374E+03  0.10566000000E+00 0.  1.
          4    1    3    3  501    0  0.35299485397E+03 -0.21455978814E+03 -0.42137877088E+03  0.59008587355E+03  0.00000000000E+00 0.  1.
         13    1    1    2    0    0 -0.21085734061E+03 -0.11551188087E+03  0.75120436948E+03  0.78874065992E+03  0.10566000000E+00 0. -1.
<mgrwt>
<rscale>  1 0.72871411E+03</rscale>
<asrwt>0</asrwt>
<pdfrwt beam="2">  1       21 0.93505037E-01 0.10545896E+04</pdfrwt>
<pdfrwt beam="1">  1        4 0.19107920E+00 0.10545896E+04</pdfrwt>
<totfact> 0.53835324E+00</totfact>
</mgrwt>
</event>
<event>
 6    1  0.1375310E-005  0.9982235E+03  0.7818608E-02  0.9679043E-01
          4   -1    0    0  502    0 -0.00000000000E+00  0.00000000000E+00  0.80685382995E+03  0.80685382995E+03  0.00000000000E+00 0.  1.
         21   -1    0    0  501  502  0.00000000000E+00 -0.00000000000E+00 -0.50920123193E+03  0.50920123193E+03  0.00000000000E+00 0.  1.
    9000010    2    1    2  501    0 -0.17054942497E+03  0.21493342805E+03  0.16676909103E+03  0.10120583704E+04  0.95977431230E+03 0.  0.
        -13    1    3    3    0    0 -0.14888577577E+03  0.18469995185E+03 -0.38868263482E+03  0.45536276551E+03  0.10566000000E+00 0.  1.
          4    1    3    3  501    0 -0.21663649202E+02  0.30233476196E+02  0.55545172584E+03  0.55669560491E+03  0.00000000000E+00 0.  1.
         13    1    1    2    0    0  0.17054942497E+03 -0.21493342805E+03  0.13088350700E+03  0.30399669146E+03  0.10566000000E+00 0. -1.
<mgrwt>
<rscale>  1 0.72278366E+03</rscale>
<asrwt>0</asrwt>
<pdfrwt beam="2">  1       21 0.78338651E-01 0.99822353E+03</pdfrwt>
<pdfrwt beam="1">  1        4 0.12413136E+00 0.99822353E+03</pdfrwt>
<totfact> 0.26819534E+01</totfact>
</mgrwt>
</event>
<event>
 6    1  0.1375310E-005  0.1029410E+04  0.7818608E-02  0.9687566E-01
         21   -1    0    0  501  502  0.00000000000E+00  0.00000000000E+00  0.39429912542E+03  0.39429912542E+03  0.00000000000E+00 0.  1.
          4   -1    0    0  502    0 -0.00000000000E+00 -0.00000000000E+00 -0.10355894703E+04  0.10355894703E+04  0.00000000000E+00 0.  1.
    9000010    2    1    2  501    0  0.15152382404E+03  0.19012001369E+03 -0.46487815157E+03  0.11295115627E+04  0.10002897508E+04 0.  0.
        -13    1    3    3    0    0 -0.31571700286E+03  0.23716346652E+03 -0.52408298327E+03  0.65619106994E+03  0.10566000000E+00 0.  1.
          4    1    3    3  501    0  0.46724082690E+03 -0.47043452823E+02  0.59204831698E+02  0.47332049277E+03  0.00000000000E+00 0.  1.
         13    1    1    2    0    0 -0.15152382404E+03 -0.19012001369E+03 -0.17641219335E+03  0.30037703305E+03  0.10566000000E+00 0. -1.
<mgrwt>
<rscale>  1 0.71761972E+03</rscale>
<asrwt>0</asrwt>
<pdfrwt beam="1">  1       21 0.60661405E-01 0.10294099E+04</pdfrwt>
<pdfrwt beam="2">  1        4 0.15932146E+00 0.10294099E+04</pdfrwt>
<totfact> 0.24862160E+01</totfact>
</mgrwt>
</event>
<event>
 6    1  0.1375310E-005  0.1068866E+04  0.7818608E-02  0.9561844E-01
         21   -1    0    0  501  502  0.00000000000E+00  0.00000000000E+00  0.12546195199E+04  0.12546195199E+04  0.00000000000E+00 0.  1.
          4   -1    0    0  502    0 -0.00000000000E+00 -0.00000000000E+00 -0.39738814749E+03  0.39738814749E+03  0.00000000000E+00 0.  1.
    9000010    2    1    2  501    0  0.29411167611E+03  0.15682558731E+03  0.73410434959E+03  0.12966821578E+04  0.10155685498E+04 0.  0.
        -13    1    3    3    0    0  0.64282313845E+03 -0.40612459671E+02  0.58187708914E+03  0.86801608121E+03  0.10566000000E+00 0.  1.
          4    1    3    3  501    0 -0.34871146234E+03  0.19743804698E+03  0.15222726045E+03  0.42866607655E+03  0.00000000000E+00 0.  1.
         13    1    1    2    0    0 -0.29411167611E+03 -0.15682558731E+03  0.12312702278E+03  0.35532550959E+03  0.10566000000E+00 0. -1.
<mgrwt>
<rscale>  1 0.79873894E+03</rscale>
<asrwt>0</asrwt>
<pdfrwt beam="1">  1       21 0.19301839E+00 0.10688664E+04</pdfrwt>
<pdfrwt beam="2">  1        4 0.61136639E-01 0.10688664E+04</pdfrwt>
<totfact> 0.12832820E+01</totfact>
</mgrwt>
</event>
<event>
 6    1  0.1375310E-005  0.1062826E+04  0.7818608E-02  0.9530145E-01
         21   -1    0    0  501  502  0.00000000000E+00  0.00000000000E+00  0.61408258877E+03  0.61408258877E+03  0.00000000000E+00 0.  1.
          4   -1    0    0  502    0 -0.00000000000E+00 -0.00000000000E+00 -0.10622287613E+04  0.10622287613E+04  0.00000000000E+00 0.  1.
    9000010    2    1    2  501    0 -0.32536823839E+03  0.19315375481E+03  0.34059668313E+02  0.10633714283E+04  0.99318974523E+03 0.  0.
        -13    1    3    3    0    0  0.34585497033E+03  0.10472336215E+02 -0.88183340408E+02  0.35707372211E+03  0.10566000000E+00 0.  1.
          4    1    3    3  501    0 -0.67122320873E+03  0.18268141860E+03  0.12224300872E+03  0.70629770622E+03  0.00000000000E+00 0.  1.
         13    1    1    2    0    0  0.32536823839E+03 -0.19315375481E+03 -0.48220584085E+03  0.61293992175E+03  0.10566000000E+00 0. -1.
<mgrwt>
<rscale>  1 0.82097355E+03</rscale>
<asrwt>0</asrwt>
<pdfrwt beam="1">  1       21 0.94474245E-01 0.10628258E+04</pdfrwt>
<pdfrwt beam="2">  1        4 0.16341981E+00 0.10628258E+04</pdfrwt>
<totfact> 0.82185555E+00</totfact>
</mgrwt>
</event>
<event>
 6    1  0.1375310E-005  0.1082471E+04  0.7818608E-02  0.9505152E-01
         21   -1    0    0  501  502  0.00000000000E+00  0.00000000000E+00  0.56251035908E+03  0.56251035908E+03  0.00000000000E+00 0.  1.
          4   -1    0    0  502    0 -0.00000000000E+00 -0.00000000000E+00 -0.10494899885E+04  0.10494899885E+04  0.00000000000E+00 0.  1.
    9000010    2    1    2  501    0 -0.34756261683E+03  0.17857636001E+03 -0.14387458821E+03  0.10919903771E+04  0.10094819451E+04 0.  0.
        -13    1    3    3    0    0  0.29390244749E+03 -0.11167172162E+03  0.12497565279E+03  0.33833141593E+03  0.10566000000E+00 0.  1.
          4    1    3    3  501    0 -0.64146506432E+03  0.29024808163E+03 -0.26885024100E+03  0.75365896115E+03  0.00000000000E+00 0.  1.
         13    1    1    2    0    0  0.34756261683E+03 -0.17857636001E+03 -0.34310504125E+03  0.52000997054E+03  0.10566000000E+00 0. -1.
<mgrwt>
<rscale>  1 0.83905074E+03</rscale>
<asrwt>0</asrwt>
<pdfrwt beam="1">  1       21 0.86540056E-01 0.10824708E+04</pdfrwt>
<pdfrwt beam="2">  1        4 0.16146000E+00 0.10824708E+04</pdfrwt>
<totfact> 0.10486781E+01</totfact>
</mgrwt>
</event>
<event>
 6    1  0.1375310E-005  0.9365446E+03  0.7818608E-02  0.9982028E-01
          4   -1    0    0  502    0 -0.00000000000E+00  0.00000000000E+00  0.16470890758E+04  0.16470890758E+04  0.00000000000E+00 0.  1.
         21   -1    0    0  501  502  0.00000000000E+00 -0.00000000000E+00 -0.17943301524E+03  0.17943301524E+03  0.00000000000E+00 0.  1.
    9000010    2    1    2  501    0 -0.81966706782E+02 -0.92477172489E+02  0.11341265333E+04  0.14708360987E+04  0.92835621784E+03 0.  0.
        -13    1    3    3    0    0  0.11616175351E+03  0.26471953042E+03  0.26503961116E+02  0.29029718201E+03  0.10566000000E+00 0.  1.
          4    1    3    3  501    0 -0.19812846030E+03 -0.35719670291E+03  0.11076225722E+04  0.11805389167E+04  0.00000000000E+00 0.  1.
         13    1    1    2    0    0  0.81966706782E+02  0.92477172489E+02  0.33352952725E+03  0.35568599236E+03  0.10566000000E+00 0. -1.
<mgrwt>
<rscale>  1 0.56445366E+03</rscale>
<asrwt>0</asrwt>
<pdfrwt beam="2">  1       21 0.27605080E-01 0.93654463E+03</pdfrwt>
<pdfrwt beam="1">  1        4 0.25339831E+00 0.93654463E+03</pdfrwt>
<totfact> 0.31296909E+01</totfact>
</mgrwt>
</event>
<event>
 6    1  0.1375310E-005  0.8289849E+03  0.7818608E-02  0.1024141E+00
          4   -1    0    0  502    0 -0.00000000000E+00  0.00000000000E+00  0.13993183251E+04  0.13993183251E+04  0.00000000000E+00 0.  1.
         21   -1    0    0  501  502  0.00000000000E+00 -0.00000000000E+00 -0.15126639659E+03  0.15126639659E+03  0.00000000000E+00 0.  1.
    9000010    2    1    2  501    0  0.48422498446E+02 -0.63828237402E+02  0.11953978772E+04  0.14547137536E+04  0.82510437992E+03 0.  0.
        -13    1    3    3    0    0  0.24471687704E+03  0.31518822857E+03  0.51475063268E+03  0.65130499334E+03  0.10566000000E+00 0.  1.
          4    1    3    3  501    0 -0.19629437859E+03 -0.37901646597E+03  0.68064724455E+03  0.80340876026E+03  0.00000000000E+00 0.  1.
         13    1    1    2    0    0 -0.48422498446E+02  0.63828237402E+02  0.52654051299E+02  0.95870968117E+02  0.10566000000E+00 0. -1.
<mgrwt>
<rscale>  1 0.46221252E+03</rscale>
<asrwt>0</asrwt>
<pdfrwt beam="2">  1       21 0.23271754E-01 0.82898493E+03</pdfrwt>
<pdfrwt beam="1">  1        4 0.21527973E+00 0.82898493E+03</pdfrwt>
<totfact> 0.76767203E+01</totfact>
</mgrwt>
</event>
<event>
 6    1  0.1375310E-005  0.1004069E+04  0.7818608E-02  0.9916067E-01
          4   -1    0    0  502    0 -0.00000000000E+00  0.00000000000E+00  0.56519279468E+03  0.56519279468E+03  0.00000000000E+00 0.  1.
         21   -1    0    0  501  502  0.00000000000E+00 -0.00000000000E+00 -0.57121442210E+03  0.57121442210E+03  0.00000000000E+00 0.  1.
    9000010    2    1    2  501    0  0.46162556771E+02  0.11478914460E+03 -0.49441333740E+02  0.10052858553E+04  0.99641742060E+03 0.  0.
        -13    1    3    3    0    0  0.26842047697E+03  0.29898343436E+03  0.33597469870E+03  0.52375533965E+03  0.10566000000E+00 0.  1.
          4    1    3    3  501    0 -0.22225792020E+03 -0.18419428975E+03 -0.38541603244E+03  0.48153051568E+03  0.00000000000E+00 0.  1.
         13    1    1    2    0    0 -0.46162556771E+02 -0.11478914460E+03  0.43419706320E+02  0.13112136144E+03  0.10566000000E+00 0. -1.
<mgrwt>
<rscale>  1 0.59488902E+03</rscale>
<asrwt>0</asrwt>
<pdfrwt beam="2">  1       21 0.87879141E-01 0.10040693E+04</pdfrwt>
<pdfrwt beam="1">  1        4 0.86952738E-01 0.10040693E+04</pdfrwt>
<totfact> 0.48519397E+01</totfact>
</mgrwt>
</event>
<event>
 6    1  0.1375310E-005  0.1048754E+04  0.7818608E-02  0.9578283E-01
         21   -1    0    0  501  502  0.00000000000E+00  0.00000000000E+00  0.42701238430E+03  0.42701238430E+03  0.00000000000E+00 0.  1.
          4   -1    0    0  502    0 -0.00000000000E+00 -0.00000000000E+00 -0.26246962839E+04  0.26246962839E+04  0.00000000000E+00 0.  1.
    9000010    2    1    2  501    0 -0.11654338253E+03 -0.31238793665E+03 -0.25325257963E+03  0.10788980457E+04  0.99434176267E+03 0.  0.
        -13    1    3    3    0    0  0.34106848005E+03 -0.66553941978E+02 -0.40890097291E+03  0.53661639193E+03  0.10566000000E+00 0.  1.
          4    1    3    3  501    0 -0.45761186258E+03 -0.24583399467E+03  0.15564839327E+03  0.54228165379E+03  0.00000000000E+00 0.  1.
         13    1    1    2    0    0  0.11654338253E+03  0.31238793665E+03 -0.19444313200E+04  0.19728106225E+04  0.10566000000E+00 0. -1.
<mgrwt>
<rscale>  1 0.78750417E+03</rscale>
<asrwt>0</asrwt>
<pdfrwt beam="1">  1       21 0.65694214E-01 0.10487536E+04</pdfrwt>
<pdfrwt beam="2">  1        4 0.40379942E+00 0.10487536E+04</pdfrwt>
<totfact> 0.53388207E-01</totfact>
</mgrwt>
</event>
<event>
 6    1  0.1375310E-005  0.9000074E+03  0.7818608E-02  0.1012780E+00
          4   -1    0    0  502    0 -0.00000000000E+00  0.00000000000E+00  0.55288853610E+03  0.55288853610E+03  0.00000000000E+00 0.  1.
         21   -1    0    0  501  502  0.00000000000E+00 -0.00000000000E+00 -0.49977180703E+03  0.49977180703E+03  0.00000000000E+00 0.  1.
    9000010    2    1    2  501    0 -0.88047837944E+02 -0.78849413707E+01 -0.68160163619E+02  0.90258472908E+03  0.89565550923E+03 0.  0.
        -13    1    3    3    0    0 -0.13968238875E+02 -0.37229855236E+03 -0.28772962023E+03  0.47073311898E+03  0.10566000000E+00 0.  1.
          4    1    3    3  501    0 -0.74079599069E+02  0.36441361099E+03  0.21956945661E+03  0.43185161010E+03  0.00000000000E+00 0.  1.
         13    1    1    2    0    0  0.88047837944E+02  0.78849413707E+01  0.12127689269E+03  0.15007561405E+03  0.10566000000E+00 0. -1.
<mgrwt>
<rscale>  1 0.50384616E+03</rscale>
<asrwt>0</asrwt>
<pdfrwt beam="2">  1       21 0.76887970E-01 0.90000744E+03</pdfrwt>
<pdfrwt beam="1">  1        4 0.85059775E-01 0.90000744E+03</pdfrwt>
<totfact> 0.70641572E+01</totfact>
</mgrwt>
</event>
<event>
 6    1  0.1375310E-005  0.1401311E+04  0.7818608E-02  0.9048837E-01
         21   -1    0    0  501  502  0.00000000000E+00  0.00000000000E+00  0.88712528922E+03  0.88712528922E+03  0.00000000000E+00 0.  1.
          4   -1    0    0  502    0 -0.00000000000E+00 -0.00000000000E+00 -0.17007281797E+04  0.17007281797E+04  0.00000000000E+00 0.  1.
    9000010    2    1    2  501    0  0.95524486560E+03 -0.12437587683E+03 -0.82180359495E+03  0.16245106563E+04  0.10176991755E+04 0.  0.
        -13    1    3    3    0    0  0.90642984035E+03 -0.10247717397E+02 -0.10362164485E+04  0.13767587336E+04  0.10566000000E+00 0.  1.
          4    1    3    3  501    0  0.48815025244E+02 -0.11412815943E+03  0.21441285352E+03  0.24775192273E+03  0.00000000000E+00 0.  1.
         13    1    1    2    0    0 -0.95524486560E+03  0.12437587683E+03  0.82007044292E+01  0.96334281266E+03  0.10566000000E+00 0. -1.
<mgrwt>
<rscale>  1 0.12759755E+04</rscale>
<asrwt>0</asrwt>
<pdfrwt beam="1">  1       21 0.13648081E+00 0.14013114E+04</pdfrwt>
<pdfrwt beam="2">  1        4 0.26165049E+00 0.14013114E+04</pdfrwt>
<totfact> 0.68876464E-01</totfact>
</mgrwt>
</event>
<event>
 6    1  0.1375310E-005  0.1001529E+04  0.7818608E-02  0.9896700E-01
         21   -1    0    0  501  502  0.00000000000E+00  0.00000000000E+00  0.16077692344E+03  0.16077692344E+03  0.00000000000E+00 0.  1.
          4   -1    0    0  502    0 -0.00000000000E+00 -0.00000000000E+00 -0.20705928751E+04  0.20705928751E+04  0.00000000000E+00 0.  1.
    9000010    2    1    2  501    0 -0.50624942902E+02 -0.12263207254E+03 -0.17968654391E+04  0.20571304817E+04  0.99270282696E+03 0.  0.
        -13    1    3    3    0    0  0.26166467110E+03  0.15990461472E+03 -0.12183648687E+03  0.32997276647E+03  0.10566000000E+00 0.  1.
          4    1    3    3  501    0 -0.31228961400E+03 -0.28253668727E+03 -0.16750289522E+04  0.17271577153E+04  0.00000000000E+00 0.  1.
         13    1    1    2    0    0  0.50624942902E+02  0.12263207254E+03 -0.11295051256E+03  0.17423931678E+03  0.10566000000E+00 0. -1.
<mgrwt>
<rscale>  1 0.60421498E+03</rscale>
<asrwt>0</asrwt>
<pdfrwt beam="1">  1       21 0.24734912E-01 0.10015290E+04</pdfrwt>
<pdfrwt beam="2">  1        4 0.31855274E+00 0.10015290E+04</pdfrwt>
<totfact> 0.15291992E+01</totfact>
</mgrwt>
</event>
<event>
 6    1  0.1375310E-005  0.1067298E+04  0.7818608E-02  0.9870386E-01
          4   -1    0    0  502    0 -0.00000000000E+00  0.00000000000E+00  0.16760991622E+04  0.16760991622E+04  0.00000000000E+00 0.  1.
         21   -1    0    0  501  502  0.00000000000E+00 -0.00000000000E+00 -0.21024393927E+03  0.21024393927E+03  0.00000000000E+00 0.  1.
    9000010    2    1    2  501    0 -0.18558049566E+02 -0.11789101430E+03  0.13359940544E+04  0.17099723933E+04  0.10606049122E+04 0.  0.
        -13    1    3    3    0    0  0.20200779595E+03 -0.25226317805E+03  0.14057695858E+04  0.14424396002E+04  0.10566000000E+00 0.  1.
          4    1    3    3  501    0 -0.22056584552E+03  0.13437216375E+03 -0.69775531376E+02  0.26753279309E+03  0.00000000000E+00 0.  1.
         13    1    1    2    0    0  0.18558049566E+02  0.11789101430E+03  0.12986116843E+03  0.17637070813E+03  0.10566000000E+00 0. -1.
<mgrwt>
<rscale>  1 0.61718228E+03</rscale>
<asrwt>0</asrwt>
<pdfrwt beam="2">  1       21 0.32345223E-01 0.10672982E+04</pdfrwt>
<pdfrwt beam="1">  1        4 0.25786140E+00 0.10672982E+04</pdfrwt>
<totfact> 0.21042998E+01</totfact>
</mgrwt>
</event>
<event>
 6    1  0.1375310E-005  0.1030833E+04  0.7818608E-02  0.9915989E-01
         21   -1    0    0  501  502  0.00000000000E+00  0.00000000000E+00  0.65097990865E+03  0.65097990865E+03  0.00000000000E+00 0.  1.
          4   -1    0    0  502    0 -0.00000000000E+00 -0.00000000000E+00 -0.51363852102E+03  0.51363852102E+03  0.00000000000E+00 0.  1.
    9000010    2    1    2  501    0  0.11332628811E+03  0.15365454685E+02  0.73038983735E+02  0.10334172289E+04  0.10244693900E+04 0.  0.
        -13    1    3    3    0    0  0.15546656723E+03 -0.67672048749E+02 -0.46106647565E+03  0.49125519422E+03  0.10566000000E+00 0.  1.
          4    1    3    3  501    0 -0.42140279118E+02  0.83037503434E+02  0.53410545939E+03  0.54216203468E+03  0.00000000000E+00 0.  1.
         13    1    1    2    0    0 -0.11332628811E+03 -0.15365454685E+02  0.64302403898E+02  0.13120120078E+03  0.10566000000E+00 0. -1.
<mgrwt>
<rscale>  1 0.59492592E+03</rscale>
<asrwt>0</asrwt>
<pdfrwt beam="1">  1       21 0.10015076E+00 0.10308329E+04</pdfrwt>
<pdfrwt beam="2">  1        4 0.79021311E-01 0.10308329E+04</pdfrwt>
<totfact> 0.43918795E+01</totfact>
</mgrwt>
</event>
<event>
 6    1  0.1375310E-005  0.1437003E+04  0.7818608E-02  0.9016742E-01
         21   -1    0    0  501  502  0.00000000000E+00  0.00000000000E+00  0.91645613738E+03  0.91645613738E+03  0.00000000000E+00 0. -1.
          4   -1    0    0  502    0 -0.00000000000E+00 -0.00000000000E+00 -0.16454631802E+04  0.16454631802E+04  0.00000000000E+00 0.  1.
    9000010    2    1    2  501    0 -0.68245793413E+03  0.74681384625E+03 -0.33001582245E+03  0.14744112680E+04  0.10205382851E+04 0.  0.
        -13    1    3    3    0    0 -0.87017404178E+03  0.49787335080E+03  0.23805945189E+02  0.10028197598E+04  0.10566000000E+00 0.  1.
          4    1    3    3  501    0  0.18771610765E+03  0.24894049546E+03 -0.35382176763E+03  0.47159150819E+03  0.00000000000E+00 0.  1.
         13    1    1    2    0    0  0.68245793413E+03 -0.74681384625E+03 -0.39899122035E+03  0.10875080496E+04  0.10566000000E+00 0. -1.
<mgrwt>
<rscale>  1 0.13162949E+04</rscale>
<asrwt>0</asrwt>
<pdfrwt beam="1">  1       21 0.14099325E+00 0.14370032E+04</pdfrwt>
<pdfrwt beam="2">  1        4 0.25314818E+00 0.14370032E+04</pdfrwt>
<totfact> 0.70843099E-01</totfact>
</mgrwt>
</event>
<event>
 6    1  0.1375310E-005  0.1092334E+04  0.7818608E-02  0.1011575E+00
          4   -1    0    0  502    0 -0.00000000000E+00  0.00000000000E+00  0.95321193723E+03  0.95321193723E+03  0.00000000000E+00 0.  1.
         21   -1    0    0  501  502  0.00000000000E+00 -0.00000000000E+00 -0.36559808922E+03  0.36559808922E+03  0.00000000000E+00 0.  1.
    9000010    2    1    2  501    0 -0.48008643611E+02  0.18110176580E+02  0.46745348551E+03  0.11881527181E+04  0.10911284580E+04 0.  0.
        -13    1    3    3    0    0 -0.17342241598E+03  0.12920532755E+02  0.80732532729E+03  0.82584288443E+03  0.10566000000E+00 0.  1.
          4    1    3    3  501    0  0.12541377237E+03  0.51896438246E+01 -0.33987184178E+03  0.36230983362E+03  0.00000000000E+00 0.  1.
         13    1    1    2    0    0  0.48008643611E+02 -0.18110176580E+02  0.12016036250E+03  0.13065730839E+03  0.10566000000E+00 0. -1.
<mgrwt>
<rscale>  1 0.50853319E+03</rscale>
<asrwt>0</asrwt>
<pdfrwt beam="2">  1       21 0.56245860E-01 0.10923343E+04</pdfrwt>
<pdfrwt beam="1">  1        4 0.14664799E+00 0.10923343E+04</pdfrwt>
<totfact> 0.36610160E+01</totfact>
</mgrwt>
</event>
<event>
 6    1  0.1375310E-005  0.1008471E+04  0.7818608E-02  0.9857146E-01
         21   -1    0    0  501  502  0.00000000000E+00  0.00000000000E+00  0.35049129825E+03  0.35049129825E+03  0.00000000000E+00 0.  1.
          4   -1    0    0  502    0 -0.00000000000E+00 -0.00000000000E+00 -0.10160939201E+04  0.10160939201E+04  0.00000000000E+00 0.  1.
    9000010    2    1    2  501    0 -0.12940905517E+03 -0.71136757889E+02 -0.44775547450E+03  0.11034036600E+04  0.99760088716E+03 0.  0.
        -13    1    3    3    0    0  0.75664771656E+02 -0.46262176172E+03 -0.46613077503E+03  0.66107636676E+03  0.10566000000E+00 0.  1.
          4    1    3    3  501    0 -0.20507382682E+03  0.39148500384E+03  0.18375300529E+02  0.44232729324E+03  0.00000000000E+00 0.  1.
         13    1    1    2    0    0  0.12940905517E+03  0.71136757889E+02 -0.21784714733E+03  0.26318155833E+03  0.10566000000E+00 0. -1.
<mgrwt>
<rscale>  1 0.62383908E+03</rscale>
<asrwt>0</asrwt>
<pdfrwt beam="1">  1       21 0.53921740E-01 0.10084715E+04</pdfrwt>
<pdfrwt beam="2">  1        4 0.15632214E+00 0.10084715E+04</pdfrwt>
<totfact> 0.34047371E+01</totfact>
</mgrwt>
</event>
<event>
 6    1  0.1375310E-005  0.1461701E+04  0.7818608E-02  0.8992771E-01
         21   -1    0    0  501  502  0.00000000000E+00  0.00000000000E+00  0.21167782474E+04  0.21167782474E+04  0.00000000000E+00 0. -1.
          4   -1    0    0  502    0 -0.00000000000E+00 -0.00000000000E+00 -0.81499456566E+03  0.81499456566E+03  0.00000000000E+00 0.  1.
    9000010    2    1    2  501    0  0.30590836381E+03 -0.10101936516E+04  0.33316365770E+03  0.14991891670E+04  0.10111869238E+04 0.  0.
        -13    1    3    3    0    0 -0.35287060451E+03 -0.33615433128E+03  0.26370177558E+03  0.55412637149E+03  0.10566000000E+00 0.  1.
          4    1    3    3  501    0  0.65877896832E+03 -0.67403932031E+03  0.69461882116E+02  0.94506279553E+03  0.00000000000E+00 0.  1.
         13    1    1    2    0    0 -0.30590836381E+03  0.10101936516E+04  0.96862002399E+03  0.14325836460E+04  0.10566000000E+00 0. -1.
<mgrwt>
<rscale>  1 0.13474359E+04</rscale>
<asrwt>0</asrwt>
<pdfrwt beam="1">  1       21 0.32565819E+00 0.14617011E+04</pdfrwt>
<pdfrwt beam="2">  1        4 0.12538378E+00 0.14617011E+04</pdfrwt>
<totfact> 0.31047123E-01</totfact>
</mgrwt>
</event>
<event>
 6    1  0.1375310E-005  0.1078531E+04  0.7818608E-02  0.9507665E-01
         21   -1    0    0  501  502  0.00000000000E+00  0.00000000000E+00  0.72310317586E+03  0.72310317586E+03  0.00000000000E+00 0.  1.
          4   -1    0    0  502    0 -0.00000000000E+00 -0.00000000000E+00 -0.75531264440E+03  0.75531264440E+03  0.00000000000E+00 0.  1.
    9000010    2    1    2  501    0 -0.30179442402E+03 -0.24953860218E+03  0.44184541893E+02  0.10794353140E+04  0.10049273283E+04 0.  0.
        -13    1    3    3    0    0 -0.22310518563E+03  0.15722761002E+03 -0.39212046594E+03  0.47776031248E+03  0.10566000000E+00 0.  1.
          4    1    3    3  501    0 -0.78689238390E+02 -0.40676621220E+03  0.43630500784E+03  0.60167500155E+03  0.00000000000E+00 0.  1.
         13    1    1    2    0    0  0.30179442402E+03  0.24953860218E+03 -0.76394010437E+02  0.39898050622E+03  0.10566000000E+00 0. -1.
<mgrwt>
<rscale>  1 0.83721042E+03</rscale>
<asrwt>0</asrwt>
<pdfrwt beam="1">  1       21 0.11124664E+00 0.10785306E+04</pdfrwt>
<pdfrwt beam="2">  1        4 0.11620194E+00 0.10785306E+04</pdfrwt>
<totfact> 0.13351553E+01</totfact>
</mgrwt>
</event>
<event>
 6    1  0.1375310E-005  0.1371166E+04  0.7818608E-02  0.9067436E-01
         21   -1    0    0  501  502  0.00000000000E+00  0.00000000000E+00  0.13366747148E+04  0.13366747148E+04  0.00000000000E+00 0.  1.
          4   -1    0    0  502    0 -0.00000000000E+00 -0.00000000000E+00 -0.11922235488E+04  0.11922235488E+04  0.00000000000E+00 0.  1.
    9000010    2    1    2  501    0  0.91349505639E+03 -0.28561520529E+03  0.56559219315E+03  0.14832362535E+04  0.98185843741E+03 0.  0.
        -13    1    3    3    0    0  0.89781697847E+03 -0.53551311686E+03  0.24016015440E+03  0.10726260001E+04  0.10566000000E+00 0.  1.
          4    1    3    3  501    0  0.15678077919E+02  0.24989791157E+03  0.32543203875E+03  0.41061025338E+03  0.00000000000E+00 0.  1.
         13    1    1    2    0    0 -0.91349505639E+03  0.28561520529E+03 -0.42114102708E+03  0.10456620101E+04  0.10566000000E+00 0. -1.
<mgrwt>
<rscale>  1 0.12533065E+04</rscale>
<asrwt>0</asrwt>
<pdfrwt beam="1">  1       21 0.20564226E+00 0.13711657E+04</pdfrwt>
<pdfrwt beam="2">  1        4 0.18341901E+00 0.13711657E+04</pdfrwt>
<totfact> 0.65988129E-01</totfact>
</mgrwt>
</event>
<event>
 6    1  0.1375310E-005  0.1014589E+04  0.7818608E-02  0.9939446E-01
          4   -1    0    0  502    0 -0.00000000000E+00  0.00000000000E+00  0.55297878428E+03  0.55297878428E+03  0.00000000000E+00 0.  1.
         21   -1    0    0  501  502  0.00000000000E+00 -0.00000000000E+00 -0.13059316962E+04  0.13059316962E+04  0.00000000000E+00 0.  1.
    9000010    2    1    2  501    0  0.39074616030E+02 -0.10418868862E+03 -0.10988152612E+04  0.14955884686E+04  0.10084680366E+04 0.  0.
        -13    1    3    3    0    0  0.30344015283E+03  0.30339706594E+03 -0.19899007357E+03  0.47299341065E+03  0.10566000000E+00 0.  1.
          4    1    3    3  501    0 -0.26436553680E+03 -0.40758575457E+03 -0.89982518760E+03  0.10225950580E+04  0.00000000000E+00 0.  1.
         13    1    1    2    0    0 -0.39074616030E+02  0.10418868862E+03  0.34586234928E+03  0.36332201181E+03  0.10566000000E+00 0. -1.
<mgrwt>
<rscale>  1 0.58387091E+03</rscale>
<asrwt>0</asrwt>
<pdfrwt beam="2">  1       21 0.20091257E+00 0.10145885E+04</pdfrwt>
<pdfrwt beam="1">  1        4 0.85073660E-01 0.10145885E+04</pdfrwt>
<totfact> 0.54086516E+00</totfact>
</mgrwt>
</event>
<event>
 6    1  0.1375310E-005  0.9961483E+03  0.7818608E-02  0.9518850E-01
          4   -1    0    0  502    0 -0.00000000000E+00  0.00000000000E+00  0.21912416046E+04  0.21912416046E+04  0.00000000000E+00 0.  1.
         21   -1    0    0  501  502  0.00000000000E+00 -0.00000000000E+00 -0.24870338606E+03  0.24870338606E+03  0.00000000000E+00 0. -1.
    9000010    2    1    2  501    0 -0.10994519735E+03 -0.46517369478E+03  0.12478344976E+04  0.15966847795E+04  0.87397759630E+03 0.  0.
        -13    1    3    3    0    0 -0.25717625331E+03 -0.65929685699E+03  0.11110122571E+04  0.13172548036E+04  0.10566000000E+00 0.  1.
          4    1    3    3  501    0  0.14723105597E+03  0.19412316220E+03  0.13682224052E+03  0.27942997593E+03  0.00000000000E+00 0.  1.
         13    1    1    2    0    0  0.10994519735E+03  0.46517369478E+03  0.69470372090E+03  0.84326021117E+03  0.10566000000E+00 0. -1.
<mgrwt>
<rscale>  1 0.82908242E+03</rscale>
<asrwt>0</asrwt>
<pdfrwt beam="2">  1       21 0.38262061E-01 0.99614826E+03</pdfrwt>
<pdfrwt beam="1">  1        4 0.33711408E+00 0.99614826E+03</pdfrwt>
<totfact> 0.48285432E+00</totfact>
</mgrwt>
</event>
<event>
 6    1  0.1375310E-005  0.1022617E+04  0.7818608E-02  0.9739062E-01
          4   -1    0    0  502    0 -0.00000000000E+00  0.00000000000E+00  0.30191053499E+03  0.30191053499E+03  0.00000000000E+00 0.  1.
         21   -1    0    0  501  502  0.00000000000E+00 -0.00000000000E+00 -0.17740340209E+04  0.17740340209E+04  0.00000000000E+00 0.  1.
    9000010    2    1    2  501    0 -0.20677573818E+03 -0.28712939563E+02 -0.15467618371E+04  0.18542431048E+04  0.10010817510E+04 0.  0.
        -13    1    3    3    0    0 -0.41338121268E+03  0.25913095845E+02 -0.15840532531E+04  0.16373088393E+04  0.10566000000E+00 0.  1.
          4    1    3    3  501    0  0.20660547451E+03 -0.54626035408E+02  0.37291415972E+02  0.21693426549E+03  0.00000000000E+00 0.  1.
         13    1    1    2    0    0  0.20677573818E+03  0.28712939563E+02  0.74638351167E+02  0.22170145111E+03  0.10566000000E+00 0. -1.
<mgrwt>
<rscale>  1 0.68737928E+03</rscale>
<asrwt>0</asrwt>
<pdfrwt beam="2">  1       21 0.27292831E+00 0.10226169E+04</pdfrwt>
<pdfrwt beam="1">  1        4 0.46447775E-01 0.10226169E+04</pdfrwt>
<totfact> 0.69748835E+00</totfact>
</mgrwt>
</event>
<event>
 6    1  0.1375310E-005  0.1047839E+04  0.7818608E-02  0.9922873E-01
         21   -1    0    0  501  502  0.00000000000E+00  0.00000000000E+00  0.52790819331E+03  0.52790819331E+03  0.00000000000E+00 0.  1.
          4   -1    0    0  502    0 -0.00000000000E+00 -0.00000000000E+00 -0.63419361254E+03  0.63419361254E+03  0.00000000000E+00 0.  1.
    9000010    2    1    2  501    0 -0.46424611380E+02 -0.95859921675E+02 -0.72422481368E+02  0.10503383107E+04  0.10424112346E+04 0.  0.
        -13    1    3    3    0    0  0.32886871864E+03 -0.36225225231E+03  0.18492275594E+03  0.52304661861E+03  0.10566000000E+00 0.  1.
          4    1    3    3  501    0 -0.37529333002E+03  0.26639233064E+03 -0.25734523731E+03  0.52729169209E+03  0.00000000000E+00 0.  1.
         13    1    1    2    0    0  0.46424611380E+02  0.95859921675E+02 -0.33862937864E+02  0.11176349516E+03  0.10566000000E+00 0. -1.
<mgrwt>
<rscale>  1 0.59165476E+03</rscale>
<asrwt>0</asrwt>
<pdfrwt beam="1">  1       21 0.81216645E-01 0.10478385E+04</pdfrwt>
<pdfrwt beam="2">  1        4 0.97568248E-01 0.10478385E+04</pdfrwt>
<totfact> 0.44423831E+01</totfact>
</mgrwt>
</event>
<event>
 6    1  0.1375310E-005  0.1011714E+04  0.7818608E-02  0.9775448E-01
         21   -1    0    0  501  502  0.00000000000E+00  0.00000000000E+00  0.54007045023E+03  0.54007045023E+03  0.00000000000E+00 0.  1.
          4   -1    0    0  502    0 -0.00000000000E+00 -0.00000000000E+00 -0.67552087498E+03  0.67552087498E+03  0.00000000000E+00 0.  1.
    9000010    2    1    2  501    0 -0.15439380295E+03 -0.11260558256E+03 -0.72145809386E+02  0.10142832302E+04  0.99350288862E+03 0.  0.
        -13    1    3    3    0    0  0.23594983510E+03  0.74957773675E+02  0.33723114515E+03  0.41834895594E+03  0.10566000000E+00 0.  1.
          4    1    3    3  501    0 -0.39034363805E+03 -0.18756335623E+03 -0.40937695453E+03  0.59593427429E+03  0.00000000000E+00 0.  1.
         13    1    1    2    0    0  0.15439380295E+03  0.11260558256E+03 -0.63304615364E+02  0.20130809497E+03  0.10566000000E+00 0. -1.
<mgrwt>
<rscale>  1 0.66696946E+03</rscale>
<asrwt>0</asrwt>
<pdfrwt beam="1">  1       21 0.83087761E-01 0.10117141E+04</pdfrwt>
<pdfrwt beam="2">  1        4 0.10392629E+00 0.10117141E+04</pdfrwt>
<totfact> 0.36239821E+01</totfact>
</mgrwt>
</event>
<event>
 6    1  0.1375310E-005  0.1005337E+04  0.7818608E-02  0.9718575E-01
          4   -1    0    0  502    0 -0.00000000000E+00  0.00000000000E+00  0.15937615146E+04  0.15937615146E+04  0.00000000000E+00 0.  1.
         21   -1    0    0  501  502  0.00000000000E+00 -0.00000000000E+00 -0.26167786092E+03  0.26167786092E+03  0.00000000000E+00 0.  1.
    9000010    2    1    2  501    0 -0.23444158097E+03 -0.19350318344E+02  0.84022384769E+03  0.13102207316E+04  0.97742772709E+03 0.  0.
        -13    1    3    3    0    0 -0.17169614199E+03  0.34656290978E+03  0.85527795400E+03  0.93866170976E+03  0.10566000000E+00 0.  1.
          4    1    3    3  501    0 -0.62745438983E+02 -0.36591322812E+03 -0.15054106304E+02  0.37155902188E+03  0.00000000000E+00 0.  1.
         13    1    1    2    0    0  0.23444158097E+03  0.19350318344E+02  0.49185980596E+03  0.54521864384E+03  0.10566000000E+00 0. -1.
<mgrwt>
<rscale>  1 0.69921536E+03</rscale>
<asrwt>0</asrwt>
<pdfrwt beam="2">  1       21 0.40258133E-01 0.10053369E+04</pdfrwt>
<pdfrwt beam="1">  1        4 0.24519407E+00 0.10053369E+04</pdfrwt>
<totfact> 0.16147558E+01</totfact>
</mgrwt>
</event>
<event>
 6    1  0.1375310E-005  0.9971700E+03  0.7818608E-02  0.1008903E+00
          4   -1    0    0  502    0 -0.00000000000E+00  0.00000000000E+00  0.58290813142E+03  0.58290813142E+03  0.00000000000E+00 0.  1.
         21   -1    0    0  501  502  0.00000000000E+00 -0.00000000000E+00 -0.50864414776E+03  0.50864414776E+03  0.00000000000E+00 0.  1.
    9000010    2    1    2  501    0  0.29166891229E+01  0.73189263146E+02  0.14919384989E+02  0.99728156331E+03  0.99447611996E+03 0.  0.
        -13    1    3    3    0    0 -0.40298206138E+02 -0.34148769767E+03  0.32853267276E+03  0.47557493764E+03  0.10566000000E+00 0.  1.
          4    1    3    3  501    0  0.43214895261E+02  0.41467696082E+03 -0.31361328777E+03  0.52170662567E+03  0.00000000000E+00 0.  1.
         13    1    1    2    0    0 -0.29166891229E+01 -0.73189263146E+02  0.59344598673E+02  0.94270715872E+02  0.10566000000E+00 0. -1.
<mgrwt>
<rscale>  1 0.51912864E+03</rscale>
<asrwt>0</asrwt>
<pdfrwt beam="2">  1       21 0.78252946E-01 0.99716996E+03</pdfrwt>
<pdfrwt beam="1">  1        4 0.89678173E-01 0.99716996E+03</pdfrwt>
<totfact> 0.59459032E+01</totfact>
</mgrwt>
</event>
<event>
 6    1  0.1375310E-005  0.1005062E+04  0.7818608E-02  0.1041604E+00
         21   -1    0    0  501  502  0.00000000000E+00  0.00000000000E+00  0.41845873602E+03  0.41845873602E+03  0.00000000000E+00 0.  1.
          4   -1    0    0  502    0 -0.00000000000E+00 -0.00000000000E+00 -0.69363323475E+03  0.69363323475E+03  0.00000000000E+00 0.  1.
    9000010    2    1    2  501    0  0.12575579839E+01  0.26824137948E+02 -0.19010309556E+03  0.10228828309E+04  0.10047034304E+04 0.  0.
        -13    1    3    3    0    0 -0.45641816053E+03 -0.64504956684E+02  0.10227315472E+03  0.47216335736E+03  0.10566000000E+00 0.  1.
          4    1    3    3  501    0  0.45767571851E+03  0.91329094631E+02 -0.29237625027E+03  0.55071947356E+03  0.00000000000E+00 0.  1.
         13    1    1    2    0    0 -0.12575579839E+01 -0.26824137948E+02 -0.85071403182E+02  0.89209139846E+02  0.10566000000E+00 0. -1.
<mgrwt>
<rscale>  1 0.40634618E+03</rscale>
<asrwt>0</asrwt>
<pdfrwt beam="1">  1       21 0.64378268E-01 0.10050622E+04</pdfrwt>
<pdfrwt beam="2">  1        4 0.10671280E+00 0.10050622E+04</pdfrwt>
<totfact> 0.61309027E+01</totfact>
</mgrwt>
</event>
<event>
 6    1  0.1375310E-005  0.1021331E+04  0.7818608E-02  0.9772431E-01
          4   -1    0    0  502    0 -0.00000000000E+00  0.00000000000E+00  0.29002043806E+03  0.29002043806E+03  0.00000000000E+00 0.  1.
         21   -1    0    0  501  502  0.00000000000E+00 -0.00000000000E+00 -0.12607401198E+04  0.12607401198E+04  0.00000000000E+00 0.  1.
    9000010    2    1    2  501    0 -0.18744509689E+03  0.78118771021E+01 -0.83473145713E+03  0.13190506138E+04  0.10039528010E+04 0.  0.
        -13    1    3    3    0    0 -0.56721991203E+03  0.17824296336E+03 -0.39659488770E+03  0.71470028592E+03  0.10566000000E+00 0.  1.
          4    1    3    3  501    0  0.37977481514E+03 -0.17043108625E+03 -0.43813656944E+03  0.60435032792E+03  0.00000000000E+00 0.  1.
         13    1    1    2    0    0  0.18744509689E+03 -0.78118771021E+01 -0.13598822464E+03  0.23170994406E+03  0.10566000000E+00 0. -1.
<mgrwt>
<rscale>  1 0.66863295E+03</rscale>
<asrwt>0</asrwt>
<pdfrwt beam="2">  1       21 0.19396002E+00 0.10213314E+04</pdfrwt>
<pdfrwt beam="1">  1        4 0.44618528E-01 0.10213314E+04</pdfrwt>
<totfact> 0.24850899E+01</totfact>
</mgrwt>
</event>
<event>
 6    1  0.1375310E-005  0.1012197E+04  0.7818608E-02  0.1005147E+00
          4   -1    0    0  502    0 -0.00000000000E+00  0.00000000000E+00  0.23548172206E+03  0.23548172206E+03  0.00000000000E+00 0.  1.
         21   -1    0    0  501  502  0.00000000000E+00 -0.00000000000E+00 -0.19851938359E+04  0.19851938359E+04  0.00000000000E+00 0.  1.
    9000010    2    1    2  501    0 -0.63335222159E+02 -0.46721216420E+02 -0.18405310613E+04  0.21004993756E+04  0.10091327053E+04 0.  0.
        -13    1    3    3    0    0  0.35468360814E+03 -0.64340881870E+02 -0.21007785885E+03  0.41722047997E+03  0.10566000000E+00 0.  1.
          4    1    3    3  501    0 -0.41801883030E+03  0.17619665450E+02 -0.16304532024E+04  0.16832788956E+04  0.00000000000E+00 0.  1.
         13    1    1    2    0    0  0.63335222159E+02  0.46721216420E+02  0.90818947453E+02  0.12017618238E+03  0.10566000000E+00 0. -1.
<mgrwt>
<rscale>  1 0.53449947E+03</rscale>
<asrwt>0</asrwt>
<pdfrwt beam="2">  1       21 0.30541444E+00 0.10121971E+04</pdfrwt>
<pdfrwt beam="1">  1        4 0.36227957E-01 0.10121971E+04</pdfrwt>
<totfact> 0.72921845E+00</totfact>
</mgrwt>
</event>
<event>
 6    1  0.1375310E-005  0.1016949E+04  0.7818608E-02  0.9673951E-01
          4   -1    0    0  502    0 -0.00000000000E+00  0.00000000000E+00  0.10390062904E+04  0.10390062904E+04  0.00000000000E+00 0.  1.
         21   -1    0    0  501  502  0.00000000000E+00 -0.00000000000E+00 -0.40077415623E+03  0.40077415623E+03  0.00000000000E+00 0.  1.
    9000010    2    1    2  501    0  0.15858440206E+03  0.21104988674E+03  0.43252942824E+03  0.11051094415E+04  0.98208660724E+03 0.  0.
        -13    1    3    3    0    0 -0.14456553741E+03 -0.31276401303E+01 -0.27241705582E+03  0.30841536960E+03  0.10566000000E+00 0.  1.
          4    1    3    3  501    0  0.30314993948E+03  0.21417752687E+03  0.70494648406E+03  0.79669407190E+03  0.00000000000E+00 0.  1.
         13    1    1    2    0    0 -0.15858440206E+03 -0.21104988674E+03  0.20570270589E+03  0.33467100508E+03  0.10566000000E+00 0. -1.
<mgrwt>
<rscale>  1 0.72589117E+03</rscale>
<asrwt>0</asrwt>
<pdfrwt beam="2">  1       21 0.61657563E-01 0.10169490E+04</pdfrwt>
<pdfrwt beam="1">  1        4 0.15984712E+00 0.10169490E+04</pdfrwt>
<totfact> 0.23783378E+01</totfact>
</mgrwt>
</event>
<event>
 6    1  0.1375310E-005  0.1073047E+04  0.7818608E-02  0.9512984E-01
         21   -1    0    0  501  502  0.00000000000E+00  0.00000000000E+00  0.58034746876E+03  0.58034746876E+03  0.00000000000E+00 0.  1.
          4   -1    0    0  502    0 -0.00000000000E+00 -0.00000000000E+00 -0.10272347818E+04  0.10272347818E+04  0.00000000000E+00 0.  1.
    9000010    2    1    2  501    0 -0.34744172169E+03 -0.17785630551E+03 -0.86828042981E+02  0.10765537160E+04  0.99953998371E+03 0.  0.
        -13    1    3    3    0    0 -0.69136024913E+03 -0.10462704333E+03 -0.16020640497E+03  0.71735062253E+03  0.10566000000E+00 0.  1.
          4    1    3    3  501    0  0.34391852745E+03 -0.73229262172E+02  0.73378361989E+02  0.35920309348E+03  0.00000000000E+00 0.  1.
         13    1    1    2    0    0  0.34744172169E+03  0.17785630551E+03 -0.36005927004E+03  0.53102853452E+03  0.10566000000E+00 0. -1.
<mgrwt>
<rscale>  1 0.83333328E+03</rscale>
<asrwt>0</asrwt>
<pdfrwt beam="1">  1       21 0.89284226E-01 0.10730465E+04</pdfrwt>
<pdfrwt beam="2">  1        4 0.15803612E+00 0.10730465E+04</pdfrwt>
<totfact> 0.10330616E+01</totfact>
</mgrwt>
</event>
<event>
 6    1  0.1375310E-005  0.1307963E+04  0.7818608E-02  0.9135345E-01
          4   -1    0    0  502    0 -0.00000000000E+00  0.00000000000E+00  0.77309691825E+03  0.77309691825E+03  0.00000000000E+00 0.  1.
         21   -1    0    0  501  502  0.00000000000E+00 -0.00000000000E+00 -0.15129101348E+04  0.15129101348E+04  0.00000000000E+00 0. -1.
    9000010    2    1    2  501    0  0.61505224846E+03 -0.58788314444E+03 -0.37833639037E+03  0.13615821687E+04  0.99341417237E+03 0.  0.
        -13    1    3    3    0    0  0.37984494950E+02  0.13258155722E+03 -0.41546303060E+03  0.43775590474E+03  0.10566000000E+00 0.  1.
          4    1    3    3  501    0  0.57706775351E+03 -0.72046470166E+03  0.37126640226E+02  0.92382626392E+03  0.00000000000E+00 0.  1.
         13    1    1    2    0    0 -0.61505224846E+03  0.58788314444E+03 -0.36147682618E+03  0.92442488439E+03  0.10566000000E+00 0. -1.
<mgrwt>
<rscale>  1 0.11746438E+04</rscale>
<asrwt>0</asrwt>
<pdfrwt beam="2">  1       21 0.23275540E+00 0.13079631E+04</pdfrwt>
<pdfrwt beam="1">  1        4 0.11893799E+00 0.13079631E+04</pdfrwt>
<totfact> 0.14138489E+00</totfact>
</mgrwt>
</event>
<event>
 6    1  0.1375310E-005  0.1169812E+04  0.7818608E-02  0.9316509E-01
         21   -1    0    0  501  502  0.00000000000E+00  0.00000000000E+00  0.23297607248E+04  0.23297607248E+04  0.00000000000E+00 0. -1.
          4   -1    0    0  502    0 -0.00000000000E+00 -0.00000000000E+00 -0.59206940338E+03  0.59206940338E+03  0.00000000000E+00 0.  1.
    9000010    2    1    2  501    0  0.60170964888E+03  0.78474448818E+02  0.19541826335E+04  0.22775621404E+04  0.10001233913E+04 0.  0.
        -13    1    3    3    0    0 -0.11872573698E+03 -0.25669351405E+03  0.98230839289E+03  0.10222118913E+04  0.10566000000E+00 0.  1.
          4    1    3    3  501    0  0.72043538586E+03  0.33516796287E+03  0.97187424059E+03  0.12553502492E+04  0.00000000000E+00 0.  1.
         13    1    1    2    0    0 -0.60170964888E+03 -0.78474448818E+02 -0.21649131205E+03  0.64426798774E+03  0.10566000000E+00 0. -1.
<mgrwt>
<rscale>  1 0.99277159E+03</rscale>
<asrwt>0</asrwt>
<pdfrwt beam="1">  1       21 0.35842472E+00 0.11698118E+04</pdfrwt>
<pdfrwt beam="2">  1        4 0.91087602E-01 0.11698118E+04</pdfrwt>
<totfact> 0.44413731E-01</totfact>
</mgrwt>
</event>
<event>
 6    1  0.1375310E-005  0.1070565E+04  0.7818608E-02  0.9503892E-01
         21   -1    0    0  501  502  0.00000000000E+00  0.00000000000E+00  0.68619155179E+03  0.68619155179E+03  0.00000000000E+00 0.  1.
          4   -1    0    0  502    0 -0.00000000000E+00 -0.00000000000E+00 -0.91348326839E+03  0.91348326839E+03  0.00000000000E+00 0.  1.
    9000010    2    1    2  501    0 -0.32987754590E+03 -0.23619792878E+03  0.10437543539E+03  0.10756406918E+04  0.99070682316E+03 0.  0.
        -13    1    3    3    0    0 -0.17980483486E+03  0.15732728957E+03  0.46395132965E+03  0.52185486692E+03  0.10566000000E+00 0.  1.
          4    1    3    3  501    0 -0.15007271104E+03 -0.39352521835E+03 -0.35957589426E+03  0.55378582486E+03  0.00000000000E+00 0.  1.
         13    1    1    2    0    0  0.32987754590E+03  0.23619792878E+03 -0.33166715199E+03  0.52403412840E+03  0.10566000000E+00 0. -1.
<mgrwt>
<rscale>  1 0.83997481E+03</rscale>
<asrwt>0</asrwt>
<pdfrwt beam="1">  1       21 0.10556793E+00 0.10705646E+04</pdfrwt>
<pdfrwt beam="2">  1        4 0.14053589E+00 0.10705646E+04</pdfrwt>
<totfact> 0.93721773E+00</totfact>
</mgrwt>
</event>
<event>
 6    1  0.1375310E-005  0.1018496E+04  0.7818608E-02  0.9722124E-01
          4   -1    0    0  502    0 -0.00000000000E+00  0.00000000000E+00  0.32195771861E+03  0.32195771861E+03  0.00000000000E+00 0.  1.
         21   -1    0    0  501  502  0.00000000000E+00 -0.00000000000E+00 -0.13476855534E+04  0.13476855534E+04  0.00000000000E+00 0.  1.
    9000010    2    1    2  501    0 -0.79648662451E+02 -0.20890462077E+03 -0.10265382195E+04  0.14460684123E+04  0.99365390700E+03 0.  0.
        -13    1    3    3    0    0 -0.15702874312E+03 -0.58006068722E+03 -0.81282240134E+03  0.10108455344E+04  0.10566000000E+00 0.  1.
          4    1    3    3  501    0  0.77380080669E+02  0.37115606646E+03 -0.21371581821E+03  0.43522287797E+03  0.00000000000E+00 0.  1.
         13    1    1    2    0    0  0.79648662451E+02  0.20890462077E+03  0.81038473946E+00  0.22357485971E+03  0.10566000000E+00 0. -1.
<mgrwt>
<rscale>  1 0.69714702E+03</rscale>
<asrwt>0</asrwt>
<pdfrwt beam="2">  1       21 0.20733624E+00 0.10184955E+04</pdfrwt>
<pdfrwt beam="1">  1        4 0.49531957E-01 0.10184955E+04</pdfrwt>
<totfact> 0.16168090E+01</totfact>
</mgrwt>
</event>
<event>
 6    1  0.1375310E-005  0.1054437E+04  0.7818608E-02  0.9574812E-01
         21   -1    0    0  501  502  0.00000000000E+00  0.00000000000E+00  0.49709248745E+03  0.49709248745E+03  0.00000000000E+00 0.  1.
          4   -1    0    0  502    0 -0.00000000000E+00 -0.00000000000E+00 -0.96996422092E+03  0.96996422092E+03  0.00000000000E+00 0.  1.
    9000010    2    1    2  501    0  0.10263074814E+03  0.31573806360E+03 -0.39543145285E+03  0.11261452778E+04  0.10008064536E+04 0.  0.
        -13    1    3    3    0    0 -0.45084832036E+03  0.15453039014E+03 -0.20749960703E+03  0.51980760626E+03  0.10566000000E+00 0.  1.
          4    1    3    3  501    0  0.55347906850E+03  0.16120767346E+03 -0.18793184582E+03  0.60633767153E+03  0.00000000000E+00 0.  1.
         13    1    1    2    0    0 -0.10263074814E+03 -0.31573806360E+03 -0.77440280616E+02  0.34091143057E+03  0.10566000000E+00 0. -1.
<mgrwt>
<rscale>  1 0.78985946E+03</rscale>
<asrwt>0</asrwt>
<pdfrwt beam="1">  1       21 0.76475767E-01 0.10544369E+04</pdfrwt>
<pdfrwt beam="2">  1        4 0.14922526E+00 0.10544369E+04</pdfrwt>
<totfact> 0.17460810E+01</totfact>
</mgrwt>
</event>
<event>
 6    1  0.1375310E-005  0.1017569E+04  0.7818608E-02  0.1005023E+00
          4   -1    0    0  502    0 -0.00000000000E+00  0.00000000000E+00  0.68952948034E+03  0.68952948034E+03  0.00000000000E+00 0.  1.
         21   -1    0    0  501  502  0.00000000000E+00 -0.00000000000E+00 -0.62743188671E+03  0.62743188671E+03  0.00000000000E+00 0.  1.
    9000010    2    1    2  501    0  0.68727171019E+02  0.36381984432E+02 -0.20565707719E+03  0.10381430611E+04  0.10145930756E+04 0.  0.
        -13    1    3    3    0    0 -0.36869725083E+03  0.23784568604E+03 -0.32013612981E+03  0.54313477693E+03  0.10566000000E+00 0.  1.
          4    1    3    3  501    0  0.43742442185E+03 -0.20146370161E+03  0.11447905262E+03  0.49500828416E+03  0.00000000000E+00 0.  1.
         13    1    1    2    0    0 -0.68727171019E+02 -0.36381984432E+02  0.26775467082E+03  0.27881830596E+03  0.10566000000E+00 0. -1.
<mgrwt>
<rscale>  1 0.53501514E+03</rscale>
<asrwt>0</asrwt>
<pdfrwt beam="2">  1       21 0.96527982E-01 0.10175688E+04</pdfrwt>
<pdfrwt beam="1">  1        4 0.10608146E+00 0.10175688E+04</pdfrwt>
<totfact> 0.23992130E+01</totfact>
</mgrwt>
</event>
<event>
 6    1  0.1375310E-005  0.1041958E+04  0.7818608E-02  0.9576622E-01
          4   -1    0    0  502    0 -0.00000000000E+00  0.00000000000E+00  0.42880394396E+03  0.42880394396E+03  0.00000000000E+00 0.  1.
         21   -1    0    0  501  502  0.00000000000E+00 -0.00000000000E+00 -0.19572487951E+04  0.19572487951E+04  0.00000000000E+00 0.  1.
    9000010    2    1    2  501    0  0.63801965606E+02  0.33592914299E+03 -0.17073221625E+04  0.20001561421E+04  0.98425430960E+03 0.  0.
        -13    1    3    3    0    0  0.50049010534E+03  0.30366747818E+02 -0.94826106776E+03  0.10726656276E+04  0.10566000000E+00 0.  1.
          4    1    3    3  501    0 -0.43668813974E+03  0.30556239517E+03 -0.75906109478E+03  0.92749051441E+03  0.00000000000E+00 0.  1.
         13    1    1    2    0    0 -0.63801965606E+02 -0.33592914299E+03  0.17887731137E+03  0.38589659704E+03  0.10566000000E+00 0. -1.
<mgrwt>
<rscale>  1 0.78862985E+03</rscale>
<asrwt>0</asrwt>
<pdfrwt beam="2">  1       21 0.30111520E+00 0.10419576E+04</pdfrwt>
<pdfrwt beam="1">  1        4 0.65969838E-01 0.10419576E+04</pdfrwt>
<totfact> 0.21815293E+00</totfact>
</mgrwt>
</event>
<event>
 6    1  0.1375310E-005  0.1099247E+04  0.7818608E-02  0.9429308E-01
         21   -1    0    0  501  502  0.00000000000E+00  0.00000000000E+00  0.51200800050E+03  0.51200800050E+03  0.00000000000E+00 0. -1.
          4   -1    0    0  502    0 -0.00000000000E+00 -0.00000000000E+00 -0.12293060019E+04  0.12293060019E+04  0.00000000000E+00 0.  1.
    9000010    2    1    2  501    0  0.10453298698E+03 -0.47611262008E+03 -0.49362951512E+03  0.12049950905E+04  0.98525768075E+03 0.  0.
        -13    1    3    3    0    0 -0.23586161177E+03 -0.65640748233E+03 -0.21600009577E+03  0.73017637274E+03  0.10566000000E+00 0.  1.
          4    1    3    3  501    0  0.34039459875E+03  0.18029486225E+03 -0.27762941935E+03  0.47481871772E+03  0.00000000000E+00 0.  1.
         13    1    1    2    0    0 -0.10453298698E+03  0.47611262008E+03 -0.22366848623E+03  0.53631891190E+03  0.10566000000E+00 0. -1.
<mgrwt>
<rscale>  1 0.89702495E+03</rscale>
<asrwt>0</asrwt>
<pdfrwt beam="1">  1       21 0.78770463E-01 0.10992466E+04</pdfrwt>
<pdfrwt beam="2">  1        4 0.18912400E+00 0.10992466E+04</pdfrwt>
<totfact> 0.83241339E+00</totfact>
</mgrwt>
</event>
<event>
 6    1  0.1375310E-005  0.1032862E+04  0.7818608E-02  0.9735160E-01
         21   -1    0    0  501  502  0.00000000000E+00  0.00000000000E+00  0.19981112941E+04  0.19981112941E+04  0.00000000000E+00 0.  1.
          4   -1    0    0  502    0 -0.00000000000E+00 -0.00000000000E+00 -0.28192046730E+03  0.28192046730E+03  0.00000000000E+00 0.  1.
    9000010    2    1    2  501    0 -0.20443026349E+03 -0.18408087948E+02  0.17860633030E+04  0.20632074906E+04  0.10122610516E+04 0.  0.
        -13    1    3    3    0    0  0.70470079352E+02 -0.86785694150E+01 -0.11890000113E+03  0.13848671808E+03  0.10566000000E+00 0.  1.
          4    1    3    3  501    0 -0.27490034284E+03 -0.97295185333E+01  0.19049633041E+04  0.19247207725E+04  0.00000000000E+00 0.  1.
         13    1    1    2    0    0  0.20443026349E+03  0.18408087948E+02 -0.69872476184E+02  0.21682427084E+03  0.10566000000E+00 0. -1.
<mgrwt>
<rscale>  1 0.68961436E+03</rscale>
<asrwt>0</asrwt>
<pdfrwt beam="1">  1       21 0.30740173E+00 0.10328616E+04</pdfrwt>
<pdfrwt beam="2">  1        4 0.43372381E-01 0.10328616E+04</pdfrwt>
<totfact> 0.48942454E+00</totfact>
</mgrwt>
</event>
<event>
 6    1  0.1375310E-005  0.1077242E+04  0.7818608E-02  0.9494815E-01
         21   -1    0    0  501  502  0.00000000000E+00  0.00000000000E+00  0.43244656220E+03  0.43244656220E+03  0.00000000000E+00 0.  1.
          4   -1    0    0  502    0 -0.00000000000E+00 -0.00000000000E+00 -0.12806479724E+04  0.12806479724E+04  0.00000000000E+00 0.  1.
    9000010    2    1    2  501    0  0.35887077763E+03 -0.20048242675E+03 -0.62049823587E+03  0.12431688115E+04  0.99572546148E+03 0.  0.
        -13    1    3    3    0    0  0.31263185691E+03 -0.57112159079E+03 -0.20083698675E+03  0.68136191252E+03  0.10566000000E+00 0.  1.
          4    1    3    3  501    0  0.46238920721E+02  0.37063916404E+03 -0.41966124912E+03  0.56180689896E+03  0.00000000000E+00 0.  1.
         13    1    1    2    0    0 -0.35887077763E+03  0.20048242675E+03 -0.22770317429E+03  0.46992572309E+03  0.10566000000E+00 0. -1.
<mgrwt>
<rscale>  1 0.84667149E+03</rscale>
<asrwt>0</asrwt>
<pdfrwt beam="1">  1       21 0.66530241E-01 0.10772421E+04</pdfrwt>
<pdfrwt beam="2">  1        4 0.19702276E+00 0.10772421E+04</pdfrwt>
<totfact> 0.10903033E+01</totfact>
</mgrwt>
</event>
<event>
 6    1  0.1375310E-005  0.1002596E+04  0.7818608E-02  0.1001088E+00
          4   -1    0    0  502    0 -0.00000000000E+00  0.00000000000E+00  0.71481218122E+03  0.71481218122E+03  0.00000000000E+00 0.  1.
         21   -1    0    0  501  502  0.00000000000E+00 -0.00000000000E+00 -0.42610598614E+03  0.42610598614E+03  0.00000000000E+00 0.  1.
    9000010    2    1    2  501    0  0.91052454202E+02  0.12902652769E+02  0.22085281892E+03  0.10266329116E+04  0.99836974096E+03 0.  0.
        -13    1    3    3    0    0  0.32380056609E+03  0.21844748065E+03  0.48235616051E+03  0.62067188203E+03  0.10566000000E+00 0.  1.
          4    1    3    3  501    0 -0.23274811189E+03 -0.20554482788E+03 -0.26150334159E+03  0.40596102956E+03  0.00000000000E+00 0.  1.
         13    1    1    2    0    0 -0.91052454202E+02 -0.12902652769E+02  0.67853376167E+02  0.11428525577E+03  0.10566000000E+00 0. -1.
<mgrwt>
<rscale>  1 0.55175571E+03</rscale>
<asrwt>0</asrwt>
<pdfrwt beam="2">  1       21 0.65554767E-01 0.10025962E+04</pdfrwt>
<pdfrwt beam="1">  1        4 0.10997111E+00 0.10025962E+04</pdfrwt>
<totfact> 0.54671294E+01</totfact>
</mgrwt>
</event>
<event>
 6    1  0.1375310E-005  0.9996097E+03  0.7818608E-02  0.9858032E-01
          4   -1    0    0  502    0 -0.00000000000E+00  0.00000000000E+00  0.11559391858E+04  0.11559391858E+04  0.00000000000E+00 0.  1.
         21   -1    0    0  501  502  0.00000000000E+00 -0.00000000000E+00 -0.29069102930E+03  0.29069102930E+03  0.00000000000E+00 0.  1.
    9000010    2    1    2  501    0  0.14854140559E+03  0.28224490896E+02  0.68717206971E+03  0.12130231199E+04  0.98810852896E+03 0.  0.
        -13    1    3    3    0    0  0.16941009480E+03  0.47513595028E+03  0.54721769162E+03  0.74424536590E+03  0.10566000000E+00 0.  1.
          4    1    3    3  501    0 -0.20868689209E+02 -0.44691145939E+03  0.13995437809E+03  0.46877775402E+03  0.00000000000E+00 0.  1.
         13    1    1    2    0    0 -0.14854140559E+03 -0.28224490896E+02  0.17807608675E+03  0.23360709513E+03  0.10566000000E+00 0. -1.
<mgrwt>
<rscale>  1 0.62339052E+03</rscale>
<asrwt>0</asrwt>
<pdfrwt beam="2">  1       21 0.44721697E-01 0.99960974E+03</pdfrwt>
<pdfrwt beam="1">  1        4 0.17783680E+00 0.99960974E+03</pdfrwt>
<totfact> 0.35556817E+01</totfact>
</mgrwt>
</event>
<event>
 6    1  0.1375310E-005  0.1034645E+04  0.7818608E-02  0.9683132E-01
         21   -1    0    0  501  502  0.00000000000E+00  0.00000000000E+00  0.20450958203E+03  0.20450958203E+03  0.00000000000E+00 0.  1.
          4   -1    0    0  502    0 -0.00000000000E+00 -0.00000000000E+00 -0.28019733652E+04  0.28019733652E+04  0.00000000000E+00 0.  1.
    9000010    2    1    2  501    0 -0.17720793673E+03  0.16633266321E+03 -0.11844028066E+04  0.15726731474E+04  0.10056945920E+04 0.  0.
        -13    1    3    3    0    0  0.28087775628E+03  0.19477319057E+03 -0.10350343234E+04  0.10900114547E+04  0.10566000000E+00 0.  1.
          4    1    3    3  501    0 -0.45808569301E+03 -0.28440527358E+02 -0.14936848329E+03  0.48266169264E+03  0.00000000000E+00 0.  1.
         13    1    1    2    0    0  0.17720793673E+03 -0.16633266321E+03 -0.14130609766E+04  0.14338097999E+04  0.10566000000E+00 0. -1.
<mgrwt>
<rscale>  1 0.72030057E+03</rscale>
<asrwt>0</asrwt>
<pdfrwt beam="1">  1       21 0.31463016E-01 0.10346453E+04</pdfrwt>
<pdfrwt beam="2">  1        4 0.43107278E+00 0.10346453E+04</pdfrwt>
<totfact> 0.16536666E+00</totfact>
</mgrwt>
</event>
<event>
 6    1  0.1375310E-005  0.1081081E+04  0.7818608E-02  0.9611380E-01
          4   -1    0    0  502    0 -0.00000000000E+00  0.00000000000E+00  0.93630046477E+03  0.93630046477E+03  0.00000000000E+00 0.  1.
         21   -1    0    0  501  502  0.00000000000E+00 -0.00000000000E+00 -0.58148444831E+03  0.58148444831E+03  0.00000000000E+00 0.  1.
    9000010    2    1    2  501    0 -0.26627904316E+03 -0.54194172468E+02  0.13056051469E+02  0.10811598772E+04  0.10463721529E+04 0.  0.
        -13    1    3    3    0    0  0.32539701636E+03 -0.21091524334E+03 -0.19583131654E+03  0.43441728077E+03  0.10566000000E+00 0.  1.
          4    1    3    3  501    0 -0.59167605953E+03  0.15672107087E+03  0.20888736801E+03  0.64674259639E+03  0.00000000000E+00 0.  1.
         13    1    1    2    0    0  0.26627904316E+03  0.54194172468E+02  0.34175996499E+03  0.43662503592E+03  0.10566000000E+00 0. -1.
<mgrwt>
<rscale>  1 0.76547549E+03</rscale>
<asrwt>0</asrwt>
<pdfrwt beam="2">  1       21 0.89459146E-01 0.10810810E+04</pdfrwt>
<pdfrwt beam="1">  1        4 0.14404623E+00 0.10810810E+04</pdfrwt>
<totfact> 0.13190927E+01</totfact>
</mgrwt>
</event>
<event>
 6    1  0.1375310E-005  0.1074637E+04  0.7818608E-02  0.9526610E-01
         21   -1    0    0  501  502  0.00000000000E+00  0.00000000000E+00  0.22361640391E+03  0.22361640391E+03  0.00000000000E+00 0.  1.
          4   -1    0    0  502    0 -0.00000000000E+00 -0.00000000000E+00 -0.23405315511E+04  0.23405315511E+04  0.00000000000E+00 0.  1.
    9000010    2    1    2  501    0  0.20334472595E+03 -0.30979643042E+03 -0.16270850064E+04  0.19499358712E+04  0.10087226467E+04 0.  0.
        -13    1    3    3    0    0  0.55004753996E+03  0.15553374486E+01 -0.55712547868E+03  0.78290709886E+03  0.10566000000E+00 0.  1.
          4    1    3    3  501    0 -0.34670281401E+03 -0.31135176787E+03 -0.10699595277E+04  0.11670287723E+04  0.00000000000E+00 0.  1.
         13    1    1    2    0    0 -0.20334472595E+03  0.30979643042E+03 -0.48983014086E+03  0.61421208384E+03  0.10566000000E+00 0. -1.
<mgrwt>
<rscale>  1 0.82350116E+03</rscale>
<asrwt>0</asrwt>
<pdfrwt beam="1">  1       21 0.34402524E-01 0.10746368E+04</pdfrwt>
<pdfrwt beam="2">  1        4 0.36008178E+00 0.10746368E+04</pdfrwt>
<totfact> 0.42244330E+00</totfact>
</mgrwt>
</event>
<event>
 6    1  0.1375310E-005  0.1007727E+04  0.7818608E-02  0.9858658E-01
          4   -1    0    0  502    0 -0.00000000000E+00  0.00000000000E+00  0.44470805267E+03  0.44470805267E+03  0.00000000000E+00 0.  1.
         21   -1    0    0  501  502  0.00000000000E+00 -0.00000000000E+00 -0.78262502180E+03  0.78262502180E+03  0.00000000000E+00 0.  1.
    9000010    2    1    2  501    0  0.14692773966E+03  0.10109514451E+02 -0.37537341303E+03  0.10753693968E+04  0.99690730637E+03 0.  0.
        -13    1    3    3    0    0 -0.25487104216E+03  0.28654799391E+03 -0.43969277001E+03  0.58343700954E+03  0.10566000000E+00 0.  1.
          4    1    3    3  501    0  0.40179878182E+03 -0.27643847946E+03  0.64319356979E+02  0.49193238730E+03  0.00000000000E+00 0.  1.
         13    1    1    2    0    0 -0.14692773966E+03 -0.10109514451E+02  0.37456443906E+02  0.15196367762E+03  0.10566000000E+00 0. -1.
<mgrwt>
<rscale>  1 0.62307399E+03</rscale>
<asrwt>0</asrwt>
<pdfrwt beam="2">  1       21 0.12040385E+00 0.10077272E+04</pdfrwt>
<pdfrwt beam="1">  1        4 0.68416624E-01 0.10077272E+04</pdfrwt>
<totfact> 0.38208283E+01</totfact>
</mgrwt>
</event>
<event>
 6    1  0.1375310E-005  0.1019958E+04  0.7818608E-02  0.1005788E+00
          4   -1    0    0  502    0 -0.00000000000E+00  0.00000000000E+00  0.10094357148E+04  0.10094357148E+04  0.00000000000E+00 0.  1.
         21   -1    0    0  501  502  0.00000000000E+00 -0.00000000000E+00 -0.38472192925E+03  0.38472192925E+03  0.00000000000E+00 0.  1.
    9000010    2    1    2  501    0  0.25429378747E+02  0.70981618385E+02  0.30341539132E+03  0.10641308076E+04  0.10171668657E+04 0.  0.
        -13    1    3    3    0    0  0.49799050425E+03  0.17960531473E+03  0.10225047479E+03  0.53917323947E+03  0.10566000000E+00 0.  1.
          4    1    3    3  501    0 -0.47256112550E+03 -0.10862369635E+03  0.20116491652E+03  0.52495756817E+03  0.00000000000E+00 0.  1.
         13    1    1    2    0    0 -0.25429378747E+02 -0.70981618385E+02  0.32129839421E+03  0.33002683639E+03  0.10566000000E+00 0. -1.
<mgrwt>
<rscale>  1 0.53183684E+03</rscale>
<asrwt>0</asrwt>
<pdfrwt beam="2">  1       21 0.59187989E-01 0.10199576E+04</pdfrwt>
<pdfrwt beam="1">  1        4 0.15529780E+00 0.10199576E+04</pdfrwt>
<totfact> 0.28194552E+01</totfact>
</mgrwt>
</event>
<event>
 6    1  0.1375310E-005  0.1046772E+04  0.7818608E-02  0.9606058E-01
         21   -1    0    0  501  502  0.00000000000E+00  0.00000000000E+00  0.18134555148E+04  0.18134555148E+04  0.00000000000E+00 0. -1.
          4   -1    0    0  502    0 -0.00000000000E+00 -0.00000000000E+00 -0.27170147836E+03  0.27170147836E+03  0.00000000000E+00 0.  1.
    9000010    2    1    2  501    0 -0.32028179645E+02  0.30315166586E+03  0.92384816979E+03  0.13961472632E+04  0.10014015193E+04 0.  0.
        -13    1    3    3    0    0  0.20620876520E+03  0.18678569743E+01 -0.15043986792E+03  0.25526008062E+03  0.10566000000E+00 0.  1.
          4    1    3    3  501    0 -0.23823694484E+03  0.30128380888E+03  0.10742880377E+04  0.11408871826E+04  0.00000000000E+00 0.  1.
         13    1    1    2    0    0  0.32028179645E+02 -0.30315166586E+03  0.61790586666E+03  0.68900972999E+03  0.10566000000E+00 0. -1.
<mgrwt>
<rscale>  1 0.76896529E+03</rscale>
<asrwt>0</asrwt>
<pdfrwt beam="1">  1       21 0.27899315E+00 0.10467721E+04</pdfrwt>
<pdfrwt beam="2">  1        4 0.41800229E-01 0.10467721E+04</pdfrwt>
<totfact> 0.79193765E+00</totfact>
</mgrwt>
</event>
<event>
 6    1  0.1375310E-005  0.1063003E+04  0.7818608E-02  0.1020684E+00
         21   -1    0    0  501  502  0.00000000000E+00  0.00000000000E+00  0.15917050804E+03  0.15917050804E+03  0.00000000000E+00 0.  1.
          4   -1    0    0  502    0 -0.00000000000E+00 -0.00000000000E+00 -0.19262454044E+04  0.19262454044E+04  0.00000000000E+00 0.  1.
    9000010    2    1    2  501    0 -0.30339189536E+02  0.29288158395E+02 -0.17221299946E+04  0.20237854167E+04  0.10621663862E+04 0.  0.
        -13    1    3    3    0    0  0.27140053493E+03  0.33975030598E+02 -0.16992725357E+04  0.17211448849E+04  0.10566000000E+00 0.  1.
          4    1    3    3  501    0 -0.30173972447E+03 -0.46868722040E+01 -0.22857458946E+02  0.30264053186E+03  0.00000000000E+00 0.  1.
         13    1    1    2    0    0  0.30339189536E+02 -0.29288158395E+02 -0.44944901734E+02  0.61630495697E+02  0.10566000000E+00 0. -1.
<mgrwt>
<rscale>  1 0.47440668E+03</rscale>
<asrwt>0</asrwt>
<pdfrwt beam="1">  1       21 0.24487770E-01 0.10630031E+04</pdfrwt>
<pdfrwt beam="2">  1        4 0.29634545E+00 0.10630031E+04</pdfrwt>
<totfact> 0.21294382E+01</totfact>
</mgrwt>
</event>
<event>
 6    1  0.1375310E-005  0.1151551E+04  0.7818608E-02  0.9360602E-01
          4   -1    0    0  502    0 -0.00000000000E+00  0.00000000000E+00  0.16221239472E+04  0.16221239472E+04  0.00000000000E+00 0.  1.
         21   -1    0    0  501  502  0.00000000000E+00 -0.00000000000E+00 -0.53747261486E+03  0.53747261486E+03  0.00000000000E+00 0. -1.
    9000010    2    1    2  501    0 -0.13901300306E+03 -0.52408286795E+03  0.27294925465E+03  0.11834573601E+04  0.10159146421E+04 0.  0.
        -13    1    3    3    0    0 -0.15666113807E+03 -0.82136502200E+03  0.29034031299E+03  0.88514446282E+03  0.10566000000E+00 0.  1.
          4    1    3    3  501    0  0.17648135008E+02  0.29728215405E+03 -0.17391058340E+02  0.29831289730E+03  0.00000000000E+00 0.  1.
         13    1    1    2    0    0  0.13901300306E+03  0.52408286795E+03  0.81170207770E+03  0.97613920196E+03  0.10566000000E+00 0. -1.
<mgrwt>
<rscale>  1 0.95390149E+03</rscale>
<asrwt>0</asrwt>
<pdfrwt beam="2">  1       21 0.82688095E-01 0.11515511E+04</pdfrwt>
<pdfrwt beam="1">  1        4 0.24955753E+00 0.11515511E+04</pdfrwt>
<totfact> 0.30097937E+00</totfact>
</mgrwt>
</event>
<event>
 6    1  0.1375310E-005  0.1033966E+04  0.7818608E-02  0.9592288E-01
          4   -1    0    0  502    0 -0.00000000000E+00  0.00000000000E+00  0.33428600494E+03  0.33428600494E+03  0.00000000000E+00 0.  1.
         21   -1    0    0  501  502  0.00000000000E+00 -0.00000000000E+00 -0.13983437602E+04  0.13983437602E+04  0.00000000000E+00 0.  1.
    9000010    2    1    2  501    0 -0.33158395923E+03 -0.30798944986E-01 -0.84360920660E+03  0.13344520451E+04  0.97935583128E+03 0.  0.
        -13    1    3    3    0    0  0.52800880680E+00  0.12927698341E+03 -0.95293481380E+03  0.96166396821E+03  0.10566000000E+00 0.  1.
          4    1    3    3  501    0 -0.33211196804E+03 -0.12930778235E+03  0.10932560720E+03  0.37278807690E+03  0.00000000000E+00 0.  1.
         13    1    1    2    0    0  0.33158395923E+03  0.30798944986E-01 -0.22044854870E+03  0.39817772006E+03  0.10566000000E+00 0. -1.
<mgrwt>
<rscale>  1 0.77808688E+03</rscale>
<asrwt>0</asrwt>
<pdfrwt beam="2">  1       21 0.21512981E+00 0.10339660E+04</pdfrwt>
<pdfrwt beam="1">  1        4 0.51428617E-01 0.10339660E+04</pdfrwt>
<totfact> 0.13208991E+01</totfact>
</mgrwt>
</event>
<event>
 6    1  0.1375310E-005  0.1010662E+04  0.7818608E-02  0.1005020E+00
         21   -1    0    0  501  502  0.00000000000E+00  0.00000000000E+00  0.11351098499E+04  0.11351098499E+04  0.00000000000E+00 0.  1.
          4   -1    0    0  502    0 -0.00000000000E+00 -0.00000000000E+00 -0.26268120294E+03  0.26268120294E+03  0.00000000000E+00 0.  1.
    9000010    2    1    2  501    0 -0.22168532987E+02 -0.76218083290E+02  0.82992177145E+03  0.13077494752E+04  0.10075405218E+04 0.  0.
        -13    1    3    3    0    0  0.13833906191E+03  0.40257894785E+03  0.13080902701E+03  0.44532967341E+03  0.10566000000E+00 0.  1.
          4    1    3    3  501    0 -0.16050759490E+03 -0.47879703114E+03  0.69911274444E+03  0.86241980177E+03  0.00000000000E+00 0.  1.
         13    1    1    2    0    0  0.22168532987E+02  0.76218083290E+02  0.42506875474E+02  0.90041577628E+02  0.10566000000E+00 0. -1.
<mgrwt>
<rscale>  1 0.53502955E+03</rscale>
<asrwt>0</asrwt>
<pdfrwt beam="1">  1       21 0.17463228E+00 0.10106624E+04</pdfrwt>
<pdfrwt beam="2">  1        4 0.40412493E-01 0.10106624E+04</pdfrwt>
<totfact> 0.41971704E+01</totfact>
</mgrwt>
</event>
<event>
 6    1  0.1375310E-005  0.1019416E+04  0.7818608E-02  0.9712192E-01
          4   -1    0    0  502    0 -0.00000000000E+00  0.00000000000E+00  0.28607147865E+04  0.28607147865E+04  0.00000000000E+00 0.  1.
         21   -1    0    0  501  502  0.00000000000E+00 -0.00000000000E+00 -0.14326550797E+03  0.14326550797E+03  0.00000000000E+00 0.  1.
    9000010    2    1    2  501    0 -0.21195368743E+03  0.90566225631E+02  0.19194564865E+04  0.21733665972E+04  0.99301689580E+03 0.  0.
        -13    1    3    3    0    0 -0.59976110657E+03 -0.58298324791E+02  0.11922820384E+04  0.13359073883E+04  0.10566000000E+00 0.  1.
          4    1    3    3  501    0  0.38780741915E+03  0.14886455042E+03  0.72717444809E+03  0.83745920896E+03  0.00000000000E+00 0.  1.
         13    1    1    2    0    0  0.21195368743E+03 -0.90566225631E+02  0.79799279201E+03  0.83061369727E+03  0.10566000000E+00 0. -1.
<mgrwt>
<rscale>  1 0.70295518E+03</rscale>
<asrwt>0</asrwt>
<pdfrwt beam="2">  1       21 0.22040850E-01 0.10194161E+04</pdfrwt>
<pdfrwt beam="1">  1        4 0.44010992E+00 0.10194161E+04</pdfrwt>
<totfact> 0.28913941E+00</totfact>
</mgrwt>
</event>
<event>
 6    1  0.1375310E-005  0.1021749E+04  0.7818608E-02  0.9740592E-01
          4   -1    0    0  502    0 -0.00000000000E+00  0.00000000000E+00  0.11865949679E+04  0.11865949679E+04  0.00000000000E+00 0.  1.
         21   -1    0    0  501  502  0.00000000000E+00 -0.00000000000E+00 -0.50358678813E+03  0.50358678813E+03  0.00000000000E+00 0.  1.
    9000010    2    1    2  501    0  0.20270012434E+03 -0.47671394217E+02  0.49076331898E+02  0.10229265566E+04  0.10003051293E+04 0.  0.
        -13    1    3    3    0    0  0.61148090446E+02 -0.28764081973E+03  0.44827300298E+03  0.53612034704E+03  0.10566000000E+00 0.  1.
          4    1    3    3  501    0  0.14155203390E+03  0.23996942551E+03 -0.39919667108E+03  0.48680620958E+03  0.00000000000E+00 0.  1.
         13    1    1    2    0    0 -0.20270012434E+03  0.47671394217E+02  0.63393184782E+03  0.66725519937E+03  0.10566000000E+00 0. -1.
<mgrwt>
<rscale>  1 0.68650562E+03</rscale>
<asrwt>0</asrwt>
<pdfrwt beam="2">  1       21 0.77474891E-01 0.10217486E+04</pdfrwt>
<pdfrwt beam="1">  1        4 0.18255307E+00 0.10217486E+04</pdfrwt>
<totfact> 0.96835719E+00</totfact>
</mgrwt>
</event>
<event>
 6    1  0.1375310E-005  0.8026952E+03  0.7818608E-02  0.1026150E+00
          4   -1    0    0  502    0 -0.00000000000E+00  0.00000000000E+00  0.36613291558E+03  0.36613291558E+03  0.00000000000E+00 0.  1.
         21   -1    0    0  501  502  0.00000000000E+00 -0.00000000000E+00 -0.61539312738E+03  0.61539312738E+03  0.00000000000E+00 0.  1.
    9000010    2    1    2  501    0 -0.82308673319E+02 -0.11413881484E+02 -0.32793005759E+03  0.86709724329E+03  0.79838243484E+03 0.  0.
        -13    1    3    3    0    0  0.26769722124E+03 -0.78741824888E+02  0.11219759381E+03  0.30074971066E+03  0.10566000000E+00 0.  1.
          4    1    3    3  501    0 -0.35000589455E+03  0.67327943404E+02 -0.44012765140E+03  0.56634753263E+03  0.00000000000E+00 0.  1.
         13    1    1    2    0    0  0.82308673319E+02  0.11413881484E+02  0.78669845783E+02  0.11442879967E+03  0.10566000000E+00 0. -1.
<mgrwt>
<rscale>  1 0.45531136E+03</rscale>
<asrwt>0</asrwt>
<pdfrwt beam="2">  1       21 0.94675865E-01 0.80269515E+03</pdfrwt>
<pdfrwt beam="1">  1        4 0.56328141E-01 0.80269515E+03</pdfrwt>
<totfact> 0.10888795E+02</totfact>
</mgrwt>
</event>
<event>
 6    1  0.1375310E-005  0.9944414E+03  0.7818608E-02  0.9901275E-01
         21   -1    0    0  501  502  0.00000000000E+00  0.00000000000E+00  0.47197644555E+03  0.47197644555E+03  0.00000000000E+00 0.  1.
          4   -1    0    0  502    0 -0.00000000000E+00 -0.00000000000E+00 -0.82052833904E+03  0.82052833904E+03  0.00000000000E+00 0.  1.
    9000010    2    1    2  501    0 -0.51838079516E+02 -0.12307592251E+03 -0.48078542205E+03  0.11045670650E+04  0.98543336149E+03 0.  0.
        -13    1    3    3    0    0 -0.19014497972E+03  0.40266453927E+03 -0.15897646143E+03  0.47282911390E+03  0.10566000000E+00 0.  1.
          4    1    3    3  501    0  0.13830690020E+03 -0.52574046178E+03 -0.32180896062E+03  0.63173795115E+03  0.00000000000E+00 0.  1.
         13    1    1    2    0    0  0.51838079516E+02  0.12307592251E+03  0.13223352856E+03  0.18793771955E+03  0.10566000000E+00 0. -1.
<mgrwt>
<rscale>  1 0.60199549E+03</rscale>
<asrwt>0</asrwt>
<pdfrwt beam="1">  1       21 0.72611762E-01 0.99444144E+03</pdfrwt>
<pdfrwt beam="2">  1        4 0.12623513E+00 0.99444144E+03</pdfrwt>
<totfact> 0.30665331E+01</totfact>
</mgrwt>
</event>
<event>
 6    1  0.1375310E-005  0.1003139E+04  0.7818608E-02  0.9527719E-01
          4   -1    0    0  502    0 -0.00000000000E+00  0.00000000000E+00  0.12768059750E+04  0.12768059750E+04  0.00000000000E+00 0.  1.
         21   -1    0    0  501  502  0.00000000000E+00 -0.00000000000E+00 -0.47677194562E+03  0.47677194562E+03  0.00000000000E+00 0.  1.
    9000010    2    1    2  501    0  0.32523366296E+03 -0.31652486580E+03  0.23763084250E+03  0.10309007576E+04  0.89460775120E+03 0.  0.
        -13    1    3    3    0    0  0.40627468675E+03  0.21412922678E+03  0.17065407012E+03  0.48993190309E+03  0.10566000000E+00 0.  1.
          4    1    3    3  501    0 -0.81041023790E+02 -0.53065409257E+03  0.66976772383E+02  0.54096885450E+03  0.00000000000E+00 0.  1.
         13    1    1    2    0    0 -0.32523366296E+03  0.31652486580E+03  0.56240318689E+03  0.72267716304E+03  0.10566000000E+00 0. -1.
<mgrwt>
<rscale>  1 0.82270666E+03</rscale>
<asrwt>0</asrwt>
<pdfrwt beam="2">  1       21 0.73349531E-01 0.10031391E+04</pdfrwt>
<pdfrwt beam="1">  1        4 0.19643169E+00 0.10031391E+04</pdfrwt>
<totfact> 0.88702041E+00</totfact>
</mgrwt>
</event>
<event>
 6    1  0.1375310E-005  0.1046820E+04  0.7818608E-02  0.9626820E-01
         21   -1    0    0  501  502  0.00000000000E+00  0.00000000000E+00  0.35588441346E+03  0.35588441346E+03  0.00000000000E+00 0.  1.
          4   -1    0    0  502    0 -0.00000000000E+00 -0.00000000000E+00 -0.15755866926E+04  0.15755866926E+04  0.00000000000E+00 0.  1.
    9000010    2    1    2  501    0  0.16265575422E+03  0.23274022227E+03 -0.50466415750E+03  0.11621178504E+04  0.10075748513E+04 0.  0.
        -13    1    3    3    0    0  0.48657942531E+03  0.39067049622E+03 -0.12078139507E+03  0.63558723265E+03  0.10566000000E+00 0.  1.
          4    1    3    3  501    0 -0.32392367109E+03 -0.15793027395E+03 -0.38388276243E+03  0.52653061774E+03  0.00000000000E+00 0.  1.
         13    1    1    2    0    0 -0.16265575422E+03 -0.23274022227E+03 -0.71503812164E+03  0.76935325567E+03  0.10566000000E+00 0. -1.
<mgrwt>
<rscale>  1 0.75546204E+03</rscale>
<asrwt>0</asrwt>
<pdfrwt beam="1">  1       21 0.54751448E-01 0.10468199E+04</pdfrwt>
<pdfrwt beam="2">  1        4 0.24239795E+00 0.10468199E+04</pdfrwt>
<totfact> 0.86513355E+00</totfact>
</mgrwt>
</event>
<event>
 6    1  0.1375310E-005  0.1047068E+04  0.7818608E-02  0.9575607E-01
          4   -1    0    0  502    0 -0.00000000000E+00  0.00000000000E+00  0.16348851752E+04  0.16348851752E+04  0.00000000000E+00 0.  1.
         21   -1    0    0  501  502  0.00000000000E+00 -0.00000000000E+00 -0.29484520130E+03  0.29484520130E+03  0.00000000000E+00 0. -1.
    9000010    2    1    2  501    0  0.19743218158E+03  0.27450643904E+03  0.10691123852E+04  0.14964463808E+04  0.99096782347E+03 0.  0.
        -13    1    3    3    0    0  0.29814903448E+03  0.26565633526E+03  0.12373350516E+04  0.13001785171E+04  0.10566000000E+00 0.  1.
          4    1    3    3  501    0 -0.10071685290E+03  0.88501037838E+01 -0.16822266648E+03  0.19626786368E+03  0.00000000000E+00 0.  1.
         13    1    1    2    0    0 -0.19743218158E+03 -0.27450643904E+03  0.27092758871E+03  0.43328399565E+03  0.10566000000E+00 0. -1.
<mgrwt>
<rscale>  1 0.78931918E+03</rscale>
<asrwt>0</asrwt>
<pdfrwt beam="2">  1       21 0.45360801E-01 0.10470676E+04</pdfrwt>
<pdfrwt beam="1">  1        4 0.25152079E+00 0.10470676E+04</pdfrwt>
<totfact> 0.11408008E+01</totfact>
</mgrwt>
</event>
<event>
 6    1  0.1375310E-005  0.9981748E+03  0.7818608E-02  0.9706963E-01
          4   -1    0    0  502    0 -0.00000000000E+00  0.00000000000E+00  0.23023456312E+03  0.23023456312E+03  0.00000000000E+00 0.  1.
         21   -1    0    0  501  502  0.00000000000E+00 -0.00000000000E+00 -0.20410564666E+04  0.20410564666E+04  0.00000000000E+00 0.  1.
    9000010    2    1    2  501    0 -0.21211000088E+03 -0.13205098812E+03 -0.17491736672E+04  0.20139417882E+04  0.96639789540E+03 0.  0.
        -13    1    3    3    0    0 -0.30552732428E+02 -0.18235183340E+03  0.60459970978E+02  0.19452783826E+03  0.10566000000E+00 0.  1.
          4    1    3    3  501    0 -0.18155726845E+03  0.50300845279E+02 -0.18096336382E+04  0.18194139499E+04  0.00000000000E+00 0.  1.
         13    1    1    2    0    0  0.21211000088E+03  0.13205098812E+03 -0.61648236335E+02  0.25734924159E+03  0.10566000000E+00 0. -1.
<mgrwt>
<rscale>  1 0.70603707E+03</rscale>
<asrwt>0</asrwt>
<pdfrwt beam="2">  1       21 0.31400871E+00 0.99817484E+03</pdfrwt>
<pdfrwt beam="1">  1        4 0.35420700E-01 0.99817484E+03</pdfrwt>
<totfact> 0.67624930E+00</totfact>
</mgrwt>
</event>
<event>
 6    1  0.1375310E-005  0.1111464E+04  0.7818608E-02  0.9428959E-01
          4   -1    0    0  502    0 -0.00000000000E+00  0.00000000000E+00  0.84078895535E+03  0.84078895535E+03  0.00000000000E+00 0.  1.
         21   -1    0    0  501  502  0.00000000000E+00 -0.00000000000E+00 -0.75677604259E+03  0.75677604259E+03  0.00000000000E+00 0.  1.
    9000010    2    1    2  501    0  0.19677886800E+03  0.42917820765E+03 -0.29945317306E+02  0.11118672049E+04  0.10061988384E+04 0.  0.
        -13    1    3    3    0    0  0.31954860840E+03  0.72407660242E+03 -0.37551800206E+02  0.79234360486E+03  0.10566000000E+00 0.  1.
          4    1    3    3  501    0 -0.12276974040E+03 -0.29489839477E+03  0.76064829002E+01  0.31952360003E+03  0.00000000000E+00 0.  1.
         13    1    1    2    0    0 -0.19677886800E+03 -0.42917820765E+03  0.11395823006E+03  0.48569779305E+03  0.10566000000E+00 0. -1.
<mgrwt>
<rscale>  1 0.89730304E+03</rscale>
<asrwt>0</asrwt>
<pdfrwt beam="2">  1       21 0.11642708E+00 0.11114639E+04</pdfrwt>
<pdfrwt beam="1">  1        4 0.12935215E+00 0.11114639E+04</pdfrwt>
<totfact> 0.90258702E+00</totfact>
</mgrwt>
</event>
<event>
 6    1  0.1375310E-005  0.1007289E+04  0.7818608E-02  0.1009358E+00
         21   -1    0    0  501  502  0.00000000000E+00  0.00000000000E+00  0.44964865404E+03  0.44964865404E+03  0.00000000000E+00 0.  1.
          4   -1    0    0  502    0 -0.00000000000E+00 -0.00000000000E+00 -0.94835444112E+03  0.94835444112E+03  0.00000000000E+00 0.  1.
    9000010    2    1    2  501    0  0.58931699923E+02  0.37903713394E+02 -0.12178448660E+03  0.10146242816E+04  0.10048489115E+04 0.  0.
        -13    1    3    3    0    0 -0.20878005838E+02  0.24489981921E+03  0.38763662410E+03  0.45899234861E+03  0.10566000000E+00 0.  1.
          4    1    3    3  501    0  0.79809705761E+02 -0.20699610582E+03 -0.50942111070E+03  0.55563193301E+03  0.00000000000E+00 0.  1.
         13    1    1    2    0    0 -0.58931699923E+02 -0.37903713394E+02 -0.37692130048E+03  0.38337881353E+03  0.10566000000E+00 0. -1.
<mgrwt>
<rscale>  1 0.51730519E+03</rscale>
<asrwt>0</asrwt>
<pdfrwt beam="1">  1       21 0.69176716E-01 0.10072889E+04</pdfrwt>
<pdfrwt beam="2">  1        4 0.14590068E+00 0.10072889E+04</pdfrwt>
<totfact> 0.23485454E+01</totfact>
</mgrwt>
</event>
<event>
 6    1  0.1375310E-005  0.8072209E+03  0.7818608E-02  0.1003021E+00
         21   -1    0    0  501  502  0.00000000000E+00  0.00000000000E+00  0.81071760203E+03  0.81071760203E+03  0.00000000000E+00 0.  1.
          4   -1    0    0  502    0 -0.00000000000E+00 -0.00000000000E+00 -0.29874641618E+03  0.29874641618E+03  0.00000000000E+00 0.  1.
    9000010    2    1    2  501    0  0.16359246910E+03 -0.27156368847E+02  0.48425294706E+03  0.94133229532E+03  0.79000355010E+03 0.  0.
        -13    1    3    3    0    0  0.34227989355E+03 -0.23999924402E+03  0.43518107480E+02  0.42029632345E+03  0.10566000000E+00 0.  1.
          4    1    3    3  501    0 -0.17868742445E+03  0.21284287517E+03  0.44073483958E+03  0.52103597187E+03  0.00000000000E+00 0.  1.
         13    1    1    2    0    0 -0.16359246910E+03  0.27156368847E+02  0.27718238786E+02  0.16813172289E+03  0.10566000000E+00 0. -1.
<mgrwt>
<rscale>  1 0.54345155E+03</rscale>
<asrwt>0</asrwt>
<pdfrwt beam="1">  1       21 0.12472578E+00 0.80722090E+03</pdfrwt>
<pdfrwt beam="2">  1        4 0.45960987E-01 0.80722090E+03</pdfrwt>
<totfact> 0.83549125E+01</totfact>
</mgrwt>
</event>
<event>
 6    1  0.1375310E-005  0.1000425E+04  0.7818608E-02  0.1030942E+00
         21   -1    0    0  501  502  0.00000000000E+00  0.00000000000E+00  0.17220767182E+04  0.17220767182E+04  0.00000000000E+00 0.  1.
          4   -1    0    0  502    0 -0.00000000000E+00 -0.00000000000E+00 -0.19383337739E+03  0.19383337739E+03  0.00000000000E+00 0.  1.
    9000010    2    1    2  501    0 -0.36017171186E+02  0.93758059932E+01  0.15689416911E+04  0.18607602158E+04  0.99973266846E+03 0.  0.
        -13    1    3    3    0    0  0.28909075538E+03 -0.38994126338E+03  0.74929799018E+03  0.89279064903E+03  0.10566000000E+00 0.  1.
          4    1    3    3  501    0 -0.32510792657E+03  0.39931706937E+03  0.81964370089E+03  0.96796956678E+03  0.00000000000E+00 0.  1.
         13    1    1    2    0    0  0.36017171186E+02 -0.93758059932E+01 -0.40698350277E+02  0.55149879760E+02  0.10566000000E+00 0. -1.
<mgrwt>
<rscale>  1 0.43936525E+03</rscale>
<asrwt>0</asrwt>
<pdfrwt beam="1">  1       21 0.26493487E+00 0.10004252E+04</pdfrwt>
<pdfrwt beam="2">  1        4 0.29820521E-01 0.10004252E+04</pdfrwt>
<totfact> 0.19216405E+01</totfact>
</mgrwt>
</event>
<event>
 6    1  0.1375310E-005  0.1044040E+04  0.7818608E-02  0.9979157E-01
         21   -1    0    0  501  502  0.00000000000E+00  0.00000000000E+00  0.32339299102E+03  0.32339299102E+03  0.00000000000E+00 0.  1.
          4   -1    0    0  502    0 -0.00000000000E+00 -0.00000000000E+00 -0.10517700736E+04  0.10517700736E+04  0.00000000000E+00 0.  1.
    9000010    2    1    2  501    0 -0.89676666511E+02  0.77754114216E+01 -0.56124684969E+03  0.11853344908E+04  0.10401526173E+04 0.  0.
        -13    1    3    3    0    0 -0.13478499494E+02 -0.21341870852E+01 -0.86850585872E+03  0.86861306835E+03  0.10566000000E+00 0.  1.
          4    1    3    3  501    0 -0.76198167017E+02  0.99095985068E+01  0.30725900903E+03  0.31672142243E+03  0.00000000000E+00 0.  1.
         13    1    1    2    0    0  0.89676666511E+02 -0.77754114216E+01 -0.16713023285E+03  0.18982857381E+03  0.10566000000E+00 0. -1.
<mgrwt>
<rscale>  1 0.56573680E+03</rscale>
<asrwt>0</asrwt>
<pdfrwt beam="1">  1       21 0.49752768E-01 0.10440401E+04</pdfrwt>
<pdfrwt beam="2">  1        4 0.16181078E+00 0.10440401E+04</pdfrwt>
<totfact> 0.36775070E+01</totfact>
</mgrwt>
</event>
<event>
 6    1  0.1375310E-005  0.1027878E+04  0.7818608E-02  0.9664381E-01
         21   -1    0    0  501  502  0.00000000000E+00  0.00000000000E+00  0.14439621666E+04  0.14439621666E+04  0.00000000000E+00 0.  1.
          4   -1    0    0  502    0 -0.00000000000E+00 -0.00000000000E+00 -0.45285496720E+03  0.45285496720E+03  0.00000000000E+00 0.  1.
    9000010    2    1    2  501    0 -0.89676318054E+02 -0.24835847496E+03  0.11854024055E+04  0.15689842306E+04  0.99338254395E+03 0.  0.
        -13    1    3    3    0    0  0.32720196904E+03  0.16928690547E+03  0.75015516697E+03  0.83573438999E+03  0.10566000000E+00 0.  1.
          4    1    3    3  501    0 -0.41687828710E+03 -0.41764538042E+03  0.43524723856E+03  0.73324984058E+03  0.00000000000E+00 0.  1.
         13    1    1    2    0    0  0.89676318054E+02  0.24835847496E+03 -0.19429520617E+03  0.32783290318E+03  0.10566000000E+00 0. -1.
<mgrwt>
<rscale>  1 0.73177693E+03</rscale>
<asrwt>0</asrwt>
<pdfrwt beam="1">  1       21 0.22214802E+00 0.10278777E+04</pdfrwt>
<pdfrwt beam="2">  1        4 0.69669996E-01 0.10278777E+04</pdfrwt>
<totfact> 0.61300866E+00</totfact>
</mgrwt>
</event>
<event>
 6    1  0.1375310E-005  0.1037230E+04  0.7818608E-02  0.9680020E-01
         21   -1    0    0  501  502  0.00000000000E+00  0.00000000000E+00  0.17044310571E+04  0.17044310571E+04  0.00000000000E+00 0.  1.
          4   -1    0    0  502    0 -0.00000000000E+00 -0.00000000000E+00 -0.24975279390E+03  0.24975279390E+03  0.00000000000E+00 0.  1.
    9000010    2    1    2  501    0 -0.14952038945E+03  0.19252821120E+03  0.10137481812E+04  0.14503556984E+04  0.10081779694E+04 0.  0.
        -13    1    3    3    0    0 -0.39526030141E+03  0.50254067593E+03  0.67241579086E+03  0.92785820242E+03  0.10566000000E+00 0.  1.
          4    1    3    3  501    0  0.24573991196E+03 -0.31001246473E+03  0.34133239036E+03  0.52249749600E+03  0.00000000000E+00 0.  1.
         13    1    1    2    0    0  0.14952038945E+03 -0.19252821120E+03  0.44093008197E+03  0.50382815257E+03  0.10566000000E+00 0. -1.
<mgrwt>
<rscale>  1 0.72218945E+03</rscale>
<asrwt>0</asrwt>
<pdfrwt beam="1">  1       21 0.26222015E+00 0.10372301E+04</pdfrwt>
<pdfrwt beam="2">  1        4 0.38423508E-01 0.10372301E+04</pdfrwt>
<totfact> 0.12000506E+01</totfact>
</mgrwt>
</event>
<event>
 6    1  0.1375310E-005  0.1037923E+04  0.7818608E-02  0.9659514E-01
         21   -1    0    0  501  502  0.00000000000E+00  0.00000000000E+00  0.25977788526E+03  0.25977788526E+03  0.00000000000E+00 0.  1.
          4   -1    0    0  502    0 -0.00000000000E+00 -0.00000000000E+00 -0.17997954362E+04  0.17997954362E+04  0.00000000000E+00 0.  1.
    9000010    2    1    2  501    0 -0.21217425945E+03  0.15150693117E+03 -0.91999454673E+03  0.13869658553E+04  0.10046452365E+04 0.  0.
        -13    1    3    3    0    0 -0.93868660853E+02  0.45016906622E+03 -0.53637533577E+02  0.46296923207E+03  0.10566000000E+00 0.  1.
          4    1    3    3  501    0 -0.11830559860E+03 -0.29866213505E+03 -0.86635701315E+03  0.92399662327E+03  0.00000000000E+00 0.  1.
         13    1    1    2    0    0  0.21217425945E+03 -0.15150693117E+03 -0.62002300421E+03  0.67260746612E+03  0.10566000000E+00 0. -1.
<mgrwt>
<rscale>  1 0.73479358E+03</rscale>
<asrwt>0</asrwt>
<pdfrwt beam="1">  1       21 0.39965829E-01 0.10379231E+04</pdfrwt>
<pdfrwt beam="2">  1        4 0.27689161E+00 0.10379231E+04</pdfrwt>
<totfact> 0.10410111E+01</totfact>
</mgrwt>
</event>
<event>
 6    1  0.1375310E-005  0.9962708E+03  0.7818608E-02  0.9997350E-01
         21   -1    0    0  501  502  0.00000000000E+00  0.00000000000E+00  0.60784057727E+03  0.60784057727E+03  0.00000000000E+00 0.  1.
          4   -1    0    0  502    0 -0.00000000000E+00 -0.00000000000E+00 -0.61124874029E+03  0.61124874029E+03  0.00000000000E+00 0.  1.
    9000010    2    1    2  501    0  0.97088331512E+02  0.11824406929E+02  0.17889663786E+03  0.10122052623E+04  0.99145828221E+03 0.  0.
        -13    1    3    3    0    0  0.29777668016E+03 -0.38098602635E+03 -0.95257068581E+02  0.49284401569E+03  0.10566000000E+00 0.  1.
          4    1    3    3  501    0 -0.20068834865E+03  0.39281043328E+03  0.27415370644E+03  0.51936124666E+03  0.00000000000E+00 0.  1.
         13    1    1    2    0    0 -0.97088331512E+02 -0.11824406929E+02 -0.18230480087E+03  0.20688405521E+03  0.10566000000E+00 0. -1.
<mgrwt>
<rscale>  1 0.55766602E+03</rscale>
<asrwt>0</asrwt>
<pdfrwt beam="1">  1       21 0.93513935E-01 0.99627079E+03</pdfrwt>
<pdfrwt beam="2">  1        4 0.94038268E-01 0.99627079E+03</pdfrwt>
<totfact> 0.34738715E+01</totfact>
</mgrwt>
</event>
<event>
 6    1  0.1375310E-005  0.1005842E+04  0.7818608E-02  0.9658430E-01
         21   -1    0    0  501  502  0.00000000000E+00  0.00000000000E+00  0.75368279799E+03  0.75368279799E+03  0.00000000000E+00 0.  1.
          4   -1    0    0  502    0 -0.00000000000E+00 -0.00000000000E+00 -0.96176175719E+03  0.96176175719E+03  0.00000000000E+00 0.  1.
    9000010    2    1    2  501    0  0.83153468200E+02  0.27523011706E+03  0.36844800289E+03  0.10712012271E+04  0.96387344680E+03 0.  0.
        -13    1    3    3    0    0 -0.32291073648E+03  0.28901980609E+03  0.48314433986E+03  0.64902407995E+03  0.10566000000E+00 0.  1.
          4    1    3    3  501    0  0.40606420468E+03 -0.13789689033E+02 -0.11469633697E+03  0.42217714713E+03  0.00000000000E+00 0.  1.
         13    1    1    2    0    0 -0.83153468200E+02 -0.27523011706E+03 -0.57652696210E+03  0.64424332810E+03  0.10566000000E+00 0. -1.
<mgrwt>
<rscale>  1 0.73546714E+03</rscale>
<asrwt>0</asrwt>
<pdfrwt beam="1">  1       21 0.11595120E+00 0.10058420E+04</pdfrwt>
<pdfrwt beam="2">  1        4 0.14796335E+00 0.10058420E+04</pdfrwt>
<totfact> 0.64898947E+00</totfact>
</mgrwt>
</event>
<event>
 6    1  0.1375310E-005  0.1021720E+04  0.7818608E-02  0.9789329E-01
          4   -1    0    0  502    0 -0.00000000000E+00  0.00000000000E+00  0.44544116943E+03  0.44544116943E+03  0.00000000000E+00 0.  1.
         21   -1    0    0  501  502  0.00000000000E+00 -0.00000000000E+00 -0.12909596981E+04  0.12909596981E+04  0.00000000000E+00 0.  1.
    9000010    2    1    2  501    0 -0.88433134437E+02  0.15359964616E+03 -0.10504983628E+04  0.14654211374E+04  0.10062301075E+04 0.  0.
        -13    1    3    3    0    0  0.33187257951E+03  0.40017973901E+03 -0.41867531148E+03  0.66751199251E+03  0.10566000000E+00 0.  1.
          4    1    3    3  501    0 -0.42030571395E+03 -0.24658009284E+03 -0.63182305133E+03  0.79790914493E+03  0.00000000000E+00 0.  1.
         13    1    1    2    0    0  0.88433134437E+02 -0.15359964616E+03  0.20497983412E+03  0.27097973010E+03  0.10566000000E+00 0. -1.
<mgrwt>
<rscale>  1 0.65938364E+03</rscale>
<asrwt>0</asrwt>
<pdfrwt beam="2">  1       21 0.19860918E+00 0.10217203E+04</pdfrwt>
<pdfrwt beam="1">  1        4 0.68529411E-01 0.10217203E+04</pdfrwt>
<totfact> 0.91717894E+00</totfact>
</mgrwt>
</event>
<event>
 6    1  0.1375310E-005  0.1086212E+04  0.7818608E-02  0.9494530E-01
         21   -1    0    0  501  502  0.00000000000E+00  0.00000000000E+00  0.58876699781E+03  0.58876699781E+03  0.00000000000E+00 0.  1.
          4   -1    0    0  502    0 -0.00000000000E+00 -0.00000000000E+00 -0.12885175002E+04  0.12885175002E+04  0.00000000000E+00 0.  1.
    9000010    2    1    2  501    0  0.32428907273E+03 -0.23651419560E+03 -0.18243681169E+02  0.10863648270E+04  0.10093331155E+04 0.  0.
        -13    1    3    3    0    0  0.30328638243E+02  0.27561332354E+03 -0.31984719996E+03  0.42330222406E+03  0.10566000000E+00 0.  1.
          4    1    3    3  501    0  0.29396043449E+03 -0.51212751914E+03  0.30160351879E+03  0.66306260296E+03  0.00000000000E+00 0.  1.
         13    1    1    2    0    0 -0.32428907273E+03  0.23651419560E+03 -0.68150682118E+03  0.79091967095E+03  0.10566000000E+00 0. -1.
<mgrwt>
<rscale>  1 0.84688332E+03</rscale>
<asrwt>0</asrwt>
<pdfrwt beam="1">  1       21 0.90579538E-01 0.10862116E+04</pdfrwt>
<pdfrwt beam="2">  1        4 0.19823346E+00 0.10862116E+04</pdfrwt>
<totfact> 0.51868095E+00</totfact>
</mgrwt>
</event>
<event>
 6    1  0.1375310E-005  0.1031151E+04  0.7818608E-02  0.9793303E-01
         21   -1    0    0  501  502  0.00000000000E+00  0.00000000000E+00  0.72758106380E+03  0.72758106380E+03  0.00000000000E+00 0.  1.
          4   -1    0    0  502    0 -0.00000000000E+00 -0.00000000000E+00 -0.67799594068E+03  0.67799594068E+03  0.00000000000E+00 0.  1.
    9000010    2    1    2  501    0  0.14486088281E+02  0.16956192896E+03  0.32558279623E+03  0.10813304606E+04  0.10170104784E+04 0.  0.
        -13    1    3    3    0    0 -0.35434803338E+03  0.30285473662E+03 -0.12635121685E+03  0.48295772219E+03  0.10566000000E+00 0.  1.
          4    1    3    3  501    0  0.36883412166E+03 -0.13329280766E+03  0.45193401308E+03  0.59837273839E+03  0.00000000000E+00 0.  1.
         13    1    1    2    0    0 -0.14486088281E+02 -0.16956192896E+03 -0.27599767311E+03  0.32424654390E+03  0.10566000000E+00 0. -1.
<mgrwt>
<rscale>  1 0.65723161E+03</rscale>
<asrwt>0</asrwt>
<pdfrwt beam="1">  1       21 0.11193555E+00 0.10311505E+04</pdfrwt>
<pdfrwt beam="2">  1        4 0.10430707E+00 0.10311505E+04</pdfrwt>
<totfact> 0.17231752E+01</totfact>
</mgrwt>
</event>
<event>
 6    1  0.1375310E-005  0.1058822E+04  0.7818608E-02  0.9613766E-01
         21   -1    0    0  501  502  0.00000000000E+00  0.00000000000E+00  0.29552904471E+04  0.29552904471E+04  0.00000000000E+00 0.  1.
          4   -1    0    0  502    0 -0.00000000000E+00 -0.00000000000E+00 -0.29365016778E+03  0.29365016778E+03  0.00000000000E+00 0.  1.
    9000010    2    1    2  501    0  0.16919825064E+03 -0.23168604277E+03  0.27515896493E+04  0.29482790596E+04  0.10192140819E+04 0.  0.
        -13    1    3    3    0    0 -0.39499173327E+03 -0.23418268035E+03  0.16202197462E+04  0.16840344516E+04  0.10566000000E+00 0.  1.
          4    1    3    3  501    0  0.56418998391E+03  0.24966375808E+01  0.11313699031E+04  0.12642446080E+04  0.00000000000E+00 0.  1.
         13    1    1    2    0    0 -0.16919825064E+03  0.23168604277E+03 -0.89949370071E+02  0.30066155520E+03  0.10566000000E+00 0. -1.
<mgrwt>
<rscale>  1 0.76391747E+03</rscale>
<asrwt>0</asrwt>
<pdfrwt beam="1">  1       21 0.45466005E+00 0.10588219E+04</pdfrwt>
<pdfrwt beam="2">  1        4 0.45176951E-01 0.10588219E+04</pdfrwt>
<totfact> 0.49417038E-01</totfact>
</mgrwt>
</event>
<event>
 6    1  0.1375310E-005  0.9818999E+03  0.7818608E-02  0.9861356E-01
          4   -1    0    0  502    0 -0.00000000000E+00  0.00000000000E+00  0.81367535236E+03  0.81367535236E+03  0.00000000000E+00 0.  1.
         21   -1    0    0  501  502  0.00000000000E+00 -0.00000000000E+00 -0.52916779906E+03  0.52916779906E+03  0.00000000000E+00 0. -1.
    9000010    2    1    2  501    0 -0.11536959382E+03 -0.10768629357E+03  0.47889332187E+03  0.10924588085E+04  0.96913412565E+03 0.  0.
        -13    1    3    3    0    0 -0.39390943945E+03 -0.41136732343E+03  0.26511392077E+03  0.62823015164E+03  0.10566000000E+00 0.  1.
          4    1    3    3  501    0  0.27853984563E+03  0.30368102987E+03  0.21377940110E+03  0.46422865685E+03  0.00000000000E+00 0.  1.
         13    1    1    2    0    0  0.11536959382E+03  0.10768629357E+03 -0.19438576857E+03  0.25038434294E+03  0.10566000000E+00 0. -1.
<mgrwt>
<rscale>  1 0.62171242E+03</rscale>
<asrwt>0</asrwt>
<pdfrwt beam="2">  1       21 0.81410430E-01 0.98189991E+03</pdfrwt>
<pdfrwt beam="1">  1        4 0.12518082E+00 0.98189991E+03</pdfrwt>
<totfact> 0.24018531E+01</totfact>
</mgrwt>
</event>
<event>
 6    1  0.1375310E-005  0.1004562E+04  0.7818608E-02  0.9799585E-01
          4   -1    0    0  502    0 -0.00000000000E+00  0.00000000000E+00  0.23318673710E+04  0.23318673710E+04  0.00000000000E+00 0.  1.
         21   -1    0    0  501  502  0.00000000000E+00 -0.00000000000E+00 -0.16184132840E+03  0.16184132840E+03  0.00000000000E+00 0.  1.
    9000010    2    1    2  501    0  0.17491635989E+03 -0.43700276073E+02  0.15423209878E+04  0.18406244062E+04  0.98825033676E+03 0.  0.
        -13    1    3    3    0    0 -0.11870068287E+03 -0.41960729110E+03  0.11260483674E+04  0.12075367770E+04  0.10566000000E+00 0.  1.
          4    1    3    3  501    0  0.29361704276E+03  0.37590701502E+03  0.41627262040E+03  0.63308762920E+03  0.00000000000E+00 0.  1.
         13    1    1    2    0    0 -0.17491635989E+03  0.43700276073E+02  0.62770505480E+03  0.65308429324E+03  0.10566000000E+00 0. -1.
<mgrwt>
<rscale>  1 0.65384829E+03</rscale>
<asrwt>0</asrwt>
<pdfrwt beam="2">  1       21 0.24898668E-01 0.10045617E+04</pdfrwt>
<pdfrwt beam="1">  1        4 0.35874880E+00 0.10045617E+04</pdfrwt>
<totfact> 0.83478974E+00</totfact>
</mgrwt>
</event>
<event>
 6    1  0.1375310E-005  0.1018922E+04  0.7818608E-02  0.9832418E-01
         21   -1    0    0  501  502  0.00000000000E+00  0.00000000000E+00  0.97394433922E+03  0.97394433922E+03  0.00000000000E+00 0.  1.
          4   -1    0    0  502    0 -0.00000000000E+00 -0.00000000000E+00 -0.37566612554E+03  0.37566612554E+03  0.00000000000E+00 0.  1.
    9000010    2    1    2  501    0 -0.14889235744E+03 -0.43694030477E+02  0.62029984559E+03  0.11928843794E+04  0.10070368125E+04 0.  0.
        -13    1    3    3    0    0 -0.45925255026E+03 -0.29768575124E+03  0.56745529469E+03  0.78837505925E+03  0.10566000000E+00 0.  1.
          4    1    3    3  501    0  0.31036019282E+03  0.25399172076E+03  0.52844550899E+02  0.40450932012E+03  0.00000000000E+00 0.  1.
         13    1    1    2    0    0  0.14889235744E+03  0.43694030477E+02 -0.22021631917E+02  0.15672608538E+03  0.10566000000E+00 0. -1.
<mgrwt>
<rscale>  1 0.63651462E+03</rscale>
<asrwt>0</asrwt>
<pdfrwt beam="1">  1       21 0.14983759E+00 0.10189216E+04</pdfrwt>
<pdfrwt beam="2">  1        4 0.57794789E-01 0.10189216E+04</pdfrwt>
<totfact> 0.30704765E+01</totfact>
</mgrwt>
</event>
<event>
 6    1  0.1375310E-005  0.1060541E+04  0.7818608E-02  0.9595452E-01
         21   -1    0    0  501  502  0.00000000000E+00  0.00000000000E+00  0.13972382681E+04  0.13972382681E+04  0.00000000000E+00 0.  1.
          4   -1    0    0  502    0 -0.00000000000E+00 -0.00000000000E+00 -0.36909715260E+03  0.36909715260E+03  0.00000000000E+00 0.  1.
    9000010    2    1    2  501    0 -0.22406074974E+02 -0.30313331958E+03  0.10056673711E+04  0.14615454570E+04  0.10160494180E+04 0.  0.
        -13    1    3    3    0    0 -0.88675561544E+02 -0.64853507747E+03  0.86024744544E+03  0.10809656703E+04  0.10566000000E+00 0.  1.
          4    1    3    3  501    0  0.66269486570E+02  0.34540175789E+03  0.14541992569E+03  0.38057978663E+03  0.00000000000E+00 0.  1.
         13    1    1    2    0    0  0.22406074974E+02  0.30313331958E+03  0.22473744372E+02  0.30478996372E+03  0.10566000000E+00 0. -1.
<mgrwt>
<rscale>  1 0.77597898E+03</rscale>
<asrwt>0</asrwt>
<pdfrwt beam="1">  1       21 0.21495973E+00 0.10605415E+04</pdfrwt>
<pdfrwt beam="2">  1        4 0.56784178E-01 0.10605415E+04</pdfrwt>
<totfact> 0.10676492E+01</totfact>
</mgrwt>
</event>
<event>
 6    1  0.1375310E-005  0.1062556E+04  0.7818608E-02  0.9528604E-01
          4   -1    0    0  502    0 -0.00000000000E+00  0.00000000000E+00  0.89854933979E+03  0.89854933979E+03  0.00000000000E+00 0.  1.
         21   -1    0    0  501  502  0.00000000000E+00 -0.00000000000E+00 -0.58297001633E+03  0.58297001633E+03  0.00000000000E+00 0.  1.
    9000010    2    1    2  501    0  0.34181026796E+03 -0.16763572964E+03  0.18181912009E+03  0.10780000873E+04  0.99201310407E+03 0.  0.
        -13    1    3    3    0    0  0.31536221513E+02  0.62250675037E+02  0.54406905377E+03  0.54852604883E+03  0.10566000000E+00 0.  1.
          4    1    3    3  501    0  0.31027404645E+03 -0.22988640468E+03 -0.36224993368E+03  0.52947403847E+03  0.00000000000E+00 0.  1.
         13    1    1    2    0    0 -0.34181026796E+03  0.16763572964E+03  0.13376020338E+03  0.40351926882E+03  0.10566000000E+00 0. -1.
<mgrwt>
<rscale>  1 0.82207419E+03</rscale>
<asrwt>0</asrwt>
<pdfrwt beam="2">  1       21 0.89687695E-01 0.10625563E+04</pdfrwt>
<pdfrwt beam="1">  1        4 0.13823836E+00 0.10625563E+04</pdfrwt>
<totfact> 0.14642714E+01</totfact>
</mgrwt>
</event>
<event>
 6    1  0.1375310E-005  0.1105581E+04  0.7818608E-02  0.9742914E-01
          4   -1    0    0  502    0 -0.00000000000E+00  0.00000000000E+00  0.10946127995E+04  0.10946127995E+04  0.00000000000E+00 0.  1.
         21   -1    0    0  501  502  0.00000000000E+00 -0.00000000000E+00 -0.86577668881E+03  0.86577668881E+03  0.00000000000E+00 0.  1.
    9000010    2    1    2  501    0  0.76463553421E+02  0.14406509229E+03 -0.50010078386E+03  0.12134286907E+04  0.10934838671E+04 0.  0.
        -13    1    3    3    0    0 -0.13359882894E+03 -0.33383736075E+03  0.14138318980E+03  0.38637449198E+03  0.10566000000E+00 0.  1.
          4    1    3    3  501    0  0.21006238236E+03  0.47790245304E+03 -0.64148397366E+03  0.82705419869E+03  0.00000000000E+00 0.  1.
         13    1    1    2    0    0 -0.76463553421E+02 -0.14406509229E+03  0.72893689457E+03  0.74696079766E+03  0.10566000000E+00 0. -1.
<mgrwt>
<rscale>  1 0.68518198E+03</rscale>
<asrwt>0</asrwt>
<pdfrwt beam="2">  1       21 0.13319641E+00 0.11055806E+04</pdfrwt>
<pdfrwt beam="1">  1        4 0.16840197E+00 0.11055806E+04</pdfrwt>
<totfact> 0.31230229E+00</totfact>
</mgrwt>
</event>
<event>
 6    1  0.1375310E-005  0.1093567E+04  0.7818608E-02  0.9587461E-01
          4   -1    0    0  502    0 -0.00000000000E+00  0.00000000000E+00  0.12038892594E+04  0.12038892594E+04  0.00000000000E+00 0.  1.
         21   -1    0    0  501  502  0.00000000000E+00 -0.00000000000E+00 -0.44698446391E+03  0.44698446391E+03  0.00000000000E+00 0.  1.
    9000010    2    1    2  501    0  0.28423728450E+03 -0.20177644439E+02  0.33869981612E+03  0.11448170198E+04  0.10557890282E+04 0.  0.
        -13    1    3    3    0    0 -0.78442921399E+02 -0.21806595989E+03 -0.30309290053E+03  0.38153816623E+03  0.10566000000E+00 0.  1.
          4    1    3    3  501    0  0.36268020590E+03  0.19788831545E+03  0.64179271664E+03  0.76327885355E+03  0.00000000000E+00 0.  1.
         13    1    1    2    0    0 -0.28423728450E+03  0.20177644439E+02  0.41820497932E+03  0.50605670347E+03  0.10566000000E+00 0. -1.
<mgrwt>
<rscale>  1 0.78131679E+03</rscale>
<asrwt>0</asrwt>
<pdfrwt beam="2">  1       21 0.68766841E-01 0.10935668E+04</pdfrwt>
<pdfrwt beam="1">  1        4 0.18521373E+00 0.10935668E+04</pdfrwt>
<totfact> 0.12136452E+01</totfact>
</mgrwt>
</event>
<event>
 6    1  0.1375310E-005  0.9949071E+03  0.7818608E-02  0.9974370E-01
          4   -1    0    0  502    0 -0.00000000000E+00  0.00000000000E+00  0.28365953665E+03  0.28365953665E+03  0.00000000000E+00 0.  1.
         21   -1    0    0  501  502  0.00000000000E+00 -0.00000000000E+00 -0.10674289691E+04  0.10674289691E+04  0.00000000000E+00 0.  1.
    9000010    2    1    2  501    0  0.59462017247E+00 -0.10560551071E+03 -0.70721304600E+03  0.12206516669E+04  0.98928626898E+03 0.  0.
        -13    1    3    3    0    0  0.19837862066E+03 -0.44745745832E+03 -0.10518068041E+03  0.50063483781E+03  0.10566000000E+00 0.  1.
          4    1    3    3  501    0 -0.19778400049E+03  0.34185194761E+03 -0.60203236559E+03  0.72001682908E+03  0.00000000000E+00 0.  1.
         13    1    1    2    0    0 -0.59462017247E+00  0.10560551071E+03 -0.76556386494E+02  0.13043683890E+03  0.10566000000E+00 0. -1.
<mgrwt>
<rscale>  1 0.56788498E+03</rscale>
<asrwt>0</asrwt>
<pdfrwt beam="2">  1       21 0.16421984E+00 0.99490713E+03</pdfrwt>
<pdfrwt beam="1">  1        4 0.43639928E-01 0.99490713E+03</pdfrwt>
<totfact> 0.42972594E+01</totfact>
</mgrwt>
</event>
<event>
 6    1  0.1375310E-005  0.1011122E+04  0.7818608E-02  0.1021869E+00
         21   -1    0    0  501  502  0.00000000000E+00  0.00000000000E+00  0.35441400589E+03  0.35441400589E+03  0.00000000000E+00 0.  1.
          4   -1    0    0  502    0 -0.00000000000E+00 -0.00000000000E+00 -0.93562534993E+03  0.93562534993E+03  0.00000000000E+00 0.  1.
    9000010    2    1    2  501    0 -0.43840688588E+02 -0.17693713445E+02 -0.37490913507E+03  0.10783894419E+04  0.10100157699E+04 0.  0.
        -13    1    3    3    0    0 -0.51835452905E+03 -0.10150891930E+03 -0.22071822281E+03  0.57246137296E+03  0.10566000000E+00 0.  1.
          4    1    3    3  501    0  0.47451384047E+03  0.83815205851E+02 -0.15419091226E+03  0.50592806895E+03  0.00000000000E+00 0.  1.
         13    1    1    2    0    0  0.43840688588E+02  0.17693713445E+02 -0.20630220897E+03  0.21164991391E+03  0.10566000000E+00 0. -1.
<mgrwt>
<rscale>  1 0.47018015E+03</rscale>
<asrwt>0</asrwt>
<pdfrwt beam="1">  1       21 0.54525231E-01 0.10111216E+04</pdfrwt>
<pdfrwt beam="2">  1        4 0.14394236E+00 0.10111216E+04</pdfrwt>
<totfact> 0.41462921E+01</totfact>
</mgrwt>
</event>
<event>
 6    1  0.1375310E-005  0.1004558E+04  0.7818608E-02  0.9800590E-01
          4   -1    0    0  502    0 -0.00000000000E+00  0.00000000000E+00  0.89794048241E+03  0.89794048241E+03  0.00000000000E+00 0.  1.
         21   -1    0    0  501  502  0.00000000000E+00 -0.00000000000E+00 -0.39529810892E+03  0.39529810892E+03  0.00000000000E+00 0.  1.
    9000010    2    1    2  501    0  0.17351448996E+03  0.46744141660E+02  0.37264964268E+03  0.10714494703E+04  0.98835414610E+03 0.  0.
        -13    1    3    3    0    0  0.44009035234E+03  0.28612069398E+03  0.46521562454E+03  0.70140584417E+03  0.10566000000E+00 0.  1.
          4    1    3    3  501    0 -0.26657586239E+03 -0.23937655232E+03 -0.92565981859E+02  0.37004362608E+03  0.00000000000E+00 0.  1.
         13    1    1    2    0    0 -0.17351448996E+03 -0.46744141660E+02  0.12999273081E+03  0.22178912108E+03  0.10566000000E+00 0. -1.
<mgrwt>
<rscale>  1 0.65330886E+03</rscale>
<asrwt>0</asrwt>
<pdfrwt beam="2">  1       21 0.60815094E-01 0.10045577E+04</pdfrwt>
<pdfrwt beam="1">  1        4 0.13814469E+00 0.10045577E+04</pdfrwt>
<totfact> 0.36313987E+01</totfact>
</mgrwt>
</event>
<event>
 6    1  0.1375310E-005  0.1071303E+04  0.7818608E-02  0.9633803E-01
         21   -1    0    0  501  502  0.00000000000E+00  0.00000000000E+00  0.15738731138E+04  0.15738731138E+04  0.00000000000E+00 0.  1.
          4   -1    0    0  502    0 -0.00000000000E+00 -0.00000000000E+00 -0.31815681637E+03  0.31815681637E+03  0.00000000000E+00 0.  1.
    9000010    2    1    2  501    0 -0.23332764420E+03  0.11172639493E+03  0.12314059772E+04  0.16321923276E+04  0.10395992193E+04 0.  0.
        -13    1    3    3    0    0 -0.23493606841E+03 -0.42670025839E+03  0.35173422049E+03  0.60082030573E+03  0.10566000000E+00 0.  1.
          4    1    3    3  501    0  0.16084242108E+01  0.53842665332E+03  0.87967175670E+03  0.10313720219E+04  0.00000000000E+00 0.  1.
         13    1    1    2    0    0  0.23332764420E+03 -0.11172639493E+03  0.24310320274E+02  0.25983760257E+03  0.10566000000E+00 0. -1.
<mgrwt>
<rscale>  1 0.75098730E+03</rscale>
<asrwt>0</asrwt>
<pdfrwt beam="1">  1       21 0.24213432E+00 0.10713035E+04</pdfrwt>
<pdfrwt beam="2">  1        4 0.48947203E-01 0.10713035E+04</pdfrwt>
<totfact> 0.97181169E+00</totfact>
</mgrwt>
</event>
<event>
 6    1  0.1375310E-005  0.1032288E+04  0.7818608E-02  0.9656021E-01
          4   -1    0    0  502    0 -0.00000000000E+00  0.00000000000E+00  0.89666850011E+03  0.89666850011E+03  0.00000000000E+00 0.  1.
         21   -1    0    0  501  502  0.00000000000E+00 -0.00000000000E+00 -0.53293203086E+03  0.53293203086E+03  0.00000000000E+00 0.  1.
    9000010    2    1    2  501    0  0.11660217017E+03  0.24148013003E+03  0.74184718859E+02  0.10349501203E+04  0.99684986824E+03 0.  0.
        -13    1    3    3    0    0  0.36484333317E+02 -0.37754153570E+03 -0.89382906886E+02  0.38968966238E+03  0.10566000000E+00 0.  1.
          4    1    3    3  501    0  0.80117836849E+02  0.61902166573E+03  0.16356762575E+03  0.64526045797E+03  0.00000000000E+00 0.  1.
         13    1    1    2    0    0 -0.11660217017E+03 -0.24148013003E+03  0.28955175039E+03  0.39465041062E+03  0.10566000000E+00 0. -1.
<mgrwt>
<rscale>  1 0.73696751E+03</rscale>
<asrwt>0</asrwt>
<pdfrwt beam="2">  1       21 0.81989544E-01 0.10322879E+04</pdfrwt>
<pdfrwt beam="1">  1        4 0.13794900E+00 0.10322879E+04</pdfrwt>
<totfact> 0.18301701E+01</totfact>
</mgrwt>
</event>
<event>
 6    1  0.1375310E-005  0.1056896E+04  0.7818608E-02  0.9561569E-01
          4   -1    0    0  502    0 -0.00000000000E+00  0.00000000000E+00  0.10239696360E+04  0.10239696360E+04  0.00000000000E+00 0.  1.
         21   -1    0    0  501  502  0.00000000000E+00 -0.00000000000E+00 -0.79182206328E+03  0.79182206328E+03  0.00000000000E+00 0.  1.
    9000010    2    1    2  501    0  0.30848116857E+03  0.15468906057E+03 -0.37164898231E+03  0.11203352823E+04  0.99896888940E+03 0.  0.
        -13    1    3    3    0    0  0.39174590373E+03 -0.22688494294E+03  0.14256314518E+03  0.47462184100E+03  0.10566000000E+00 0.  1.
          4    1    3    3  501    0 -0.83264735159E+02  0.38157400351E+03 -0.51421212749E+03  0.64571344134E+03  0.00000000000E+00 0.  1.
         13    1    1    2    0    0 -0.30848116857E+03 -0.15468906057E+03  0.60379655499E+03  0.69545641690E+03  0.10566000000E+00 0. -1.
<mgrwt>
<rscale>  1 0.79892896E+03</rscale>
<asrwt>0</asrwt>
<pdfrwt beam="2">  1       21 0.12181878E+00 0.10568955E+04</pdfrwt>
<pdfrwt beam="1">  1        4 0.15753379E+00 0.10568955E+04</pdfrwt>
<totfact> 0.47903167E+00</totfact>
</mgrwt>
</event>
<event>
 6    1  0.1375310E-005  0.1014659E+04  0.7818608E-02  0.9872968E-01
          4   -1    0    0  502    0 -0.00000000000E+00  0.00000000000E+00  0.35056456328E+03  0.35056456328E+03  0.00000000000E+00 0.  1.
         21   -1    0    0  501  502  0.00000000000E+00 -0.00000000000E+00 -0.96328421492E+03  0.96328421492E+03  0.00000000000E+00 0.  1.
    9000010    2    1    2  501    0 -0.13077920193E+03 -0.43237045484E+02 -0.47961222347E+03  0.11223018117E+04  0.10052665467E+04 0.  0.
        -13    1    3    3    0    0  0.24048633684E+03 -0.29455361327E+03  0.96489051472E+02  0.39230811553E+03  0.10566000000E+00 0.  1.
          4    1    3    3  501    0 -0.37126553878E+03  0.25131656778E+03 -0.57610127494E+03  0.72999369621E+03  0.00000000000E+00 0.  1.
         13    1    1    2    0    0  0.13077920193E+03  0.43237045484E+02 -0.13310742817E+03  0.19154696646E+03  0.10566000000E+00 0. -1.
<mgrwt>
<rscale>  1 0.61589438E+03</rscale>
<asrwt>0</asrwt>
<pdfrwt beam="2">  1       21 0.14819757E+00 0.10146593E+04</pdfrwt>
<pdfrwt beam="1">  1        4 0.53933011E-01 0.10146593E+04</pdfrwt>
<totfact> 0.36752130E+01</totfact>
</mgrwt>
</event>
<event>
 6    1  0.1375310E-005  0.1007429E+04  0.7818608E-02  0.9754412E-01
          4   -1    0    0  502    0 -0.00000000000E+00  0.00000000000E+00  0.12643762844E+04  0.12643762844E+04  0.00000000000E+00 0.  1.
         21   -1    0    0  501  502  0.00000000000E+00 -0.00000000000E+00 -0.52009371849E+03  0.52009371849E+03  0.00000000000E+00 0.  1.
    9000010    2    1    2  501    0  0.11695771465E+03 -0.17138931729E+03 -0.45316809557E+01  0.10074396350E+04  0.98582994326E+03 0.  0.
        -13    1    3    3    0    0  0.90512980445E+02 -0.57230306030E+03  0.10974764685E+03  0.58971853423E+03  0.10566000000E+00 0.  1.
          4    1    3    3  501    0  0.26444734202E+02  0.40091374301E+03 -0.11427932780E+03  0.41772110081E+03  0.00000000000E+00 0.  1.
         13    1    1    2    0    0 -0.11695771465E+03  0.17138931729E+03  0.74881424684E+03  0.77703036783E+03  0.10566000000E+00 0. -1.
<mgrwt>
<rscale>  1 0.67867513E+03</rscale>
<asrwt>0</asrwt>
<pdfrwt beam="2">  1       21 0.80014419E-01 0.10074294E+04</pdfrwt>
<pdfrwt beam="1">  1        4 0.19451943E+00 0.10074294E+04</pdfrwt>
<totfact> 0.74546496E+00</totfact>
</mgrwt>
</event>
<event>
 6    1  0.1375310E-005  0.1076323E+04  0.7818608E-02  0.9559297E-01
         21   -1    0    0  501  502  0.00000000000E+00  0.00000000000E+00  0.33045059334E+03  0.33045059334E+03  0.00000000000E+00 0.  1.
          4   -1    0    0  502    0 -0.00000000000E+00 -0.00000000000E+00 -0.15202513054E+04  0.15202513054E+04  0.00000000000E+00 0.  1.
    9000010    2    1    2  501    0 -0.32731458029E+03  0.36254442352E+02 -0.10075287340E+04  0.14743080834E+04  0.10247053020E+04 0.  0.
        -13    1    3    3    0    0 -0.34820626173E+03  0.37271888038E+03 -0.10162626364E+04  0.11370825484E+04  0.10566000000E+00 0.  1.
          4    1    3    3  501    0  0.20891681447E+02 -0.33646443803E+03  0.87339024576E+01  0.33722553501E+03  0.00000000000E+00 0.  1.
         13    1    1    2    0    0  0.32731458029E+03 -0.36254442352E+02 -0.18227197809E+03  0.37639381533E+03  0.10566000000E+00 0. -1.
<mgrwt>
<rscale>  1 0.80049788E+03</rscale>
<asrwt>0</asrwt>
<pdfrwt beam="1">  1       21 0.50838552E-01 0.10763225E+04</pdfrwt>
<pdfrwt beam="2">  1        4 0.23388482E+00 0.10763225E+04</pdfrwt>
<totfact> 0.11459869E+01</totfact>
</mgrwt>
</event>
<event>
 6    1  0.1375310E-005  0.1002113E+04  0.7818608E-02  0.9781962E-01
         21   -1    0    0  501  502  0.00000000000E+00  0.00000000000E+00  0.12155957088E+03  0.12155957088E+03  0.00000000000E+00 0. -1.
          4   -1    0    0  502    0 -0.00000000000E+00 -0.00000000000E+00 -0.30870584863E+04  0.30870584863E+04  0.00000000000E+00 0.  1.
    9000010    2    1    2  501    0 -0.22623249179E+00 -0.19246012286E+03 -0.27055652605E+04  0.28851888281E+04  0.98345830878E+03 0.  0.
        -13    1    3    3    0    0  0.25357468707E+02 -0.44105010943E+02 -0.27318865705E+04  0.27323602432E+04  0.10566000000E+00 0.  1.
          4    1    3    3  501    0 -0.25583701199E+02 -0.14835511192E+03  0.26321310066E+02  0.15282858490E+03  0.00000000000E+00 0.  1.
         13    1    1    2    0    0  0.22623249179E+00  0.19246012286E+03 -0.25993365490E+03  0.32342922902E+03  0.10566000000E+00 0. -1.
<mgrwt>
<rscale>  1 0.66339619E+03</rscale>
<asrwt>0</asrwt>
<pdfrwt beam="1">  1       21 0.18701474E-01 0.10021134E+04</pdfrwt>
<pdfrwt beam="2">  1        4 0.47493203E+00 0.10021134E+04</pdfrwt>
<totfact> 0.21771574E+00</totfact>
</mgrwt>
</event>
<event>
 6    1  0.1375310E-005  0.1009471E+04  0.7818608E-02  0.9794296E-01
          4   -1    0    0  502    0 -0.00000000000E+00  0.00000000000E+00  0.77335375962E+03  0.77335375962E+03  0.00000000000E+00 0.  1.
         21   -1    0    0  501  502  0.00000000000E+00 -0.00000000000E+00 -0.52548151296E+03  0.52548151296E+03  0.00000000000E+00 0.  1.
    9000010    2    1    2  501    0  0.54164633292E+02 -0.17248522489E+03  0.22251294718E+02  0.10097162912E+04  0.99314999280E+03 0.  0.
        -13    1    3    3    0    0  0.20284483530E+03 -0.25039762919E+03 -0.42421846266E+03  0.53273475120E+03  0.10566000000E+00 0.  1.
          4    1    3    3  501    0 -0.14868020200E+03  0.77912404300E+02  0.44646975738E+03  0.47698153996E+03  0.00000000000E+00 0.  1.
         13    1    1    2    0    0 -0.54164633292E+02  0.17248522489E+03  0.22562095194E+03  0.28911898143E+03  0.10566000000E+00 0. -1.
<mgrwt>
<rscale>  1 0.65669533E+03</rscale>
<asrwt>0</asrwt>
<pdfrwt beam="2">  1       21 0.80843310E-01 0.10094711E+04</pdfrwt>
<pdfrwt beam="1">  1        4 0.11897750E+00 0.10094711E+04</pdfrwt>
<totfact> 0.27700789E+01</totfact>
</mgrwt>
</event>
<event>
 6    1  0.1375310E-005  0.1185213E+04  0.7818608E-02  0.9313602E-01
          4   -1    0    0  502    0 -0.00000000000E+00  0.00000000000E+00  0.11983816202E+04  0.11983816202E+04  0.00000000000E+00 0.  1.
         21   -1    0    0  501  502  0.00000000000E+00 -0.00000000000E+00 -0.65726646182E+03  0.65726646182E+03  0.00000000000E+00 0. -1.
    9000010    2    1    2  501    0 -0.12741420804E+03  0.57573373279E+03  0.35104913033E+03  0.12361088842E+04  0.10281176830E+04 0.  0.
        -13    1    3    3    0    0  0.14211498411E+03  0.69469315814E+03  0.53545463656E+03  0.88854202582E+03  0.10566000000E+00 0.  1.
          4    1    3    3  501    0 -0.26952919215E+03 -0.11895942535E+03 -0.18440550623E+03  0.34756685836E+03  0.00000000000E+00 0.  1.
         13    1    1    2    0    0  0.12741420804E+03 -0.57573373279E+03  0.19006602803E+03  0.61953919784E+03  0.10566000000E+00 0. -1.
<mgrwt>
<rscale>  1 0.99540187E+03</rscale>
<asrwt>0</asrwt>
<pdfrwt beam="2">  1       21 0.10111792E+00 0.11852129E+04</pdfrwt>
<pdfrwt beam="1">  1        4 0.18436640E+00 0.11852129E+04</pdfrwt>
<totfact> 0.48596388E+00</totfact>
</mgrwt>
</event>
<event>
 6    1  0.1375310E-005  0.1020942E+04  0.7818608E-02  0.9751043E-01
          4   -1    0    0  502    0 -0.00000000000E+00  0.00000000000E+00  0.54558826729E+03  0.54558826729E+03  0.00000000000E+00 0.  1.
         21   -1    0    0  501  502  0.00000000000E+00 -0.00000000000E+00 -0.69318246919E+03  0.69318246919E+03  0.00000000000E+00 0.  1.
    9000010    2    1    2  501    0  0.86555410686E+02 -0.18207671308E+03 -0.72059086997E+02  0.10234817834E+04  0.10008389883E+04 0.  0.
        -13    1    3    3    0    0  0.41928748406E+02  0.22096228228E+03 -0.42827637356E+03  0.48373857966E+03  0.10566000000E+00 0.  1.
          4    1    3    3  501    0  0.44626662281E+02 -0.40303899536E+03  0.35621728656E+03  0.53974320377E+03  0.00000000000E+00 0.  1.
         13    1    1    2    0    0 -0.86555410686E+02  0.18207671308E+03 -0.75535114900E+02  0.21528895306E+03  0.10566000000E+00 0. -1.
<mgrwt>
<rscale>  1 0.68057360E+03</rscale>
<asrwt>0</asrwt>
<pdfrwt beam="2">  1       21 0.10664346E+00 0.10209419E+04</pdfrwt>
<pdfrwt beam="1">  1        4 0.83936657E-01 0.10209419E+04</pdfrwt>
<totfact> 0.32675816E+01</totfact>
</mgrwt>
</event>
<event>
 6    1  0.1375310E-005  0.1037866E+04  0.7818608E-02  0.9656518E-01
          4   -1    0    0  502    0 -0.00000000000E+00  0.00000000000E+00  0.21252726454E+04  0.21252726454E+04  0.00000000000E+00 0.  1.
         21   -1    0    0  501  502  0.00000000000E+00 -0.00000000000E+00 -0.28485651179E+03  0.28485651179E+03  0.00000000000E+00 0.  1.
    9000010    2    1    2  501    0  0.24566289276E+02 -0.26226616356E+03  0.72996589859E+03  0.12688637285E+04  0.10038814199E+04 0.  0.
        -13    1    3    3    0    0  0.78067899941E+02  0.20676069521E+03 -0.15218998601E+03  0.26834005495E+03  0.10566000000E+00 0.  1.
          4    1    3    3  501    0 -0.53501610664E+02 -0.46902685876E+03  0.88215588460E+03  0.10005236735E+04  0.00000000000E+00 0.  1.
         13    1    1    2    0    0 -0.24566289276E+02  0.26226616356E+03  0.11104502351E+04  0.11412654287E+04  0.10566000000E+00 0. -1.
<mgrwt>
<rscale>  1 0.73665754E+03</rscale>
<asrwt>0</asrwt>
<pdfrwt beam="2">  1       21 0.43824080E-01 0.10378656E+04</pdfrwt>
<pdfrwt beam="1">  1        4 0.32696501E+00 0.10378656E+04</pdfrwt>
<totfact> 0.41853892E+00</totfact>
</mgrwt>
</event>
<event>
 6    1  0.1375310E-005  0.1078326E+04  0.7818608E-02  0.9507921E-01
          4   -1    0    0  502    0 -0.00000000000E+00  0.00000000000E+00  0.60918262572E+03  0.60918262572E+03  0.00000000000E+00 0.  1.
         21   -1    0    0  501  502  0.00000000000E+00 -0.00000000000E+00 -0.10816563358E+04  0.10816563358E+04  0.00000000000E+00 0.  1.
    9000010    2    1    2  501    0 -0.34053513331E+03  0.19309638691E+03 -0.65205318407E+03  0.12601427921E+04  0.10047567417E+04 0.  0.
        -13    1    3    3    0    0  0.24284100876E+03  0.37515236927E+03 -0.39760295109E+03  0.59816316636E+03  0.10566000000E+00 0.  1.
          4    1    3    3  501    0 -0.58337614208E+03 -0.18205598236E+03 -0.25445023297E+03  0.66197962576E+03  0.00000000000E+00 0.  1.
         13    1    1    2    0    0  0.34053513331E+03 -0.19309638691E+03  0.17957947403E+03  0.43069616937E+03  0.10566000000E+00 0. -1.
<mgrwt>
<rscale>  1 0.83702359E+03</rscale>
<asrwt>0</asrwt>
<pdfrwt beam="2">  1       21 0.16640867E+00 0.10783258E+04</pdfrwt>
<pdfrwt beam="1">  1        4 0.93720404E-01 0.10783258E+04</pdfrwt>
<totfact> 0.75701533E+00</totfact>
</mgrwt>
</event>
<event>
 6    1  0.1375310E-005  0.1048731E+04  0.7818608E-02  0.9518511E-01
         21   -1    0    0  501  502  0.00000000000E+00  0.00000000000E+00  0.29166518898E+03  0.29166518898E+03  0.00000000000E+00 0. -1.
          4   -1    0    0  502    0 -0.00000000000E+00 -0.00000000000E+00 -0.19146127700E+04  0.19146127700E+04  0.00000000000E+00 0.  1.
    9000010    2    1    2  501    0 -0.33814501034E+03 -0.23207089896E+03 -0.93321776241E+03  0.14038278459E+04  0.96521411025E+03 0.  0.
        -13    1    3    3    0    0 -0.66661660668E+03 -0.25609752646E+03 -0.57159801484E+03  0.91470648030E+03  0.10566000000E+00 0.  1.
          4    1    3    3  501    0  0.32847159635E+03  0.24026627503E+02 -0.36161974757E+03  0.48912136558E+03  0.00000000000E+00 0.  1.
         13    1    1    2    0    0  0.33814501034E+03  0.23207089896E+03 -0.68972981856E+03  0.80245011305E+03  0.10566000000E+00 0. -1.
<mgrwt>
<rscale>  1 0.82932751E+03</rscale>
<asrwt>0</asrwt>
<pdfrwt beam="1">  1       21 0.44871569E-01 0.10487312E+04</pdfrwt>
<pdfrwt beam="2">  1        4 0.29455580E+00 0.10487312E+04</pdfrwt>
<totfact> 0.63338227E+00</totfact>
</mgrwt>
</event>
<event>
 6    1  0.1375310E-005  0.1037202E+04  0.7818608E-02  0.1002095E+00
          4   -1    0    0  502    0 -0.00000000000E+00  0.00000000000E+00  0.55092179765E+03  0.55092179765E+03  0.00000000000E+00 0.  1.
         21   -1    0    0  501  502  0.00000000000E+00 -0.00000000000E+00 -0.72169633738E+03  0.72169633738E+03  0.00000000000E+00 0.  1.
    9000010    2    1    2  501    0 -0.60701240973E+02 -0.52834747485E+02 -0.33481361604E+03  0.10899025612E+04  0.10340750864E+04 0.  0.
        -13    1    3    3    0    0 -0.70875670070E+02 -0.33994716106E+03 -0.60367442604E+03  0.69642677773E+03  0.10566000000E+00 0.  1.
          4    1    3    3  501    0  0.10174429097E+02  0.28711241358E+03  0.26886080999E+03  0.39347578348E+03  0.00000000000E+00 0.  1.
         13    1    1    2    0    0  0.60701240973E+02  0.52834747485E+02  0.16403907631E+03  0.18271557383E+03  0.10566000000E+00 0. -1.
<mgrwt>
<rscale>  1 0.54740926E+03</rscale>
<asrwt>0</asrwt>
<pdfrwt beam="2">  1       21 0.11103021E+00 0.10372017E+04</pdfrwt>
<pdfrwt beam="1">  1        4 0.84757200E-01 0.10372017E+04</pdfrwt>
<totfact> 0.28805131E+01</totfact>
</mgrwt>
</event>
<event>
 6    1  0.1375310E-005  0.9704357E+03  0.7818608E-02  0.1021196E+00
          4   -1    0    0  502    0 -0.00000000000E+00  0.00000000000E+00  0.20714238548E+03  0.20714238548E+03  0.00000000000E+00 0.  1.
         21   -1    0    0  501  502  0.00000000000E+00 -0.00000000000E+00 -0.15809957779E+04  0.15809957779E+04  0.00000000000E+00 0.  1.
    9000010    2    1    2  501    0  0.35493016710E+02  0.41455655635E+02 -0.14177719361E+04  0.17180869303E+04  0.96889994938E+03 0.  0.
        -13    1    3    3    0    0 -0.26274532089E+03 -0.34832025987E+03 -0.41739843714E+03  0.60380756337E+03  0.10566000000E+00 0.  1.
          4    1    3    3  501    0  0.29823833760E+03  0.38977591550E+03 -0.10003734989E+04  0.11142793670E+04  0.00000000000E+00 0.  1.
         13    1    1    2    0    0 -0.35493016710E+02 -0.41455655635E+02  0.43918543599E+02  0.70051233074E+02  0.10566000000E+00 0. -1.
<mgrwt>
<rscale>  1 0.47257615E+03</rscale>
<asrwt>0</asrwt>
<pdfrwt beam="2">  1       21 0.24323012E+00 0.97043569E+03</pdfrwt>
<pdfrwt beam="1">  1        4 0.31868060E-01 0.97043569E+03</pdfrwt>
<totfact> 0.23243115E+01</totfact>
</mgrwt>
</event>
<event>
 6    1  0.1375310E-005  0.9853778E+03  0.7818608E-02  0.1028040E+00
         21   -1    0    0  501  502  0.00000000000E+00  0.00000000000E+00  0.84040292205E+03  0.84040292205E+03  0.00000000000E+00 0.  1.
          4   -1    0    0  502    0 -0.00000000000E+00 -0.00000000000E+00 -0.44995055033E+03  0.44995055033E+03  0.00000000000E+00 0.  1.
    9000010    2    1    2  501    0  0.23009382699E+01  0.42391826409E+02  0.54777844085E+03  0.11273999071E+04  0.98446278188E+03 0.  0.
        -13    1    3    3    0    0  0.45042336701E+03 -0.17800917974E+03  0.23695551976E+03  0.53918123774E+03  0.10566000000E+00 0.  1.
          4    1    3    3  501    0 -0.44812242874E+03  0.22040100615E+03  0.31082292109E+03  0.58821866931E+03  0.00000000000E+00 0.  1.
         13    1    1    2    0    0 -0.23009382699E+01 -0.42391826409E+02 -0.15732606912E+03  0.16295356533E+03  0.10566000000E+00 0. -1.
<mgrwt>
<rscale>  1 0.44893414E+03</rscale>
<asrwt>0</asrwt>
<pdfrwt beam="1">  1       21 0.12929276E+00 0.98537776E+03</pdfrwt>
<pdfrwt beam="2">  1        4 0.69223162E-01 0.98537776E+03</pdfrwt>
<totfact> 0.30931215E+01</totfact>
</mgrwt>
</event>
<event>
 6    1  0.1375310E-005  0.1165981E+04  0.7818608E-02  0.9277092E-01
          4   -1    0    0  502    0 -0.00000000000E+00  0.00000000000E+00  0.40767388386E+03  0.40767388386E+03  0.00000000000E+00 0.  1.
         21   -1    0    0  501  502  0.00000000000E+00 -0.00000000000E+00 -0.29951059809E+04  0.29951059809E+04  0.00000000000E+00 0. -1.
    9000010    2    1    2  501    0  0.68488897418E+03  0.17865585958E+03 -0.63863113654E+03  0.13294212325E+04  0.92656368468E+03 0.  0.
        -13    1    3    3    0    0  0.82251572053E+03  0.28016336125E+03 -0.24897066588E+03  0.90388606757E+03  0.10566000000E+00 0.  1.
          4    1    3    3  501    0 -0.13762674635E+03 -0.10150750167E+03 -0.38966047066E+03  0.42553516494E+03  0.00000000000E+00 0.  1.
         13    1    1    2    0    0 -0.68488897418E+03 -0.17865585958E+03 -0.19488009605E+04  0.20733586323E+04  0.10566000000E+00 0. -1.
<mgrwt>
<rscale>  1 0.10291942E+04</rscale>
<asrwt>0</asrwt>
<pdfrwt beam="2">  1       21 0.46078555E+00 0.11659807E+04</pdfrwt>
<pdfrwt beam="1">  1        4 0.62719057E-01 0.11659807E+04</pdfrwt>
<totfact> 0.21714765E-01</totfact>
</mgrwt>
</event>
<event>
 6    1  0.1375310E-005  0.1014736E+04  0.7818608E-02  0.9788311E-01
         21   -1    0    0  501  502  0.00000000000E+00  0.00000000000E+00  0.32575233028E+04  0.32575233028E+04  0.00000000000E+00 0.  1.
          4   -1    0    0  502    0 -0.00000000000E+00 -0.00000000000E+00 -0.10988585677E+03  0.10988585677E+03  0.00000000000E+00 0.  1.
    9000010    2    1    2  501    0  0.82278135792E+02 -0.16181319927E+03  0.26974307674E+04  0.28819822673E+04  0.99836658653E+03 0.  0.
        -13    1    3    3    0    0  0.41355553314E+03 -0.21242683689E+02  0.47311157281E+03  0.62874001152E+03  0.10566000000E+00 0.  1.
          4    1    3    3  501    0 -0.33127739735E+03 -0.14057051558E+03  0.22243191946E+04  0.22532422558E+04  0.00000000000E+00 0.  1.
         13    1    1    2    0    0 -0.82278135792E+02  0.16181319927E+03  0.45020667866E+03  0.48542689229E+03  0.10566000000E+00 0. -1.
<mgrwt>
<rscale>  1 0.65993628E+03</rscale>
<asrwt>0</asrwt>
<pdfrwt beam="1">  1       21 0.50115736E+00 0.10147359E+04</pdfrwt>
<pdfrwt beam="2">  1        4 0.16905519E-01 0.10147359E+04</pdfrwt>
<totfact> 0.15842616E+00</totfact>
</mgrwt>
</event>
<event>
 6    1  0.1375310E-005  0.1055861E+04  0.7818608E-02  0.9631024E-01
          4   -1    0    0  502    0 -0.00000000000E+00  0.00000000000E+00  0.64793602118E+03  0.64793602118E+03  0.00000000000E+00 0.  1.
         21   -1    0    0  501  502  0.00000000000E+00 -0.00000000000E+00 -0.68355192633E+03  0.68355192633E+03  0.00000000000E+00 0.  1.
    9000010    2    1    2  501    0  0.17361728927E+03 -0.21039708890E+03  0.38364213545E+01  0.10558679276E+04  0.10200159137E+04 0.  0.
        -13    1    3    3    0    0 -0.41663444264E+03 -0.81614331036E+02 -0.11566079190E+03  0.44002566718E+03  0.10566000000E+00 0.  1.
          4    1    3    3  501    0  0.59025173191E+03 -0.12878275786E+03  0.11949721325E+03  0.61584226042E+03  0.00000000000E+00 0.  1.
         13    1    1    2    0    0 -0.17361728927E+03  0.21039708890E+03 -0.39452326509E+02  0.27562001992E+03  0.10566000000E+00 0. -1.
<mgrwt>
<rscale>  1 0.75276419E+03</rscale>
<asrwt>0</asrwt>
<pdfrwt beam="2">  1       21 0.10516184E+00 0.10558610E+04</pdfrwt>
<pdfrwt beam="1">  1        4 0.99682465E-01 0.10558610E+04</pdfrwt>
<totfact> 0.22475931E+01</totfact>
</mgrwt>
</event>
<event>
 6    1  0.1375310E-005  0.1017683E+04  0.7818608E-02  0.9830619E-01
          4   -1    0    0  502    0 -0.00000000000E+00  0.00000000000E+00  0.10991290606E+04  0.10991290606E+04  0.00000000000E+00 0.  1.
         21   -1    0    0  501  502  0.00000000000E+00 -0.00000000000E+00 -0.35739816552E+03  0.35739816552E+03  0.00000000000E+00 0.  1.
    9000010    2    1    2  501    0 -0.15546404334E+03 -0.19280762136E+02  0.42439138958E+03  0.11026272551E+04  0.10055535767E+04 0.  0.
        -13    1    3    3    0    0 -0.45849282862E+03 -0.24543674985E+03  0.49500477726E+03  0.71797257102E+03  0.10566000000E+00 0.  1.
          4    1    3    3  501    0  0.30302878528E+03  0.22615598771E+03 -0.70613387674E+02  0.38465468411E+03  0.00000000000E+00 0.  1.
         13    1    1    2    0    0  0.15546404334E+03  0.19280762136E+02  0.31733950552E+03  0.35389997102E+03  0.10566000000E+00 0. -1.
<mgrwt>
<rscale>  1 0.63744917E+03</rscale>
<asrwt>0</asrwt>
<pdfrwt beam="2">  1       21 0.54984334E-01 0.10176831E+04</pdfrwt>
<pdfrwt beam="1">  1        4 0.16909678E+00 0.10176831E+04</pdfrwt>
<totfact> 0.26218229E+01</totfact>
</mgrwt>
</event>
<event>
 6    1  0.1375310E-005  0.1167960E+04  0.7818608E-02  0.9316332E-01
          4   -1    0    0  502    0 -0.00000000000E+00  0.00000000000E+00  0.13111901119E+04  0.13111901119E+04  0.00000000000E+00 0.  1.
         21   -1    0    0  501  502  0.00000000000E+00 -0.00000000000E+00 -0.60615045411E+03  0.60615045411E+03  0.00000000000E+00 0.  1.
    9000010    2    1    2  501    0  0.40387078529E+03 -0.45727064510E+03  0.53037180965E+03  0.12827407532E+04  0.99595257381E+03 0.  0.
        -13    1    3    3    0    0  0.13542936466E+03 -0.72420015296E+03  0.52405126732E+03  0.90412206936E+03  0.10566000000E+00 0.  1.
          4    1    3    3  501    0  0.26844142063E+03  0.26692950786E+03  0.63205423339E+01  0.37861868381E+03  0.00000000000E+00 0.  1.
         13    1    1    2    0    0 -0.40387078529E+03  0.45727064510E+03  0.17466784810E+03  0.63459981280E+03  0.10566000000E+00 0. -1.
<mgrwt>
<rscale>  1 0.99293115E+03</rscale>
<asrwt>0</asrwt>
<pdfrwt beam="2">  1       21 0.93253916E-01 0.11679596E+04</pdfrwt>
<pdfrwt beam="1">  1        4 0.20172156E+00 0.11679596E+04</pdfrwt>
<totfact> 0.45381213E+00</totfact>
</mgrwt>
</event>
<event>
 6    1  0.1375310E-005  0.1189437E+04  0.7818608E-02  0.9292222E-01
         21   -1    0    0  501  502  0.00000000000E+00  0.00000000000E+00  0.93081313421E+03  0.93081313421E+03  0.00000000000E+00 0.  1.
          4   -1    0    0  502    0 -0.00000000000E+00 -0.00000000000E+00 -0.89308781311E+03  0.89308781311E+03  0.00000000000E+00 0.  1.
    9000010    2    1    2  501    0 -0.40947463778E+03  0.47980054730E+03 -0.27552939207E+02  0.11897564002E+04  0.10084062094E+04 0.  0.
        -13    1    3    3    0    0  0.25593367723E+03  0.43702511548E+03  0.85021158019E+02  0.51353832104E+03  0.10566000000E+00 0.  1.
          4    1    3    3  501    0 -0.66540831502E+03  0.42775431822E+02 -0.11257409723E+03  0.67621807919E+03  0.00000000000E+00 0.  1.
         13    1    1    2    0    0  0.40947463778E+03 -0.47980054730E+03  0.65278260301E+02  0.63414454709E+03  0.10566000000E+00 0. -1.
<mgrwt>
<rscale>  1 0.10150209E+04</rscale>
<asrwt>0</asrwt>
<pdfrwt beam="1">  1       21 0.14320202E+00 0.11894373E+04</pdfrwt>
<pdfrwt beam="2">  1        4 0.13739813E+00 0.11894373E+04</pdfrwt>
<totfact> 0.44092256E+00</totfact>
</mgrwt>
</event>
<event>
 6    1  0.1375310E-005  0.1024599E+04  0.7818608E-02  0.9708651E-01
         21   -1    0    0  501  502  0.00000000000E+00  0.00000000000E+00  0.86663608319E+03  0.86663608319E+03  0.00000000000E+00 0.  1.
          4   -1    0    0  502    0 -0.00000000000E+00 -0.00000000000E+00 -0.47588656721E+03  0.47588656721E+03  0.00000000000E+00 0.  1.
    9000010    2    1    2  501    0  0.20670475515E+02  0.22878567831E+03  0.42690342794E+03  0.11099774469E+04  0.99851551849E+03 0.  0.
        -13    1    3    3    0    0  0.40191537673E+03  0.43408487838E+03  0.24375074407E+03  0.63982817075E+03  0.10566000000E+00 0.  1.
          4    1    3    3  501    0 -0.38124490121E+03 -0.20529920007E+03  0.18315268387E+03  0.47014927615E+03  0.00000000000E+00 0.  1.
         13    1    1    2    0    0 -0.20670475515E+02 -0.22878567831E+03 -0.36153911963E+02  0.23254520350E+03  0.10566000000E+00 0. -1.
<mgrwt>
<rscale>  1 0.70504047E+03</rscale>
<asrwt>0</asrwt>
<pdfrwt beam="1">  1       21 0.13332863E+00 0.10245991E+04</pdfrwt>
<pdfrwt beam="2">  1        4 0.73213318E-01 0.10245991E+04</pdfrwt>
<totfact> 0.25031743E+01</totfact>
</mgrwt>
</event>
<event>
 6    1  0.1375310E-005  0.1057483E+04  0.7818608E-02  0.9784724E-01
         21   -1    0    0  501  502  0.00000000000E+00  0.00000000000E+00  0.39668670977E+03  0.39668670977E+03  0.00000000000E+00 0.  1.
          4   -1    0    0  502    0 -0.00000000000E+00 -0.00000000000E+00 -0.98503434762E+03  0.98503434762E+03  0.00000000000E+00 0.  1.
    9000010    2    1    2  501    0  0.15991537973E+03 -0.27719709864E+02 -0.60542075207E+03  0.12185254282E+04  0.10449538847E+04 0.  0.
        -13    1    3    3    0    0  0.58061687464E+03 -0.18300158542E+03 -0.36207059093E+03  0.70830830813E+03  0.10566000000E+00 0.  1.
          4    1    3    3  501    0 -0.42070149491E+03  0.15528187556E+03 -0.24335016114E+03  0.51021712008E+03  0.00000000000E+00 0.  1.
         13    1    1    2    0    0 -0.15991537973E+03  0.27719709864E+02  0.17073114214E+02  0.16319562918E+03  0.10566000000E+00 0. -1.
<mgrwt>
<rscale>  1 0.66188836E+03</rscale>
<asrwt>0</asrwt>
<pdfrwt beam="1">  1       21 0.61028726E-01 0.10574828E+04</pdfrwt>
<pdfrwt beam="2">  1        4 0.15154374E+00 0.10574828E+04</pdfrwt>
<totfact> 0.28040936E+01</totfact>
</mgrwt>
</event>
<event>
 6    1  0.1375310E-005  0.9840967E+03  0.7818608E-02  0.9897194E-01
         21   -1    0    0  501  502  0.00000000000E+00  0.00000000000E+00  0.17712361016E+03  0.17712361016E+03  0.00000000000E+00 0.  1.
          4   -1    0    0  502    0 -0.00000000000E+00 -0.00000000000E+00 -0.20017362945E+04  0.20017362945E+04  0.00000000000E+00 0.  1.
    9000010    2    1    2  501    0 -0.93851004135E+02  0.10337769657E+03 -0.12684124525E+04  0.16054022618E+04  0.97414132103E+03 0.  0.
        -13    1    3    3    0    0 -0.25912205482E+03 -0.99582546034E+02 -0.13111344484E+04  0.13401994164E+04  0.10566000000E+00 0.  1.
          4    1    3    3  501    0  0.16527105069E+03  0.20296024260E+03  0.42721995875E+02  0.26520284539E+03  0.00000000000E+00 0.  1.
         13    1    1    2    0    0  0.93851004135E+02 -0.10337769657E+03 -0.55620023183E+03  0.57345764288E+03  0.10566000000E+00 0. -1.
<mgrwt>
<rscale>  1 0.60397456E+03</rscale>
<asrwt>0</asrwt>
<pdfrwt beam="1">  1       21 0.27249786E-01 0.98409668E+03</pdfrwt>
<pdfrwt beam="2">  1        4 0.30795943E+00 0.98409668E+03</pdfrwt>
<totfact> 0.14727006E+01</totfact>
</mgrwt>
</event>
<event>
 6    1  0.1375310E-005  0.1009280E+04  0.7818608E-02  0.9938003E-01
          4   -1    0    0  502    0 -0.00000000000E+00  0.00000000000E+00  0.46835900667E+03  0.46835900667E+03  0.00000000000E+00 0.  1.
         21   -1    0    0  501  502  0.00000000000E+00 -0.00000000000E+00 -0.99700341238E+03  0.99700341238E+03  0.00000000000E+00 0.  1.
    9000010    2    1    2  501    0 -0.93158887995E+02  0.64943967837E+02 -0.72212848436E+03  0.12410135897E+04  0.10028703229E+04 0.  0.
        -13    1    3    3    0    0 -0.21880996807E+03  0.50426911074E+03 -0.34947014687E+03  0.65137894723E+03  0.10566000000E+00 0.  1.
          4    1    3    3  501    0  0.12565108007E+03 -0.43932514290E+03 -0.37265833749E+03  0.58963464248E+03  0.00000000000E+00 0.  1.
         13    1    1    2    0    0  0.93158887995E+02 -0.64943967837E+02  0.19348407865E+03  0.22434882934E+03  0.10566000000E+00 0. -1.
<mgrwt>
<rscale>  1 0.58454342E+03</rscale>
<asrwt>0</asrwt>
<pdfrwt beam="2">  1       21 0.15338514E+00 0.10092795E+04</pdfrwt>
<pdfrwt beam="1">  1        4 0.72055232E-01 0.10092795E+04</pdfrwt>
<totfact> 0.17694831E+01</totfact>
</mgrwt>
</event>
<event>
 6    1  0.1375310E-005  0.1018917E+04  0.7818608E-02  0.9764456E-01
          4   -1    0    0  502    0 -0.00000000000E+00  0.00000000000E+00  0.78319744605E+03  0.78319744605E+03  0.00000000000E+00 0.  1.
         21   -1    0    0  501  502  0.00000000000E+00 -0.00000000000E+00 -0.49591697480E+03  0.49591697480E+03  0.00000000000E+00 0.  1.
    9000010    2    1    2  501    0 -0.17169720039E+03 -0.90293267779E+02  0.12569459370E+03  0.10266410365E+04  0.10002799029E+04 0.  0.
        -13    1    3    3    0    0 -0.45499841700E+03  0.12306688929E+03  0.36725543894E+03  0.59753291734E+03  0.10566000000E+00 0.  1.
          4    1    3    3  501    0  0.28330121660E+03 -0.21336015707E+03 -0.24156084524E+03  0.42910811913E+03  0.00000000000E+00 0.  1.
         13    1    1    2    0    0  0.17169720039E+03  0.90293267779E+02  0.16158587755E+03  0.25247338437E+03  0.10566000000E+00 0. -1.
<mgrwt>
<rscale>  1 0.67305425E+03</rscale>
<asrwt>0</asrwt>
<pdfrwt beam="2">  1       21 0.76294919E-01 0.10189174E+04</pdfrwt>
<pdfrwt beam="1">  1        4 0.12049192E+00 0.10189174E+04</pdfrwt>
<totfact> 0.30705843E+01</totfact>
</mgrwt>
</event>
<event>
 6    1  0.1375310E-005  0.1020961E+04  0.7818608E-02  0.9922169E-01
         21   -1    0    0  501  502  0.00000000000E+00  0.00000000000E+00  0.16234183839E+04  0.16234183839E+04  0.00000000000E+00 0.  1.
          4   -1    0    0  502    0 -0.00000000000E+00 -0.00000000000E+00 -0.21137623503E+03  0.21137623503E+03  0.00000000000E+00 0.  1.
    9000010    2    1    2  501    0 -0.87749229526E+02  0.74955665893E+02  0.13769692639E+04  0.17141778806E+04  0.10144176524E+04 0.  0.
        -13    1    3    3    0    0 -0.24609641146E+03  0.44703731836E+03  0.11311992765E+04  0.12409744647E+04  0.10566000000E+00 0.  1.
          4    1    3    3  501    0  0.15834718194E+03 -0.37208165247E+03  0.24576998745E+03  0.47320341594E+03  0.00000000000E+00 0.  1.
         13    1    1    2    0    0  0.87749229526E+02 -0.74955665893E+02  0.35072884921E+02  0.12061673828E+03  0.10566000000E+00 0. -1.
<mgrwt>
<rscale>  1 0.59198805E+03</rscale>
<asrwt>0</asrwt>
<pdfrwt beam="1">  1       21 0.24975667E+00 0.10209610E+04</pdfrwt>
<pdfrwt beam="2">  1        4 0.32519422E-01 0.10209610E+04</pdfrwt>
<totfact> 0.20148303E+01</totfact>
</mgrwt>
</event>
<event>
 6    1  0.1375310E-005  0.9912424E+03  0.7818608E-02  0.9880790E-01
         21   -1    0    0  501  502  0.00000000000E+00  0.00000000000E+00  0.16058355951E+03  0.16058355951E+03  0.00000000000E+00 0.  1.
          4   -1    0    0  502    0 -0.00000000000E+00 -0.00000000000E+00 -0.21839348969E+04  0.21839348969E+04  0.00000000000E+00 0.  1.
    9000010    2    1    2  501    0 -0.12347756723E+03 -0.74181325153E+02 -0.14718468034E+04  0.17745124557E+04  0.98072007441E+03 0.  0.
        -13    1    3    3    0    0 -0.52123346106E+03 -0.18909414367E+03 -0.10248813341E+04  0.11652564852E+04  0.10566000000E+00 0.  1.
          4    1    3    3  501    0  0.39775589383E+03  0.11491281851E+03 -0.44696546927E+03  0.60925597055E+03  0.00000000000E+00 0.  1.
         13    1    1    2    0    0  0.12347756723E+03  0.74181325153E+02 -0.55150453405E+03  0.57000600071E+03  0.10566000000E+00 0. -1.
<mgrwt>
<rscale>  1 0.61201361E+03</rscale>
<asrwt>0</asrwt>
<pdfrwt beam="1">  1       21 0.24705165E-01 0.99124237E+03</pdfrwt>
<pdfrwt beam="2">  1        4 0.33598996E+00 0.99124237E+03</pdfrwt>
<totfact> 0.11909885E+01</totfact>
</mgrwt>
</event>
<event>
 6    1  0.1375310E-005  0.1007042E+04  0.7818608E-02  0.9772722E-01
         21   -1    0    0  501  502  0.00000000000E+00  0.00000000000E+00  0.20456350486E+03  0.20456350486E+03  0.00000000000E+00 0.  1.
          4   -1    0    0  502    0 -0.00000000000E+00 -0.00000000000E+00 -0.18367892976E+04  0.18367892976E+04  0.00000000000E+00 0.  1.
    9000010    2    1    2  501    0  0.80266410731E+02 -0.17828348998E+03 -0.11972998113E+04  0.15645002886E+04  0.98787985876E+03 0.  0.
        -13    1    3    3    0    0 -0.15438836083E+03 -0.13795622198E+03  0.11085509779E+03  0.23485431445E+03  0.10566000000E+00 0.  1.
          4    1    3    3  501    0  0.23465477157E+03 -0.40327267996E+02 -0.13081549091E+04  0.13296459741E+04  0.00000000000E+00 0.  1.
         13    1    1    2    0    0 -0.80266410731E+02  0.17828348998E+03 -0.43492598149E+03  0.47685251392E+03  0.10566000000E+00 0. -1.
<mgrwt>
<rscale>  1 0.66847180E+03</rscale>
<asrwt>0</asrwt>
<pdfrwt beam="1">  1       21 0.31471310E-01 0.10070424E+04</pdfrwt>
<pdfrwt beam="2">  1        4 0.28258296E+00 0.10070424E+04</pdfrwt>
<totfact> 0.15771864E+01</totfact>
</mgrwt>
</event>
<event>
 6    1  0.1375310E-005  0.1035726E+04  0.7818608E-02  0.9617166E-01
         21   -1    0    0  501  502  0.00000000000E+00  0.00000000000E+00  0.16099524807E+04  0.16099524807E+04  0.00000000000E+00 0.  1.
          4   -1    0    0  502    0 -0.00000000000E+00 -0.00000000000E+00 -0.30295734517E+03  0.30295734517E+03  0.00000000000E+00 0.  1.
    9000010    2    1    2  501    0  0.26219369236E+03  0.15181964431E+03  0.74971152595E+03  0.12785914757E+04  0.99042114924E+03 0.  0.
        -13    1    3    3    0    0 -0.16648671861E+03  0.46053699964E+03  0.24338209510E+03  0.54685190947E+03  0.10566000000E+00 0.  1.
          4    1    3    3  501    0  0.42868041097E+03 -0.30871735534E+03  0.50632943085E+03  0.73173956622E+03  0.00000000000E+00 0.  1.
         13    1    1    2    0    0 -0.26219369236E+03 -0.15181964431E+03  0.55728360962E+03  0.63431835022E+03  0.10566000000E+00 0. -1.
<mgrwt>
<rscale>  1 0.76170360E+03</rscale>
<asrwt>0</asrwt>
<pdfrwt beam="1">  1       21 0.24768499E+00 0.10357262E+04</pdfrwt>
<pdfrwt beam="2">  1        4 0.46608823E-01 0.10357262E+04</pdfrwt>
<totfact> 0.99735092E+00</totfact>
</mgrwt>
</event>
<event>
 6    1  0.1375310E-005  0.1033535E+04  0.7818608E-02  0.9775396E-01
         21   -1    0    0  501  502  0.00000000000E+00  0.00000000000E+00  0.10064001945E+04  0.10064001945E+04  0.00000000000E+00 0.  1.
          4   -1    0    0  502    0 -0.00000000000E+00 -0.00000000000E+00 -0.49656025293E+03  0.49656025293E+03  0.00000000000E+00 0.  1.
    9000010    2    1    2  501    0  0.32361291556E+02 -0.17633107247E+03  0.69480535477E+03  0.12453714036E+04  0.10178681405E+04 0.  0.
        -13    1    3    3    0    0  0.15494321389E+03 -0.45956072588E+03 -0.14286509164E+00  0.48497782617E+03  0.10566000000E+00 0.  1.
          4    1    3    3  501    0 -0.12258192233E+03  0.28322965341E+03  0.69494821986E+03  0.76039357739E+03  0.00000000000E+00 0.  1.
         13    1    1    2    0    0 -0.32361291556E+02  0.17633107247E+03 -0.18496541317E+03  0.25758904391E+03  0.10566000000E+00 0. -1.
<mgrwt>
<rscale>  1 0.66699811E+03</rscale>
<asrwt>0</asrwt>
<pdfrwt beam="1">  1       21 0.15483080E+00 0.10335354E+04</pdfrwt>
<pdfrwt beam="2">  1        4 0.76393885E-01 0.10335354E+04</pdfrwt>
<totfact> 0.15055609E+01</totfact>
</mgrwt>
</event>
<event>
 6    1  0.1375310E-005  0.1012225E+04  0.7818608E-02  0.9869330E-01
         21   -1    0    0  501  502  0.00000000000E+00  0.00000000000E+00  0.99678512162E+03  0.99678512162E+03  0.00000000000E+00 0.  1.
          4   -1    0    0  502    0 -0.00000000000E+00 -0.00000000000E+00 -0.34549193955E+03  0.34549193955E+03  0.00000000000E+00 0.  1.
    9000010    2    1    2  501    0 -0.11536841969E+03  0.79980439184E+02  0.64796676437E+03  0.12018569090E+04  0.10024431949E+04 0.  0.
        -13    1    3    3    0    0 -0.23682656587E+03 -0.32474725122E+03 -0.29932399311E+02  0.40304287510E+03  0.10566000000E+00 0.  1.
          4    1    3    3  501    0  0.12145814618E+03  0.40472769040E+03  0.67789916368E+03  0.79881403391E+03  0.00000000000E+00 0.  1.
         13    1    1    2    0    0  0.11536841969E+03 -0.79980439184E+02  0.33264177059E+01  0.14042015216E+03  0.10566000000E+00 0. -1.
<mgrwt>
<rscale>  1 0.61770999E+03</rscale>
<asrwt>0</asrwt>
<pdfrwt beam="1">  1       21 0.15335156E+00 0.10122248E+04</pdfrwt>
<pdfrwt beam="2">  1        4 0.53152606E-01 0.10122248E+04</pdfrwt>
<totfact> 0.34472987E+01</totfact>
</mgrwt>
</event>
<event>
 6    1  0.1375310E-005  0.1025697E+04  0.7818608E-02  0.1005801E+00
         21   -1    0    0  501  502  0.00000000000E+00  0.00000000000E+00  0.99096561807E+03  0.99096561807E+03  0.00000000000E+00 0.  1.
          4   -1    0    0  502    0 -0.00000000000E+00 -0.00000000000E+00 -0.65177673214E+03  0.65177673214E+03  0.00000000000E+00 0.  1.
    9000010    2    1    2  501    0  0.71671503788E+02 -0.18855779103E+02  0.72103368429E+03  0.12537721636E+04  0.10230164806E+04 0.  0.
        -13    1    3    3    0    0 -0.28004144081E+03 -0.94171720787E+02 -0.13530567593E+03  0.32496024167E+03  0.10566000000E+00 0.  1.
          4    1    3    3  501    0  0.35171294460E+03  0.75315941684E+02  0.85633936022E+03  0.92881192193E+03  0.00000000000E+00 0.  1.
         13    1    1    2    0    0 -0.71671503788E+02  0.18855779103E+02 -0.38184479837E+03  0.38897018660E+03  0.10566000000E+00 0. -1.
<mgrwt>
<rscale>  1 0.53178277E+03</rscale>
<asrwt>0</asrwt>
<pdfrwt beam="1">  1       21 0.15245625E+00 0.10256974E+04</pdfrwt>
<pdfrwt beam="2">  1        4 0.10027334E+00 0.10256974E+04</pdfrwt>
<totfact> 0.83242355E+00</totfact>
</mgrwt>
</event>
<event>
 6    1  0.1375310E-005  0.1018824E+04  0.7818608E-02  0.9724952E-01
         21   -1    0    0  501  502  0.00000000000E+00  0.00000000000E+00  0.69590375486E+03  0.69590375486E+03  0.00000000000E+00 0.  1.
          4   -1    0    0  502    0 -0.00000000000E+00 -0.00000000000E+00 -0.68157356268E+03  0.68157356268E+03  0.00000000000E+00 0.  1.
    9000010    2    1    2  501    0 -0.10319095603E+03  0.19572251060E+03  0.25531162790E+03  0.10503263767E+04  0.99450781581E+03 0.  0.
        -13    1    3    3    0    0 -0.87919901224E+02 -0.93829279529E+02  0.59210900415E+03  0.60590999883E+03  0.10566000000E+00 0.  1.
          4    1    3    3  501    0 -0.15271054804E+02  0.28955179013E+03 -0.33679737625E+03  0.44441637788E+03  0.00000000000E+00 0.  1.
         13    1    1    2    0    0  0.10319095603E+03 -0.19572251060E+03 -0.24098143572E+03  0.32715094083E+03  0.10566000000E+00 0. -1.
<mgrwt>
<rscale>  1 0.69550400E+03</rscale>
<asrwt>0</asrwt>
<pdfrwt beam="1">  1       21 0.10706212E+00 0.10188236E+04</pdfrwt>
<pdfrwt beam="2">  1        4 0.10485747E+00 0.10188236E+04</pdfrwt>
<totfact> 0.19065871E+01</totfact>
</mgrwt>
</event>
<event>
 6    1  0.1375310E-005  0.1021587E+04  0.7818608E-02  0.9699797E-01
         21   -1    0    0  501  502  0.00000000000E+00  0.00000000000E+00  0.15802902773E+04  0.15802902773E+04  0.00000000000E+00 0.  1.
          4   -1    0    0  502    0 -0.00000000000E+00 -0.00000000000E+00 -0.26700151104E+03  0.26700151104E+03  0.00000000000E+00 0.  1.
    9000010    2    1    2  501    0 -0.55725752258E+02 -0.23213943455E+03  0.12193512762E+04  0.15907409362E+04  0.99330011309E+03 0.  0.
        -13    1    3    3    0    0 -0.35202588805E+03  0.24108406420E+03  0.74311256509E+03  0.85688975220E+03  0.10566000000E+00 0.  1.
          4    1    3    3  501    0  0.29630013579E+03 -0.47322349875E+03  0.47623871113E+03  0.73385118397E+03  0.00000000000E+00 0.  1.
         13    1    1    2    0    0  0.55725752258E+02  0.23213943455E+03  0.93937489995E+02  0.25655085213E+03  0.10566000000E+00 0. -1.
<mgrwt>
<rscale>  1 0.71028905E+03</rscale>
<asrwt>0</asrwt>
<pdfrwt beam="1">  1       21 0.24312158E+00 0.10215866E+04</pdfrwt>
<pdfrwt beam="2">  1        4 0.41077156E-01 0.10215866E+04</pdfrwt>
<totfact> 0.13878693E+01</totfact>
</mgrwt>
</event>
<event>
 6    1  0.1375310E-005  0.1015039E+04  0.7818608E-02  0.9663011E-01
         21   -1    0    0  501  502  0.00000000000E+00  0.00000000000E+00  0.43741520854E+03  0.43741520854E+03  0.00000000000E+00 0.  1.
          4   -1    0    0  502    0 -0.00000000000E+00 -0.00000000000E+00 -0.13861327751E+04  0.13861327751E+04  0.00000000000E+00 0.  1.
    9000010    2    1    2  501    0  0.21337947340E+03 -0.17422507095E+03 -0.21190284958E+03  0.10369215708E+04  0.97694337163E+03 0.  0.
        -13    1    3    3    0    0  0.35489061489E+03 -0.16574001443E+03  0.30784776731E+03  0.49818406229E+03  0.10566000000E+00 0.  1.
          4    1    3    3  501    0 -0.14151114149E+03 -0.84850565216E+01 -0.51975061689E+03  0.53873750854E+03  0.00000000000E+00 0.  1.
         13    1    1    2    0    0 -0.21337947340E+03  0.17422507095E+03 -0.73681471697E+03  0.78662641280E+03  0.10566000000E+00 0. -1.
<mgrwt>
<rscale>  1 0.73262472E+03</rscale>
<asrwt>0</asrwt>
<pdfrwt beam="1">  1       21 0.67294648E-01 0.10150387E+04</pdfrwt>
<pdfrwt beam="2">  1        4 0.21325119E+00 0.10150387E+04</pdfrwt>
<totfact> 0.83728334E+00</totfact>
</mgrwt>
</event>
<event>
 6    1  0.1375310E-005  0.1010312E+04  0.7818608E-02  0.9750015E-01
         21   -1    0    0  501  502  0.00000000000E+00  0.00000000000E+00  0.22122253288E+03  0.22122253288E+03  0.00000000000E+00 0. -1.
          4   -1    0    0  502    0 -0.00000000000E+00 -0.00000000000E+00 -0.16828117232E+04  0.16828117232E+04  0.00000000000E+00 0.  1.
    9000010    2    1    2  501    0  0.15113944899E+03  0.14398335587E+03 -0.12425922342E+04  0.16014883624E+04  0.98851159561E+03 0.  0.
        -13    1    3    3    0    0 -0.22880044136E+03 -0.23516252641E+03 -0.91645896992E+03  0.97342082909E+03  0.10566000000E+00 0.  1.
          4    1    3    3  501    0  0.37993989036E+03  0.37914588229E+03 -0.32613326424E+03  0.62806753330E+03  0.00000000000E+00 0.  1.
         13    1    1    2    0    0 -0.15113944899E+03 -0.14398335587E+03 -0.21899695611E+03  0.30254589364E+03  0.10566000000E+00 0. -1.
<mgrwt>
<rscale>  1 0.68115417E+03</rscale>
<asrwt>0</asrwt>
<pdfrwt beam="1">  1       21 0.34034234E-01 0.10103116E+04</pdfrwt>
<pdfrwt beam="2">  1        4 0.25889412E+00 0.10103116E+04</pdfrwt>
<totfact> 0.18801046E+01</totfact>
</mgrwt>
</event>
<event>
 6    1  0.1375310E-005  0.1051517E+04  0.7818608E-02  0.9561979E-01
         21   -1    0    0  501  502  0.00000000000E+00  0.00000000000E+00  0.53310021871E+03  0.53310021871E+03  0.00000000000E+00 0.  1.
          4   -1    0    0  502    0 -0.00000000000E+00 -0.00000000000E+00 -0.98033684199E+03  0.98033684199E+03  0.00000000000E+00 0.  1.
    9000010    2    1    2  501    0  0.29941670538E+03  0.18108993935E+03 -0.16606771482E+03  0.10645496630E+04  0.99158639029E+03 0.  0.
        -13    1    3    3    0    0 -0.27176323525E+03 -0.22309996564E+03 -0.64897214439E+02  0.35754791330E+03  0.10566000000E+00 0.  1.
          4    1    3    3  501    0  0.57117994063E+03  0.40418990499E+03 -0.10117050038E+03  0.70700174966E+03  0.00000000000E+00 0.  1.
         13    1    1    2    0    0 -0.29941670538E+03 -0.18108993935E+03 -0.28116890846E+03  0.44888739773E+03  0.10566000000E+00 0. -1.
<mgrwt>
<rscale>  1 0.79864598E+03</rscale>
<asrwt>0</asrwt>
<pdfrwt beam="1">  1       21 0.82015419E-01 0.10515168E+04</pdfrwt>
<pdfrwt beam="2">  1        4 0.15082105E+00 0.10515168E+04</pdfrwt>
<totfact> 0.14401126E+01</totfact>
</mgrwt>
</event>
<event>
 6    1  0.1375310E-005  0.1126753E+04  0.7818608E-02  0.9415921E-01
         21   -1    0    0  501  502  0.00000000000E+00  0.00000000000E+00  0.19601070798E+04  0.19601070798E+04  0.00000000000E+00 0.  1.
          4   -1    0    0  502    0 -0.00000000000E+00 -0.00000000000E+00 -0.44014261522E+03  0.44014261522E+03  0.00000000000E+00 0.  1.
    9000010    2    1    2  501    0 -0.40728653521E+03  0.24383230503E+03  0.15594467837E+04  0.19239143305E+04  0.10218784494E+04 0.  0.
        -13    1    3    3    0    0 -0.33975647949E+03 -0.27982269837E+03  0.23687301124E+03  0.49984401817E+03  0.10566000000E+00 0.  1.
          4    1    3    3  501    0 -0.67530055722E+02  0.52365500341E+03  0.13225737724E+04  0.14240703124E+04  0.00000000000E+00 0.  1.
         13    1    1    2    0    0  0.40728653521E+03 -0.24383230503E+03 -0.39482319134E+02  0.47633536446E+03  0.10566000000E+00 0. -1.
<mgrwt>
<rscale>  1 0.90776924E+03</rscale>
<asrwt>0</asrwt>
<pdfrwt beam="1">  1       21 0.30155493E+00 0.11267529E+04</pdfrwt>
<pdfrwt beam="2">  1        4 0.67714250E-01 0.11267529E+04</pdfrwt>
<totfact> 0.20156048E+00</totfact>
</mgrwt>
</event>
<event>
 6    1  0.1375310E-005  0.1410849E+04  0.7818608E-02  0.9023639E-01
         21   -1    0    0  501  502  0.00000000000E+00  0.00000000000E+00  0.18993939220E+04  0.18993939220E+04  0.00000000000E+00 0. -1.
          4   -1    0    0  502    0 -0.00000000000E+00 -0.00000000000E+00 -0.96060448513E+03  0.96060448513E+03  0.00000000000E+00 0.  1.
    9000010    2    1    2  501    0  0.77935411090E+03  0.68968045899E+03 -0.67355338149E+02  0.14124559086E+04  0.95259801929E+03 0.  0.
        -13    1    3    3    0    0  0.51824205147E+03  0.88556525654E+03  0.12488538036E+03  0.10336329217E+04  0.10566000000E+00 0.  1.
          4    1    3    3  501    0  0.26111205943E+03 -0.19588479755E+03 -0.19224071851E+03  0.37882298682E+03  0.00000000000E+00 0.  1.
         13    1    1    2    0    0 -0.77935411090E+03 -0.68968045899E+03  0.10061447750E+04  0.14475424986E+04  0.10566000000E+00 0. -1.
<mgrwt>
<rscale>  1 0.13074998E+04</rscale>
<asrwt>0</asrwt>
<pdfrwt beam="1">  1       21 0.29221445E+00 0.14108490E+04</pdfrwt>
<pdfrwt beam="2">  1        4 0.14778531E+00 0.14108490E+04</pdfrwt>
<totfact> 0.33021679E-01</totfact>
</mgrwt>
</event>
<event>
 6    1  0.1375310E-005  0.1118194E+04  0.7818608E-02  0.9388205E-01
         21   -1    0    0  501  502  0.00000000000E+00  0.00000000000E+00  0.17448859816E+04  0.17448859816E+04  0.00000000000E+00 0.  1.
          4   -1    0    0  502    0 -0.00000000000E+00 -0.00000000000E+00 -0.64921582181E+03  0.64921582181E+03  0.00000000000E+00 0.  1.
    9000010    2    1    2  501    0  0.16323738406E+02  0.53599884187E+03  0.13887658719E+04  0.17829828865E+04  0.98122174033E+03 0.  0.
        -13    1    3    3    0    0 -0.81887834512E+02 -0.20376010759E+03  0.80818029391E+03  0.83748384911E+03  0.10566000000E+00 0.  1.
          4    1    3    3  501    0  0.98211572919E+02  0.73975894946E+03  0.58058557803E+03  0.94549903743E+03  0.00000000000E+00 0.  1.
         13    1    1    2    0    0 -0.16323738406E+02 -0.53599884187E+03 -0.29309571214E+03  0.61111891688E+03  0.10566000000E+00 0. -1.
<mgrwt>
<rscale>  1 0.93052725E+03</rscale>
<asrwt>0</asrwt>
<pdfrwt beam="1">  1       21 0.26844400E+00 0.11181938E+04</pdfrwt>
<pdfrwt beam="2">  1        4 0.99879358E-01 0.11181938E+04</pdfrwt>
<totfact> 0.13221568E+00</totfact>
</mgrwt>
</event>
<event>
 6    1  0.1375310E-005  0.1077991E+04  0.7818608E-02  0.9557305E-01
         21   -1    0    0  501  502  0.00000000000E+00  0.00000000000E+00  0.59393922601E+03  0.59393922601E+03  0.00000000000E+00 0.  1.
          4   -1    0    0  502    0 -0.00000000000E+00 -0.00000000000E+00 -0.83592841193E+03  0.83592841193E+03  0.00000000000E+00 0.  1.
    9000010    2    1    2  501    0 -0.75458656469E+02 -0.32131117063E+03 -0.16018191380E+03  0.10898274666E+04  0.10262216058E+04 0.  0.
        -13    1    3    3    0    0 -0.38027817081E+03 -0.44223997649E+03 -0.37901453741E+03  0.69558587876E+03  0.10566000000E+00 0.  1.
          4    1    3    3  501    0  0.30481951434E+03  0.12092880586E+03  0.21883262361E+03  0.39424158782E+03  0.00000000000E+00 0.  1.
         13    1    1    2    0    0  0.75458656469E+02  0.32131117063E+03 -0.81807272114E+02  0.34004017136E+03  0.10566000000E+00 0. -1.
<mgrwt>
<rscale>  1 0.80187629E+03</rscale>
<asrwt>0</asrwt>
<pdfrwt beam="1">  1       21 0.91375266E-01 0.10779915E+04</pdfrwt>
<pdfrwt beam="2">  1        4 0.12860437E+00 0.10779915E+04</pdfrwt>
<totfact> 0.16849712E+01</totfact>
</mgrwt>
</event>
<event>
 6    1  0.1375310E-005  0.1122335E+04  0.7818608E-02  0.9838169E-01
          4   -1    0    0  502    0 -0.00000000000E+00  0.00000000000E+00  0.11640980962E+04  0.11640980962E+04  0.00000000000E+00 0.  1.
         21   -1    0    0  501  502  0.00000000000E+00 -0.00000000000E+00 -0.36356075107E+03  0.36356075107E+03  0.00000000000E+00 0.  1.
    9000010    2    1    2  501    0 -0.73497949033E+02 -0.87081054123E+02  0.84548511728E+03  0.14051624314E+04  0.11165354077E+04 0.  0.
        -13    1    3    3    0    0 -0.44449835278E+03  0.28732658932E+03  0.66084206010E+03  0.84666852671E+03  0.10566000000E+00 0.  1.
          4    1    3    3  501    0  0.37100040375E+03 -0.37440764345E+03  0.18464305719E+03  0.55849390473E+03  0.00000000000E+00 0.  1.
         13    1    1    2    0    0  0.73497949033E+02  0.87081054123E+02 -0.44947772178E+02  0.12249641581E+03  0.10566000000E+00 0. -1.
<mgrwt>
<rscale>  1 0.63353781E+03</rscale>
<asrwt>0</asrwt>
<pdfrwt beam="2">  1       21 0.55932424E-01 0.11223352E+04</pdfrwt>
<pdfrwt beam="1">  1        4 0.17909201E+00 0.11223352E+04</pdfrwt>
<totfact> 0.21233852E+01</totfact>
</mgrwt>
</event>
<event>
 6    1  0.1375310E-005  0.1044336E+04  0.7818608E-02  0.9582290E-01
         21   -1    0    0  501  502  0.00000000000E+00  0.00000000000E+00  0.12715830372E+04  0.12715830372E+04  0.00000000000E+00 0.  1.
          4   -1    0    0  502    0 -0.00000000000E+00 -0.00000000000E+00 -0.55469849000E+03  0.55469849000E+03  0.00000000000E+00 0.  1.
    9000010    2    1    2  501    0 -0.13074424534E+03 -0.30630989337E+03  0.95636294171E+03  0.14160746024E+04  0.98980674627E+03 0.  0.
        -13    1    3    3    0    0 -0.14707290873E+03 -0.50842414721E+03  0.10331560203E+03  0.53925845263E+03  0.10566000000E+00 0.  1.
          4    1    3    3  501    0  0.16328663385E+02  0.20211425384E+03  0.85304733968E+03  0.87681614982E+03  0.00000000000E+00 0.  1.
         13    1    1    2    0    0  0.13074424534E+03  0.30630989337E+03 -0.23947839455E+03  0.41020692471E+03  0.10566000000E+00 0. -1.
<mgrwt>
<rscale>  1 0.78479506E+03</rscale>
<asrwt>0</asrwt>
<pdfrwt beam="1">  1       21 0.19562816E+00 0.10443358E+04</pdfrwt>
<pdfrwt beam="2">  1        4 0.85338229E-01 0.10443358E+04</pdfrwt>
<totfact> 0.58167619E+00</totfact>
</mgrwt>
</event>
<event>
 6    1  0.1375310E-005  0.1038837E+04  0.7818608E-02  0.9662264E-01
          4   -1    0    0  502    0 -0.00000000000E+00  0.00000000000E+00  0.53677987359E+03  0.53677987359E+03  0.00000000000E+00 0.  1.
         21   -1    0    0  501  502  0.00000000000E+00 -0.00000000000E+00 -0.78322025964E+03  0.78322025964E+03  0.00000000000E+00 0.  1.
    9000010    2    1    2  501    0  0.14173470280E+03  0.21512666993E+03 -0.20938005728E+03  0.10597277966E+04  0.10063869953E+04 0.  0.
        -13    1    3    3    0    0 -0.26499154178E+03  0.44358342413E+03  0.61393259048E+02  0.52034211323E+03  0.10566000000E+00 0.  1.
          4    1    3    3  501    0  0.40672624458E+03 -0.22845675420E+03 -0.27077331633E+03  0.53938568336E+03  0.00000000000E+00 0.  1.
         13    1    1    2    0    0 -0.14173470280E+03 -0.21512666993E+03 -0.37060328764E+02  0.26027233665E+03  0.10566000000E+00 0. -1.
<mgrwt>
<rscale>  1 0.73308728E+03</rscale>
<asrwt>0</asrwt>
<pdfrwt beam="2">  1       21 0.12049542E+00 0.10388373E+04</pdfrwt>
<pdfrwt beam="1">  1        4 0.82581519E-01 0.10388373E+04</pdfrwt>
<totfact> 0.24798921E+01</totfact>
</mgrwt>
</event>
<event>
 6    1  0.1375310E-005  0.1008728E+04  0.7818608E-02  0.9861867E-01
         21   -1    0    0  501  502  0.00000000000E+00  0.00000000000E+00  0.32796331207E+04  0.32796331207E+04  0.00000000000E+00 0.  1.
          4   -1    0    0  502    0 -0.00000000000E+00 -0.00000000000E+00 -0.15152379568E+03  0.15152379568E+03  0.00000000000E+00 0.  1.
    9000010    2    1    2  501    0 -0.21428925562E+02 -0.14372817937E+03  0.31271699978E+04  0.32858369869E+04  0.99820615159E+03 0.  0.
        -13    1    3    3    0    0 -0.26908295824E+03 -0.50380730008E+03  0.17180515234E+04  0.18105050351E+04  0.10566000000E+00 0.  1.
          4    1    3    3  501    0  0.24765403268E+03  0.36007912070E+03  0.14091184744E+04  0.14753319518E+04  0.00000000000E+00 0.  1.
         13    1    1    2    0    0  0.21428925562E+02  0.14372817937E+03  0.93932721000E+00  0.14531992945E+03  0.10566000000E+00 0. -1.
<mgrwt>
<rscale>  1 0.62145493E+03</rscale>
<asrwt>0</asrwt>
<pdfrwt beam="1">  1       21 0.50455889E+00 0.10087282E+04</pdfrwt>
<pdfrwt beam="2">  1        4 0.23311356E-01 0.10087282E+04</pdfrwt>
<totfact> 0.82419130E-01</totfact>
</mgrwt>
</event>
<event>
 6    1  0.1375310E-005  0.1021179E+04  0.7818608E-02  0.9708486E-01
         21   -1    0    0  501  502  0.00000000000E+00  0.00000000000E+00  0.15667025864E+04  0.15667025864E+04  0.00000000000E+00 0.  1.
          4   -1    0    0  502    0 -0.00000000000E+00 -0.00000000000E+00 -0.10200755404E+04  0.10200755404E+04  0.00000000000E+00 0.  1.
    9000010    2    1    2  501    0 -0.94355105794E+02 -0.21212255294E+03  0.13827883728E+04  0.17189851566E+04  0.99443824402E+03 0.  0.
        -13    1    3    3    0    0 -0.12040530015E+03 -0.21729957754E+03  0.15398158599E+04  0.15597273596E+04  0.10566000000E+00 0.  1.
          4    1    3    3  501    0  0.26050194359E+02  0.51770246088E+01 -0.15702748708E+03  0.15925779701E+03  0.00000000000E+00 0.  1.
         13    1    1    2    0    0  0.94355105794E+02  0.21212255294E+03 -0.83616132678E+03  0.86779297014E+03  0.10566000000E+00 0. -1.
<mgrwt>
<rscale>  1 0.70513753E+03</rscale>
<asrwt>0</asrwt>
<pdfrwt beam="1">  1       21 0.24103117E+00 0.10211789E+04</pdfrwt>
<pdfrwt beam="2">  1        4 0.15693470E+00 0.10211789E+04</pdfrwt>
<totfact> 0.63284517E-01</totfact>
</mgrwt>
</event>
<event>
 6    1  0.1375310E-005  0.9124610E+03  0.7818608E-02  0.9827508E-01
          4   -1    0    0  502    0 -0.00000000000E+00  0.00000000000E+00  0.58593944608E+03  0.58593944608E+03  0.00000000000E+00 0.  1.
         21   -1    0    0  501  502  0.00000000000E+00 -0.00000000000E+00 -0.55258542953E+03  0.55258542953E+03  0.00000000000E+00 0.  1.
    9000010    2    1    2  501    0 -0.48991939888E+02 -0.21402286262E+03 -0.19596702763E+02  0.91267141485E+03  0.88565178531E+03 0.  0.
        -13    1    3    3    0    0 -0.46278848085E+03 -0.47277455572E+02 -0.32744834817E+02  0.46634812231E+03  0.10566000000E+00 0.  1.
          4    1    3    3  501    0  0.41379654096E+03 -0.16674540705E+03  0.13148132054E+02  0.44632329253E+03  0.00000000000E+00 0.  1.
         13    1    1    2    0    0  0.48991939888E+02  0.21402286262E+03  0.52950719314E+02  0.22585346076E+03  0.10566000000E+00 0. -1.
<mgrwt>
<rscale>  1 0.63906992E+03</rscale>
<asrwt>0</asrwt>
<pdfrwt beam="2">  1       21 0.85013143E-01 0.91246100E+03</pdfrwt>
<pdfrwt beam="1">  1        4 0.90144530E-01 0.91246100E+03</pdfrwt>
<totfact> 0.48647106E+01</totfact>
</mgrwt>
</event>
<event>
 6    1  0.1375310E-005  0.1035740E+04  0.7818608E-02  0.9729572E-01
          4   -1    0    0  502    0 -0.00000000000E+00  0.00000000000E+00  0.38834890057E+03  0.38834890057E+03  0.00000000000E+00 0.  1.
         21   -1    0    0  501  502  0.00000000000E+00 -0.00000000000E+00 -0.10270659853E+04  0.10270659853E+04  0.00000000000E+00 0.  1.
    9000010    2    1    2  501    0 -0.13837791906E+03  0.15445336760E+03 -0.43080390354E+03  0.11217617004E+04  0.10147674699E+04 0.  0.
        -13    1    3    3    0    0 -0.51743800550E+03  0.13702123835E+03  0.16069718620E+02  0.53551391795E+03  0.10566000000E+00 0.  1.
          4    1    3    3  501    0  0.37906008644E+03  0.17432129246E+02 -0.44687362216E+03  0.58624778246E+03  0.00000000000E+00 0.  1.
         13    1    1    2    0    0  0.13837791906E+03 -0.15445336760E+03 -0.20791318115E+03  0.29365318542E+03  0.10566000000E+00 0. -1.
<mgrwt>
<rscale>  1 0.69283066E+03</rscale>
<asrwt>0</asrwt>
<pdfrwt beam="2">  1       21 0.15801015E+00 0.10357400E+04</pdfrwt>
<pdfrwt beam="1">  1        4 0.59745985E-01 0.10357400E+04</pdfrwt>
<totfact> 0.24558894E+01</totfact>
</mgrwt>
</event>
<event>
 6    1  0.1375310E-005  0.1028189E+04  0.7818608E-02  0.9650848E-01
         21   -1    0    0  501  502  0.00000000000E+00  0.00000000000E+00  0.27819467805E+03  0.27819467805E+03  0.00000000000E+00 0.  1.
          4   -1    0    0  502    0 -0.00000000000E+00 -0.00000000000E+00 -0.16362984670E+04  0.16362984670E+04  0.00000000000E+00 0.  1.
    9000010    2    1    2  501    0  0.72002329519E+02 -0.26662253944E+03 -0.12484577557E+04  0.16173497827E+04  0.99040478487E+03 0.  0.
        -13    1    3    3    0    0  0.10018410082E+03 -0.60576698098E+03 -0.10685911575E+04  0.12324275080E+04  0.10566000000E+00 0.  1.
          4    1    3    3  501    0 -0.28181771296E+02  0.33914444153E+03 -0.17986659818E+03  0.38492227475E+03  0.00000000000E+00 0.  1.
         13    1    1    2    0    0 -0.72002329519E+02  0.26662253944E+03 -0.10964603319E+03  0.29714336229E+03  0.10566000000E+00 0. -1.
<mgrwt>
<rscale>  1 0.74020242E+03</rscale>
<asrwt>0</asrwt>
<pdfrwt beam="1">  1       21 0.42799180E-01 0.10281895E+04</pdfrwt>
<pdfrwt beam="2">  1        4 0.25173823E+00 0.10281895E+04</pdfrwt>
<totfact> 0.12895312E+01</totfact>
</mgrwt>
</event>
<event>
 6    1  0.1375310E-005  0.1012094E+04  0.7818608E-02  0.9891039E-01
         21   -1    0    0  501  502  0.00000000000E+00  0.00000000000E+00  0.32872267660E+03  0.32872267660E+03  0.00000000000E+00 0.  1.
          4   -1    0    0  502    0 -0.00000000000E+00 -0.00000000000E+00 -0.13824878756E+04  0.13824878756E+04  0.00000000000E+00 0.  1.
    9000010    2    1    2  501    0  0.94069339629E+02 -0.91062348692E+02 -0.47535221500E+03  0.11181650369E+04  0.10035895224E+04 0.  0.
        -13    1    3    3    0    0 -0.41182689419E+03 -0.10365893959E+03 -0.11790319165E+01  0.42467395472E+03  0.10566000000E+00 0.  1.
          4    1    3    3  501    0  0.50589623382E+03  0.12596590898E+02 -0.47417318309E+03  0.69349108217E+03  0.00000000000E+00 0.  1.
         13    1    1    2    0    0 -0.94069339629E+02  0.91062348692E+02 -0.57841298399E+03  0.59304551530E+03  0.10566000000E+00 0. -1.
<mgrwt>
<rscale>  1 0.60697567E+03</rscale>
<asrwt>0</asrwt>
<pdfrwt beam="1">  1       21 0.50572719E-01 0.10120935E+04</pdfrwt>
<pdfrwt beam="2">  1        4 0.21269044E+00 0.10120935E+04</pdfrwt>
<totfact> 0.15920614E+01</totfact>
</mgrwt>
</event>
<event>
 6    1  0.1375310E-005  0.1021368E+04  0.7818608E-02  0.9763814E-01
         21   -1    0    0  501  502  0.00000000000E+00  0.00000000000E+00  0.57741583270E+03  0.57741583270E+03  0.00000000000E+00 0.  1.
          4   -1    0    0  502    0 -0.00000000000E+00 -0.00000000000E+00 -0.79898973251E+03  0.79898973251E+03  0.00000000000E+00 0.  1.
    9000010    2    1    2  501    0 -0.67127252621E+02 -0.18095930601E+03  0.73285418837E+02  0.10239933528E+04  0.10029652514E+04 0.  0.
        -13    1    3    3    0    0 -0.46209904453E+03 -0.35433995168E+03  0.10408034291E+03  0.59154463674E+03  0.10566000000E+00 0.  1.
          4    1    3    3  501    0  0.39497179191E+03  0.17338064568E+03 -0.30794924070E+02  0.43244871609E+03  0.00000000000E+00 0.  1.
         13    1    1    2    0    0  0.67127252621E+02  0.18095930601E+03 -0.29485931865E+03  0.35241221237E+03  0.10566000000E+00 0. -1.
<mgrwt>
<rscale>  1 0.67341183E+03</rscale>
<asrwt>0</asrwt>
<pdfrwt beam="1">  1       21 0.88833206E-01 0.10213675E+04</pdfrwt>
<pdfrwt beam="2">  1        4 0.12292150E+00 0.10213675E+04</pdfrwt>
<totfact> 0.20353899E+01</totfact>
</mgrwt>
</event>
<event>
 6    1  0.1375310E-005  0.1105564E+04  0.7818608E-02  0.9439461E-01
          4   -1    0    0  502    0 -0.00000000000E+00  0.00000000000E+00  0.14494345317E+04  0.14494345317E+04  0.00000000000E+00 0.  1.
         21   -1    0    0  501  502  0.00000000000E+00 -0.00000000000E+00 -0.43291730693E+03  0.43291730693E+03  0.00000000000E+00 0. -1.
    9000010    2    1    2  501    0  0.36129944466E+03  0.28823876735E+03  0.58860426133E+03  0.12524880508E+04  0.10043169148E+04 0.  0.
        -13    1    3    3    0    0  0.20998611280E+00 -0.11880459031E+03 -0.23618675192E+03  0.26438375086E+03  0.10566000000E+00 0.  1.
          4    1    3    3  501    0  0.36108945855E+03  0.40704335765E+03  0.82479101325E+03  0.98810429998E+03  0.00000000000E+00 0.  1.
         13    1    1    2    0    0 -0.36129944466E+03 -0.28823876735E+03  0.42791296341E+03  0.62986378776E+03  0.10566000000E+00 0. -1.
<mgrwt>
<rscale>  1 0.88898169E+03</rscale>
<asrwt>0</asrwt>
<pdfrwt beam="2">  1       21 0.66602663E-01 0.11055638E+04</pdfrwt>
<pdfrwt beam="1">  1        4 0.22298993E+00 0.11055638E+04</pdfrwt>
<totfact> 0.73470979E+00</totfact>
</mgrwt>
</event>
<event>
 6    1  0.1375310E-005  0.1163181E+04  0.7818608E-02  0.9301152E-01
          4   -1    0    0  502    0 -0.00000000000E+00  0.00000000000E+00  0.16268965878E+04  0.16268965878E+04  0.00000000000E+00 0.  1.
         21   -1    0    0  501  502  0.00000000000E+00 -0.00000000000E+00 -0.53183511294E+03  0.53183511294E+03  0.00000000000E+00 0. -1.
    9000010    2    1    2  501    0  0.20290202058E+03  0.62046056858E+03  0.91954985788E+03  0.14827547145E+04  0.96273000112E+03 0.  0.
        -13    1    3    3    0    0  0.18640074396E+03 -0.23704136684E+03  0.29444717991E+03  0.42146530090E+03  0.10566000000E+00 0.  1.
          4    1    3    3  501    0  0.16501276617E+02  0.85750193541E+03  0.62510267797E+03  0.10612894136E+04  0.00000000000E+00 0.  1.
         13    1    1    2    0    0 -0.20290202058E+03 -0.62046056858E+03  0.17551161698E+03  0.67597698627E+03  0.10566000000E+00 0. -1.
<mgrwt>
<rscale>  1 0.10067684E+04</rscale>
<asrwt>0</asrwt>
<pdfrwt beam="2">  1       21 0.81820787E-01 0.11631808E+04</pdfrwt>
<pdfrwt beam="1">  1        4 0.25029178E+00 0.11631808E+04</pdfrwt>
<totfact> 0.30493302E+00</totfact>
</mgrwt>
</event>
<event>
 6    1  0.1375310E-005  0.1018483E+04  0.7818608E-02  0.9786553E-01
         21   -1    0    0  501  502  0.00000000000E+00  0.00000000000E+00  0.12094982736E+04  0.12094982736E+04  0.00000000000E+00 0.  1.
          4   -1    0    0  502    0 -0.00000000000E+00 -0.00000000000E+00 -0.29899159216E+03  0.29899159216E+03  0.00000000000E+00 0.  1.
    9000010    2    1    2  501    0  0.33842713738E+02  0.17737626485E+03  0.81360213712E+03  0.13035553140E+04  0.10023474201E+04 0.  0.
        -13    1    3    3    0    0  0.29478018459E+03 -0.29467167165E+03  0.13799748207E+03  0.43905588200E+03  0.10566000000E+00 0.  1.
          4    1    3    3  501    0 -0.26093747085E+03  0.47204793650E+03  0.67560465505E+03  0.86449943203E+03  0.00000000000E+00 0.  1.
         13    1    1    2    0    0 -0.33842713738E+02 -0.17737626485E+03  0.96904544278E+02  0.20493455168E+03  0.10566000000E+00 0. -1.
<mgrwt>
<rscale>  1 0.66089184E+03</rscale>
<asrwt>0</asrwt>
<pdfrwt beam="1">  1       21 0.18607665E+00 0.10184832E+04</pdfrwt>
<pdfrwt beam="2">  1        4 0.45998707E-01 0.10184832E+04</pdfrwt>
<totfact> 0.26520265E+01</totfact>
</mgrwt>
</event>
<event>
 6    1  0.1375310E-005  0.1022990E+04  0.7818608E-02  0.1016233E+00
          4   -1    0    0  502    0 -0.00000000000E+00  0.00000000000E+00  0.76306557411E+03  0.76306557411E+03  0.00000000000E+00 0.  1.
         21   -1    0    0  501  502  0.00000000000E+00 -0.00000000000E+00 -0.46395165726E+03  0.46395165726E+03  0.00000000000E+00 0.  1.
    9000010    2    1    2  501    0  0.38936921448E+02 -0.37645166701E+02  0.10834728559E+03  0.10287115048E+04  0.10215551788E+04 0.  0.
        -13    1    3    3    0    0  0.42620951346E+02 -0.25448303919E+03 -0.40001967774E+03  0.47601881945E+03  0.10566000000E+00 0.  1.
          4    1    3    3  501    0 -0.36840298984E+01  0.21683787249E+03  0.50836696333E+03  0.55269268534E+03  0.00000000000E+00 0.  1.
         13    1    1    2    0    0 -0.38936921448E+02  0.37645166701E+02  0.19076663126E+03  0.19830572658E+03  0.10566000000E+00 0. -1.
<mgrwt>
<rscale>  1 0.49070693E+03</rscale>
<asrwt>0</asrwt>
<pdfrwt beam="2">  1       21 0.71377178E-01 0.10229898E+04</pdfrwt>
<pdfrwt beam="1">  1        4 0.11739470E+00 0.10229898E+04</pdfrwt>
<totfact> 0.38237446E+01</totfact>
</mgrwt>
</event>
<event>
 6    1  0.1375310E-005  0.1089321E+04  0.7818608E-02  0.9479869E-01
          4   -1    0    0  502    0 -0.00000000000E+00  0.00000000000E+00  0.50311801845E+03  0.50311801845E+03  0.00000000000E+00 0.  1.
         21   -1    0    0  501  502  0.00000000000E+00 -0.00000000000E+00 -0.12004476631E+04  0.12004476631E+04  0.00000000000E+00 0.  1.
    9000010    2    1    2  501    0 -0.28724654107E+03  0.30497642235E+03 -0.68023065236E+03  0.12842643815E+04  0.10055347173E+04 0.  0.
        -13    1    3    3    0    0 -0.19132042663E+03  0.15334661557E+03  0.24214142479E+03  0.34460291775E+03  0.10566000000E+00 0.  1.
          4    1    3    3  501    0 -0.95926114439E+02  0.15162980679E+03 -0.92237207715E+03  0.93966146375E+03  0.00000000000E+00 0.  1.
         13    1    1    2    0    0  0.28724654107E+03 -0.30497642235E+03 -0.17098992327E+02  0.41930130009E+03  0.10566000000E+00 0. -1.
<mgrwt>
<rscale>  1 0.85784386E+03</rscale>
<asrwt>0</asrwt>
<pdfrwt beam="2">  1       21 0.18468425E+00 0.10893215E+04</pdfrwt>
<pdfrwt beam="1">  1        4 0.77402773E-01 0.10893215E+04</pdfrwt>
<totfact> 0.86554289E+00</totfact>
</mgrwt>
</event>
<event>
 6    1  0.1375310E-005  0.1069681E+04  0.7818608E-02  0.9568738E-01
         21   -1    0    0  501  502  0.00000000000E+00  0.00000000000E+00  0.61303368536E+03  0.61303368536E+03  0.00000000000E+00 0.  1.
          4   -1    0    0  502    0 -0.00000000000E+00 -0.00000000000E+00 -0.83942287336E+03  0.83942287336E+03  0.00000000000E+00 0.  1.
    9000010    2    1    2  501    0  0.15682947329E+03  0.28435141979E+03 -0.24261915151E+02  0.10699560238E+04  0.10191987238E+04 0.  0.
        -13    1    3    3    0    0  0.17324035376E+03  0.22542599601E+03  0.48222188097E+03  0.55979197341E+03  0.10566000000E+00 0.  1.
          4    1    3    3  501    0 -0.16410880476E+02  0.58925423779E+02 -0.50648379612E+03  0.51016405037E+03  0.00000000000E+00 0.  1.
         13    1    1    2    0    0 -0.15682947329E+03 -0.28435141979E+03 -0.20212727286E+03  0.38250053493E+03  0.10566000000E+00 0. -1.
<mgrwt>
<rscale>  1 0.79400299E+03</rscale>
<asrwt>0</asrwt>
<pdfrwt beam="1">  1       21 0.94312875E-01 0.10696809E+04</pdfrwt>
<pdfrwt beam="2">  1        4 0.12914198E+00 0.10696809E+04</pdfrwt>
<totfact> 0.15446229E+01</totfact>
</mgrwt>
</event>
<event>
 6    1  0.1375310E-005  0.1224555E+04  0.7818608E-02  0.9242526E-01
         21   -1    0    0  501  502  0.00000000000E+00  0.00000000000E+00  0.21764837261E+04  0.21764837261E+04  0.00000000000E+00 0.  1.
          4   -1    0    0  502    0 -0.00000000000E+00 -0.00000000000E+00 -0.50410944926E+03  0.50410944926E+03  0.00000000000E+00 0.  1.
    9000010    2    1    2  501    0  0.59632037802E+03  0.35512055511E+03  0.15507818558E+04  0.19759703472E+04  0.10088735536E+04 0.  0.
        -13    1    3    3    0    0  0.73707424492E+03  0.10084080067E+02  0.13832404371E+04  0.15673972851E+04  0.10566000000E+00 0.  1.
          4    1    3    3  501    0 -0.14075386690E+03  0.34503647504E+03  0.16754141863E+03  0.40857306214E+03  0.00000000000E+00 0.  1.
         13    1    1    2    0    0 -0.59632037802E+03 -0.35512055511E+03  0.12159242108E+03  0.70462282814E+03  0.10566000000E+00 0. -1.
<mgrwt>
<rscale>  1 0.10625068E+04</rscale>
<asrwt>0</asrwt>
<pdfrwt beam="1">  1       21 0.33484365E+00 0.12245548E+04</pdfrwt>
<pdfrwt beam="2">  1        4 0.77555301E-01 0.12245548E+04</pdfrwt>
<totfact> 0.90196160E-01</totfact>
</mgrwt>
</event>
<event>
 6    1  0.1375310E-005  0.9940246E+03  0.7818608E-02  0.1001334E+00
         21   -1    0    0  501  502  0.00000000000E+00  0.00000000000E+00  0.83687442006E+03  0.83687442006E+03  0.00000000000E+00 0.  1.
          4   -1    0    0  502    0 -0.00000000000E+00 -0.00000000000E+00 -0.37903311336E+03  0.37903311336E+03  0.00000000000E+00 0.  1.
    9000010    2    1    2  501    0 -0.69386466460E+02  0.62872131776E+02  0.50061120746E+03  0.11129674428E+04  0.98960474989E+03 0.  0.
        -13    1    3    3    0    0  0.13483547684E+03 -0.40006531812E+03  0.32112273344E+02  0.42339588312E+03  0.10566000000E+00 0.  1.
          4    1    3    3  501    0 -0.20422194330E+03  0.46293744990E+03  0.46849893411E+03  0.68957155967E+03  0.00000000000E+00 0.  1.
         13    1    1    2    0    0  0.69386466460E+02 -0.62872131776E+02 -0.42769900756E+02  0.10294009062E+03  0.10566000000E+00 0. -1.
<mgrwt>
<rscale>  1 0.55068937E+03</rscale>
<asrwt>0</asrwt>
<pdfrwt beam="1">  1       21 0.12874991E+00 0.99402462E+03</pdfrwt>
<pdfrwt beam="2">  1        4 0.58312787E-01 0.99402462E+03</pdfrwt>
<totfact> 0.45577587E+01</totfact>
</mgrwt>
</event>
<event>
 6    1  0.1375310E-005  0.1002526E+04  0.7818608E-02  0.9770804E-01
          4   -1    0    0  502    0 -0.00000000000E+00  0.00000000000E+00  0.87927919622E+03  0.87927919622E+03  0.00000000000E+00 0.  1.
         21   -1    0    0  501  502  0.00000000000E+00 -0.00000000000E+00 -0.43747144082E+03  0.43747144082E+03  0.00000000000E+00 0.  1.
    9000010    2    1    2  501    0  0.12422110106E+03 -0.15602126108E+03  0.48346617086E+03  0.11130131820E+04  0.98248933277E+03 0.  0.
        -13    1    3    3    0    0 -0.36664131251E+02 -0.56326518615E+03  0.26129934385E+03  0.62200424976E+03  0.10566000000E+00 0.  1.
          4    1    3    3  501    0  0.16088523231E+03  0.40724392508E+03  0.22216682701E+03  0.49100893221E+03  0.00000000000E+00 0.  1.
         13    1    1    2    0    0 -0.12422110106E+03  0.15602126108E+03 -0.41658415457E+02  0.20373745507E+03  0.10566000000E+00 0. -1.
<mgrwt>
<rscale>  1 0.66953166E+03</rscale>
<asrwt>0</asrwt>
<pdfrwt beam="2">  1       21 0.67303299E-01 0.10025262E+04</pdfrwt>
<pdfrwt beam="1">  1        4 0.13527372E+00 0.10025262E+04</pdfrwt>
<totfact> 0.30525753E+01</totfact>
</mgrwt>
</event>
<event>
 6    1  0.1375310E-005  0.1024128E+04  0.7818608E-02  0.9878293E-01
         21   -1    0    0  501  502  0.00000000000E+00  0.00000000000E+00  0.64184996534E+03  0.64184996534E+03  0.00000000000E+00 0. -1.
          4   -1    0    0  502    0 -0.00000000000E+00 -0.00000000000E+00 -0.68703229642E+03  0.68703229642E+03  0.00000000000E+00 0.  1.
    9000010    2    1    2  501    0  0.12693943788E+03  0.34974640176E+02 -0.27819629396E+03  0.10612400297E+04  0.10156280698E+04 0.  0.
        -13    1    3    3    0    0  0.11988275575E+03 -0.46853714398E+03 -0.27768040251E+03  0.55767853421E+03  0.10566000000E+00 0.  1.
          4    1    3    3  501    0  0.70566821359E+01  0.50351178416E+03 -0.51589144299E+00  0.50356149544E+03  0.00000000000E+00 0.  1.
         13    1    1    2    0    0 -0.12693943788E+03 -0.34974640176E+02  0.23301396288E+03  0.26764223210E+03  0.10566000000E+00 0. -1.
<mgrwt>
<rscale>  1 0.61324905E+03</rscale>
<asrwt>0</asrwt>
<pdfrwt beam="1">  1       21 0.98746150E-01 0.10241275E+04</pdfrwt>
<pdfrwt beam="2">  1        4 0.10569727E+00 0.10241275E+04</pdfrwt>
<totfact> 0.22875457E+01</totfact>
</mgrwt>
</event>
<event>
 6    1  0.1375310E-005  0.1062213E+04  0.7818608E-02  0.9467687E-01
          4   -1    0    0  502    0 -0.00000000000E+00  0.00000000000E+00  0.66633485853E+03  0.66633485853E+03  0.00000000000E+00 0.  1.
         21   -1    0    0  501  502  0.00000000000E+00 -0.00000000000E+00 -0.95924653765E+03  0.95924653765E+03  0.00000000000E+00 0. -1.
    9000010    2    1    2  501    0 -0.45287143275E+03  0.13173535982E+03  0.15012406574E+02  0.10623194737E+04  0.95176181484E+03 0.  0.
        -13    1    3    3    0    0 -0.27619960710E+03 -0.22632759772E+02  0.47273365488E+03  0.54797407274E+03  0.10566000000E+00 0.  1.
          4    1    3    3  501    0 -0.17667182565E+03  0.15436811959E+03 -0.45772124831E+03  0.51434540095E+03  0.00000000000E+00 0.  1.
         13    1    1    2    0    0  0.45287143275E+03 -0.13173535982E+03 -0.30792408570E+03  0.56326192250E+03  0.10566000000E+00 0. -1.
<mgrwt>
<rscale>  1 0.86708594E+03</rscale>
<asrwt>0</asrwt>
<pdfrwt beam="2">  1       21 0.14757639E+00 0.10622134E+04</pdfrwt>
<pdfrwt beam="1">  1        4 0.10251306E+00 0.10622134E+04</pdfrwt>
<totfact> 0.86013994E+00</totfact>
</mgrwt>
</event>
<event>
 6    1  0.1375310E-005  0.1054136E+04  0.7818608E-02  0.9607966E-01
         21   -1    0    0  501  502  0.00000000000E+00  0.00000000000E+00  0.67423626461E+03  0.67423626461E+03  0.00000000000E+00 0.  1.
          4   -1    0    0  502    0 -0.00000000000E+00 -0.00000000000E+00 -0.82487103092E+03  0.82487103092E+03  0.00000000000E+00 0.  1.
    9000010    2    1    2  501    0 -0.26650822318E+03  0.13006520732E+03  0.16391578345E+03  0.10668045652E+04  0.10115631493E+04 0.  0.
        -13    1    3    3    0    0  0.39901237735E+02  0.17828910795E+03  0.54536764471E+03  0.57515649509E+03  0.10566000000E+00 0.  1.
          4    1    3    3  501    0 -0.30640946092E+03 -0.48223900628E+02 -0.38145186126E+03  0.49164807006E+03  0.00000000000E+00 0.  1.
         13    1    1    2    0    0  0.26650822318E+03 -0.13006520732E+03 -0.31455054975E+03  0.43230273038E+03  0.10566000000E+00 0. -1.
<mgrwt>
<rscale>  1 0.76771168E+03</rscale>
<asrwt>0</asrwt>
<pdfrwt beam="1">  1       21 0.10372866E+00 0.10541364E+04</pdfrwt>
<pdfrwt beam="2">  1        4 0.12690323E+00 0.10541364E+04</pdfrwt>
<totfact> 0.12783278E+01</totfact>
</mgrwt>
</event>
<event>
 6    1  0.1375310E-005  0.1062933E+04  0.7818608E-02  0.9553370E-01
         21   -1    0    0  501  502  0.00000000000E+00  0.00000000000E+00  0.77247426682E+03  0.77247426682E+03  0.00000000000E+00 0.  1.
          4   -1    0    0  502    0 -0.00000000000E+00 -0.00000000000E+00 -0.66479963827E+03  0.66479963827E+03  0.00000000000E+00 0.  1.
    9000010    2    1    2  501    0  0.10601290556E+02 -0.34883532469E+03  0.18730092336E+03  0.10793090617E+04  0.10040059480E+04 0.  0.
        -13    1    3    3    0    0  0.11172283336E+03 -0.67649401840E+03  0.25171881279E+03  0.73040298486E+03  0.10566000000E+00 0.  1.
          4    1    3    3  501    0 -0.10112154281E+03  0.32765869371E+03 -0.64417889431E+02  0.34890607684E+03  0.00000000000E+00 0.  1.
         13    1    1    2    0    0 -0.10601290556E+02  0.34883532469E+03 -0.79626294813E+02  0.35796484339E+03  0.10566000000E+00 0. -1.
<mgrwt>
<rscale>  1 0.80460853E+03</rscale>
<asrwt>0</asrwt>
<pdfrwt beam="1">  1       21 0.11884220E+00 0.10629329E+04</pdfrwt>
<pdfrwt beam="2">  1        4 0.10227687E+00 0.10629329E+04</pdfrwt>
<totfact> 0.15458134E+01</totfact>
</mgrwt>
</event>
<event>
 6    1  0.1375310E-005  0.1050945E+04  0.7818608E-02  0.9762280E-01
         21   -1    0    0  501  502  0.00000000000E+00  0.00000000000E+00  0.77149661268E+03  0.77149661268E+03  0.00000000000E+00 0.  1.
          4   -1    0    0  502    0 -0.00000000000E+00 -0.00000000000E+00 -0.50217582527E+03  0.50217582527E+03  0.00000000000E+00 0.  1.
    9000010    2    1    2  501    0 -0.25546357198E+02 -0.17622685834E+03  0.30012349705E+03  0.10929590183E+04  0.10357493810E+04 0.  0.
        -13    1    3    3    0    0  0.47405267360E+03 -0.42105502910E+02  0.32298061138E+03  0.57516545204E+03  0.10566000000E+00 0.  1.
          4    1    3    3  501    0 -0.49959903080E+03 -0.13412135543E+03 -0.22857114329E+02  0.51779356624E+03  0.00000000000E+00 0.  1.
         13    1    1    2    0    0  0.25546357198E+02  0.17622685834E+03 -0.30802709633E+02  0.18071341968E+03  0.10566000000E+00 0. -1.
<mgrwt>
<rscale>  1 0.67426714E+03</rscale>
<asrwt>0</asrwt>
<pdfrwt beam="1">  1       21 0.11869179E+00 0.10509450E+04</pdfrwt>
<pdfrwt beam="2">  1        4 0.77257819E-01 0.10509450E+04</pdfrwt>
<totfact> 0.30027873E+01</totfact>
</mgrwt>
</event>
<event>
 6    1  0.1375310E-005  0.1087924E+04  0.7818608E-02  0.9456376E-01
         21   -1    0    0  501  502  0.00000000000E+00  0.00000000000E+00  0.52408439575E+03  0.52408439575E+03  0.00000000000E+00 0.  1.
          4   -1    0    0  502    0 -0.00000000000E+00 -0.00000000000E+00 -0.12084737917E+04  0.12084737917E+04  0.00000000000E+00 0.  1.
    9000010    2    1    2  501    0 -0.20989503610E+03 -0.40578787897E+03 -0.28229340122E+03  0.11239524620E+04  0.98734990942E+03 0.  0.
        -13    1    3    3    0    0  0.35302384281E+03 -0.34966891429E+03 -0.12103829841E+02  0.49703188738E+03  0.10566000000E+00 0.  1.
          4    1    3    3  501    0 -0.56291887891E+03 -0.56118964676E+02 -0.27018957138E+03  0.62692057464E+03  0.00000000000E+00 0.  1.
         13    1    1    2    0    0  0.20989503610E+03  0.40578787897E+03 -0.40209599477E+03  0.60860572547E+03  0.10566000000E+00 0. -1.
<mgrwt>
<rscale>  1 0.87577892E+03</rscale>
<asrwt>0</asrwt>
<pdfrwt beam="1">  1       21 0.80628369E-01 0.10879244E+04</pdfrwt>
<pdfrwt beam="2">  1        4 0.18591904E+00 0.10879244E+04</pdfrwt>
<totfact> 0.82972947E+00</totfact>
</mgrwt>
</event>
<event>
 6    1  0.1375310E-005  0.1053992E+04  0.7818608E-02  0.9521515E-01
          4   -1    0    0  502    0 -0.00000000000E+00  0.00000000000E+00  0.11257617402E+04  0.11257617402E+04  0.00000000000E+00 0.  1.
         21   -1    0    0  501  502  0.00000000000E+00 -0.00000000000E+00 -0.47128018890E+03  0.47128018890E+03  0.00000000000E+00 0.  1.
    9000010    2    1    2  501    0  0.37223083070E+03 -0.14590154057E+03  0.42827527072E+03  0.11376811304E+04  0.97522079346E+03 0.  0.
        -13    1    3    3    0    0 -0.23154505554E+03 -0.28231407827E+03 -0.31695909996E+02  0.36649555715E+03  0.10566000000E+00 0.  1.
          4    1    3    3  501    0  0.60377588624E+03  0.13641253770E+03  0.45997118071E+03  0.77118557321E+03  0.00000000000E+00 0.  1.
         13    1    1    2    0    0 -0.37223083070E+03  0.14590154057E+03  0.22620628055E+03  0.45936079871E+03  0.10566000000E+00 0. -1.
<mgrwt>
<rscale>  1 0.82716022E+03</rscale>
<asrwt>0</asrwt>
<pdfrwt beam="2">  1       21 0.72504645E-01 0.10539918E+04</pdfrwt>
<pdfrwt beam="1">  1        4 0.17319411E+00 0.10539918E+04</pdfrwt>
<totfact> 0.13099504E+01</totfact>
</mgrwt>
</event>
<event>
 6    1  0.1375310E-005  0.9729819E+03  0.7818608E-02  0.9790522E-01
         21   -1    0    0  501  502  0.00000000000E+00  0.00000000000E+00  0.15935504845E+03  0.15935504845E+03  0.00000000000E+00 0.  1.
          4   -1    0    0  502    0 -0.00000000000E+00 -0.00000000000E+00 -0.22577659372E+04  0.22577659372E+04  0.00000000000E+00 0.  1.
    9000010    2    1    2  501    0  0.76056831312E+02  0.18974928468E+03 -0.18867686057E+04  0.21228729614E+04  0.95126463525E+03 0.  0.
        -13    1    3    3    0    0 -0.94562954894E+02  0.50378326665E+03 -0.60869008135E+03  0.79576589427E+03  0.10566000000E+00 0.  1.
          4    1    3    3  501    0  0.17061978621E+03 -0.31403398197E+03 -0.12780785244E+04  0.13271070672E+04  0.00000000000E+00 0.  1.
         13    1    1    2    0    0 -0.76056831312E+02 -0.18974928468E+03 -0.21164228304E+03  0.29424802422E+03  0.10566000000E+00 0. -1.
<mgrwt>
<rscale>  1 0.65873685E+03</rscale>
<asrwt>0</asrwt>
<pdfrwt beam="1">  1       21 0.24516163E-01 0.97298193E+03</pdfrwt>
<pdfrwt beam="2">  1        4 0.34734858E+00 0.97298193E+03</pdfrwt>
<totfact> 0.10251165E+01</totfact>
</mgrwt>
</event>
<event>
 6    1  0.1375310E-005  0.1017900E+04  0.7818608E-02  0.9670653E-01
         21   -1    0    0  501  502  0.00000000000E+00  0.00000000000E+00  0.62888819184E+03  0.62888819184E+03  0.00000000000E+00 0.  1.
          4   -1    0    0  502    0 -0.00000000000E+00 -0.00000000000E+00 -0.67611138958E+03  0.67611138958E+03  0.00000000000E+00 0.  1.
    9000010    2    1    2  501    0  0.45756003430E+02 -0.26223421992E+03  0.56122636325E+02  0.10194461354E+04  0.98247660266E+03 0.  0.
        -13    1    3    3    0    0  0.47340960837E+03 -0.30863529577E+03 -0.74185378664E+02  0.56997884581E+03  0.10566000000E+00 0.  1.
          4    1    3    3  501    0 -0.42765360494E+03  0.46401075852E+02  0.13030801499E+03  0.44946728961E+03  0.00000000000E+00 0.  1.
         13    1    1    2    0    0 -0.45756003430E+02  0.26223421992E+03 -0.10334583407E+03  0.28555344601E+03  0.10566000000E+00 0. -1.
<mgrwt>
<rscale>  1 0.72791276E+03</rscale>
<asrwt>0</asrwt>
<pdfrwt beam="1">  1       21 0.96752030E-01 0.10179001E+04</pdfrwt>
<pdfrwt beam="2">  1        4 0.10401714E+00 0.10179001E+04</pdfrwt>
<totfact> 0.25028256E+01</totfact>
</mgrwt>
</event>
<event>
 6    1  0.1375310E-005  0.9764359E+03  0.7818608E-02  0.9774330E-01
          4   -1    0    0  502    0 -0.00000000000E+00  0.00000000000E+00  0.80812373396E+03  0.80812373396E+03  0.00000000000E+00 0.  1.
         21   -1    0    0  501  502  0.00000000000E+00 -0.00000000000E+00 -0.48027978616E+03  0.48027978616E+03  0.00000000000E+00 0.  1.
    9000010    2    1    2  501    0  0.58352104677E+02 -0.20521638333E+03  0.10855463853E+03  0.98245165392E+03  0.95284228004E+03 0.  0.
        -13    1    3    3    0    0  0.45476114503E+03  0.10502745597E+03  0.10803225311E+03  0.47907143978E+03  0.10566000000E+00 0.  1.
          4    1    3    3  501    0 -0.39640904035E+03 -0.31024383930E+03  0.52238542079E+00  0.50338021414E+03  0.00000000000E+00 0.  1.
         13    1    1    2    0    0 -0.58352104677E+02  0.20521638333E+03  0.21928930927E+03  0.30595186620E+03  0.10566000000E+00 0. -1.
<mgrwt>
<rscale>  1 0.66758505E+03</rscale>
<asrwt>0</asrwt>
<pdfrwt beam="2">  1       21 0.73889198E-01 0.97643594E+03</pdfrwt>
<pdfrwt beam="1">  1        4 0.12432673E+00 0.97643594E+03</pdfrwt>
<totfact> 0.30669304E+01</totfact>
</mgrwt>
</event>
<event>
 6    1  0.1375310E-005  0.1004148E+04  0.7818608E-02  0.1005508E+00
         21   -1    0    0  501  502  0.00000000000E+00  0.00000000000E+00  0.10931471918E+03  0.10931471918E+03  0.00000000000E+00 0.  1.
          4   -1    0    0  502    0 -0.00000000000E+00 -0.00000000000E+00 -0.27436809039E+04  0.27436809039E+04  0.00000000000E+00 0.  1.
    9000010    2    1    2  501    0 -0.79582476118E+02  0.44667857792E+01 -0.25276111188E+04  0.27197665799E+04  0.10009790001E+04 0.  0.
        -13    1    3    3    0    0 -0.24409018725E+03  0.16403891154E+03 -0.24645897809E+04  0.24820740487E+04  0.10566000000E+00 0.  1.
          4    1    3    3  501    0  0.16450771114E+03 -0.15957212576E+03 -0.63021337840E+02  0.23769253115E+03  0.00000000000E+00 0.  1.
         13    1    1    2    0    0  0.79582476118E+02 -0.44667857792E+01 -0.10675506600E+03  0.13322904324E+03  0.10566000000E+00 0. -1.
<mgrwt>
<rscale>  1 0.53299534E+03</rscale>
<asrwt>0</asrwt>
<pdfrwt beam="1">  1       21 0.16817651E-01 0.10041475E+04</pdfrwt>
<pdfrwt beam="2">  1        4 0.42210470E+00 0.10041475E+04</pdfrwt>
<totfact> 0.65904235E+00</totfact>
</mgrwt>
</event>
<event>
 6    1  0.1375310E-005  0.1015701E+04  0.7818608E-02  0.9955099E-01
         21   -1    0    0  501  502  0.00000000000E+00  0.00000000000E+00  0.82399715886E+03  0.82399715886E+03  0.00000000000E+00 0.  1.
          4   -1    0    0  502    0 -0.00000000000E+00 -0.00000000000E+00 -0.41611025822E+03  0.41611025822E+03  0.00000000000E+00 0.  1.
    9000010    2    1    2  501    0 -0.98664264318E+02 -0.37397612426E+02  0.24302450399E+03  0.10443707586E+04  0.10102059956E+04 0.  0.
        -13    1    3    3    0    0 -0.15567240303E+03  0.47308933944E+03  0.73373262581E+02  0.50341937485E+03  0.10566000000E+00 0.  1.
          4    1    3    3  501    0  0.57008138709E+02 -0.51048695186E+03  0.16965124141E+03  0.54095138378E+03  0.00000000000E+00 0.  1.
         13    1    1    2    0    0  0.98664264318E+02  0.37397612426E+02  0.16486239664E+03  0.19573665845E+03  0.10566000000E+00 0. -1.
<mgrwt>
<rscale>  1 0.57663665E+03</rscale>
<asrwt>0</asrwt>
<pdfrwt beam="1">  1       21 0.12676879E+00 0.10157014E+04</pdfrwt>
<pdfrwt beam="2">  1        4 0.64016963E-01 0.10157014E+04</pdfrwt>
<totfact> 0.38648280E+01</totfact>
</mgrwt>
</event>
<event>
 6    1  0.1375310E-005  0.9793090E+03  0.7818608E-02  0.9492445E-01
          4   -1    0    0  502    0 -0.00000000000E+00  0.00000000000E+00  0.33130961342E+03  0.33130961342E+03  0.00000000000E+00 0.  1.
         21   -1    0    0  501  502  0.00000000000E+00 -0.00000000000E+00 -0.19213408106E+04  0.19213408106E+04  0.00000000000E+00 0.  1.
    9000010    2    1    2  501    0  0.25758213841E+03 -0.48788449149E+03 -0.13052338893E+04  0.16317725352E+04  0.80911449491E+03 0.  0.
        -13    1    3    3    0    0  0.31723369142E+03 -0.31924151120E+03 -0.13696093503E+04  0.14416595094E+04  0.10566000000E+00 0.  1.
          4    1    3    3  501    0 -0.59651553009E+02 -0.16864298029E+03  0.64375461067E+02  0.19011302577E+03  0.00000000000E+00 0.  1.
         13    1    1    2    0    0 -0.25758213841E+03  0.48788449149E+03 -0.28479730791E+03  0.62087788882E+03  0.10566000000E+00 0. -1.
<mgrwt>
<rscale>  1 0.84843152E+03</rscale>
<asrwt>0</asrwt>
<pdfrwt beam="2">  1       21 0.29559090E+00 0.97930899E+03</pdfrwt>
<pdfrwt beam="1">  1        4 0.50970708E-01 0.97930899E+03</pdfrwt>
<totfact> 0.41763024E+00</totfact>
</mgrwt>
</event>
<event>
 6    1  0.1375310E-005  0.1058555E+04  0.7818608E-02  0.9639647E-01
         21   -1    0    0  501  502  0.00000000000E+00  0.00000000000E+00  0.70580745501E+03  0.70580745501E+03  0.00000000000E+00 0.  1.
          4   -1    0    0  502    0 -0.00000000000E+00 -0.00000000000E+00 -0.61896020935E+03  0.61896020935E+03  0.00000000000E+00 0.  1.
    9000010    2    1    2  501    0 -0.17244238181E+02  0.26231780769E+03  0.83791759508E+02  0.10618658897E+04  0.10253926627E+04 0.  0.
        -13    1    3    3    0    0 -0.16480268942E+03  0.62115637386E+03 -0.65858474155E+02  0.64601278394E+03  0.10566000000E+00 0.  1.
          4    1    3    3  501    0  0.14755845124E+03 -0.35883856617E+03  0.14965023366E+03  0.41585310572E+03  0.00000000000E+00 0.  1.
         13    1    1    2    0    0  0.17244238181E+02 -0.26231780769E+03  0.30554861543E+01  0.26290177470E+03  0.10566000000E+00 0. -1.
<mgrwt>
<rscale>  1 0.74726739E+03</rscale>
<asrwt>0</asrwt>
<pdfrwt beam="1">  1       21 0.10858576E+00 0.10585547E+04</pdfrwt>
<pdfrwt beam="2">  1        4 0.95224648E-01 0.10585547E+04</pdfrwt>
<totfact> 0.23125573E+01</totfact>
</mgrwt>
</event>
<event>
 6    1  0.1375310E-005  0.1004343E+04  0.7818608E-02  0.1030452E+00
         21   -1    0    0  501  502  0.00000000000E+00  0.00000000000E+00  0.96448832788E+03  0.96448832788E+03  0.00000000000E+00 0.  1.
          4   -1    0    0  502    0 -0.00000000000E+00 -0.00000000000E+00 -0.33448622512E+03  0.33448622512E+03  0.00000000000E+00 0.  1.
    9000010    2    1    2  501    0 -0.24131299064E+02  0.28470126202E+02  0.69684753437E+03  0.12224161402E+04  0.10036492744E+04 0.  0.
        -13    1    3    3    0    0  0.48923755782E+03  0.14909937049E+02  0.30864084491E+03  0.57864918260E+03  0.10566000000E+00 0.  1.
          4    1    3    3  501    0 -0.51336885689E+03  0.13560189153E+02  0.38820668945E+03  0.64376695759E+03  0.00000000000E+00 0.  1.
         13    1    1    2    0    0  0.24131299064E+02 -0.28470126202E+02 -0.66845431614E+02  0.76558412811E+02  0.10566000000E+00 0. -1.
<mgrwt>
<rscale>  1 0.44096152E+03</rscale>
<asrwt>0</asrwt>
<pdfrwt beam="1">  1       21 0.14838282E+00 0.10043429E+04</pdfrwt>
<pdfrwt beam="2">  1        4 0.51459420E-01 0.10043429E+04</pdfrwt>
<totfact> 0.40517335E+01</totfact>
</mgrwt>
</event>
<event>
 6    1  0.1375310E-005  0.1037010E+04  0.7818608E-02  0.9888132E-01
         21   -1    0    0  501  502  0.00000000000E+00  0.00000000000E+00  0.87509332608E+03  0.87509332608E+03  0.00000000000E+00 0.  1.
          4   -1    0    0  502    0 -0.00000000000E+00 -0.00000000000E+00 -0.42000753530E+03  0.42000753530E+03  0.00000000000E+00 0.  1.
    9000010    2    1    2  501    0  0.90251541756E+02 -0.83360249863E+02  0.26765758422E+03  0.10709946013E+04  0.10297060656E+04 0.  0.
        -13    1    3    3    0    0 -0.30959500331E+03  0.21530023752E+03  0.40498805628E+03  0.55337021535E+03  0.10566000000E+00 0.  1.
          4    1    3    3  501    0  0.39984654507E+03 -0.29866048738E+03 -0.13733047205E+03  0.51762438590E+03  0.00000000000E+00 0.  1.
         13    1    1    2    0    0 -0.90251541756E+02  0.83360249863E+02  0.18742820657E+03  0.22410626013E+03  0.10566000000E+00 0. -1.
<mgrwt>
<rscale>  1 0.60839928E+03</rscale>
<asrwt>0</asrwt>
<pdfrwt beam="1">  1       21 0.13462974E+00 0.10370096E+04</pdfrwt>
<pdfrwt beam="2">  1        4 0.64616544E-01 0.10370096E+04</pdfrwt>
<totfact> 0.32198052E+01</totfact>
</mgrwt>
</event>
<event>
 6    1  0.1375310E-005  0.1002597E+04  0.7818608E-02  0.1036515E+00
          4   -1    0    0  502    0 -0.00000000000E+00  0.00000000000E+00  0.29754679846E+03  0.29754679846E+03  0.00000000000E+00 0.  1.
         21   -1    0    0  501  502  0.00000000000E+00 -0.00000000000E+00 -0.99008023651E+03  0.99008023651E+03  0.00000000000E+00 0.  1.
    9000010    2    1    2  501    0  0.97043200415E+01  0.29839564274E+02 -0.72892955306E+03  0.12395722561E+04  0.10021060379E+04 0.  0.
        -13    1    3    3    0    0  0.27241293544E+03  0.40235129859E+03 -0.58730452958E+03  0.76224798884E+03  0.10566000000E+00 0.  1.
          4    1    3    3  501    0 -0.26270861540E+03 -0.37251173431E+03 -0.14162502348E+03  0.47732426722E+03  0.00000000000E+00 0.  1.
         13    1    1    2    0    0 -0.97043200415E+01 -0.29839564274E+02  0.36396115018E+02  0.48054778909E+02  0.10566000000E+00 0. -1.
<mgrwt>
<rscale>  1 0.42169795E+03</rscale>
<asrwt>0</asrwt>
<pdfrwt beam="2">  1       21 0.15232004E+00 0.10025972E+04</pdfrwt>
<pdfrwt beam="1">  1        4 0.45776429E-01 0.10025972E+04</pdfrwt>
<totfact> 0.48173176E+01</totfact>
</mgrwt>
</event>
<event>
 6    1  0.1375310E-005  0.1458028E+04  0.7818608E-02  0.8994360E-01
         21   -1    0    0  501  502  0.00000000000E+00  0.00000000000E+00  0.98322919470E+03  0.98322919470E+03  0.00000000000E+00 0. -1.
          4   -1    0    0  502    0 -0.00000000000E+00 -0.00000000000E+00 -0.16112870850E+04  0.16112870850E+04  0.00000000000E+00 0.  1.
    9000010    2    1    2  501    0 -0.61012153795E+03  0.86301801877E+03 -0.30789706077E+03  0.14901832866E+04  0.10043889863E+04 0.  0.
        -13    1    3    3    0    0 -0.24218247062E+03 -0.20230523025E+03 -0.15887885596E+03  0.35330193503E+03  0.10566000000E+00 0.  1.
          4    1    3    3  501    0 -0.36793906733E+03  0.10653232490E+04 -0.14901820481E+03  0.11368813516E+04  0.00000000000E+00 0.  1.
         13    1    1    2    0    0  0.61012153795E+03 -0.86301801877E+03 -0.32016082956E+03  0.11043329931E+04  0.10566000000E+00 0. -1.
<mgrwt>
<rscale>  1 0.13453442E+04</rscale>
<asrwt>0</asrwt>
<pdfrwt beam="1">  1       21 0.15126603E+00 0.14580280E+04</pdfrwt>
<pdfrwt beam="2">  1        4 0.24789032E+00 0.14580280E+04</pdfrwt>
<totfact> 0.62630262E-01</totfact>
</mgrwt>
</event>
<event>
 6    1  0.1375310E-005  0.7444864E+03  0.7818608E-02  0.1011365E+00
          4   -1    0    0  502    0 -0.00000000000E+00  0.00000000000E+00  0.58879263908E+03  0.58879263908E+03  0.00000000000E+00 0.  1.
         21   -1    0    0  501  502  0.00000000000E+00 -0.00000000000E+00 -0.39258562371E+03  0.39258562371E+03  0.00000000000E+00 0.  1.
    9000010    2    1    2  501    0  0.14165389155E+03  0.80893276092E+02  0.25006948329E+02  0.74490623225E+03  0.72639548476E+03 0.  0.
        -13    1    3    3    0    0  0.43612759461E+03  0.18145234168E+02  0.64491728220E+02  0.44124338236E+03  0.10566000000E+00 0.  1.
          4    1    3    3  501    0 -0.29447370306E+03  0.62748041924E+02 -0.39484779891E+02  0.30366284989E+03  0.00000000000E+00 0.  1.
         13    1    1    2    0    0 -0.14165389155E+03 -0.80893276092E+02  0.17120006704E+03  0.23647203054E+03  0.10566000000E+00 0. -1.
<mgrwt>
<rscale>  1 0.50935699E+03</rscale>
<asrwt>0</asrwt>
<pdfrwt beam="2">  1       21 0.60397789E-01 0.74448636E+03</pdfrwt>
<pdfrwt beam="1">  1        4 0.90583483E-01 0.74448636E+03</pdfrwt>
<totfact> 0.10693856E+02</totfact>
</mgrwt>
</event>
<event>
 6    1  0.1375310E-005  0.1159728E+04  0.7818608E-02  0.9332292E-01
          4   -1    0    0  502    0 -0.00000000000E+00  0.00000000000E+00  0.80034358836E+03  0.80034358836E+03  0.00000000000E+00 0.  1.
         21   -1    0    0  501  502  0.00000000000E+00 -0.00000000000E+00 -0.98246607697E+03  0.98246607697E+03  0.00000000000E+00 0.  1.
    9000010    2    1    2  501    0  0.56509332377E+03  0.16270855779E+03 -0.26313076194E+03  0.11892046697E+04  0.99958261747E+03 0.  0.
        -13    1    3    3    0    0  0.51237012265E+03  0.36745674554E+03 -0.54736455228E+03  0.83495842213E+03  0.10566000000E+00 0.  1.
          4    1    3    3  501    0  0.52723201122E+02 -0.20474818775E+03  0.28423379035E+03  0.35424624754E+03  0.00000000000E+00 0.  1.
         13    1    1    2    0    0 -0.56509332377E+03 -0.16270855779E+03  0.81008273326E+02  0.59360499565E+03  0.10566000000E+00 0. -1.
<mgrwt>
<rscale>  1 0.97863570E+03</rscale>
<asrwt>0</asrwt>
<pdfrwt beam="2">  1       21 0.15114863E+00 0.11597284E+04</pdfrwt>
<pdfrwt beam="1">  1        4 0.12312978E+00 0.11597284E+04</pdfrwt>
<totfact> 0.50504579E+00</totfact>
</mgrwt>
</event>
<event>
 6    1  0.1375310E-005  0.1018849E+04  0.7818608E-02  0.9692068E-01
          4   -1    0    0  502    0 -0.00000000000E+00  0.00000000000E+00  0.22603526837E+04  0.22603526837E+04  0.00000000000E+00 0.  1.
         21   -1    0    0  501  502  0.00000000000E+00 -0.00000000000E+00 -0.22588803467E+03  0.22588803467E+03  0.00000000000E+00 0.  1.
    9000010    2    1    2  501    0 -0.19677176610E+03 -0.14927819799E+03  0.10182685836E+04  0.14404598795E+04  0.98845872340E+03 0.  0.
        -13    1    3    3    0    0 -0.43951571828E+03  0.25896747907E+03  0.70986352931E+03  0.87415356960E+03  0.10566000000E+00 0.  1.
          4    1    3    3  501    0  0.24274395218E+03 -0.40824567706E+03  0.30840505430E+03  0.56630630994E+03  0.00000000000E+00 0.  1.
         13    1    1    2    0    0  0.19677176610E+03  0.14927819799E+03  0.10161960654E+04  0.10457808388E+04  0.10566000000E+00 0. -1.
<mgrwt>
<rscale>  1 0.71491012E+03</rscale>
<asrwt>0</asrwt>
<pdfrwt beam="2">  1       21 0.34752007E-01 0.10188492E+04</pdfrwt>
<pdfrwt beam="1">  1        4 0.34774655E+00 0.10188492E+04</pdfrwt>
<totfact> 0.50176759E+00</totfact>
</mgrwt>
</event>
<event>
 6    1  0.1375310E-005  0.1013787E+04  0.7818608E-02  0.1002253E+00
          4   -1    0    0  502    0 -0.00000000000E+00  0.00000000000E+00  0.14903702621E+03  0.14903702621E+03  0.00000000000E+00 0.  1.
         21   -1    0    0  501  502  0.00000000000E+00 -0.00000000000E+00 -0.33642928353E+04  0.33642928353E+04  0.00000000000E+00 0.  1.
    9000010    2    1    2  501    0 -0.19207872028E+02 -0.83575448683E+02 -0.32618308761E+04  0.34157437661E+04  0.10101539552E+04 0.  0.
        -13    1    3    3    0    0  0.40443463328E+03 -0.29309144790E+03 -0.21569361149E+04  0.22140107011E+04  0.10566000000E+00 0.  1.
          4    1    3    3  501    0 -0.42364250531E+03  0.20951599922E+03 -0.11048947612E+04  0.12017330650E+04  0.00000000000E+00 0.  1.
         13    1    1    2    0    0  0.19207872028E+02  0.83575448683E+02  0.46575067087E+02  0.97586095365E+02  0.10566000000E+00 0. -1.
<mgrwt>
<rscale>  1 0.54673163E+03</rscale>
<asrwt>0</asrwt>
<pdfrwt beam="2">  1       21 0.51758347E+00 0.10137874E+04</pdfrwt>
<pdfrwt beam="1">  1        4 0.22928775E-01 0.10137874E+04</pdfrwt>
<totfact> 0.68309413E-01</totfact>
</mgrwt>
</event>
<event>
 6    1  0.1375310E-005  0.9888824E+03  0.7818608E-02  0.9718734E-01
         21   -1    0    0  501  502  0.00000000000E+00  0.00000000000E+00  0.24365173898E+03  0.24365173898E+03  0.00000000000E+00 0.  1.
          4   -1    0    0  502    0 -0.00000000000E+00 -0.00000000000E+00 -0.16055550341E+04  0.16055550341E+04  0.00000000000E+00 0.  1.
    9000010    2    1    2  501    0 -0.23984612382E+03 -0.59209593447E+02 -0.96505601522E+03  0.13817458509E+04  0.95752626327E+03 0.  0.
        -13    1    3    3    0    0 -0.33673921694E+03 -0.37771410800E+03 -0.19408958326E+03  0.54197050206E+03  0.10566000000E+00 0.  1.
          4    1    3    3  501    0  0.96893093128E+02  0.31850451455E+03 -0.77096643196E+03  0.83977534883E+03  0.00000000000E+00 0.  1.
         13    1    1    2    0    0  0.23984612382E+03  0.59209593447E+02 -0.39684727993E+03  0.46746092223E+03  0.10566000000E+00 0. -1.
<mgrwt>
<rscale>  1 0.69912230E+03</rscale>
<asrwt>0</asrwt>
<pdfrwt beam="1">  1       21 0.37484884E-01 0.98888244E+03</pdfrwt>
<pdfrwt beam="2">  1        4 0.24700846E+00 0.98888244E+03</pdfrwt>
<totfact> 0.18292097E+01</totfact>
</mgrwt>
</event>
<event>
 6    1  0.1375310E-005  0.1248817E+04  0.7818608E-02  0.9209304E-01
         21   -1    0    0  501  502  0.00000000000E+00  0.00000000000E+00  0.94356978775E+03  0.94356978775E+03  0.00000000000E+00 0.  1.
          4   -1    0    0  502    0 -0.00000000000E+00 -0.00000000000E+00 -0.10972472241E+04  0.10972472241E+04  0.00000000000E+00 0.  1.
    9000010    2    1    2  501    0  0.72323599116E+03  0.15807838513E+03 -0.30426025911E+03  0.12853474410E+04  0.10057259389E+04 0.  0.
        -13    1    3    3    0    0  0.46562377172E+02  0.35771560729E+03  0.20530137259E+03  0.41506285719E+03  0.10566000000E+00 0.  1.
          4    1    3    3  501    0  0.67667361399E+03 -0.19963722217E+03 -0.50956163170E+03  0.87028458382E+03  0.00000000000E+00 0.  1.
         13    1    1    2    0    0 -0.72323599116E+03 -0.15807838513E+03  0.15058282278E+03  0.75546957082E+03  0.10566000000E+00 0. -1.
<mgrwt>
<rscale>  1 0.10957906E+04</rscale>
<asrwt>0</asrwt>
<pdfrwt beam="1">  1       21 0.14516458E+00 0.12488169E+04</pdfrwt>
<pdfrwt beam="2">  1        4 0.16880726E+00 0.12488169E+04</pdfrwt>
<totfact> 0.24098039E+00</totfact>
</mgrwt>
</event>
<event>
 6    1  0.1375310E-005  0.1008827E+04  0.7818608E-02  0.9672570E-01
         21   -1    0    0  501  502  0.00000000000E+00  0.00000000000E+00  0.38222547827E+03  0.38222547827E+03  0.00000000000E+00 0.  1.
          4   -1    0    0  502    0 -0.00000000000E+00 -0.00000000000E+00 -0.11039121200E+04  0.11039121200E+04  0.00000000000E+00 0.  1.
    9000010    2    1    2  501    0  0.10984571335E+03 -0.24848439624E+03 -0.45938714849E+03  0.11084980727E+04  0.97155589091E+03 0.  0.
        -13    1    3    3    0    0 -0.10988388955E+03  0.33709193339E+03 -0.29650757604E+03  0.46219281101E+03  0.10566000000E+00 0.  1.
          4    1    3    3  501    0  0.21972960291E+03 -0.58557632963E+03 -0.16287957246E+03  0.64630526173E+03  0.00000000000E+00 0.  1.
         13    1    1    2    0    0 -0.10984571335E+03  0.24848439624E+03 -0.26229949321E+03  0.37763952550E+03  0.10566000000E+00 0. -1.
<mgrwt>
<rscale>  1 0.72673701E+03</rscale>
<asrwt>0</asrwt>
<pdfrwt beam="1">  1       21 0.58803920E-01 0.10088268E+04</pdfrwt>
<pdfrwt beam="2">  1        4 0.16983263E+00 0.10088268E+04</pdfrwt>
<totfact> 0.22348803E+01</totfact>
</mgrwt>
</event>
<event>
 6    1  0.1375310E-005  0.1009276E+04  0.7818608E-02  0.9784238E-01
         21   -1    0    0  501  502  0.00000000000E+00  0.00000000000E+00  0.16075896955E+04  0.16075896955E+04  0.00000000000E+00 0.  1.
          4   -1    0    0  502    0 -0.00000000000E+00 -0.00000000000E+00 -0.76007572094E+03  0.76007572094E+03  0.00000000000E+00 0.  1.
    9000010    2    1    2  501    0 -0.54441539210E+01 -0.18690407806E+03  0.14331681284E+04  0.17528861289E+04  0.99180447847E+03 0.  0.
        -13    1    3    3    0    0 -0.45965488446E+03 -0.41580254720E+02  0.10289966872E+04  0.11277613772E+04  0.10566000000E+00 0.  1.
          4    1    3    3  501    0  0.45421073054E+03 -0.14532382334E+03  0.40417144116E+03  0.62512475172E+03  0.00000000000E+00 0.  1.
         13    1    1    2    0    0  0.54441539210E+01  0.18690407806E+03 -0.58565415387E+03  0.61477928748E+03  0.10566000000E+00 0. -1.
<mgrwt>
<rscale>  1 0.66215299E+03</rscale>
<asrwt>0</asrwt>
<pdfrwt beam="1">  1       21 0.24732149E+00 0.10092764E+04</pdfrwt>
<pdfrwt beam="2">  1        4 0.11693473E+00 0.10092764E+04</pdfrwt>
<totfact> 0.12448802E+00</totfact>
</mgrwt>
</event>
<event>
 6    1  0.1375310E-005  0.1101839E+04  0.7818608E-02  0.9429621E-01
          4   -1    0    0  502    0 -0.00000000000E+00  0.00000000000E+00  0.18070248506E+04  0.18070248506E+04  0.00000000000E+00 0.  1.
         21   -1    0    0  501  502  0.00000000000E+00 -0.00000000000E+00 -0.39121527902E+03  0.39121527902E+03  0.00000000000E+00 0.  1.
    9000010    2    1    2  501    0  0.46018788713E+03 -0.14826843127E+03  0.61244575020E+03  0.12606102134E+04  0.99009691139E+03 0.  0.
        -13    1    3    3    0    0  0.18132703960E+03  0.39873843947E+03  0.44451623693E+03  0.62407253942E+03  0.10566000000E+00 0.  1.
          4    1    3    3  501    0  0.27886084753E+03 -0.54700687074E+03  0.16792951326E+03  0.63653767395E+03  0.00000000000E+00 0.  1.
         13    1    1    2    0    0 -0.46018788713E+03  0.14826843127E+03  0.80336382134E+03  0.93762991621E+03  0.10566000000E+00 0. -1.
<mgrwt>
<rscale>  1 0.89677591E+03</rscale>
<asrwt>0</asrwt>
<pdfrwt beam="2">  1       21 0.60186967E-01 0.11018386E+04</pdfrwt>
<pdfrwt beam="1">  1        4 0.27800382E+00 0.11018386E+04</pdfrwt>
<totfact> 0.41969407E+00</totfact>
</mgrwt>
</event>
<event>
 6    1  0.1375310E-005  0.1233109E+04  0.7818608E-02  0.9229931E-01
         21   -1    0    0  501  502  0.00000000000E+00  0.00000000000E+00  0.11012866614E+04  0.11012866614E+04  0.00000000000E+00 0. -1.
          4   -1    0    0  502    0 -0.00000000000E+00 -0.00000000000E+00 -0.87659983844E+03  0.87659983844E+03  0.00000000000E+00 0.  1.
    9000010    2    1    2  501    0  0.37922080661E+03 -0.60282293822E+03  0.68294508785E+01  0.12331276390E+04  0.10066544679E+04 0.  0.
        -13    1    3    3    0    0  0.14499830614E+03 -0.80739925215E+03 -0.21870454637E+03  0.84896981744E+03  0.10566000000E+00 0.  1.
          4    1    3    3  501    0  0.23422250047E+03  0.20457631393E+03  0.22553399725E+03  0.38415782156E+03  0.00000000000E+00 0.  1.
         13    1    1    2    0    0 -0.37922080661E+03  0.60282293822E+03  0.21785737203E+03  0.74475886079E+03  0.10566000000E+00 0. -1.
<mgrwt>
<rscale>  1 0.10749763E+04</rscale>
<asrwt>0</asrwt>
<pdfrwt beam="1">  1       21 0.16942872E+00 0.12331087E+04</pdfrwt>
<pdfrwt beam="2">  1        4 0.13486151E+00 0.12331087E+04</pdfrwt>
<totfact> 0.28533906E+00</totfact>
</mgrwt>
</event>
<event>
 6    1  0.1375310E-005  0.1020626E+04  0.7818608E-02  0.9920932E-01
         21   -1    0    0  501  502  0.00000000000E+00  0.00000000000E+00  0.40460693885E+03  0.40460693885E+03  0.00000000000E+00 0.  1.
          4   -1    0    0  502    0 -0.00000000000E+00 -0.00000000000E+00 -0.79868068993E+03  0.79868068993E+03  0.00000000000E+00 0.  1.
    9000010    2    1    2  501    0 -0.11594981275E+03  0.25126277947E+01 -0.34505376672E+03  0.10773763806E+04  0.10140153309E+04 0.  0.
        -13    1    3    3    0    0 -0.13400069236E+03 -0.33191482848E+03  0.22027319223E+03  0.42029029170E+03  0.10566000000E+00 0.  1.
          4    1    3    3  501    0  0.18050879606E+02  0.33442745627E+03 -0.56532695895E+03  0.65708608894E+03  0.00000000000E+00 0.  1.
         13    1    1    2    0    0  0.11594981275E+03 -0.25126277947E+01 -0.49019984358E+02  0.12591124813E+03  0.10566000000E+00 0. -1.
<mgrwt>
<rscale>  1 0.59257465E+03</rscale>
<asrwt>0</asrwt>
<pdfrwt beam="1">  1       21 0.62247222E-01 0.10206262E+04</pdfrwt>
<pdfrwt beam="2">  1        4 0.12287395E+00 0.10206262E+04</pdfrwt>
<totfact> 0.46525346E+01</totfact>
</mgrwt>
</event>
<event>
 6    1  0.1375310E-005  0.1096713E+04  0.7818608E-02  0.9451482E-01
         21   -1    0    0  501  502  0.00000000000E+00  0.00000000000E+00  0.30230320396E+03  0.30230320396E+03  0.00000000000E+00 0.  1.
          4   -1    0    0  502    0 -0.00000000000E+00 -0.00000000000E+00 -0.24254381801E+04  0.24254381801E+04  0.00000000000E+00 0.  1.
    9000010    2    1    2  501    0 -0.37080546161E+03  0.26150699212E+03 -0.88556029267E+03  0.14096087255E+04  0.99844735951E+03 0.  0.
        -13    1    3    3    0    0 -0.12827784812E+03  0.13098509896E+03  0.21069035439E+03  0.27928970455E+03  0.10566000000E+00 0.  1.
          4    1    3    3  501    0 -0.24252761349E+03  0.13052189316E+03 -0.10962506471E+04  0.11303190209E+04  0.00000000000E+00 0.  1.
         13    1    1    2    0    0  0.37080546161E+03 -0.26150699212E+03 -0.12375746835E+04  0.13181326586E+04  0.10566000000E+00 0. -1.
<mgrwt>
<rscale>  1 0.87957372E+03</rscale>
<asrwt>0</asrwt>
<pdfrwt beam="1">  1       21 0.46508183E-01 0.10967131E+04</pdfrwt>
<pdfrwt beam="2">  1        4 0.37314435E+00 0.10967131E+04</pdfrwt>
<totfact> 0.18335424E+00</totfact>
</mgrwt>
</event>
<event>
 6    1  0.1375310E-005  0.1010017E+04  0.7818608E-02  0.9678874E-01
          4   -1    0    0  502    0 -0.00000000000E+00  0.00000000000E+00  0.34840759364E+03  0.34840759364E+03  0.00000000000E+00 0.  1.
         21   -1    0    0  501  502  0.00000000000E+00 -0.00000000000E+00 -0.13008856911E+04  0.13008856911E+04  0.00000000000E+00 0.  1.
    9000010    2    1    2  501    0  0.18054010525E+02 -0.26441451531E+03 -0.50502576542E+03  0.11292408030E+04  0.97462443234E+03 0.  0.
        -13    1    3    3    0    0 -0.38719273450E+02 -0.61856306761E+03 -0.18044265880E+03  0.64550678929E+03  0.10566000000E+00 0.  1.
          4    1    3    3  501    0  0.56773283974E+02  0.35414855230E+03 -0.32458310662E+03  0.48373401366E+03  0.00000000000E+00 0.  1.
         13    1    1    2    0    0 -0.18054010525E+02  0.26441451531E+03 -0.44745233205E+03  0.52005248180E+03  0.10566000000E+00 0. -1.
<mgrwt>
<rscale>  1 0.72288682E+03</rscale>
<asrwt>0</asrwt>
<pdfrwt beam="2">  1       21 0.20013626E+00 0.10100167E+04</pdfrwt>
<pdfrwt beam="1">  1        4 0.53601168E-01 0.10100167E+04</pdfrwt>
<totfact> 0.15327956E+01</totfact>
</mgrwt>
</event>
<event>
 6    1  0.1375310E-005  0.1040157E+04  0.7818608E-02  0.9546817E-01
          4   -1    0    0  502    0 -0.00000000000E+00  0.00000000000E+00  0.72953103726E+03  0.72953103726E+03  0.00000000000E+00 0.  1.
         21   -1    0    0  501  502  0.00000000000E+00 -0.00000000000E+00 -0.81736647613E+03  0.81736647613E+03  0.00000000000E+00 0.  1.
    9000010    2    1    2  501    0  0.28111836407E+02  0.37993427757E+03 -0.33499844996E+03  0.10927720948E+04  0.96787734709E+03 0.  0.
        -13    1    3    3    0    0 -0.97465592662E+02  0.65555748758E+03 -0.41183304004E+03  0.78029585755E+03  0.10566000000E+00 0.  1.
          4    1    3    3  501    0  0.12557742907E+03 -0.27562321002E+03  0.76834590077E+02  0.31247623722E+03  0.00000000000E+00 0.  1.
         13    1    1    2    0    0 -0.28111836407E+02 -0.37993427757E+03  0.24716301109E+03  0.45412541862E+03  0.10566000000E+00 0. -1.
<mgrwt>
<rscale>  1 0.80918484E+03</rscale>
<asrwt>0</asrwt>
<pdfrwt beam="2">  1       21 0.12574869E+00 0.10401571E+04</pdfrwt>
<pdfrwt beam="1">  1        4 0.11223554E+00 0.10401571E+04</pdfrwt>
<totfact> 0.10640708E+01</totfact>
</mgrwt>
</event>
<event>
 6    1  0.1375310E-005  0.1022256E+04  0.7818608E-02  0.9973307E-01
          4   -1    0    0  502    0 -0.00000000000E+00  0.00000000000E+00  0.93879825195E+03  0.93879825195E+03  0.00000000000E+00 0.  1.
         21   -1    0    0  501  502  0.00000000000E+00 -0.00000000000E+00 -0.47359826091E+03  0.47359826091E+03  0.00000000000E+00 0.  1.
    9000010    2    1    2  501    0  0.58478652536E+02  0.78246228397E+02  0.91730926694E+02  0.10263636409E+04  0.10175782699E+04 0.  0.
        -13    1    3    3    0    0 -0.31925096701E+03 -0.33397269745E+03  0.17501163567E+02  0.46234753646E+03  0.10566000000E+00 0.  1.
          4    1    3    3  501    0  0.37772961955E+03  0.41221892585E+03  0.74229763127E+02  0.56401610442E+03  0.00000000000E+00 0.  1.
         13    1    1    2    0    0 -0.58478652536E+02 -0.78246228397E+02  0.37346906434E+03  0.38603287198E+03  0.10566000000E+00 0. -1.
<mgrwt>
<rscale>  1 0.56836338E+03</rscale>
<asrwt>0</asrwt>
<pdfrwt beam="2">  1       21 0.72861271E-01 0.10222562E+04</pdfrwt>
<pdfrwt beam="1">  1        4 0.14443050E+00 0.10222562E+04</pdfrwt>
<totfact> 0.21383858E+01</totfact>
</mgrwt>
</event>
<event>
 6    1  0.1375310E-005  0.1018470E+04  0.7818608E-02  0.9867916E-01
         21   -1    0    0  501  502  0.00000000000E+00  0.00000000000E+00  0.42729534298E+03  0.42729534298E+03  0.00000000000E+00 0.  1.
          4   -1    0    0  502    0 -0.00000000000E+00 -0.00000000000E+00 -0.11642448902E+04  0.11642448902E+04  0.00000000000E+00 0.  1.
    9000010    2    1    2  501    0  0.13719844516E+03  0.18545357543E+02 -0.20115125994E+03  0.10381442091E+04  0.10090164646E+04 0.  0.
        -13    1    3    3    0    0  0.25200924505E+03  0.43769571563E+03  0.92747927338E+02  0.51350597685E+03  0.10566000000E+00 0.  1.
          4    1    3    3  501    0 -0.11481079989E+03 -0.41915035809E+03 -0.29389918728E+03  0.52463823225E+03  0.00000000000E+00 0.  1.
         13    1    1    2    0    0 -0.13719844516E+03 -0.18545357543E+02 -0.53579828728E+03  0.55339602407E+03  0.10566000000E+00 0. -1.
<mgrwt>
<rscale>  1 0.61841714E+03</rscale>
<asrwt>0</asrwt>
<pdfrwt beam="1">  1       21 0.65737745E-01 0.10184702E+04</pdfrwt>
<pdfrwt beam="2">  1        4 0.17911460E+00 0.10184702E+04</pdfrwt>
<totfact> 0.14938948E+01</totfact>
</mgrwt>
</event>
<event>
 6    1  0.1375310E-005  0.1019272E+04  0.7818608E-02  0.9662669E-01
         21   -1    0    0  501  502  0.00000000000E+00  0.00000000000E+00  0.18297270767E+04  0.18297270767E+04  0.00000000000E+00 0.  1.
          4   -1    0    0  502    0 -0.00000000000E+00 -0.00000000000E+00 -0.25736317812E+03  0.25736317812E+03  0.00000000000E+00 0.  1.
    9000010    2    1    2  501    0  0.69874598135E+02  0.26325323535E+03  0.14848136556E+04  0.18009962465E+04  0.98220729105E+03 0.  0.
        -13    1    3    3    0    0  0.39107368358E+03  0.43332405818E+03  0.56663018679E+03  0.81349747703E+03  0.10566000000E+00 0.  1.
          4    1    3    3  501    0 -0.32119908545E+03 -0.17007082283E+03  0.91818346884E+03  0.98749876948E+03  0.00000000000E+00 0.  1.
         13    1    1    2    0    0 -0.69874598135E+02 -0.26325323535E+03  0.87550242962E+02  0.28609400832E+03  0.10566000000E+00 0. -1.
<mgrwt>
<rscale>  1 0.73283629E+03</rscale>
<asrwt>0</asrwt>
<pdfrwt beam="1">  1       21 0.28149647E+00 0.10192722E+04</pdfrwt>
<pdfrwt beam="2">  1        4 0.39594336E-01 0.10192722E+04</pdfrwt>
<totfact> 0.85736362E+00</totfact>
</mgrwt>
</event>
<event>
 6    1  0.1375310E-005  0.1061190E+04  0.7818608E-02  0.9693970E-01
         21   -1    0    0  501  502  0.00000000000E+00  0.00000000000E+00  0.30572354170E+03  0.30572354170E+03  0.00000000000E+00 0.  1.
          4   -1    0    0  502    0 -0.00000000000E+00 -0.00000000000E+00 -0.15026998157E+04  0.15026998157E+04  0.00000000000E+00 0.  1.
    9000010    2    1    2  501    0 -0.47370337863E+02 -0.21196744185E+03 -0.71449225027E+03  0.12793061779E+04  0.10387256499E+04 0.  0.
        -13    1    3    3    0    0 -0.21038328152E+03 -0.20535410729E+03 -0.94907600760E+03  0.99356766950E+03  0.10566000000E+00 0.  1.
          4    1    3    3  501    0  0.16301294366E+03 -0.66133345622E+01  0.23458375732E+03  0.28573850842E+03  0.00000000000E+00 0.  1.
         13    1    1    2    0    0  0.47370337863E+02  0.21196744185E+03 -0.48248402376E+03  0.52911717952E+03  0.10566000000E+00 0. -1.
<mgrwt>
<rscale>  1 0.71376954E+03</rscale>
<asrwt>0</asrwt>
<pdfrwt beam="1">  1       21 0.47034392E-01 0.10611904E+04</pdfrwt>
<pdfrwt beam="2">  1        4 0.23118458E+00 0.10611904E+04</pdfrwt>
<totfact> 0.14117863E+01</totfact>
</mgrwt>
</event>
<event>
 6    1  0.1375310E-005  0.1024008E+04  0.7818608E-02  0.9741213E-01
         21   -1    0    0  501  502  0.00000000000E+00  0.00000000000E+00  0.41049615271E+03  0.41049615271E+03  0.00000000000E+00 0.  1.
          4   -1    0    0  502    0 -0.00000000000E+00 -0.00000000000E+00 -0.92213515596E+03  0.92213515596E+03  0.00000000000E+00 0.  1.
    9000010    2    1    2  501    0  0.19180112946E+03  0.76320581012E+02 -0.43089196666E+03  0.11109725632E+04  0.10029853663E+04 0.  0.
        -13    1    3    3    0    0  0.50005638190E+03  0.33678540227E+03 -0.35711095578E+03  0.70072037087E+03  0.10566000000E+00 0.  1.
          4    1    3    3  501    0 -0.30825525244E+03 -0.26046482125E+03 -0.73781010887E+02  0.41025219236E+03  0.00000000000E+00 0.  1.
         13    1    1    2    0    0 -0.19180112946E+03 -0.76320581012E+02 -0.80747036594E+02  0.22165874544E+03  0.10566000000E+00 0. -1.
<mgrwt>
<rscale>  1 0.68615096E+03</rscale>
<asrwt>0</asrwt>
<pdfrwt beam="1">  1       21 0.63153254E-01 0.10240079E+04</pdfrwt>
<pdfrwt beam="2">  1        4 0.14186695E+00 0.10240079E+04</pdfrwt>
<totfact> 0.31059462E+01</totfact>
</mgrwt>
</event>
<event>
 6    1  0.1375310E-005  0.1107784E+04  0.7818608E-02  0.9723524E-01
         21   -1    0    0  501  502  0.00000000000E+00  0.00000000000E+00  0.66853794388E+03  0.66853794388E+03  0.00000000000E+00 0.  1.
          4   -1    0    0  502    0 -0.00000000000E+00 -0.00000000000E+00 -0.61456146817E+03  0.61456146817E+03  0.00000000000E+00 0.  1.
    9000010    2    1    2  501    0  0.14125189959E+03  0.99785022966E+02  0.65930699820E+02  0.11097440989E+04  0.10942010592E+04 0.  0.
        -13    1    3    3    0    0 -0.89959888441E+02 -0.26064198858E+03 -0.39427913172E+03  0.48112687787E+03  0.10566000000E+00 0.  1.
          4    1    3    3  501    0  0.23121178804E+03  0.36042701154E+03  0.46020983154E+03  0.62861722106E+03  0.00000000000E+00 0.  1.
         13    1    1    2    0    0 -0.14125189959E+03 -0.99785022966E+02 -0.11954224109E+02  0.17335531312E+03  0.10566000000E+00 0. -1.
<mgrwt>
<rscale>  1 0.69633273E+03</rscale>
<asrwt>0</asrwt>
<pdfrwt beam="1">  1       21 0.10285199E+00 0.11077839E+04</pdfrwt>
<pdfrwt beam="2">  1        4 0.94547918E-01 0.11077839E+04</pdfrwt>
<totfact> 0.26850188E+01</totfact>
</mgrwt>
</event>
<event>
 6    1  0.1375310E-005  0.1023513E+04  0.7818608E-02  0.9737140E-01
         21   -1    0    0  501  502  0.00000000000E+00  0.00000000000E+00  0.50814920524E+03  0.50814920524E+03  0.00000000000E+00 0.  1.
          4   -1    0    0  502    0 -0.00000000000E+00 -0.00000000000E+00 -0.75162295659E+03  0.75162295659E+03  0.00000000000E+00 0.  1.
    9000010    2    1    2  501    0  0.91020604035E+01 -0.20934980883E+03 -0.16893086342E+03  0.10373607339E+04  0.10018330528E+04 0.  0.
        -13    1    3    3    0    0  0.34058593601E+03 -0.28371932223E+03 -0.42332626871E+03  0.61294418552E+03  0.10566000000E+00 0.  1.
          4    1    3    3  501    0 -0.33148387561E+03  0.74369513395E+02  0.25439540530E+03  0.42441654839E+03  0.00000000000E+00 0.  1.
         13    1    1    2    0    0 -0.91020604035E+01  0.20934980883E+03 -0.74542887932E+02  0.22241142791E+03  0.10566000000E+00 0. -1.
<mgrwt>
<rscale>  1 0.68847920E+03</rscale>
<asrwt>0</asrwt>
<pdfrwt beam="1">  1       21 0.78176801E-01 0.10235134E+04</pdfrwt>
<pdfrwt beam="2">  1        4 0.11563430E+00 0.10235134E+04</pdfrwt>
<totfact> 0.32139821E+01</totfact>
</mgrwt>
</event>
<event>
 6    1  0.1375310E-005  0.1047495E+04  0.7818608E-02  0.9620122E-01
         21   -1    0    0  501  502  0.00000000000E+00  0.00000000000E+00  0.63262433226E+03  0.63262433226E+03  0.00000000000E+00 0.  1.
          4   -1    0    0  502    0 -0.00000000000E+00 -0.00000000000E+00 -0.82807777586E+03  0.82807777586E+03  0.00000000000E+00 0.  1.
    9000010    2    1    2  501    0  0.28371036238E+03  0.59778656467E+02  0.93125107479E+02  0.10516267498E+04  0.10065691619E+04 0.  0.
        -13    1    3    3    0    0  0.40423816253E+03  0.91193787555E+02 -0.38007998025E+03  0.56230383378E+03  0.10566000000E+00 0.  1.
          4    1    3    3  501    0 -0.12052780015E+03 -0.31415131088E+02  0.47320508772E+03  0.48932291600E+03  0.00000000000E+00 0.  1.
         13    1    1    2    0    0 -0.28371036238E+03 -0.59778656467E+02 -0.28857855108E+03  0.40907535834E+03  0.10566000000E+00 0. -1.
<mgrwt>
<rscale>  1 0.75978555E+03</rscale>
<asrwt>0</asrwt>
<pdfrwt beam="1">  1       21 0.97326820E-01 0.10474954E+04</pdfrwt>
<pdfrwt beam="2">  1        4 0.12739658E+00 0.10474954E+04</pdfrwt>
<totfact> 0.14839334E+01</totfact>
</mgrwt>
</event>
<event>
 6    1  0.1375310E-005  0.1054014E+04  0.7818608E-02  0.9560317E-01
          4   -1    0    0  502    0 -0.00000000000E+00  0.00000000000E+00  0.51810737750E+03  0.51810737750E+03  0.00000000000E+00 0.  1.
         21   -1    0    0  501  502  0.00000000000E+00 -0.00000000000E+00 -0.99071391420E+03  0.99071391420E+03  0.00000000000E+00 0.  1.
    9000010    2    1    2  501    0  0.31344389649E+03  0.15446775999E+03 -0.48258848503E+03  0.11592400914E+04  0.99440362961E+03 0.  0.
        -13    1    3    3    0    0 -0.31248236140E+03  0.14380916854E+03 -0.40037009550E+03  0.52784706846E+03  0.10566000000E+00 0.  1.
          4    1    3    3  501    0  0.62592625789E+03  0.10658591451E+02 -0.82218389530E+02  0.63139302297E+03  0.00000000000E+00 0.  1.
         13    1    1    2    0    0 -0.31344389649E+03 -0.15446775999E+03  0.99819483346E+01  0.34958120026E+03  0.10566000000E+00 0. -1.
<mgrwt>
<rscale>  1 0.79979298E+03</rscale>
<asrwt>0</asrwt>
<pdfrwt beam="2">  1       21 0.15241752E+00 0.10540142E+04</pdfrwt>
<pdfrwt beam="1">  1        4 0.79708829E-01 0.10540142E+04</pdfrwt>
<totfact> 0.14245365E+01</totfact>
</mgrwt>
</event>
<event>
 6    1  0.1375310E-005  0.1044759E+04  0.7818608E-02  0.9603765E-01
         21   -1    0    0  501  502  0.00000000000E+00  0.00000000000E+00  0.42848647597E+03  0.42848647597E+03  0.00000000000E+00 0.  1.
          4   -1    0    0  502    0 -0.00000000000E+00 -0.00000000000E+00 -0.10899759517E+04  0.10899759517E+04  0.00000000000E+00 0.  1.
    9000010    2    1    2  501    0  0.30496618404E+03  0.49882493082E+02 -0.59522061307E+03  0.12024177950E+04  0.99801219379E+03 0.  0.
        -13    1    3    3    0    0  0.60897701639E+02 -0.18003364828E+03 -0.79142456455E+03  0.81392474905E+03  0.10566000000E+00 0.  1.
          4    1    3    3  501    0  0.24406848240E+03  0.22991614136E+03  0.19620395148E+03  0.38849304593E+03  0.00000000000E+00 0.  1.
         13    1    1    2    0    0 -0.30496618404E+03 -0.49882493082E+02 -0.66268862666E+02  0.31604463268E+03  0.10566000000E+00 0. -1.
<mgrwt>
<rscale>  1 0.77047460E+03</rscale>
<asrwt>0</asrwt>
<pdfrwt beam="1">  1       21 0.65920998E-01 0.10447588E+04</pdfrwt>
<pdfrwt beam="2">  1        4 0.16768860E+00 0.10447588E+04</pdfrwt>
<totfact> 0.17858792E+01</totfact>
</mgrwt>
</event>
<event>
 6    1  0.1375310E-005  0.1158187E+04  0.7818608E-02  0.9318211E-01
          4   -1    0    0  502    0 -0.00000000000E+00  0.00000000000E+00  0.28127900514E+04  0.28127900514E+04  0.00000000000E+00 0.  1.
         21   -1    0    0  501  502  0.00000000000E+00 -0.00000000000E+00 -0.55409208300E+03  0.55409208300E+03  0.00000000000E+00 0.  1.
    9000010    2    1    2  501    0  0.61115060876E+03 -0.11238892550E+03  0.14919130513E+03  0.11677562374E+04  0.97737415935E+03 0.  0.
        -13    1    3    3    0    0  0.57863223247E+03 -0.20594587854E+03 -0.31699151256E+03  0.69116755967E+03  0.10566000000E+00 0.  1.
          4    1    3    3  501    0  0.32518376284E+02  0.93556953041E+02  0.46618281768E+03  0.47658867775E+03  0.00000000000E+00 0.  1.
         13    1    1    2    0    0 -0.61115060876E+03  0.11238892550E+03  0.21095066633E+04  0.21991258970E+04  0.10566000000E+00 0. -1.
<mgrwt>
<rscale>  1 0.99123479E+03</rscale>
<asrwt>0</asrwt>
<pdfrwt beam="2">  1       21 0.85244937E-01 0.11581868E+04</pdfrwt>
<pdfrwt beam="1">  1        4 0.43273692E+00 0.11581868E+04</pdfrwt>
<totfact> 0.17755241E-01</totfact>
</mgrwt>
</event>
<event>
 6    1  0.1375310E-005  0.1036210E+04  0.7818608E-02  0.9651276E-01
         21   -1    0    0  501  502  0.00000000000E+00  0.00000000000E+00  0.23699973987E+04  0.23699973987E+04  0.00000000000E+00 0.  1.
          4   -1    0    0  502    0 -0.00000000000E+00 -0.00000000000E+00 -0.20674826098E+03  0.20674826098E+03  0.00000000000E+00 0.  1.
    9000010    2    1    2  501    0 -0.20634766361E+03  0.17322652522E+03  0.20231561256E+04  0.22730799709E+04  0.10005723654E+04 0.  0.
        -13    1    3    3    0    0 -0.23217539210E+03 -0.36241789903E+03  0.13223515665E+04  0.13906350430E+04  0.10566000000E+00 0.  1.
          4    1    3    3  501    0  0.25827728491E+02  0.53564442425E+03  0.70080455910E+03  0.88244492794E+03  0.00000000000E+00 0.  1.
         13    1    1    2    0    0  0.20634766361E+03 -0.17322652522E+03  0.14009301216E+03  0.30366568877E+03  0.10566000000E+00 0. -1.
<mgrwt>
<rscale>  1 0.73993427E+03</rscale>
<asrwt>0</asrwt>
<pdfrwt beam="1">  1       21 0.36461497E+00 0.10362103E+04</pdfrwt>
<pdfrwt beam="2">  1        4 0.31807426E-01 0.10362103E+04</pdfrwt>
<totfact> 0.39950345E+00</totfact>
</mgrwt>
</event>
<event>
 6    1  0.1375310E-005  0.1072403E+04  0.7818608E-02  0.9513122E-01
          4   -1    0    0  502    0 -0.00000000000E+00  0.00000000000E+00  0.11505924608E+04  0.11505924608E+04  0.00000000000E+00 0.  1.
         21   -1    0    0  501  502  0.00000000000E+00 -0.00000000000E+00 -0.48349249255E+03  0.48349249255E+03  0.00000000000E+00 0.  1.
    9000010    2    1    2  501    0  0.38604130432E+03  0.61005997939E+02  0.34170621939E+03  0.11255274607E+04  0.99864873899E+03 0.  0.
        -13    1    3    3    0    0  0.19919077425E+03  0.50344552390E+03  0.35085818372E+03  0.64516341831E+03  0.10566000000E+00 0.  1.
          4    1    3    3  501    0  0.18685053007E+03 -0.44243952596E+03 -0.91519643299E+01  0.48036404234E+03  0.00000000000E+00 0.  1.
         13    1    1    2    0    0 -0.38604130432E+03 -0.61005997939E+02  0.32539374887E+03  0.50855749271E+03  0.10566000000E+00 0. -1.
<mgrwt>
<rscale>  1 0.83323238E+03</rscale>
<asrwt>0</asrwt>
<pdfrwt beam="2">  1       21 0.74383461E-01 0.10724033E+04</pdfrwt>
<pdfrwt beam="1">  1        4 0.17701422E+00 0.10724033E+04</pdfrwt>
<totfact> 0.11576752E+01</totfact>
</mgrwt>
</event>
<event>
 6    1  0.1375310E-005  0.1713499E+04  0.7818608E-02  0.8803649E-01
         21   -1    0    0  501  502  0.00000000000E+00  0.00000000000E+00  0.17269800172E+04  0.17269800172E+04  0.00000000000E+00 0. -1.
          4   -1    0    0  502    0 -0.00000000000E+00 -0.00000000000E+00 -0.15482087361E+04  0.15482087361E+04  0.00000000000E+00 0.  1.
    9000010    2    1    2  501    0 -0.13738214080E+04  0.24542668175E+03  0.60309326991E+03  0.18165357176E+04  0.99421376167E+03 0.  0.
        -13    1    3    3    0    0  0.73195825097E+02  0.25618581138E+03  0.92186387530E+02  0.28193463777E+03  0.10566000000E+00 0.  1.
          4    1    3    3  501    0 -0.14470172331E+04 -0.10759129625E+02  0.51090688238E+03  0.15346010798E+04  0.00000000000E+00 0.  1.
         13    1    1    2    0    0  0.13738214080E+04 -0.24542668175E+03 -0.42432198881E+03  0.14586530357E+04  0.10566000000E+00 0. -1.
<mgrwt>
<rscale>  1 0.16277998E+04</rscale>
<asrwt>0</asrwt>
<pdfrwt beam="1">  1       21 0.26568923E+00 0.17134995E+04</pdfrwt>
<pdfrwt beam="2">  1        4 0.23818596E+00 0.17134995E+04</pdfrwt>
<totfact> 0.11047730E-01</totfact>
</mgrwt>
</event>
<event>
 6    1  0.1375310E-005  0.9574530E+03  0.7818608E-02  0.9751092E-01
         21   -1    0    0  501  502  0.00000000000E+00  0.00000000000E+00  0.15051956616E+03  0.15051956616E+03  0.00000000000E+00 0.  1.
          4   -1    0    0  502    0 -0.00000000000E+00 -0.00000000000E+00 -0.24483730272E+04  0.24483730272E+04  0.00000000000E+00 0.  1.
    9000010    2    1    2  501    0  0.10371625625E+03 -0.22128655947E+03 -0.19661370247E+04  0.21868724379E+04  0.92573833047E+03 0.  0.
        -13    1    3    3    0    0  0.25811538645E+03 -0.69528274611E+02 -0.67198443861E+02  0.27563268259E+03  0.10566000000E+00 0.  1.
          4    1    3    3  501    0 -0.15439913020E+03 -0.15175828486E+03 -0.18989385809E+04  0.19112397553E+04  0.00000000000E+00 0.  1.
         13    1    1    2    0    0 -0.10371625625E+03  0.22128655947E+03 -0.33171643633E+03  0.41202015546E+03  0.10566000000E+00 0. -1.
<mgrwt>
<rscale>  1 0.68054603E+03</rscale>
<asrwt>0</asrwt>
<pdfrwt beam="1">  1       21 0.23156859E-01 0.95745301E+03</pdfrwt>
<pdfrwt beam="2">  1        4 0.37667274E+00 0.95745301E+03</pdfrwt>
<totfact> 0.73782457E+00</totfact>
</mgrwt>
</event>
<event>
 6    1  0.1375310E-005  0.1048687E+04  0.7818608E-02  0.9648581E-01
         21   -1    0    0  501  502  0.00000000000E+00  0.00000000000E+00  0.12849615624E+04  0.12849615624E+04  0.00000000000E+00 0.  1.
          4   -1    0    0  502    0 -0.00000000000E+00 -0.00000000000E+00 -0.36999715121E+03  0.36999715121E+03  0.00000000000E+00 0.  1.
    9000010    2    1    2  501    0  0.26170890670E+03 -0.17623718543E+02  0.91637253630E+03  0.13926532785E+04  0.10153533284E+04 0.  0.
        -13    1    3    3    0    0 -0.14575045333E+03 -0.24408901924E+03 -0.77687286938E+02  0.29471676178E+03  0.10566000000E+00 0.  1.
          4    1    3    3  501    0  0.40745936003E+03  0.22646530070E+03  0.99405982324E+03  0.10979365167E+04  0.00000000000E+00 0.  1.
         13    1    1    2    0    0 -0.26170890670E+03  0.17623718543E+02 -0.14081251455E+01  0.26230543510E+03  0.10566000000E+00 0. -1.
<mgrwt>
<rscale>  1 0.74162556E+03</rscale>
<asrwt>0</asrwt>
<pdfrwt beam="1">  1       21 0.19768639E+00 0.10486870E+04</pdfrwt>
<pdfrwt beam="2">  1        4 0.56922639E-01 0.10486870E+04</pdfrwt>
<totfact> 0.13938351E+01</totfact>
</mgrwt>
</event>
<event>
 6    1  0.1375310E-005  0.1139574E+04  0.7818608E-02  0.9466211E-01
         21   -1    0    0  501  502  0.00000000000E+00  0.00000000000E+00  0.47758054985E+03  0.47758054985E+03  0.00000000000E+00 0. -1.
          4   -1    0    0  502    0 -0.00000000000E+00 -0.00000000000E+00 -0.12157651196E+04  0.12157651196E+04  0.00000000000E+00 0.  1.
    9000010    2    1    2  501    0  0.15498853836E+03  0.35128312944E+03 -0.56985888802E+03  0.12741144322E+04  0.10729432184E+04 0.  0.
        -13    1    3    3    0    0  0.59216346611E+03  0.25444823083E+03 -0.51096255623E+03  0.82248660646E+03  0.10566000000E+00 0.  1.
          4    1    3    3  501    0 -0.43717492776E+03  0.96834898607E+02 -0.58896331785E+02  0.45162782570E+03  0.00000000000E+00 0.  1.
         13    1    1    2    0    0 -0.15498853836E+03 -0.35128312944E+03 -0.16832568178E+03  0.41923123734E+03  0.10566000000E+00 0. -1.
<mgrwt>
<rscale>  1 0.86821428E+03</rscale>
<asrwt>0</asrwt>
<pdfrwt beam="1">  1       21 0.73473930E-01 0.11395738E+04</pdfrwt>
<pdfrwt beam="2">  1        4 0.18704079E+00 0.11395738E+04</pdfrwt>
<totfact> 0.10076358E+01</totfact>
</mgrwt>
</event>
<event>
 6    1  0.1375310E-005  0.9571755E+03  0.7818608E-02  0.9837914E-01
          4   -1    0    0  502    0 -0.00000000000E+00  0.00000000000E+00  0.42859401292E+03  0.42859401292E+03  0.00000000000E+00 0.  1.
         21   -1    0    0  501  502  0.00000000000E+00 -0.00000000000E+00 -0.77099701429E+03  0.77099701429E+03  0.00000000000E+00 0.  1.
    9000010    2    1    2  501    0 -0.18180068186E+03 -0.27410156444E+02 -0.33984966061E+03  0.10157178772E+04  0.93935201578E+03 0.  0.
        -13    1    3    3    0    0  0.23843505869E+03  0.20071219804E+02 -0.50727256724E+03  0.56087396064E+03  0.10566000000E+00 0.  1.
          4    1    3    3  501    0 -0.42023574055E+03 -0.47481376248E+02  0.16742290663E+03  0.45484391652E+03  0.00000000000E+00 0.  1.
         13    1    1    2    0    0  0.18180068186E+03  0.27410156444E+02 -0.25533407577E+01  0.18387315006E+03  0.10566000000E+00 0. -1.
<mgrwt>
<rscale>  1 0.63366950E+03</rscale>
<asrwt>0</asrwt>
<pdfrwt beam="2">  1       21 0.11861492E+00 0.95717554E+03</pdfrwt>
<pdfrwt beam="1">  1        4 0.65937541E-01 0.95717554E+03</pdfrwt>
<totfact> 0.43321850E+01</totfact>
</mgrwt>
</event>
<event>
 6    1  0.1375310E-005  0.1014558E+04  0.7818608E-02  0.9883551E-01
         21   -1    0    0  501  502  0.00000000000E+00  0.00000000000E+00  0.69988480441E+03  0.69988480441E+03  0.00000000000E+00 0.  1.
          4   -1    0    0  502    0 -0.00000000000E+00 -0.00000000000E+00 -0.71530762576E+03  0.71530762576E+03  0.00000000000E+00 0.  1.
    9000010    2    1    2  501    0 -0.12998195850E+03  0.28874150810E+02  0.31223215301E+03  0.10615162796E+04  0.10057827143E+04 0.  0.
        -13    1    3    3    0    0  0.92155380163E+01  0.28292665372E+03 -0.28253778622E+03  0.39995003354E+03  0.10566000000E+00 0.  1.
          4    1    3    3  501    0 -0.13919749651E+03 -0.25405250291E+03  0.59476993923E+03  0.66156624602E+03  0.00000000000E+00 0.  1.
         13    1    1    2    0    0  0.12998195850E+03 -0.28874150810E+02 -0.32765497436E+03  0.35367615060E+03  0.10566000000E+00 0. -1.
<mgrwt>
<rscale>  1 0.61065132E+03</rscale>
<asrwt>0</asrwt>
<pdfrwt beam="1">  1       21 0.10767459E+00 0.10145580E+04</pdfrwt>
<pdfrwt beam="2">  1        4 0.11004733E+00 0.10145580E+04</pdfrwt>
<totfact> 0.16701223E+01</totfact>
</mgrwt>
</event>
<event>
 6    1  0.1375310E-005  0.9790062E+03  0.7818608E-02  0.1021499E+00
         21   -1    0    0  501  502  0.00000000000E+00  0.00000000000E+00  0.87802213839E+03  0.87802213839E+03  0.00000000000E+00 0.  1.
          4   -1    0    0  502    0 -0.00000000000E+00 -0.00000000000E+00 -0.30384020649E+03  0.30384020649E+03  0.00000000000E+00 0.  1.
    9000010    2    1    2  501    0  0.11506244032E+02 -0.51396528868E+02  0.55750347538E+03  0.11266158164E+04  0.97758839801E+03 0.  0.
        -13    1    3    3    0    0  0.16260859251E+03 -0.45042994399E+03  0.78746301114E+02  0.48531400135E+03  0.10566000000E+00 0.  1.
          4    1    3    3  501    0 -0.15110234848E+03  0.39903341513E+03  0.47875717426E+03  0.64130181507E+03  0.00000000000E+00 0.  1.
         13    1    1    2    0    0 -0.11506244032E+02  0.51396528868E+02  0.16678456523E+02  0.55246528465E+02  0.10566000000E+00 0. -1.
<mgrwt>
<rscale>  1 0.47149548E+03</rscale>
<asrwt>0</asrwt>
<pdfrwt beam="1">  1       21 0.13508033E+00 0.97900617E+03</pdfrwt>
<pdfrwt beam="2">  1        4 0.46744648E-01 0.97900617E+03</pdfrwt>
<totfact> 0.64270502E+01</totfact>
</mgrwt>
</event>
<event>
 6    1  0.1375310E-005  0.1113230E+04  0.7818608E-02  0.9430163E-01
         21   -1    0    0  501  502  0.00000000000E+00  0.00000000000E+00  0.55821262486E+03  0.55821262486E+03  0.00000000000E+00 0. -1.
          4   -1    0    0  502    0 -0.00000000000E+00 -0.00000000000E+00 -0.17042104448E+04  0.17042104448E+04  0.00000000000E+00 0.  1.
    9000010    2    1    2  501    0 -0.46613451329E+03  0.40486791039E+02 -0.10141720921E+03  0.11178405134E+04  0.10101293968E+04 0.  0.
        -13    1    3    3    0    0  0.84766254625E+02  0.34234276451E+03 -0.29576627568E+03  0.46028424623E+03  0.10566000000E+00 0.  1.
          4    1    3    3  501    0 -0.55090076791E+03 -0.30185597347E+03  0.19434906647E+03  0.65755626713E+03  0.00000000000E+00 0.  1.
         13    1    1    2    0    0  0.46613451329E+03 -0.40486791039E+02 -0.10445806108E+04  0.11445825563E+04  0.10566000000E+00 0. -1.
<mgrwt>
<rscale>  1 0.89634380E+03</rscale>
<asrwt>0</asrwt>
<pdfrwt beam="1">  1       21 0.85878866E-01 0.11132304E+04</pdfrwt>
<pdfrwt beam="2">  1        4 0.26218622E+00 0.11132304E+04</pdfrwt>
<totfact> 0.23080162E+00</totfact>
</mgrwt>
</event>
<event>
 6    1  0.1375310E-005  0.1043512E+04  0.7818608E-02  0.9593732E-01
          4   -1    0    0  502    0 -0.00000000000E+00  0.00000000000E+00  0.35748429504E+03  0.35748429504E+03  0.00000000000E+00 0.  1.
         21   -1    0    0  501  502  0.00000000000E+00 -0.00000000000E+00 -0.15652396139E+04  0.15652396139E+04  0.00000000000E+00 0.  1.
    9000010    2    1    2  501    0  0.32018207921E+03 -0.22537890605E+02 -0.12150793003E+04  0.16016660135E+04  0.99292083885E+03 0.  0.
        -13    1    3    3    0    0  0.59728864229E+03 -0.26894629777E+03 -0.62910560477E+03  0.90821787386E+03  0.10566000000E+00 0.  1.
          4    1    3    3  501    0 -0.27710656307E+03  0.24640840717E+03 -0.58597369557E+03  0.69344813960E+03  0.00000000000E+00 0.  1.
         13    1    1    2    0    0 -0.32018207921E+03  0.22537890605E+02  0.73239815067E+01  0.32105789545E+03  0.10566000000E+00 0. -1.
<mgrwt>
<rscale>  1 0.77712436E+03</rscale>
<asrwt>0</asrwt>
<pdfrwt beam="2">  1       21 0.24080609E+00 0.10435115E+04</pdfrwt>
<pdfrwt beam="1">  1        4 0.54997585E-01 0.10435115E+04</pdfrwt>
<totfact> 0.77660708E+00</totfact>
</mgrwt>
</event>
<event>
 6    1  0.1375310E-005  0.1040003E+04  0.7818608E-02  0.9658741E-01
          4   -1    0    0  502    0 -0.00000000000E+00  0.00000000000E+00  0.55364077842E+03  0.55364077842E+03  0.00000000000E+00 0.  1.
         21   -1    0    0  501  502  0.00000000000E+00 -0.00000000000E+00 -0.77239886855E+03  0.77239886855E+03  0.00000000000E+00 0.  1.
    9000010    2    1    2  501    0  0.20635716017E+02 -0.25901140365E+03 -0.23312453159E+03  0.10658106213E+04  0.10070215952E+04 0.  0.
        -13    1    3    3    0    0 -0.16352668821E+03  0.34152095375E+03 -0.21919468895E+03  0.43752012804E+03  0.10566000000E+00 0.  1.
          4    1    3    3  501    0  0.18416240422E+03 -0.60053235740E+03 -0.13929842641E+02  0.62829049327E+03  0.00000000000E+00 0.  1.
         13    1    1    2    0    0 -0.20635716017E+02  0.25901140365E+03  0.14366441462E+02  0.26022902566E+03  0.10566000000E+00 0. -1.
<mgrwt>
<rscale>  1 0.73527368E+03</rscale>
<asrwt>0</asrwt>
<pdfrwt beam="2">  1       21 0.11883059E+00 0.10400025E+04</pdfrwt>
<pdfrwt beam="1">  1        4 0.85175505E-01 0.10400025E+04</pdfrwt>
<totfact> 0.23930946E+01</totfact>
</mgrwt>
</event>
<event>
 6    1  0.1375310E-005  0.1336485E+04  0.7818608E-02  0.9110045E-01
         21   -1    0    0  501  502  0.00000000000E+00  0.00000000000E+00  0.67233779330E+03  0.67233779330E+03  0.00000000000E+00 0.  1.
          4   -1    0    0  502    0 -0.00000000000E+00 -0.00000000000E+00 -0.18336507393E+04  0.18336507393E+04  0.00000000000E+00 0.  1.
    9000010    2    1    2  501    0 -0.32335289055E+03  0.81626343727E+03 -0.79174656991E+03  0.15534013143E+04  0.10076457322E+04 0.  0.
        -13    1    3    3    0    0 -0.13571004588E+03  0.99691531329E+03 -0.39944646989E+03  0.10825039732E+04  0.10566000000E+00 0.  1.
          4    1    3    3  501    0 -0.18764284467E+03 -0.18065187602E+03 -0.39230010002E+03  0.47089734119E+03  0.00000000000E+00 0.  1.
         13    1    1    2    0    0  0.32335289055E+03 -0.81626343727E+03 -0.36956637608E+03  0.95258721823E+03  0.10566000000E+00 0. -1.
<mgrwt>
<rscale>  1 0.12032170E+04</rscale>
<asrwt>0</asrwt>
<pdfrwt beam="1">  1       21 0.10343658E+00 0.13364853E+04</pdfrwt>
<pdfrwt beam="2">  1        4 0.28210011E+00 0.13364853E+04</pdfrwt>
<totfact> 0.10691129E+00</totfact>
</mgrwt>
</event>
<event>
 6    1  0.1375310E-005  0.1021289E+04  0.7818608E-02  0.9805890E-01
          4   -1    0    0  502    0 -0.00000000000E+00  0.00000000000E+00  0.80701464597E+03  0.80701464597E+03  0.00000000000E+00 0.  1.
         21   -1    0    0  501  502  0.00000000000E+00 -0.00000000000E+00 -0.44730621698E+03  0.44730621698E+03  0.00000000000E+00 0.  1.
    9000010    2    1    2  501    0 -0.10467167856E+03  0.13148851576E+03  0.24327083422E+03  0.10498627628E+04  0.10073657389E+04 0.  0.
        -13    1    3    3    0    0  0.27811401619E+03 -0.27737186313E+03 -0.83303306333E+02  0.40152460506E+03  0.10566000000E+00 0.  1.
          4    1    3    3  501    0 -0.38278569475E+03  0.40886037889E+03  0.32657414055E+03  0.64833815776E+03  0.00000000000E+00 0.  1.
         13    1    1    2    0    0  0.10467167856E+03 -0.13148851576E+03  0.11643759477E+03  0.20445810013E+03  0.10566000000E+00 0. -1.
<mgrwt>
<rscale>  1 0.65047400E+03</rscale>
<asrwt>0</asrwt>
<pdfrwt beam="2">  1       21 0.68816341E-01 0.10212890E+04</pdfrwt>
<pdfrwt beam="1">  1        4 0.12415610E+00 0.10212890E+04</pdfrwt>
<totfact> 0.36102794E+01</totfact>
</mgrwt>
</event>
<event>
 6    1  0.1375310E-005  0.8562829E+03  0.7818608E-02  0.9894792E-01
         21   -1    0    0  501  502  0.00000000000E+00  0.00000000000E+00  0.25494439279E+03  0.25494439279E+03  0.00000000000E+00 0.  1.
          4   -1    0    0  502    0 -0.00000000000E+00 -0.00000000000E+00 -0.11510553844E+04  0.11510553844E+04  0.00000000000E+00 0.  1.
    9000010    2    1    2  501    0  0.16299536080E+01  0.21358442008E+03 -0.62126768512E+03  0.10579195917E+04  0.82921611457E+03 0.  0.
        -13    1    3    3    0    0 -0.41357332569E+02  0.21510490171E+03 -0.82300069090E+03  0.85165174578E+03  0.10566000000E+00 0.  1.
          4    1    3    3  501    0  0.42987286177E+02 -0.15204816362E+01  0.20173300578E+03  0.20626784592E+03  0.00000000000E+00 0.  1.
         13    1    1    2    0    0 -0.16299536080E+01 -0.21358442008E+03 -0.27484330649E+03  0.34808018550E+03  0.10566000000E+00 0. -1.
<mgrwt>
<rscale>  1 0.60514368E+03</rscale>
<asrwt>0</asrwt>
<pdfrwt beam="1">  1       21 0.39222214E-01 0.85628285E+03</pdfrwt>
<pdfrwt beam="2">  1        4 0.17708545E+00 0.85628285E+03</pdfrwt>
<totfact> 0.48072880E+01</totfact>
</mgrwt>
</event>
<event>
 6    1  0.1375310E-005  0.1032298E+04  0.7818608E-02  0.9944048E-01
         21   -1    0    0  501  502  0.00000000000E+00  0.00000000000E+00  0.65038166031E+03  0.65038166031E+03  0.00000000000E+00 0.  1.
          4   -1    0    0  502    0 -0.00000000000E+00 -0.00000000000E+00 -0.54177721248E+03  0.54177721248E+03  0.00000000000E+00 0.  1.
    9000010    2    1    2  501    0  0.30816505022E+02 -0.99440586078E+02  0.20249129587E+03  0.10519702907E+04  0.10270348974E+04 0.  0.
        -13    1    3    3    0    0 -0.26869492998E+03 -0.39095313001E+03  0.37008269622E+03  0.60166645948E+03  0.10566000000E+00 0.  1.
          4    1    3    3  501    0  0.29951143500E+03  0.29151254393E+03 -0.16759140035E+03  0.45030383124E+03  0.00000000000E+00 0.  1.
         13    1    1    2    0    0 -0.30816505022E+02  0.99440586078E+02 -0.93886848041E+02  0.14018858206E+03  0.10566000000E+00 0. -1.
<mgrwt>
<rscale>  1 0.58173191E+03</rscale>
<asrwt>0</asrwt>
<pdfrwt beam="1">  1       21 0.10005872E+00 0.10322978E+04</pdfrwt>
<pdfrwt beam="2">  1        4 0.83350340E-01 0.10322978E+04</pdfrwt>
<totfact> 0.38921930E+01</totfact>
</mgrwt>
</event>
<event>
 6    1  0.1375310E-005  0.1035794E+04  0.7818608E-02  0.9544764E-01
          4   -1    0    0  502    0 -0.00000000000E+00  0.00000000000E+00  0.15118057201E+04  0.15118057201E+04  0.00000000000E+00 0.  1.
         21   -1    0    0  501  502  0.00000000000E+00 -0.00000000000E+00 -0.34032364751E+03  0.34032364751E+03  0.00000000000E+00 0.  1.
    9000010    2    1    2  501    0 -0.78475277800E+02  0.38055411041E+03  0.94661014236E+03  0.14031892866E+04  0.96015082788E+03 0.  0.
        -13    1    3    3    0    0 -0.41485373319E+03  0.46275346342E+03  0.83188863613E+03  0.10384041130E+04  0.10566000000E+00 0.  1.
          4    1    3    3  501    0  0.33637845538E+03 -0.82199353015E+02  0.11472150623E+03  0.36478517360E+03  0.00000000000E+00 0.  1.
         13    1    1    2    0    0  0.78475277800E+02 -0.38055411041E+03  0.22487193027E+03  0.44894008104E+03  0.10566000000E+00 0. -1.
<mgrwt>
<rscale>  1 0.81062499E+03</rscale>
<asrwt>0</asrwt>
<pdfrwt beam="2">  1       21 0.52357485E-01 0.10357941E+04</pdfrwt>
<pdfrwt beam="1">  1        4 0.23258549E+00 0.10357941E+04</pdfrwt>
<totfact> 0.11002589E+01</totfact>
</mgrwt>
</event>
<event>
 6    1  0.1375310E-005  0.9744983E+03  0.7818608E-02  0.9849635E-01
          4   -1    0    0  502    0 -0.00000000000E+00  0.00000000000E+00  0.97748817040E+03  0.97748817040E+03  0.00000000000E+00 0.  1.
         21   -1    0    0  501  502  0.00000000000E+00 -0.00000000000E+00 -0.40515970915E+03  0.40515970915E+03  0.00000000000E+00 0.  1.
    9000010    2    1    2  501    0  0.83131735463E+02 -0.14564828627E+03  0.22973720075E+03  0.10012123127E+04  0.95995968922E+03 0.  0.
        -13    1    3    3    0    0  0.30239788179E+03 -0.32272546901E+03 -0.20153226636E+03  0.48601591826E+03  0.10566000000E+00 0.  1.
          4    1    3    3  501    0 -0.21926614632E+03  0.17707718274E+03  0.43126946711E+03  0.51519639443E+03  0.00000000000E+00 0.  1.
         13    1    1    2    0    0 -0.83131735463E+02  0.14564828627E+03  0.34259126050E+03  0.38143556687E+03  0.10566000000E+00 0. -1.
<mgrwt>
<rscale>  1 0.62765510E+03</rscale>
<asrwt>0</asrwt>
<pdfrwt beam="2">  1       21 0.62332263E-01 0.97449829E+03</pdfrwt>
<pdfrwt beam="1">  1        4 0.15038279E+00 0.97449829E+03</pdfrwt>
<totfact> 0.27508831E+01</totfact>
</mgrwt>
</event>
<event>
 6    1  0.1375310E-005  0.1103924E+04  0.7818608E-02  0.9631847E-01
          4   -1    0    0  502    0 -0.00000000000E+00  0.00000000000E+00  0.42976760986E+03  0.42976760986E+03  0.00000000000E+00 0.  1.
         21   -1    0    0  501  502  0.00000000000E+00 -0.00000000000E+00 -0.18109219232E+04  0.18109219232E+04  0.00000000000E+00 0.  1.
    9000010    2    1    2  501    0  0.23025139985E+03  0.60289765457E+02 -0.15821175521E+04  0.19291822339E+04  0.10779599158E+04 0.  0.
        -13    1    3    3    0    0 -0.16476832443E+03  0.30670557394E+02  0.10394207489E+03  0.19721371636E+03  0.10566000000E+00 0.  1.
          4    1    3    3  501    0  0.39501972428E+03  0.29619208062E+02 -0.16860596270E+04  0.17319685176E+04  0.00000000000E+00 0.  1.
         13    1    1    2    0    0 -0.23025139985E+03 -0.60289765457E+02  0.20096323873E+03  0.31150729917E+03  0.10566000000E+00 0. -1.
<mgrwt>
<rscale>  1 0.75223739E+03</rscale>
<asrwt>0</asrwt>
<pdfrwt beam="2">  1       21 0.27860337E+00 0.11039240E+04</pdfrwt>
<pdfrwt beam="1">  1        4 0.66118095E-01 0.11039240E+04</pdfrwt>
<totfact> 0.29681421E+00</totfact>
</mgrwt>
</event>
<event>
 6    1  0.1375310E-005  0.1434366E+04  0.7818608E-02  0.9014166E-01
         21   -1    0    0  501  502  0.00000000000E+00  0.00000000000E+00  0.11487310730E+04  0.11487310730E+04  0.00000000000E+00 0. -1.
          4   -1    0    0  502    0 -0.00000000000E+00 -0.00000000000E+00 -0.14938335868E+04  0.14938335868E+04  0.00000000000E+00 0.  1.
    9000010    2    1    2  501    0  0.55855269433E+03  0.86244119257E+03 -0.64422482982E+03  0.15723964048E+04  0.10008091224E+04 0.  0.
        -13    1    3    3    0    0 -0.27403619833E+03  0.39115723560E+03 -0.22057294047E+03  0.52607247998E+03  0.10566000000E+00 0.  1.
          4    1    3    3  501    0  0.83258889266E+03  0.47128395697E+03 -0.42365188935E+03  0.10463239248E+04  0.00000000000E+00 0.  1.
         13    1    1    2    0    0 -0.55855269433E+03 -0.86244119257E+03  0.29912231602E+03  0.10701682550E+04  0.10566000000E+00 0. -1.
<mgrwt>
<rscale>  1 0.13195989E+04</rscale>
<asrwt>0</asrwt>
<pdfrwt beam="1">  1       21 0.17672786E+00 0.14343657E+04</pdfrwt>
<pdfrwt beam="2">  1        4 0.22982055E+00 0.14343657E+04</pdfrwt>
<totfact> 0.51874135E-01</totfact>
</mgrwt>
</event>
<event>
 6    1  0.1375310E-005  0.1057430E+04  0.7818608E-02  0.9558445E-01
         21   -1    0    0  501  502  0.00000000000E+00  0.00000000000E+00  0.54633612954E+03  0.54633612954E+03  0.00000000000E+00 0.  1.
          4   -1    0    0  502    0 -0.00000000000E+00 -0.00000000000E+00 -0.90777488114E+03  0.90777488114E+03  0.00000000000E+00 0.  1.
    9000010    2    1    2  501    0 -0.31611344518E+03  0.14625653139E+03 -0.23238770038E+03  0.10826640182E+04  0.99841807371E+03 0.  0.
        -13    1    3    3    0    0 -0.34984481814E+03  0.44539004969E+03  0.15960570277E+03  0.58841965014E+03  0.10566000000E+00 0.  1.
          4    1    3    3  501    0  0.33731372958E+02 -0.29913351830E+03 -0.39199340315E+03  0.49424436811E+03  0.00000000000E+00 0.  1.
         13    1    1    2    0    0  0.31611344518E+03 -0.14625653139E+03 -0.12905105122E+03  0.37144699243E+03  0.10566000000E+00 0. -1.
<mgrwt>
<rscale>  1 0.80108677E+03</rscale>
<asrwt>0</asrwt>
<pdfrwt beam="1">  1       21 0.84051713E-01 0.10574296E+04</pdfrwt>
<pdfrwt beam="2">  1        4 0.13965767E+00 0.10574296E+04</pdfrwt>
<totfact> 0.16663688E+01</totfact>
</mgrwt>
</event>
<event>
 6    1  0.1375310E-005  0.1008372E+04  0.7818608E-02  0.9766516E-01
         21   -1    0    0  501  502  0.00000000000E+00  0.00000000000E+00  0.55548667378E+03  0.55548667378E+03  0.00000000000E+00 0.  1.
          4   -1    0    0  502    0 -0.00000000000E+00 -0.00000000000E+00 -0.12851815126E+04  0.12851815126E+04  0.00000000000E+00 0.  1.
    9000010    2    1    2  501    0 -0.49128298894E+02  0.19261597877E+03  0.75599992327E+02  0.10112019235E+04  0.98858457716E+03 0.  0.
        -13    1    3    3    0    0 -0.35311433117E+03  0.47290532401E+03  0.92362184051E+02  0.59737756951E+03  0.10566000000E+00 0.  1.
          4    1    3    3  501    0  0.30398603227E+03 -0.28028934524E+03 -0.16762191723E+02  0.41382435398E+03  0.00000000000E+00 0.  1.
         13    1    1    2    0    0  0.49128298894E+02 -0.19261597877E+03 -0.80529483113E+03  0.82946626287E+03  0.10566000000E+00 0. -1.
<mgrwt>
<rscale>  1 0.67190852E+03</rscale>
<asrwt>0</asrwt>
<pdfrwt beam="1">  1       21 0.85459489E-01 0.10083719E+04</pdfrwt>
<pdfrwt beam="2">  1        4 0.19772023E+00 0.10083719E+04</pdfrwt>
<totfact> 0.60704052E+00</totfact>
</mgrwt>
</event>
<event>
 6    1  0.1375310E-005  0.1051645E+04  0.7818608E-02  0.9600366E-01
          4   -1    0    0  502    0 -0.00000000000E+00  0.00000000000E+00  0.84504078293E+03  0.84504078293E+03  0.00000000000E+00 0.  1.
         21   -1    0    0  501  502  0.00000000000E+00 -0.00000000000E+00 -0.88302589678E+03  0.88302589678E+03  0.00000000000E+00 0.  1.
    9000010    2    1    2  501    0 -0.19395208129E+03  0.23737379695E+03 -0.50722471190E+03  0.11675762330E+04  0.10059789373E+04 0.  0.
        -13    1    3    3    0    0 -0.17627196993E+03  0.40687428622E+03 -0.74981130011E+03  0.87111163987E+03  0.10566000000E+00 0.  1.
          4    1    3    3  501    0 -0.17680111362E+02 -0.16950048927E+03  0.24258658822E+03  0.29646459314E+03  0.00000000000E+00 0.  1.
         13    1    1    2    0    0  0.19395208129E+03 -0.23737379695E+03  0.46923959805E+03  0.56049044671E+03  0.10566000000E+00 0. -1.
<mgrwt>
<rscale>  1 0.77271960E+03</rscale>
<asrwt>0</asrwt>
<pdfrwt beam="2">  1       21 0.13585014E+00 0.10516451E+04</pdfrwt>
<pdfrwt beam="1">  1        4 0.13000627E+00 0.10516451E+04</pdfrwt>
<totfact> 0.59715883E+00</totfact>
</mgrwt>
</event>
<event>
 6    1  0.1375310E-005  0.1010810E+04  0.7818608E-02  0.9843570E-01
         21   -1    0    0  501  502  0.00000000000E+00  0.00000000000E+00  0.23092009166E+03  0.23092009166E+03  0.00000000000E+00 0.  1.
          4   -1    0    0  502    0 -0.00000000000E+00 -0.00000000000E+00 -0.16154840934E+04  0.16154840934E+04  0.00000000000E+00 0.  1.
    9000010    2    1    2  501    0  0.29572328603E+02  0.15038503717E+03 -0.95610200080E+03  0.13913548697E+04  0.99912319331E+03 0.  0.
        -13    1    3    3    0    0 -0.13485455700E+03  0.87363582813E+02 -0.11314779037E+04  0.11428299982E+04  0.10566000000E+00 0.  1.
          4    1    3    3  501    0  0.16442688561E+03  0.63021454353E+02  0.17537590288E+03  0.24852487145E+03  0.00000000000E+00 0.  1.
         13    1    1    2    0    0 -0.29572328603E+02 -0.15038503717E+03 -0.42846200091E+03  0.45504931536E+03  0.10566000000E+00 0. -1.
<mgrwt>
<rscale>  1 0.63075841E+03</rscale>
<asrwt>0</asrwt>
<pdfrwt beam="1">  1       21 0.35526168E-01 0.10108102E+04</pdfrwt>
<pdfrwt beam="2">  1        4 0.24853601E+00 0.10108102E+04</pdfrwt>
<totfact> 0.19948694E+01</totfact>
</mgrwt>
</event>
<event>
 6    1  0.1375310E-005  0.1146790E+04  0.7818608E-02  0.9351515E-01
          4   -1    0    0  502    0 -0.00000000000E+00  0.00000000000E+00  0.73427458341E+03  0.73427458341E+03  0.00000000000E+00 0.  1.
         21   -1    0    0  501  502  0.00000000000E+00 -0.00000000000E+00 -0.10053318945E+04  0.10053318945E+04  0.00000000000E+00 0. -1.
    9000010    2    1    2  501    0  0.56697917637E+03  0.18836149386E+02 -0.23886159368E+03  0.11714016184E+04  0.99664773304E+03 0.  0.
        -13    1    3    3    0    0  0.87995526943E+02  0.47340160187E+03 -0.15449900746E+03  0.50568986927E+03  0.10566000000E+00 0.  1.
          4    1    3    3  501    0  0.47898364943E+03 -0.45456545249E+03 -0.84362586219E+02  0.66571174916E+03  0.00000000000E+00 0.  1.
         13    1    1    2    0    0 -0.56697917637E+03 -0.18836149386E+02 -0.32195717421E+02  0.56820485949E+03  0.10566000000E+00 0. -1.
<mgrwt>
<rscale>  1 0.96175518E+03</rscale>
<asrwt>0</asrwt>
<pdfrwt beam="2">  1       21 0.15466644E+00 0.11467898E+04</pdfrwt>
<pdfrwt beam="1">  1        4 0.11296532E+00 0.11467898E+04</pdfrwt>
<totfact> 0.58850706E+00</totfact>
</mgrwt>
</event>
<event>
 6    1  0.1375310E-005  0.1059577E+04  0.7818608E-02  0.9692325E-01
          4   -1    0    0  502    0 -0.00000000000E+00  0.00000000000E+00  0.55130907429E+03  0.55130907429E+03  0.00000000000E+00 0.  1.
         21   -1    0    0  501  502  0.00000000000E+00 -0.00000000000E+00 -0.75153187168E+03  0.75153187168E+03  0.00000000000E+00 0. -1.
    9000010    2    1    2  501    0 -0.27011274217E+02 -0.21772897573E+03 -0.10876937126E+03  0.10651452243E+04  0.10366137452E+04 0.  0.
        -13    1    3    3    0    0 -0.20031592401E+03 -0.58499116170E+03  0.68346929374E+02  0.62210324111E+03  0.10566000000E+00 0.  1.
          4    1    3    3  501    0  0.17330464980E+03  0.36726218597E+03 -0.17711630064E+03  0.44304198315E+03  0.00000000000E+00 0.  1.
         13    1    1    2    0    0  0.27011274217E+02  0.21772897573E+03 -0.91453426127E+02  0.23769572172E+03  0.10566000000E+00 0. -1.
<mgrwt>
<rscale>  1 0.71475579E+03</rscale>
<asrwt>0</asrwt>
<pdfrwt beam="2">  1       21 0.11562029E+00 0.10595771E+04</pdfrwt>
<pdfrwt beam="1">  1        4 0.84816781E-01 0.10595771E+04</pdfrwt>
<totfact> 0.25882562E+01</totfact>
</mgrwt>
</event>
<event>
 6    1  0.1375310E-005  0.1057382E+04  0.7818608E-02  0.9556966E-01
         21   -1    0    0  501  502  0.00000000000E+00  0.00000000000E+00  0.57520479076E+03  0.57520479076E+03  0.00000000000E+00 0.  1.
          4   -1    0    0  502    0 -0.00000000000E+00 -0.00000000000E+00 -0.86105082808E+03  0.86105082808E+03  0.00000000000E+00 0.  1.
    9000010    2    1    2  501    0 -0.18005125479E+03  0.30029957382E+03 -0.21543254493E+03  0.10791052871E+04  0.99772679169E+03 0.  0.
        -13    1    3    3    0    0 -0.28386718338E+02  0.16320204101E+03 -0.61141593412E+03  0.63345889182E+03  0.10566000000E+00 0.  1.
          4    1    3    3  501    0 -0.15166453645E+03  0.13709753281E+03  0.39598338919E+03  0.44564639529E+03  0.00000000000E+00 0.  1.
         13    1    1    2    0    0  0.18005125479E+03 -0.30029957382E+03 -0.70413492393E+02  0.35715033174E+03  0.10566000000E+00 0. -1.
<mgrwt>
<rscale>  1 0.80211123E+03</rscale>
<asrwt>0</asrwt>
<pdfrwt beam="1">  1       21 0.88493045E-01 0.10573822E+04</pdfrwt>
<pdfrwt beam="2">  1        4 0.13246936E+00 0.10573822E+04</pdfrwt>
<totfact> 0.16904486E+01</totfact>
</mgrwt>
</event>
<event>
 6    1  0.1375310E-005  0.8750501E+03  0.7818608E-02  0.9964534E-01
          4   -1    0    0  502    0 -0.00000000000E+00  0.00000000000E+00  0.12202488669E+04  0.12202488669E+04  0.00000000000E+00 0.  1.
         21   -1    0    0  501  502  0.00000000000E+00 -0.00000000000E+00 -0.66688250309E+03  0.66688250309E+03  0.00000000000E+00 0.  1.
    9000010    2    1    2  501    0  0.70603102732E+02  0.14373154419E+03 -0.36994374446E+03  0.95003739278E+03  0.86027270020E+03 0.  0.
        -13    1    3    3    0    0  0.70178110306E+02 -0.35265085451E+03 -0.25417839974E+03  0.44033426213E+03  0.10566000000E+00 0.  1.
          4    1    3    3  501    0  0.42499242691E+00  0.49638239870E+03 -0.11576534471E+03  0.50970313065E+03  0.00000000000E+00 0.  1.
         13    1    1    2    0    0 -0.70603102732E+02 -0.14373154419E+03  0.92331010827E+03  0.93709397721E+03  0.10566000000E+00 0. -1.
<mgrwt>
<rscale>  1 0.57233063E+03</rscale>
<asrwt>0</asrwt>
<pdfrwt beam="2">  1       21 0.10259731E+00 0.87505010E+03</pdfrwt>
<pdfrwt beam="1">  1        4 0.18773059E+00 0.87505010E+03</pdfrwt>
<totfact> 0.46247384E+00</totfact>
</mgrwt>
</event>
<event>
 6    1  0.1375310E-005  0.9465706E+03  0.7818608E-02  0.9973479E-01
         21   -1    0    0  501  502  0.00000000000E+00  0.00000000000E+00  0.44443678702E+03  0.44443678702E+03  0.00000000000E+00 0.  1.
          4   -1    0    0  502    0 -0.00000000000E+00 -0.00000000000E+00 -0.70432962947E+03  0.70432962947E+03  0.00000000000E+00 0.  1.
    9000010    2    1    2  501    0  0.68516289407E+02  0.10211641057E+03 -0.10706438273E+03  0.95260629697E+03  0.93854873702E+03 0.  0.
        -13    1    3    3    0    0  0.75301609005E+02  0.41621771971E+03 -0.35514036105E+03  0.55229721141E+03  0.10566000000E+00 0.  1.
          4    1    3    3  501    0 -0.67853195979E+01 -0.31410130914E+03  0.24807597832E+03  0.40030908557E+03  0.00000000000E+00 0.  1.
         13    1    1    2    0    0 -0.68516289407E+02 -0.10211641057E+03 -0.15282845972E+03  0.19616011951E+03  0.10566000000E+00 0. -1.
<mgrwt>
<rscale>  1 0.56828585E+03</rscale>
<asrwt>0</asrwt>
<pdfrwt beam="1">  1       21 0.68374891E-01 0.94657064E+03</pdfrwt>
<pdfrwt beam="2">  1        4 0.10835840E+00 0.94657064E+03</pdfrwt>
<totfact> 0.51751683E+01</totfact>
</mgrwt>
</event>
<event>
 6    1  0.1375310E-005  0.1031723E+04  0.7818608E-02  0.9956946E-01
         21   -1    0    0  501  502  0.00000000000E+00  0.00000000000E+00  0.64992232151E+03  0.64992232151E+03  0.00000000000E+00 0.  1.
          4   -1    0    0  502    0 -0.00000000000E+00 -0.00000000000E+00 -0.51316690799E+03  0.51316690799E+03  0.00000000000E+00 0.  1.
    9000010    2    1    2  501    0  0.19975237456E+02 -0.98071249608E+02  0.53851421443E+02  0.10331274537E+04  0.10268570396E+04 0.  0.
        -13    1    3    3    0    0 -0.21922271165E+03  0.19837537880E+03  0.41411958089E+03  0.50882848452E+03  0.10566000000E+00 0.  1.
          4    1    3    3  501    0  0.23919794911E+03 -0.29644662841E+03 -0.36026815944E+03  0.52429896916E+03  0.00000000000E+00 0.  1.
         13    1    1    2    0    0 -0.19975237456E+02  0.98071249608E+02  0.82903992070E+02  0.12996177583E+03  0.10566000000E+00 0. -1.
<mgrwt>
<rscale>  1 0.57579058E+03</rscale>
<asrwt>0</asrwt>
<pdfrwt beam="1">  1       21 0.99988050E-01 0.10317230E+04</pdfrwt>
<pdfrwt beam="2">  1        4 0.78948755E-01 0.10317230E+04</pdfrwt>
<totfact> 0.44186494E+01</totfact>
</mgrwt>
</event>
<event>
 6    1  0.1375310E-005  0.1007144E+04  0.7818608E-02  0.9827995E-01
          4   -1    0    0  502    0 -0.00000000000E+00  0.00000000000E+00  0.98792824559E+03  0.98792824559E+03  0.00000000000E+00 0.  1.
         21   -1    0    0  501  502  0.00000000000E+00 -0.00000000000E+00 -0.39451398015E+03  0.39451398015E+03  0.00000000000E+00 0.  1.
    9000010    2    1    2  501    0  0.14764915691E+03  0.69091354285E+02  0.30701503128E+03  0.10528994800E+04  0.99386377175E+03 0.  0.
        -13    1    3    3    0    0  0.49622322600E+03  0.26219293776E+03  0.19600067030E+02  0.56157528474E+03  0.10566000000E+00 0.  1.
          4    1    3    3  501    0 -0.34857406909E+03 -0.19310158347E+03  0.28741496425E+03  0.49132419527E+03  0.00000000000E+00 0.  1.
         13    1    1    2    0    0 -0.14764915691E+03 -0.69091354285E+02  0.28639923416E+03  0.32954274573E+03  0.10566000000E+00 0. -1.
<mgrwt>
<rscale>  1 0.63881572E+03</rscale>
<asrwt>0</asrwt>
<pdfrwt beam="2">  1       21 0.60694459E-01 0.10071440E+04</pdfrwt>
<pdfrwt beam="1">  1        4 0.15198896E+00 0.10071440E+04</pdfrwt>
<totfact> 0.28290091E+01</totfact>
</mgrwt>
</event>
<event>
 6    1  0.1375310E-005  0.1010477E+04  0.7818608E-02  0.9840341E-01
         21   -1    0    0  501  502  0.00000000000E+00  0.00000000000E+00  0.67427848242E+03  0.67427848242E+03  0.00000000000E+00 0.  1.
          4   -1    0    0  502    0 -0.00000000000E+00 -0.00000000000E+00 -0.74071625366E+03  0.74071625366E+03  0.00000000000E+00 0.  1.
    9000010    2    1    2  501    0  0.14016899680E+03  0.66252766053E+02  0.26882111821E+03  0.10456232283E+04  0.99851207564E+03 0.  0.
        -13    1    3    3    0    0 -0.38870304191E+03  0.15075098715E+03  0.29287865242E+03  0.50950351434E+03  0.10566000000E+00 0.  1.
          4    1    3    3  501    0  0.52887203871E+03 -0.84498221093E+02 -0.24057534208E+02  0.53611971392E+03  0.00000000000E+00 0.  1.
         13    1    1    2    0    0 -0.14016899680E+03 -0.66252766053E+02 -0.33525888945E+03  0.36937150782E+03  0.10566000000E+00 0. -1.
<mgrwt>
<rscale>  1 0.63241808E+03</rscale>
<asrwt>0</asrwt>
<pdfrwt beam="1">  1       21 0.10373515E+00 0.10104767E+04</pdfrwt>
<pdfrwt beam="2">  1        4 0.11395635E+00 0.10104767E+04</pdfrwt>
<totfact> 0.16835752E+01</totfact>
</mgrwt>
</event>
<event>
 6    1  0.1375310E-005  0.1004242E+04  0.7818608E-02  0.9891427E-01
         21   -1    0    0  501  502  0.00000000000E+00  0.00000000000E+00  0.72335319323E+03  0.72335319323E+03  0.00000000000E+00 0.  1.
          4   -1    0    0  502    0 -0.00000000000E+00 -0.00000000000E+00 -0.55545500910E+03  0.55545500910E+03  0.00000000000E+00 0.  1.
    9000010    2    1    2  501    0 -0.11889136928E+03  0.61492325284E+02  0.34049098455E+03  0.10603940323E+04  0.99528133177E+03 0.  0.
        -13    1    3    3    0    0  0.44006021470E+02 -0.43402600273E+03  0.31513991497E+03  0.53817123496E+03  0.10566000000E+00 0.  1.
          4    1    3    3  501    0 -0.16289739075E+03  0.49551832801E+03  0.25351069580E+02  0.52222279732E+03  0.00000000000E+00 0.  1.
         13    1    1    2    0    0  0.11889136928E+03 -0.61492325284E+02 -0.17259280042E+03  0.21841417005E+03  0.10566000000E+00 0. -1.
<mgrwt>
<rscale>  1 0.60678559E+03</rscale>
<asrwt>0</asrwt>
<pdfrwt beam="1">  1       21 0.11128511E+00 0.10042417E+04</pdfrwt>
<pdfrwt beam="2">  1        4 0.85454617E-01 0.10042417E+04</pdfrwt>
<totfact> 0.28183843E+01</totfact>
</mgrwt>
</event>
<event>
 6    1  0.1375310E-005  0.1034209E+04  0.7818608E-02  0.9768681E-01
         21   -1    0    0  501  502  0.00000000000E+00  0.00000000000E+00  0.65494579160E+03  0.65494579160E+03  0.00000000000E+00 0.  1.
          4   -1    0    0  502    0 -0.00000000000E+00 -0.00000000000E+00 -0.85265809523E+03  0.85265809523E+03  0.00000000000E+00 0.  1.
    9000010    2    1    2  501    0  0.16213508801E+03  0.84729327323E+02  0.21485997565E+03  0.10562916419E+04  0.10178999842E+04 0.  0.
        -13    1    3    3    0    0  0.51148477945E+03  0.32418792519E+03  0.17781104463E+03  0.63113490571E+03  0.10566000000E+00 0.  1.
          4    1    3    3  501    0 -0.34934969144E+03 -0.23945859787E+03  0.37048931020E+02  0.42515673615E+03  0.00000000000E+00 0.  1.
         13    1    1    2    0    0 -0.16213508801E+03 -0.84729327323E+02 -0.41257227928E+03  0.45131224498E+03  0.10566000000E+00 0. -1.
<mgrwt>
<rscale>  1 0.67070716E+03</rscale>
<asrwt>0</asrwt>
<pdfrwt beam="1">  1       21 0.10076089E+00 0.10342085E+04</pdfrwt>
<pdfrwt beam="2">  1        4 0.13117817E+00 0.10342085E+04</pdfrwt>
<totfact> 0.12651986E+01</totfact>
</mgrwt>
</event>
<event>
 6    1  0.1375310E-005  0.1019795E+04  0.7818608E-02  0.9748947E-01
          4   -1    0    0  502    0 -0.00000000000E+00  0.00000000000E+00  0.13125953616E+04  0.13125953616E+04  0.00000000000E+00 0.  1.
         21   -1    0    0  501  502  0.00000000000E+00 -0.00000000000E+00 -0.36825809453E+03  0.36825809453E+03  0.00000000000E+00 0.  1.
    9000010    2    1    2  501    0  0.17003706405E+03  0.11215844045E+03  0.39267004653E+03  0.10927813072E+04  0.99924426499E+03 0.  0.
        -13    1    3    3    0    0 -0.99168324205E+02  0.41790561544E+03 -0.11232665485E+03  0.44395579566E+03  0.10566000000E+00 0.  1.
          4    1    3    3  501    0  0.26920538826E+03 -0.30574717500E+03  0.50499670138E+03  0.64882551159E+03  0.00000000000E+00 0.  1.
         13    1    1    2    0    0 -0.17003706405E+03 -0.11215844045E+03  0.55166722053E+03  0.58807214888E+03  0.10566000000E+00 0. -1.
<mgrwt>
<rscale>  1 0.68175805E+03</rscale>
<asrwt>0</asrwt>
<pdfrwt beam="2">  1       21 0.56655092E-01 0.10197947E+04</pdfrwt>
<pdfrwt beam="1">  1        4 0.20193775E+00 0.10197947E+04</pdfrwt>
<totfact> 0.14584807E+01</totfact>
</mgrwt>
</event>
<event>
 6    1  0.1375310E-005  0.1009950E+04  0.7818608E-02  0.1006395E+00
         21   -1    0    0  501  502  0.00000000000E+00  0.00000000000E+00  0.99381202622E+03  0.99381202622E+03  0.00000000000E+00 0.  1.
          4   -1    0    0  502    0 -0.00000000000E+00 -0.00000000000E+00 -0.35266969370E+03  0.35266969370E+03  0.00000000000E+00 0.  1.
    9000010    2    1    2  501    0  0.76193170881E+02 -0.15543715603E+01  0.71728889079E+03  0.12387499936E+04  0.10070701954E+04 0.  0.
        -13    1    3    3    0    0  0.41547936678E+03 -0.32890931750E+03  0.45964174404E+03  0.70148056807E+03  0.10566000000E+00 0.  1.
          4    1    3    3  501    0 -0.33928619590E+03  0.32735494594E+03  0.25764714676E+03  0.53726942551E+03  0.00000000000E+00 0.  1.
         13    1    1    2    0    0 -0.76193170881E+02  0.15543715603E+01 -0.76146558274E+02  0.10773172634E+03  0.10566000000E+00 0. -1.
<mgrwt>
<rscale>  1 0.52932997E+03</rscale>
<asrwt>0</asrwt>
<pdfrwt beam="1">  1       21 0.15289416E+00 0.10099496E+04</pdfrwt>
<pdfrwt beam="2">  1        4 0.54256876E-01 0.10099496E+04</pdfrwt>
<totfact> 0.33276436E+01</totfact>
</mgrwt>
</event>
<event>
 6    1  0.1375310E-005  0.1069911E+04  0.7818608E-02  0.9527376E-01
         21   -1    0    0  501  502  0.00000000000E+00  0.00000000000E+00  0.84932439484E+03  0.84932439484E+03  0.00000000000E+00 0. -1.
          4   -1    0    0  502    0 -0.00000000000E+00 -0.00000000000E+00 -0.80560763916E+03  0.80560763916E+03  0.00000000000E+00 0.  1.
    9000010    2    1    2  501    0  0.25787044150E+03  0.27157965088E+03  0.39593401223E+03  0.11408214638E+04  0.10022261217E+04 0.  0.
        -13    1    3    3    0    0  0.50880247074E+03  0.73379460928E+02  0.57745749476E+03  0.77312461411E+03  0.10566000000E+00 0.  1.
          4    1    3    3  501    0 -0.25093202924E+03  0.19820018995E+03 -0.18152348253E+03  0.36769684974E+03  0.00000000000E+00 0.  1.
         13    1    1    2    0    0 -0.25787044150E+03 -0.27157965088E+03 -0.35221725655E+03  0.51411057016E+03  0.10566000000E+00 0. -1.
<mgrwt>
<rscale>  1 0.82295234E+03</rscale>
<asrwt>0</asrwt>
<pdfrwt beam="1">  1       21 0.13066529E+00 0.10699112E+04</pdfrwt>
<pdfrwt beam="2">  1        4 0.12393964E+00 0.10699112E+04</pdfrwt>
<totfact> 0.74722941E+00</totfact>
</mgrwt>
</event>
<event>
 6    1  0.1375310E-005  0.1027961E+04  0.7818608E-02  0.9670227E-01
         21   -1    0    0  501  502  0.00000000000E+00  0.00000000000E+00  0.20721707770E+04  0.20721707770E+04  0.00000000000E+00 0. -1.
          4   -1    0    0  502    0 -0.00000000000E+00 -0.00000000000E+00 -0.31466765741E+03  0.31466765741E+03  0.00000000000E+00 0.  1.
    9000010    2    1    2  501    0  0.17161086239E+03  0.19375737059E+03  0.18463185822E+04  0.21131955936E+04  0.99484225045E+03 0.  0.
        -13    1    3    3    0    0  0.25721772057E+03 -0.26002281570E+03  0.14778061013E+04  0.15223940701E+04  0.10566000000E+00 0.  1.
          4    1    3    3  501    0 -0.85606858182E+02  0.45378018630E+03  0.36851248088E+03  0.59080152353E+03  0.00000000000E+00 0.  1.
         13    1    1    2    0    0 -0.17161086239E+03 -0.19375737059E+03 -0.88815462595E+02  0.27364284078E+03  0.10566000000E+00 0. -1.
<mgrwt>
<rscale>  1 0.72817446E+03</rscale>
<asrwt>0</asrwt>
<pdfrwt beam="1">  1       21 0.31879550E+00 0.10279608E+04</pdfrwt>
<pdfrwt beam="2">  1        4 0.48410410E-01 0.10279608E+04</pdfrwt>
<totfact> 0.33089833E+00</totfact>
</mgrwt>
</event>
<event>
 6    1  0.1375310E-005  0.9969077E+03  0.7818608E-02  0.1007170E+00
         21   -1    0    0  501  502  0.00000000000E+00  0.00000000000E+00  0.68476769789E+03  0.68476769789E+03  0.00000000000E+00 0.  1.
          4   -1    0    0  502    0 -0.00000000000E+00 -0.00000000000E+00 -0.62040919250E+03  0.62040919250E+03  0.00000000000E+00 0.  1.
    9000010    2    1    2  501    0  0.55568044255E+02  0.53810770540E+02  0.31291358537E+03  0.10448635302E+04  0.99390214718E+03 0.  0.
        -13    1    3    3    0    0  0.76538195230E+02  0.28428315123E+03  0.60463077309E+03  0.67249787236E+03  0.10566000000E+00 0.  1.
          4    1    3    3  501    0 -0.20970150976E+02 -0.23047238069E+03 -0.29171718772E+03  0.37236565779E+03  0.00000000000E+00 0.  1.
         13    1    1    2    0    0 -0.55568044255E+02 -0.53810770540E+02 -0.24855507998E+03  0.26031336023E+03  0.10566000000E+00 0. -1.
<mgrwt>
<rscale>  1 0.52615035E+03</rscale>
<asrwt>0</asrwt>
<pdfrwt beam="1">  1       21 0.10534888E+00 0.99690766E+03</pdfrwt>
<pdfrwt beam="2">  1        4 0.95447568E-01 0.99690766E+03</pdfrwt>
<totfact> 0.24966981E+01</totfact>
</mgrwt>
</event>
<event>
 6    1  0.1375310E-005  0.1092862E+04  0.7818608E-02  0.9478676E-01
          4   -1    0    0  502    0 -0.00000000000E+00  0.00000000000E+00  0.64888518730E+03  0.64888518730E+03  0.00000000000E+00 0.  1.
         21   -1    0    0  501  502  0.00000000000E+00 -0.00000000000E+00 -0.20025884585E+04  0.20025884585E+04  0.00000000000E+00 0.  1.
    9000010    2    1    2  501    0  0.40248869190E+03 -0.10765826805E+03 -0.17585930173E+04  0.20705062049E+04  0.10103262316E+04 0.  0.
        -13    1    3    3    0    0 -0.32728849069E+03  0.84159129968E+02 -0.51960577841E+03  0.61983117978E+03  0.10566000000E+00 0.  1.
          4    1    3    3  501    0  0.72977718259E+03 -0.19181739801E+03 -0.12389872389E+04  0.14506750251E+04  0.00000000000E+00 0.  1.
         13    1    1    2    0    0 -0.40248869190E+03  0.10765826805E+03  0.40488974607E+03  0.58096744093E+03  0.10566000000E+00 0. -1.
<mgrwt>
<rscale>  1 0.85874393E+03</rscale>
<asrwt>0</asrwt>
<pdfrwt beam="2">  1       21 0.30809052E+00 0.10928616E+04</pdfrwt>
<pdfrwt beam="1">  1        4 0.99828493E-01 0.10928616E+04</pdfrwt>
<totfact> 0.75137470E-01</totfact>
</mgrwt>
</event>
<event>
 6    1  0.1375310E-005  0.1133007E+04  0.7818608E-02  0.9389920E-01
         21   -1    0    0  501  502  0.00000000000E+00  0.00000000000E+00  0.10718380398E+04  0.10718380398E+04  0.00000000000E+00 0.  1.
          4   -1    0    0  502    0 -0.00000000000E+00 -0.00000000000E+00 -0.70873417762E+03  0.70873417762E+03  0.00000000000E+00 0.  1.
    9000010    2    1    2  501    0  0.25013057170E+03 -0.44712090526E+03 -0.32200873162E+02  0.11334646129E+04  0.10105556520E+04 0.  0.
        -13    1    3    3    0    0 -0.23138433591E+02  0.32726615207E+02 -0.44325552476E+03  0.44506391658E+03  0.10566000000E+00 0.  1.
          4    1    3    3  501    0  0.27326900529E+03 -0.47984752046E+03  0.41105465160E+03  0.68840069636E+03  0.00000000000E+00 0.  1.
         13    1    1    2    0    0 -0.25013057170E+03  0.44712090526E+03  0.39530473535E+03  0.64710760447E+03  0.10566000000E+00 0. -1.
<mgrwt>
<rscale>  1 0.92909915E+03</rscale>
<asrwt>0</asrwt>
<pdfrwt beam="1">  1       21 0.16489816E+00 0.11330071E+04</pdfrwt>
<pdfrwt beam="2">  1        4 0.10903603E+00 0.11330071E+04</pdfrwt>
<totfact> 0.53526219E+00</totfact>
</mgrwt>
</event>
<event>
 6    1  0.1375310E-005  0.9756241E+03  0.7818608E-02  0.9766025E-01
          4   -1    0    0  502    0 -0.00000000000E+00  0.00000000000E+00  0.13667458144E+04  0.13667458144E+04  0.00000000000E+00 0.  1.
         21   -1    0    0  501  502  0.00000000000E+00 -0.00000000000E+00 -0.35783918691E+03  0.35783918691E+03  0.00000000000E+00 0.  1.
    9000010    2    1    2  501    0  0.17877646094E+03 -0.12793252976E+03  0.36078679645E+03  0.10401968938E+04  0.95053390797E+03 0.  0.
        -13    1    3    3    0    0  0.35100242733E+03 -0.47289223237E+03  0.19338492689E+03  0.61986087838E+03  0.10566000000E+00 0.  1.
          4    1    3    3  501    0 -0.17222596640E+03  0.34495970261E+03  0.16740186955E+03  0.42033601541E+03  0.00000000000E+00 0.  1.
         13    1    1    2    0    0 -0.17877646094E+03  0.12793252976E+03  0.64811983106E+03  0.68438810753E+03  0.10566000000E+00 0. -1.
<mgrwt>
<rscale>  1 0.67218140E+03</rscale>
<asrwt>0</asrwt>
<pdfrwt beam="2">  1       21 0.55052184E-01 0.97562414E+03</pdfrwt>
<pdfrwt beam="1">  1        4 0.21026858E+00 0.97562414E+03</pdfrwt>
<totfact> 0.13773115E+01</totfact>
</mgrwt>
</event>
<event>
 6    1  0.1375310E-005  0.9525529E+03  0.7818608E-02  0.9816374E-01
         21   -1    0    0  501  502  0.00000000000E+00  0.00000000000E+00  0.40414066141E+03  0.40414066141E+03  0.00000000000E+00 0.  1.
          4   -1    0    0  502    0 -0.00000000000E+00 -0.00000000000E+00 -0.93722263722E+03  0.93722263722E+03  0.00000000000E+00 0.  1.
    9000010    2    1    2  501    0 -0.13030303815E+02  0.19971533061E+03 -0.23295497380E+03  0.98062484684E+03  0.93129000226E+03 0.  0.
        -13    1    3    3    0    0 -0.15240791957E+03  0.26621038018E+03 -0.54899060967E+03  0.62887744524E+03  0.10566000000E+00 0.  1.
          4    1    3    3  501    0  0.13937761576E+03 -0.66495049564E+02  0.31603563587E+03  0.35174740160E+03  0.00000000000E+00 0.  1.
         13    1    1    2    0    0  0.13030303815E+02 -0.19971533061E+03 -0.30012700201E+03  0.36073845179E+03  0.10566000000E+00 0. -1.
<mgrwt>
<rscale>  1 0.64491177E+03</rscale>
<asrwt>0</asrwt>
<pdfrwt beam="1">  1       21 0.62175488E-01 0.95255292E+03</pdfrwt>
<pdfrwt beam="2">  1        4 0.14418810E+00 0.95255292E+03</pdfrwt>
<totfact> 0.31013742E+01</totfact>
</mgrwt>
</event>
<event>
 6    1  0.1375310E-005  0.1031319E+04  0.7818608E-02  0.9636341E-01
          4   -1    0    0  502    0 -0.00000000000E+00  0.00000000000E+00  0.10342785821E+04  0.10342785821E+04  0.00000000000E+00 0.  1.
         21   -1    0    0  501  502  0.00000000000E+00 -0.00000000000E+00 -0.47428237344E+03  0.47428237344E+03  0.00000000000E+00 0.  1.
    9000010    2    1    2  501    0 -0.24380980322E+03 -0.15231477193E+03  0.20454351395E+03  0.10514071092E+04  0.99044224984E+03 0.  0.
        -13    1    3    3    0    0 -0.55068454888E+02 -0.56819213705E+03  0.68965435293E+02  0.57500528846E+03  0.10566000000E+00 0.  1.
          4    1    3    3  501    0 -0.18874134833E+03  0.41587736512E+03  0.13557807865E+03  0.47640182073E+03  0.00000000000E+00 0.  1.
         13    1    1    2    0    0  0.24380980322E+03  0.15231477193E+03  0.35545269472E+03  0.45715384636E+03  0.10566000000E+00 0. -1.
<mgrwt>
<rscale>  1 0.74936867E+03</rscale>
<asrwt>0</asrwt>
<pdfrwt beam="2">  1       21 0.72966519E-01 0.10313190E+04</pdfrwt>
<pdfrwt beam="1">  1        4 0.15911978E+00 0.10313190E+04</pdfrwt>
<totfact> 0.16395760E+01</totfact>
</mgrwt>
</event>
<event>
 6    1  0.1375310E-005  0.1003462E+04  0.7818608E-02  0.9849172E-01
         21   -1    0    0  501  502  0.00000000000E+00  0.00000000000E+00  0.94193969994E+03  0.94193969994E+03  0.00000000000E+00 0.  1.
          4   -1    0    0  502    0 -0.00000000000E+00 -0.00000000000E+00 -0.39081023730E+03  0.39081023730E+03  0.00000000000E+00 0.  1.
    9000010    2    1    2  501    0 -0.79152498504E+02  0.13190131486E+03  0.60265144570E+03  0.11705229334E+04  0.99160077534E+03 0.  0.
        -13    1    3    3    0    0 -0.16267918152E+02  0.56493452911E+03  0.36156111058E+03  0.67092631130E+03  0.10566000000E+00 0.  1.
          4    1    3    3  501    0 -0.62884580353E+02 -0.43303321425E+03  0.24109033513E+03  0.49959662207E+03  0.00000000000E+00 0.  1.
         13    1    1    2    0    0  0.79152498504E+02 -0.13190131486E+03 -0.51521983060E+02  0.16222700387E+03  0.10566000000E+00 0. -1.
<mgrwt>
<rscale>  1 0.62789133E+03</rscale>
<asrwt>0</asrwt>
<pdfrwt beam="1">  1       21 0.14491380E+00 0.10034616E+04</pdfrwt>
<pdfrwt beam="2">  1        4 0.60124652E-01 0.10034616E+04</pdfrwt>
<totfact> 0.30961499E+01</totfact>
</mgrwt>
</event>
<event>
 6    1  0.1375310E-005  0.1004034E+04  0.7818608E-02  0.9627166E-01
         21   -1    0    0  501  502  0.00000000000E+00  0.00000000000E+00  0.19389764972E+04  0.19389764972E+04  0.00000000000E+00 0.  1.
          4   -1    0    0  502    0 -0.00000000000E+00 -0.00000000000E+00 -0.23183900388E+03  0.23183900388E+03  0.00000000000E+00 0.  1.
    9000010    2    1    2  501    0  0.26622580671E+03  0.18012444976E+03  0.11415527254E+04  0.15202717758E+04  0.95119012296E+03 0.  0.
        -13    1    3    3    0    0  0.59780473725E+03 -0.17714214119E+02  0.83590442002E+03  0.10278231890E+04  0.10566000000E+00 0.  1.
          4    1    3    3  501    0 -0.33157893055E+03  0.19783866388E+03  0.30564830534E+03  0.49244858682E+03  0.00000000000E+00 0.  1.
         13    1    1    2    0    0 -0.26622580671E+03 -0.18012444976E+03  0.56558476797E+03  0.65054372527E+03  0.10566000000E+00 0. -1.
<mgrwt>
<rscale>  1 0.75523976E+03</rscale>
<asrwt>0</asrwt>
<pdfrwt beam="1">  1       21 0.29830407E+00 0.10040337E+04</pdfrwt>
<pdfrwt beam="2">  1        4 0.35667540E-01 0.10040337E+04</pdfrwt>
<totfact> 0.83420395E+00</totfact>
</mgrwt>
</event>
<event>
 6    1  0.1375310E-005  0.1059892E+04  0.7818608E-02  0.9571003E-01
         21   -1    0    0  501  502  0.00000000000E+00  0.00000000000E+00  0.46929634602E+03  0.46929634602E+03  0.00000000000E+00 0.  1.
          4   -1    0    0  502    0 -0.00000000000E+00 -0.00000000000E+00 -0.10521407975E+04  0.10521407975E+04  0.00000000000E+00 0.  1.
    9000010    2    1    2  501    0  0.27318107586E+03 -0.18728796217E+03 -0.34855992685E+03  0.11157353680E+04  0.10068101648E+04 0.  0.
        -13    1    3    3    0    0  0.13708270882E+03  0.32967137435E+03  0.14764472989E+03  0.38635975664E+03  0.10566000000E+00 0.  1.
          4    1    3    3  501    0  0.13609836704E+03 -0.51695933652E+03 -0.49620465674E+03  0.72937561140E+03  0.00000000000E+00 0.  1.
         13    1    1    2    0    0 -0.27318107586E+03  0.18728796217E+03 -0.23428452465E+03  0.40570177549E+03  0.10566000000E+00 0. -1.
<mgrwt>
<rscale>  1 0.79245463E+03</rscale>
<asrwt>0</asrwt>
<pdfrwt beam="1">  1       21 0.72199439E-01 0.10598922E+04</pdfrwt>
<pdfrwt beam="2">  1        4 0.16186781E+00 0.10598922E+04</pdfrwt>
<totfact> 0.15979982E+01</totfact>
</mgrwt>
</event>
<event>
 6    1  0.1375310E-005  0.8057566E+03  0.7818608E-02  0.1006977E+00
         21   -1    0    0  501  502  0.00000000000E+00  0.00000000000E+00  0.12253304609E+04  0.12253304609E+04  0.00000000000E+00 0.  1.
          4   -1    0    0  502    0 -0.00000000000E+00 -0.00000000000E+00 -0.18815082533E+03  0.18815082533E+03  0.00000000000E+00 0.  1.
    9000010    2    1    2  501    0  0.14734585597E+03 -0.30421229030E+01  0.80871266942E+03  0.11416040684E+04  0.79216387922E+03 0.  0.
        -13    1    3    3    0    0 -0.12155381869E+03  0.27036643992E+03  0.62984407319E+02  0.30305179326E+03  0.10566000000E+00 0.  1.
          4    1    3    3  501    0  0.26889967466E+03 -0.27340856282E+03  0.74572826210E+03  0.83855227514E+03  0.00000000000E+00 0.  1.
         13    1    1    2    0    0 -0.14734585597E+03  0.30421229030E+01  0.22846696621E+03  0.27187721787E+03  0.10566000000E+00 0. -1.
<mgrwt>
<rscale>  1 0.52693931E+03</rscale>
<asrwt>0</asrwt>
<pdfrwt beam="1">  1       21 0.18851237E+00 0.80575658E+03</pdfrwt>
<pdfrwt beam="2">  1        4 0.28946282E-01 0.80575658E+03</pdfrwt>
<totfact> 0.66327092E+01</totfact>
</mgrwt>
</event>
<event>
 6    1  0.1375310E-005  0.1070578E+04  0.7818608E-02  0.9463194E-01
         21   -1    0    0  501  502  0.00000000000E+00  0.00000000000E+00  0.10047718977E+04  0.10047718977E+04  0.00000000000E+00 0.  1.
          4   -1    0    0  502    0 -0.00000000000E+00 -0.00000000000E+00 -0.66483670988E+03  0.66483670988E+03  0.00000000000E+00 0.  1.
    9000010    2    1    2  501    0 -0.27356884783E+02  0.46722868629E+03  0.49100283312E+03  0.11778032710E+04  0.96285290607E+03 0.  0.
        -13    1    3    3    0    0  0.11817598796E+03 -0.20367174366E+03 -0.11503397942E+03  0.26206978247E+03  0.10566000000E+00 0.  1.
          4    1    3    3  501    0 -0.14553287274E+03  0.67090042995E+03  0.60603681254E+03  0.91573348858E+03  0.00000000000E+00 0.  1.
         13    1    1    2    0    0  0.27356884783E+02 -0.46722868629E+03 -0.15106764529E+03  0.49180533654E+03  0.10566000000E+00 0. -1.
<mgrwt>
<rscale>  1 0.87052618E+03</rscale>
<asrwt>0</asrwt>
<pdfrwt beam="1">  1       21 0.15458029E+00 0.10705778E+04</pdfrwt>
<pdfrwt beam="2">  1        4 0.10228257E+00 0.10705778E+04</pdfrwt>
<totfact> 0.75895736E+00</totfact>
</mgrwt>
</event>
<event>
 6    1  0.1375310E-005  0.1378981E+04  0.7818608E-02  0.9186708E-01
         21   -1    0    0  501  502  0.00000000000E+00  0.00000000000E+00  0.11092887184E+04  0.11092887184E+04  0.00000000000E+00 0.  1.
          4   -1    0    0  502    0 -0.00000000000E+00 -0.00000000000E+00 -0.11602777274E+04  0.11602777274E+04  0.00000000000E+00 0.  1.
    9000010    2    1    2  501    0 -0.21350227023E+03 -0.55889231209E+03  0.48951264004E+03  0.14632874123E+04  0.12424345417E+04 0.  0.
        -13    1    3    3    0    0  0.26907901941E+03  0.51982519203E+02 -0.26351251946E+03  0.38019016303E+03  0.10566000000E+00 0.  1.
          4    1    3    3  501    0 -0.48258128963E+03 -0.61087483129E+03  0.75302515951E+03  0.10830972493E+04  0.00000000000E+00 0.  1.
         13    1    1    2    0    0  0.21350227023E+03  0.55889231209E+03 -0.54050164907E+03  0.80627903341E+03  0.10566000000E+00 0. -1.
<mgrwt>
<rscale>  1 0.11191685E+04</rscale>
<asrwt>0</asrwt>
<pdfrwt beam="1">  1       21 0.17065980E+00 0.13789806E+04</pdfrwt>
<pdfrwt beam="2">  1        4 0.17850427E+00 0.13789806E+04</pdfrwt>
<totfact> 0.12722316E+00</totfact>
</mgrwt>
</event>
<event>
 6    1  0.1375310E-005  0.1081841E+04  0.7818608E-02  0.9515025E-01
         21   -1    0    0  501  502  0.00000000000E+00  0.00000000000E+00  0.13966971921E+04  0.13966971921E+04  0.00000000000E+00 0.  1.
          4   -1    0    0  502    0 -0.00000000000E+00 -0.00000000000E+00 -0.38822610882E+03  0.38822610882E+03  0.00000000000E+00 0.  1.
    9000010    2    1    2  501    0 -0.16203300515E+03 -0.34170231178E+03  0.84588368339E+03  0.13732804479E+04  0.10135900642E+04 0.  0.
        -13    1    3    3    0    0 -0.29865423721E+03 -0.18884642580E+03 -0.12968873721E+03  0.37639939647E+03  0.10566000000E+00 0.  1.
          4    1    3    3  501    0  0.13662123207E+03 -0.15285588598E+03  0.97557242060E+03  0.99688105146E+03  0.00000000000E+00 0.  1.
         13    1    1    2    0    0  0.16203300515E+03  0.34170231178E+03  0.16258739987E+03  0.41164285296E+03  0.10566000000E+00 0. -1.
<mgrwt>
<rscale>  1 0.83185063E+03</rscale>
<asrwt>0</asrwt>
<pdfrwt beam="1">  1       21 0.21487649E+00 0.10818410E+04</pdfrwt>
<pdfrwt beam="2">  1        4 0.59727094E-01 0.10818410E+04</pdfrwt>
<totfact> 0.95546206E+00</totfact>
</mgrwt>
</event>
<event>
 6    1  0.1375310E-005  0.1051362E+04  0.7818608E-02  0.9568237E-01
          4   -1    0    0  502    0 -0.00000000000E+00  0.00000000000E+00  0.15375701450E+04  0.15375701450E+04  0.00000000000E+00 0.  1.
         21   -1    0    0  501  502  0.00000000000E+00 -0.00000000000E+00 -0.31818520244E+03  0.31818520244E+03  0.00000000000E+00 0.  1.
    9000010    2    1    2  501    0 -0.25087753598E+03 -0.23330700696E+03  0.98470886265E+03  0.14404908881E+04  0.99397724167E+03 0.  0.
        -13    1    3    3    0    0 -0.18621493865E+03 -0.62602291588E+03  0.59728926906E+03  0.88506224452E+03  0.10566000000E+00 0.  1.
          4    1    3    3  501    0 -0.64662597329E+02  0.39271590892E+03  0.38741959359E+03  0.55542864358E+03  0.00000000000E+00 0.  1.
         13    1    1    2    0    0  0.25087753598E+03  0.23330700696E+03  0.23467607996E+03  0.41526445938E+03  0.10566000000E+00 0. -1.
<mgrwt>
<rscale>  1 0.79434607E+03</rscale>
<asrwt>0</asrwt>
<pdfrwt beam="2">  1       21 0.48951570E-01 0.10513622E+04</pdfrwt>
<pdfrwt beam="1">  1        4 0.23654925E+00 0.10513622E+04</pdfrwt>
<totfact> 0.12000483E+01</totfact>
</mgrwt>
</event>
<event>
 6    1  0.1375310E-005  0.1002916E+04  0.7818608E-02  0.1008812E+00
         21   -1    0    0  501  502  0.00000000000E+00  0.00000000000E+00  0.38652450774E+03  0.38652450774E+03  0.00000000000E+00 0.  1.
          4   -1    0    0  502    0 -0.00000000000E+00 -0.00000000000E+00 -0.75154437260E+03  0.75154437260E+03  0.00000000000E+00 0.  1.
    9000010    2    1    2  501    0  0.49398021059E+02  0.52654003646E+02 -0.31889787559E+03  0.10523959112E+04  0.10003142957E+04 0.  0.
        -13    1    3    3    0    0 -0.66111173822E+01  0.41102369433E+03  0.16898274593E+03  0.44445400635E+03  0.10566000000E+00 0.  1.
          4    1    3    3  501    0  0.56009138441E+02 -0.35836969069E+03 -0.48788062153E+03  0.60794190483E+03  0.00000000000E+00 0.  1.
         13    1    1    2    0    0 -0.49398021059E+02 -0.52654003646E+02 -0.46121989266E+02  0.85672969146E+02  0.10566000000E+00 0. -1.
<mgrwt>
<rscale>  1 0.51949402E+03</rscale>
<asrwt>0</asrwt>
<pdfrwt beam="1">  1       21 0.59465309E-01 0.10029164E+04</pdfrwt>
<pdfrwt beam="2">  1        4 0.11562221E+00 0.10029164E+04</pdfrwt>
<totfact> 0.60120174E+01</totfact>
</mgrwt>
</event>
<event>
 6    1  0.1375310E-005  0.1031897E+04  0.7818608E-02  0.9643811E-01
          4   -1    0    0  502    0 -0.00000000000E+00  0.00000000000E+00  0.35648793381E+03  0.35648793381E+03  0.00000000000E+00 0.  1.
         21   -1    0    0  501  502  0.00000000000E+00 -0.00000000000E+00 -0.12857842392E+04  0.12857842392E+04  0.00000000000E+00 0.  1.
    9000010    2    1    2  501    0  0.27638939692E+03 -0.43591939480E+02 -0.88410098994E+03  0.13588396702E+04  0.99323679607E+03 0.  0.
        -13    1    3    3    0    0  0.11634778952E+03 -0.24148720694E+03  0.14081907947E+03  0.30279184856E+03  0.10566000000E+00 0.  1.
          4    1    3    3  501    0  0.16004160740E+03  0.19789526746E+03 -0.10249200694E+04  0.10560478217E+04  0.00000000000E+00 0.  1.
         13    1    1    2    0    0 -0.27638939692E+03  0.43591939480E+02 -0.45195315436E+02  0.28343250276E+03  0.10566000000E+00 0. -1.
<mgrwt>
<rscale>  1 0.74463147E+03</rscale>
<asrwt>0</asrwt>
<pdfrwt beam="2">  1       21 0.19781296E+00 0.10318966E+04</pdfrwt>
<pdfrwt beam="1">  1        4 0.54844298E-01 0.10318966E+04</pdfrwt>
<totfact> 0.15101001E+01</totfact>
</mgrwt>
</event>
<event>
 6    1  0.1375310E-005  0.1100400E+04  0.7818608E-02  0.9492254E-01
          4   -1    0    0  502    0 -0.00000000000E+00  0.00000000000E+00  0.59027993626E+03  0.59027993626E+03  0.00000000000E+00 0.  1.
         21   -1    0    0  501  502  0.00000000000E+00 -0.00000000000E+00 -0.10718055671E+04  0.10718055671E+04  0.00000000000E+00 0.  1.
    9000010    2    1    2  501    0  0.16849365350E+03  0.35077006616E+03 -0.60253725423E+03  0.12545642466E+04  0.10292961457E+04 0.  0.
        -13    1    3    3    0    0 -0.10070162126E+03  0.49555306611E+03 -0.75834573081E+03  0.91148336049E+03  0.10566000000E+00 0.  1.
          4    1    3    3  501    0  0.26919527477E+03 -0.14478299995E+03  0.15580847658E+03  0.34308088610E+03  0.00000000000E+00 0.  1.
         13    1    1    2    0    0 -0.16849365350E+03 -0.35077006616E+03  0.12101162336E+03  0.40752125679E+03  0.10566000000E+00 0. -1.
<mgrwt>
<rscale>  1 0.84857330E+03</rscale>
<asrwt>0</asrwt>
<pdfrwt beam="2">  1       21 0.16489316E+00 0.11004001E+04</pdfrwt>
<pdfrwt beam="1">  1        4 0.90812298E-01 0.11004001E+04</pdfrwt>
<totfact> 0.83551617E+00</totfact>
</mgrwt>
</event>
<event>
 6    1  0.1375310E-005  0.1016545E+04  0.7818608E-02  0.9854904E-01
          4   -1    0    0  502    0 -0.00000000000E+00  0.00000000000E+00  0.40894169890E+03  0.40894169890E+03  0.00000000000E+00 0.  1.
         21   -1    0    0  501  502  0.00000000000E+00 -0.00000000000E+00 -0.83909063733E+03  0.83909063733E+03  0.00000000000E+00 0.  1.
    9000010    2    1    2  501    0 -0.94779395956E+02  0.11004537382E+03 -0.42748618052E+03  0.11027731897E+04  0.10061168696E+04 0.  0.
        -13    1    3    3    0    0 -0.43373778824E+03 -0.27486520052E+02 -0.56426910481E+03  0.71223845132E+03  0.10566000000E+00 0.  1.
          4    1    3    3  501    0  0.33895839228E+03  0.13753189387E+03  0.13678292429E+03  0.39053473841E+03  0.00000000000E+00 0.  1.
         13    1    1    2    0    0  0.94779395956E+02 -0.11004537382E+03 -0.26627579111E+01  0.14525914649E+03  0.10566000000E+00 0. -1.
<mgrwt>
<rscale>  1 0.62497503E+03</rscale>
<asrwt>0</asrwt>
<pdfrwt beam="2">  1       21 0.12909087E+00 0.10165453E+04</pdfrwt>
<pdfrwt beam="1">  1        4 0.62914108E-01 0.10165453E+04</pdfrwt>
<totfact> 0.38268619E+01</totfact>
</mgrwt>
</event>
<event>
 6    1  0.1375310E-005  0.1098820E+04  0.7818608E-02  0.9728416E-01
          4   -1    0    0  502    0 -0.00000000000E+00  0.00000000000E+00  0.12652564783E+04  0.12652564783E+04  0.00000000000E+00 0.  1.
         21   -1    0    0  501  502  0.00000000000E+00 -0.00000000000E+00 -0.32599388035E+03  0.32599388035E+03  0.00000000000E+00 0.  1.
    9000010    2    1    2  501    0 -0.11830176023E+03  0.12806196384E+03  0.87779952258E+03  0.14063912397E+04  0.10849005227E+04 0.  0.
        -13    1    3    3    0    0 -0.61249430841E+02 -0.92364543537E+02  0.10897190522E+04  0.10953402785E+04  0.10566000000E+00 0.  1.
          4    1    3    3  501    0 -0.57052329389E+02  0.22042650738E+03 -0.21191952963E+03  0.31105096124E+03  0.00000000000E+00 0.  1.
         13    1    1    2    0    0  0.11830176023E+03 -0.12806196384E+03  0.61463075331E+02  0.18485911893E+03  0.10566000000E+00 0. -1.
<mgrwt>
<rscale>  1 0.69349834E+03</rscale>
<asrwt>0</asrwt>
<pdfrwt beam="2">  1       21 0.50152905E-01 0.10988195E+04</pdfrwt>
<pdfrwt beam="1">  1        4 0.19465484E+00 0.10988195E+04</pdfrwt>
<totfact> 0.21123093E+01</totfact>
</mgrwt>
</event>
<event>
 6    1  0.1375310E-005  0.9891860E+03  0.7818608E-02  0.1001018E+00
         21   -1    0    0  501  502  0.00000000000E+00  0.00000000000E+00  0.11104666529E+03  0.11104666529E+03  0.00000000000E+00 0.  1.
          4   -1    0    0  502    0 -0.00000000000E+00 -0.00000000000E+00 -0.29091032932E+04  0.29091032932E+04  0.00000000000E+00 0.  1.
    9000010    2    1    2  501    0 -0.85981578750E+02  0.42618550118E+02 -0.27266427439E+04  0.29005291965E+04  0.98452008326E+03 0.  0.
        -13    1    3    3    0    0 -0.90042119780E+02 -0.35836183635E+03 -0.22385293253E+04  0.22688200326E+04  0.10566000000E+00 0.  1.
          4    1    3    3  501    0  0.40605410296E+01  0.40098038647E+03 -0.48811341859E+03  0.63170916388E+03  0.00000000000E+00 0.  1.
         13    1    1    2    0    0  0.85981578750E+02 -0.42618550118E+02 -0.71413883996E+02  0.11962076195E+03  0.10566000000E+00 0. -1.
<mgrwt>
<rscale>  1 0.55205986E+03</rscale>
<asrwt>0</asrwt>
<pdfrwt beam="1">  1       21 0.17084104E-01 0.98918601E+03</pdfrwt>
<pdfrwt beam="2">  1        4 0.44755430E+00 0.98918601E+03</pdfrwt>
<totfact> 0.41826898E+00</totfact>
</mgrwt>
</event>
<event>
 6    1  0.1375310E-005  0.9921429E+03  0.7818608E-02  0.1025973E+00
          4   -1    0    0  502    0 -0.00000000000E+00  0.00000000000E+00  0.45441313667E+03  0.45441313667E+03  0.00000000000E+00 0.  1.
         21   -1    0    0  501  502  0.00000000000E+00 -0.00000000000E+00 -0.68699010716E+03  0.68699010716E+03  0.00000000000E+00 0.  1.
    9000010    2    1    2  501    0  0.43282736061E+02  0.91524060824E+01 -0.32079308869E+03  0.10427155726E+04  0.99115609154E+03 0.  0.
        -13    1    3    3    0    0  0.51714243981E+03 -0.91434752902E+00 -0.14360679253E+03  0.53671227032E+03  0.10566000000E+00 0.  1.
          4    1    3    3  501    0 -0.47385970375E+03  0.10066753611E+02 -0.17718629616E+03  0.50600330228E+03  0.00000000000E+00 0.  1.
         13    1    1    2    0    0 -0.43282736061E+02 -0.91524060824E+01  0.88216118200E+02  0.98687671227E+02  0.10566000000E+00 0. -1.
<mgrwt>
<rscale>  1 0.45591547E+03</rscale>
<asrwt>0</asrwt>
<pdfrwt beam="2">  1       21 0.10569079E+00 0.99214291E+03</pdfrwt>
<pdfrwt beam="1">  1        4 0.69909714E-01 0.99214291E+03</pdfrwt>
<totfact> 0.50827585E+01</totfact>
</mgrwt>
</event>
<event>
 6    1  0.1692786E-005  0.7988998E+03  0.7818608E-02  0.1000011E+00
         21   -1    0    0  501  502  0.00000000000E+00  0.00000000000E+00  0.16851479098E+04  0.16851479098E+04  0.00000000000E+00 0.  1.
          4   -1    0    0  502    0 -0.00000000000E+00 -0.00000000000E+00 -0.17257797232E+03  0.17257797232E+03  0.00000000000E+00 0.  1.
    9000010    2    1    2  501    0 -0.12559918899E+01  0.18803437404E+03  0.14569919837E+04  0.16616457367E+04  0.77645502788E+03 0.  0.
        -13    1    3    3    0    0 -0.33198504434E+03  0.66112958923E+02  0.30054448198E+03  0.45267205548E+03  0.10566000000E+00 0.  1.
          4    1    3    3  501    0  0.33072905245E+03  0.12192141511E+03  0.11564475017E+04  0.12089736812E+04  0.00000000000E+00 0.  1.
         13    1    1    2    0    0  0.12559918899E+01 -0.18803437404E+03  0.55577953826E+02  0.19608014548E+03  0.10566000000E+00 0. -1.
<mgrwt>
<rscale>  1 0.55645621E+03</rscale>
<asrwt>0</asrwt>
<pdfrwt beam="1">  1       21 0.25925351E+00 0.79889981E+03</pdfrwt>
<pdfrwt beam="2">  1        4 0.26550458E-01 0.79889981E+03</pdfrwt>
<totfact> 0.26984190E+01</totfact>
</mgrwt>
</event>
<event>
 6    1  0.1375310E-005  0.9855687E+03  0.7818608E-02  0.9894745E-01
         21   -1    0    0  501  502  0.00000000000E+00  0.00000000000E+00  0.96835515206E+03  0.96835515206E+03  0.00000000000E+00 0.  1.
          4   -1    0    0  502    0 -0.00000000000E+00 -0.00000000000E+00 -0.38756037621E+03  0.38756037621E+03  0.00000000000E+00 0.  1.
    9000010    2    1    2  501    0  0.88722481010E+02 -0.10842648773E+03  0.66825202264E+03  0.11907587450E+04  0.97556016788E+03 0.  0.
        -13    1    3    3    0    0  0.34013361746E+03  0.59764514864E+02 -0.10458663831E+03  0.36083382746E+03  0.10566000000E+00 0.  1.
          4    1    3    3  501    0 -0.25141113645E+03 -0.16819100259E+03  0.77283866095E+03  0.82992491754E+03  0.00000000000E+00 0.  1.
         13    1    1    2    0    0 -0.88722481010E+02  0.10842648773E+03 -0.87457246789E+02  0.16515678326E+03  0.10566000000E+00 0. -1.
<mgrwt>
<rscale>  1 0.60516619E+03</rscale>
<asrwt>0</asrwt>
<pdfrwt beam="1">  1       21 0.14897771E+00 0.98556868E+03</pdfrwt>
<pdfrwt beam="2">  1        4 0.59624674E-01 0.98556868E+03</pdfrwt>
<totfact> 0.29260525E+01</totfact>
</mgrwt>
</event>
<event>
 6    1  0.1375310E-005  0.1040316E+04  0.7818608E-02  0.9656413E-01
          4   -1    0    0  502    0 -0.00000000000E+00  0.00000000000E+00  0.23701919085E+03  0.23701919085E+03  0.00000000000E+00 0.  1.
         21   -1    0    0  501  502  0.00000000000E+00 -0.00000000000E+00 -0.19202505030E+04  0.19202505030E+04  0.00000000000E+00 0.  1.
    9000010    2    1    2  501    0  0.24688597318E+03 -0.86648816029E+02 -0.10790636508E+04  0.14988782637E+04  0.10068748611E+04 0.  0.
        -13    1    3    3    0    0 -0.95395154830E+02 -0.35946926326E+03 -0.98265399920E+03  0.10506794374E+04  0.10566000000E+00 0.  1.
          4    1    3    3  501    0  0.34228112801E+03  0.27282044723E+03 -0.96409651562E+02  0.44819882634E+03  0.00000000000E+00 0.  1.
         13    1    1    2    0    0 -0.24688597318E+03  0.86648816029E+02 -0.60416766141E+03  0.65839143017E+03  0.10566000000E+00 0. -1.
<mgrwt>
<rscale>  1 0.73672301E+03</rscale>
<asrwt>0</asrwt>
<pdfrwt beam="2">  1       21 0.29542315E+00 0.10403161E+04</pdfrwt>
<pdfrwt beam="1">  1        4 0.36464492E-01 0.10403161E+04</pdfrwt>
<totfact> 0.82649695E+00</totfact>
</mgrwt>
</event>
<event>
 6    1  0.1375310E-005  0.1345198E+04  0.7818608E-02  0.9101179E-01
         21   -1    0    0  501  502  0.00000000000E+00  0.00000000000E+00  0.16630676454E+04  0.16630676454E+04  0.00000000000E+00 0. -1.
          4   -1    0    0  502    0 -0.00000000000E+00 -0.00000000000E+00 -0.94533165939E+03  0.94533165939E+03  0.00000000000E+00 0.  1.
    9000010    2    1    2  501    0  0.29694215073E+02  0.89015032930E+03  0.99768450681E+03  0.16747931027E+04  0.10081211269E+04 0.  0.
        -13    1    3    3    0    0 -0.41573611073E+02  0.27608046688E+03 -0.18871832797E+03  0.33699170288E+03  0.10566000000E+00 0.  1.
          4    1    3    3  501    0  0.71267826146E+02  0.61406986241E+03  0.11864028348E+04  0.13378013998E+04  0.00000000000E+00 0.  1.
         13    1    1    2    0    0 -0.29694215073E+02 -0.89015032930E+03 -0.27994852080E+03  0.93360620211E+03  0.10566000000E+00 0. -1.
<mgrwt>
<rscale>  1 0.12134332E+04</rscale>
<asrwt>0</asrwt>
<pdfrwt beam="1">  1       21 0.25585656E+00 0.13451980E+04</pdfrwt>
<pdfrwt beam="2">  1        4 0.14543564E+00 0.13451980E+04</pdfrwt>
<totfact> 0.59157394E-01</totfact>
</mgrwt>
</event>
<event>
 6    1  0.1375310E-005  0.1037152E+04  0.7818608E-02  0.9660689E-01
          4   -1    0    0  502    0 -0.00000000000E+00  0.00000000000E+00  0.20085374010E+03  0.20085374010E+03  0.00000000000E+00 0.  1.
         21   -1    0    0  501  502  0.00000000000E+00 -0.00000000000E+00 -0.22790678251E+04  0.22790678251E+04  0.00000000000E+00 0.  1.
    9000010    2    1    2  501    0 -0.26022976360E+03 -0.39667291756E+01 -0.18995144331E+04  0.21642178409E+04  0.10039663921E+04 0.  0.
        -13    1    3    3    0    0  0.21456965601E+03 -0.28906895585E+03 -0.29060582520E+03  0.46265835702E+03  0.10566000000E+00 0.  1.
          4    1    3    3  501    0 -0.47479941961E+03  0.28510222667E+03 -0.16089086079E+04  0.17015594838E+04  0.00000000000E+00 0.  1.
         13    1    1    2    0    0  0.26022976360E+03  0.39667291756E+01 -0.17869965192E+03  0.31570372434E+03  0.10566000000E+00 0. -1.
<mgrwt>
<rscale>  1 0.73406344E+03</rscale>
<asrwt>0</asrwt>
<pdfrwt beam="2">  1       21 0.35062581E+00 0.10371518E+04</pdfrwt>
<pdfrwt beam="1">  1        4 0.30900577E-01 0.10371518E+04</pdfrwt>
<totfact> 0.51891002E+00</totfact>
</mgrwt>
</event>
<event>
 6    1  0.1375310E-005  0.1022462E+04  0.7818608E-02  0.9748583E-01
          4   -1    0    0  502    0 -0.00000000000E+00  0.00000000000E+00  0.16946924771E+04  0.16946924771E+04  0.00000000000E+00 0.  1.
         21   -1    0    0  501  502  0.00000000000E+00 -0.00000000000E+00 -0.24691866437E+03  0.24691866437E+03  0.00000000000E+00 0. -1.
    9000010    2    1    2  501    0 -0.31381265010E+02 -0.19990240224E+03  0.14001392156E+04  0.17337293957E+04  0.10022385146E+04 0.  0.
        -13    1    3    3    0    0 -0.36103612558E+03 -0.43377424524E+03  0.52962687713E+03  0.77395853892E+03  0.10566000000E+00 0.  1.
          4    1    3    3  501    0  0.32965486057E+03  0.23387184301E+03  0.87051233847E+03  0.95977085676E+03  0.00000000000E+00 0.  1.
         13    1    1    2    0    0  0.31381265010E+02  0.19990240224E+03  0.47634597076E+02  0.20788174575E+03  0.10566000000E+00 0. -1.
<mgrwt>
<rscale>  1 0.68196399E+03</rscale>
<asrwt>0</asrwt>
<pdfrwt beam="2">  1       21 0.37987488E-01 0.10224616E+04</pdfrwt>
<pdfrwt beam="1">  1        4 0.26072191E+00 0.10224616E+04</pdfrwt>
<totfact> 0.14582558E+01</totfact>
</mgrwt>
</event>
<event>
 6    1  0.1375310E-005  0.1074698E+04  0.7818608E-02  0.1022030E+00
         21   -1    0    0  501  502  0.00000000000E+00  0.00000000000E+00  0.98305903378E+03  0.98305903378E+03  0.00000000000E+00 0.  1.
          4   -1    0    0  502    0 -0.00000000000E+00 -0.00000000000E+00 -0.36493849060E+03  0.36493849060E+03  0.00000000000E+00 0.  1.
    9000010    2    1    2  501    0 -0.38901975235E+02  0.46838876327E+01  0.68216349384E+03  0.12729188112E+04  0.10739832239E+04 0.  0.
        -13    1    3    3    0    0 -0.39378265347E+03 -0.35429247420E+03  0.52111937225E+03  0.74307021657E+03  0.10566000000E+00 0.  1.
          4    1    3    3  501    0  0.35488067824E+03  0.35897636184E+03  0.16104412159E+03  0.52984859464E+03  0.00000000000E+00 0.  1.
         13    1    1    2    0    0  0.38901975235E+02 -0.46838876327E+01 -0.64042950654E+02  0.75078713182E+02  0.10566000000E+00 0. -1.
<mgrwt>
<rscale>  1 0.46961223E+03</rscale>
<asrwt>0</asrwt>
<pdfrwt beam="1">  1       21 0.15123985E+00 0.10746978E+04</pdfrwt>
<pdfrwt beam="2">  1        4 0.56144384E-01 0.10746978E+04</pdfrwt>
<totfact> 0.31674615E+01</totfact>
</mgrwt>
</event>
<event>
 6    1  0.1375310E-005  0.9125317E+03  0.7818608E-02  0.9813308E-01
          4   -1    0    0  502    0 -0.00000000000E+00  0.00000000000E+00  0.37313558582E+03  0.37313558582E+03  0.00000000000E+00 0.  1.
         21   -1    0    0  501  502  0.00000000000E+00 -0.00000000000E+00 -0.93501632341E+03  0.93501632341E+03  0.00000000000E+00 0.  1.
    9000010    2    1    2  501    0 -0.22946692088E+03 -0.14766946308E+02 -0.57372947355E+03  0.10779052281E+04  0.88308608946E+03 0.  0.
        -13    1    3    3    0    0  0.21129144694E+03 -0.25779875860E+03 -0.26453996635E+02  0.33437120179E+03  0.10566000000E+00 0.  1.
          4    1    3    3  501    0 -0.44075836782E+03  0.24303181229E+03 -0.54727547691E+03  0.74353402627E+03  0.00000000000E+00 0.  1.
         13    1    1    2    0    0  0.22946692088E+03  0.14766946308E+02  0.11848735964E+02  0.23024668117E+03  0.10566000000E+00 0. -1.
<mgrwt>
<rscale>  1 0.64653252E+03</rscale>
<asrwt>0</asrwt>
<pdfrwt beam="2">  1       21 0.14384866E+00 0.91253174E+03</pdfrwt>
<pdfrwt beam="1">  1        4 0.57405476E-01 0.91253174E+03</pdfrwt>
<totfact> 0.35264119E+01</totfact>
</mgrwt>
</event>
<event>
 6    1  0.1375310E-005  0.1228266E+04  0.7818608E-02  0.9240761E-01
          4   -1    0    0  502    0 -0.00000000000E+00  0.00000000000E+00  0.14519578113E+04  0.14519578113E+04  0.00000000000E+00 0.  1.
         21   -1    0    0  501  502  0.00000000000E+00 -0.00000000000E+00 -0.66123687553E+03  0.66123687553E+03  0.00000000000E+00 0. -1.
    9000010    2    1    2  501    0  0.42585949471E+03 -0.54580682866E+03  0.29925533345E+03  0.12641953624E+04  0.10145810743E+04 0.  0.
        -13    1    3    3    0    0  0.59530995648E+03 -0.20257501268E+03 -0.17691513478E+03  0.65324540268E+03  0.10566000000E+00 0.  1.
          4    1    3    3  501    0 -0.16945046177E+03 -0.34323181598E+03  0.47617046823E+03  0.61094995974E+03  0.00000000000E+00 0.  1.
         13    1    1    2    0    0 -0.42585949471E+03  0.54580682866E+03  0.49146560235E+03  0.84899932444E+03  0.10566000000E+00 0. -1.
<mgrwt>
<rscale>  1 0.10642429E+04</rscale>
<asrwt>0</asrwt>
<pdfrwt beam="2">  1       21 0.10172875E+00 0.12282655E+04</pdfrwt>
<pdfrwt beam="1">  1        4 0.22337812E+00 0.12282655E+04</pdfrwt>
<totfact> 0.26293938E+00</totfact>
</mgrwt>
</event>
<event>
 6    1  0.1375310E-005  0.9914824E+03  0.7818608E-02  0.1000825E+00
         21   -1    0    0  501  502  0.00000000000E+00  0.00000000000E+00  0.28121726334E+04  0.28121726334E+04  0.00000000000E+00 0.  1.
          4   -1    0    0  502    0 -0.00000000000E+00 -0.00000000000E+00 -0.12102278745E+03  0.12102278745E+03  0.00000000000E+00 0.  1.
    9000010    2    1    2  501    0 -0.75279849923E+01 -0.95584726694E+02  0.26489806955E+04  0.28284511659E+04  0.98683542817E+03 0.  0.
        -13    1    3    3    0    0 -0.49037966015E+03 -0.12420916154E+03  0.14419286511E+04  0.15280897791E+04  0.10566000000E+00 0.  1.
          4    1    3    3  501    0  0.48285167516E+03  0.28624434845E+02  0.12070520443E+04  0.13003613868E+04  0.00000000000E+00 0.  1.
         13    1    1    2    0    0  0.75279849923E+01  0.95584726694E+02  0.42169150506E+02  0.10474425499E+03  0.10566000000E+00 0. -1.
<mgrwt>
<rscale>  1 0.55290004E+03</rscale>
<asrwt>0</asrwt>
<pdfrwt beam="1">  1       21 0.43264190E+00 0.99148236E+03</pdfrwt>
<pdfrwt beam="2">  1        4 0.18618892E-01 0.99148236E+03</pdfrwt>
<totfact> 0.40096519E+00</totfact>
</mgrwt>
</event>
<event>
 6    1  0.1375310E-005  0.1009746E+04  0.7818608E-02  0.9972670E-01
          4   -1    0    0  502    0 -0.00000000000E+00  0.00000000000E+00  0.48394662374E+03  0.48394662374E+03  0.00000000000E+00 0.  1.
         21   -1    0    0  501  502  0.00000000000E+00 -0.00000000000E+00 -0.75958319710E+03  0.75958319710E+03  0.00000000000E+00 0.  1.
    9000010    2    1    2  501    0 -0.98063243662E+02 -0.26439001901E+02 -0.39725430240E+03  0.10850801324E+04  0.10046255484E+04 0.  0.
        -13    1    3    3    0    0 -0.21998736068E+03  0.14829648624E+02 -0.71182617455E+03  0.74519183522E+03  0.10566000000E+00 0.  1.
          4    1    3    3  501    0  0.12192411702E+03 -0.41268650525E+02  0.31457187215E+03  0.33988829720E+03  0.00000000000E+00 0.  1.
         13    1    1    2    0    0  0.98063243662E+02  0.26439001901E+02  0.12161772904E+03  0.15844968842E+03  0.10566000000E+00 0. -1.
<mgrwt>
<rscale>  1 0.56865018E+03</rscale>
<asrwt>0</asrwt>
<pdfrwt beam="2">  1       21 0.11685895E+00 0.10097465E+04</pdfrwt>
<pdfrwt beam="1">  1        4 0.74453327E-01 0.10097465E+04</pdfrwt>
<totfact> 0.34126439E+01</totfact>
</mgrwt>
</event>
<event>
 6    1  0.1375310E-005  0.9999763E+03  0.7818608E-02  0.1000589E+00
         21   -1    0    0  501  502  0.00000000000E+00  0.00000000000E+00  0.31096719727E+03  0.31096719727E+03  0.00000000000E+00 0.  1.
          4   -1    0    0  502    0 -0.00000000000E+00 -0.00000000000E+00 -0.11190490467E+04  0.11190490467E+04  0.00000000000E+00 0.  1.
    9000010    2    1    2  501    0 -0.92182855011E+02 -0.19171344087E+02 -0.52032956603E+03  0.11272513072E+04  0.99553374279E+03 0.  0.
        -13    1    3    3    0    0  0.23421692052E+03 -0.30150412666E+02  0.21707591874E+03  0.32076249610E+03  0.10566000000E+00 0.  1.
          4    1    3    3  501    0 -0.32639977553E+03  0.10979068579E+02 -0.73740548477E+03  0.80648881107E+03  0.00000000000E+00 0.  1.
         13    1    1    2    0    0  0.92182855011E+02  0.19171344087E+02 -0.28775228345E+03  0.30276493685E+03  0.10566000000E+00 0. -1.
<mgrwt>
<rscale>  1 0.55392828E+03</rscale>
<asrwt>0</asrwt>
<pdfrwt beam="1">  1       21 0.47841106E-01 0.99997633E+03</pdfrwt>
<pdfrwt beam="2">  1        4 0.17216140E+00 0.99997633E+03</pdfrwt>
<totfact> 0.33770576E+01</totfact>
</mgrwt>
</event>
<event>
 6    1  0.1375310E-005  0.9995354E+03  0.7818608E-02  0.9787131E-01
         21   -1    0    0  501  502  0.00000000000E+00  0.00000000000E+00  0.52234188484E+03  0.52234188484E+03  0.00000000000E+00 0.  1.
          4   -1    0    0  502    0 -0.00000000000E+00 -0.00000000000E+00 -0.87820425359E+03  0.87820425359E+03  0.00000000000E+00 0.  1.
    9000010    2    1    2  501    0  0.25067975126E+02 -0.18902297666E+03 -0.30909800993E+01  0.99954021216E+03  0.98117938853E+03 0.  0.
        -13    1    3    3    0    0  0.20209089322E+03 -0.55066678625E+03 -0.72205056420E+02  0.59100610821E+03  0.10566000000E+00 0.  1.
          4    1    3    3  501    0 -0.17702291809E+03  0.36164380959E+03  0.69114076321E+02  0.40853410395E+03  0.00000000000E+00 0.  1.
         13    1    1    2    0    0 -0.25067975126E+02  0.18902297666E+03 -0.35277138865E+03  0.40100592626E+03  0.10566000000E+00 0. -1.
<mgrwt>
<rscale>  1 0.66057752E+03</rscale>
<asrwt>0</asrwt>
<pdfrwt beam="1">  1       21 0.80360291E-01 0.99953543E+03</pdfrwt>
<pdfrwt beam="2">  1        4 0.13510834E+00 0.99953543E+03</pdfrwt>
<totfact> 0.20323439E+01</totfact>
</mgrwt>
</event>
<event>
 6    1  0.1375310E-005  0.1146699E+04  0.7818608E-02  0.9438786E-01
          4   -1    0    0  502    0 -0.00000000000E+00  0.00000000000E+00  0.25871691039E+04  0.25871691039E+04  0.00000000000E+00 0.  1.
         21   -1    0    0  501  502  0.00000000000E+00 -0.00000000000E+00 -0.29593236888E+03  0.29593236888E+03  0.00000000000E+00 0.  1.
    9000010    2    1    2  501    0 -0.29096465350E+02  0.41418337926E+03  0.98236943179E+03  0.15099561401E+04  0.10688888477E+04 0.  0.
        -13    1    3    3    0    0  0.44816231120E+03  0.44814931250E+03  0.73767922584E+03  0.97255226845E+03  0.10566000000E+00 0.  1.
          4    1    3    3  501    0 -0.47725877655E+03 -0.33965933241E+02  0.24469020596E+03  0.53740387169E+03  0.00000000000E+00 0.  1.
         13    1    1    2    0    0  0.29096465350E+02 -0.41418337926E+03  0.13088673032E+04  0.13731453326E+04  0.10566000000E+00 0. -1.
<mgrwt>
<rscale>  1 0.88951321E+03</rscale>
<asrwt>0</asrwt>
<pdfrwt beam="2">  1       21 0.45528059E-01 0.11466987E+04</pdfrwt>
<pdfrwt beam="1">  1        4 0.39802600E+00 0.11466987E+04</pdfrwt>
<totfact> 0.12902443E+00</totfact>
</mgrwt>
</event>
<event>
 6    1  0.1375310E-005  0.1083042E+04  0.7818608E-02  0.9553906E-01
         21   -1    0    0  501  502  0.00000000000E+00  0.00000000000E+00  0.62027865114E+03  0.62027865114E+03  0.00000000000E+00 0.  1.
          4   -1    0    0  502    0 -0.00000000000E+00 -0.00000000000E+00 -0.89503152237E+03  0.89503152237E+03  0.00000000000E+00 0.  1.
    9000010    2    1    2  501    0  0.75596257115E+02 -0.32050919404E+03  0.52532181582E+01  0.10830552038E+04  0.10317654969E+04 0.  0.
        -13    1    3    3    0    0 -0.39389973018E+03 -0.10625827935E+03 -0.27863889791E+03  0.49405208831E+03  0.10566000000E+00 0.  1.
          4    1    3    3  501    0  0.46949598729E+03 -0.21425091468E+03  0.28389211607E+03  0.58900311552E+03  0.00000000000E+00 0.  1.
         13    1    1    2    0    0 -0.75596257115E+02  0.32050919404E+03 -0.28000608939E+03  0.43225496968E+03  0.10566000000E+00 0. -1.
<mgrwt>
<rscale>  1 0.80423557E+03</rscale>
<asrwt>0</asrwt>
<pdfrwt beam="1">  1       21 0.95427485E-01 0.10830425E+04</pdfrwt>
<pdfrwt beam="2">  1        4 0.13769716E+00 0.10830425E+04</pdfrwt>
<totfact> 0.12695850E+01</totfact>
</mgrwt>
</event>
<event>
 6    1  0.1375310E-005  0.1130091E+04  0.7818608E-02  0.9382620E-01
         21   -1    0    0  501  502  0.00000000000E+00  0.00000000000E+00  0.76715838298E+03  0.76715838298E+03  0.00000000000E+00 0. -1.
          4   -1    0    0  502    0 -0.00000000000E+00 -0.00000000000E+00 -0.89820045621E+03  0.89820045621E+03  0.00000000000E+00 0.  1.
    9000010    2    1    2  501    0  0.30373942885E+03  0.43432940964E+03 -0.97924827820E+02  0.11343254694E+04  0.99810085760E+03 0.  0.
        -13    1    3    3    0    0 -0.18420599563E+03 -0.21704530684E+02  0.30306551408E+03  0.35531908542E+03  0.10566000000E+00 0.  1.
          4    1    3    3  501    0  0.48794542448E+03  0.45603394032E+03 -0.40099034190E+03  0.77900638399E+03  0.00000000000E+00 0.  1.
         13    1    1    2    0    0 -0.30373942885E+03 -0.43432940964E+03 -0.33117245412E+02  0.53103336978E+03  0.10566000000E+00 0. -1.
<mgrwt>
<rscale>  1 0.93519879E+03</rscale>
<asrwt>0</asrwt>
<pdfrwt beam="1">  1       21 0.11802437E+00 0.11300907E+04</pdfrwt>
<pdfrwt beam="2">  1        4 0.13818469E+00 0.11300907E+04</pdfrwt>
<totfact> 0.73288641E+00</totfact>
</mgrwt>
</event>
<event>
 6    1  0.1375310E-005  0.1004604E+04  0.7818608E-02  0.9970901E-01
          4   -1    0    0  502    0 -0.00000000000E+00  0.00000000000E+00  0.59176843618E+03  0.59176843618E+03  0.00000000000E+00 0.  1.
         21   -1    0    0  501  502  0.00000000000E+00 -0.00000000000E+00 -0.10233471715E+04  0.10233471715E+04  0.00000000000E+00 0.  1.
    9000010    2    1    2  501    0  0.44824442052E+02  0.93525827389E+02 -0.76706180709E+03  0.12639671867E+04  0.99923616939E+03 0.  0.
        -13    1    3    3    0    0  0.35826994684E+03  0.30820548347E+03 -0.74646791957E+03  0.88349439215E+03  0.10566000000E+00 0.  1.
          4    1    3    3  501    0 -0.31344550479E+03 -0.21467965608E+03 -0.20593887517E+02  0.38047279457E+03  0.00000000000E+00 0.  1.
         13    1    1    2    0    0 -0.44824442052E+02 -0.93525827389E+02  0.33548307173E+03  0.35114842100E+03  0.10566000000E+00 0. -1.
<mgrwt>
<rscale>  1 0.56944811E+03</rscale>
<asrwt>0</asrwt>
<pdfrwt beam="2">  1       21 0.15743802E+00 0.10046040E+04</pdfrwt>
<pdfrwt beam="1">  1        4 0.91041299E-01 0.10046040E+04</pdfrwt>
<totfact> 0.95954362E+00</totfact>
</mgrwt>
</event>
<event>
 6    1  0.1375310E-005  0.1057546E+04  0.7818608E-02  0.9590462E-01
         21   -1    0    0  501  502  0.00000000000E+00  0.00000000000E+00  0.11291327722E+04  0.11291327722E+04  0.00000000000E+00 0.  1.
          4   -1    0    0  502    0 -0.00000000000E+00 -0.00000000000E+00 -0.51953208429E+03  0.51953208429E+03  0.00000000000E+00 0.  1.
    9000010    2    1    2  501    0 -0.57638742282E+02  0.30647088372E+03  0.76013816810E+03  0.13023872637E+04  0.10105225988E+04 0.  0.
        -13    1    3    3    0    0 -0.35796178268E+02  0.10168870373E+03  0.98879751078E+03  0.99465696968E+03  0.10566000000E+00 0.  1.
          4    1    3    3  501    0 -0.21842564014E+02  0.20478217998E+03 -0.22865934268E+03  0.30773029399E+03  0.00000000000E+00 0.  1.
         13    1    1    2    0    0  0.57638742282E+02 -0.30647088372E+03 -0.15053748019E+03  0.34627759281E+03  0.10566000000E+00 0. -1.
<mgrwt>
<rscale>  1 0.77930710E+03</rscale>
<asrwt>0</asrwt>
<pdfrwt beam="1">  1       21 0.17371273E+00 0.10575455E+04</pdfrwt>
<pdfrwt beam="2">  1        4 0.79928013E-01 0.10575455E+04</pdfrwt>
<totfact> 0.97051328E+00</totfact>
</mgrwt>
</event>
<event>
 6    1  0.1375310E-005  0.9822691E+03  0.7818608E-02  0.9813737E-01
          4   -1    0    0  502    0 -0.00000000000E+00  0.00000000000E+00  0.10025240036E+04  0.10025240036E+04  0.00000000000E+00 0.  1.
         21   -1    0    0  501  502  0.00000000000E+00 -0.00000000000E+00 -0.35924138066E+03  0.35924138066E+03  0.00000000000E+00 0.  1.
    9000010    2    1    2  501    0  0.17275964674E+03 -0.63621132150E+02  0.40953610715E+03  0.10642238093E+04  0.96486214005E+03 0.  0.
        -13    1    3    3    0    0  0.16977633635E+03 -0.49289783023E+03  0.89907764930E+02  0.52901388715E+03  0.10566000000E+00 0.  1.
          4    1    3    3  501    0  0.29833103914E+01  0.42927669808E+03  0.31962834222E+03  0.53520992219E+03  0.00000000000E+00 0.  1.
         13    1    1    2    0    0 -0.17275964674E+03  0.63621132150E+02  0.23374651577E+03  0.29754157490E+03  0.10566000000E+00 0. -1.
<mgrwt>
<rscale>  1 0.64630496E+03</rscale>
<asrwt>0</asrwt>
<pdfrwt beam="2">  1       21 0.55267905E-01 0.98226905E+03</pdfrwt>
<pdfrwt beam="1">  1        4 0.15423446E+00 0.98226905E+03</pdfrwt>
<totfact> 0.33535425E+01</totfact>
</mgrwt>
</event>
<event>
 6    1  0.1375310E-005  0.1061775E+04  0.7818608E-02  0.9747225E-01
         21   -1    0    0  501  502  0.00000000000E+00  0.00000000000E+00  0.16772474107E+04  0.16772474107E+04  0.00000000000E+00 0.  1.
          4   -1    0    0  502    0 -0.00000000000E+00 -0.00000000000E+00 -0.24253007846E+03  0.24253007846E+03  0.00000000000E+00 0.  1.
    9000010    2    1    2  501    0  0.16195896258E+03  0.81950603132E+02  0.10445085837E+04  0.14894177728E+04  0.10461455508E+04 0.  0.
        -13    1    3    3    0    0  0.28969323248E+03  0.48905755326E+03  0.33016719087E+03  0.65735062518E+03  0.10566000000E+00 0.  1.
          4    1    3    3  501    0 -0.12773426990E+03 -0.40710695013E+03  0.71434139287E+03  0.83206714760E+03  0.00000000000E+00 0.  1.
         13    1    1    2    0    0 -0.16195896258E+03 -0.81950603132E+02  0.39020874849E+03  0.43035971637E+03  0.10566000000E+00 0. -1.
<mgrwt>
<rscale>  1 0.68273304E+03</rscale>
<asrwt>0</asrwt>
<pdfrwt beam="1">  1       21 0.25803806E+00 0.10617755E+04</pdfrwt>
<pdfrwt beam="2">  1        4 0.37312321E-01 0.10617755E+04</pdfrwt>
<totfact> 0.13484906E+01</totfact>
</mgrwt>
</event>
<event>
 6    1  0.1375310E-005  0.1055538E+04  0.7818608E-02  0.9741517E-01
          4   -1    0    0  502    0 -0.00000000000E+00  0.00000000000E+00  0.13190613933E+04  0.13190613933E+04  0.00000000000E+00 0.  1.
         21   -1    0    0  501  502  0.00000000000E+00 -0.00000000000E+00 -0.37306973925E+03  0.37306973925E+03  0.00000000000E+00 0.  1.
    9000010    2    1    2  501    0 -0.17273792454E+03  0.74922683088E+02  0.42451753583E+03  0.11377061456E+04  0.10386088467E+04 0.  0.
        -13    1    3    3    0    0 -0.27328731117E+03  0.52451283856E+03  0.19317875911E+03  0.62218784655E+03  0.10566000000E+00 0.  1.
          4    1    3    3  501    0  0.10054938663E+03 -0.44959015547E+03  0.23133877673E+03  0.51551829906E+03  0.00000000000E+00 0.  1.
         13    1    1    2    0    0  0.17273792454E+03 -0.74922683088E+02  0.52147411824E+03  0.55442498697E+03  0.10566000000E+00 0. -1.
<mgrwt>
<rscale>  1 0.68597795E+03</rscale>
<asrwt>0</asrwt>
<pdfrwt beam="2">  1       21 0.57395345E-01 0.10555378E+04</pdfrwt>
<pdfrwt beam="1">  1        4 0.20293252E+00 0.10555378E+04</pdfrwt>
<totfact> 0.13907531E+01</totfact>
</mgrwt>
</event>
<event>
 6    1  0.1375310E-005  0.1050676E+04  0.7818608E-02  0.9594695E-01
          4   -1    0    0  502    0 -0.00000000000E+00  0.00000000000E+00  0.40366625981E+03  0.40366625981E+03  0.00000000000E+00 0.  1.
         21   -1    0    0  501  502  0.00000000000E+00 -0.00000000000E+00 -0.11649594304E+04  0.11649594304E+04  0.00000000000E+00 0.  1.
    9000010    2    1    2  501    0  0.13966061909E+03 -0.28057866512E+03 -0.51550227451E+03  0.11703259895E+04  0.10028413887E+04 0.  0.
        -13    1    3    3    0    0  0.22782287887E+03  0.31279340167E+03 -0.12017400032E+02  0.38715294824E+03  0.10566000000E+00 0.  1.
          4    1    3    3  501    0 -0.88162259785E+02 -0.59337206679E+03 -0.50348487448E+03  0.78317304124E+03  0.00000000000E+00 0.  1.
         13    1    1    2    0    0 -0.13966061909E+03  0.28057866512E+03 -0.24579089612E+03  0.39829970075E+03  0.10566000000E+00 0. -1.
<mgrwt>
<rscale>  1 0.77648297E+03</rscale>
<asrwt>0</asrwt>
<pdfrwt beam="2">  1       21 0.17922453E+00 0.10506761E+04</pdfrwt>
<pdfrwt beam="1">  1        4 0.62102502E-01 0.10506761E+04</pdfrwt>
<totfact> 0.15588798E+01</totfact>
</mgrwt>
</event>
<event>
 6    1  0.1375310E-005  0.1067627E+04  0.7818608E-02  0.9516647E-01
         21   -1    0    0  501  502  0.00000000000E+00  0.00000000000E+00  0.73112938171E+03  0.73112938171E+03  0.00000000000E+00 0.  1.
          4   -1    0    0  502    0 -0.00000000000E+00 -0.00000000000E+00 -0.80449368266E+03  0.80449368266E+03  0.00000000000E+00 0.  1.
    9000010    2    1    2  501    0  0.20873153699E+03  0.33093240719E+03 -0.26489397933E+03  0.10999985224E+04  0.99334929226E+03 0.  0.
        -13    1    3    3    0    0 -0.37940368770E+03  0.93377793862E+02 -0.25319761180E+03  0.46559167992E+03  0.10566000000E+00 0.  1.
          4    1    3    3  501    0  0.58813522469E+03  0.23755461332E+03 -0.11696367534E+02  0.63440684252E+03  0.00000000000E+00 0.  1.
         13    1    1    2    0    0 -0.20873153699E+03 -0.33093240719E+03  0.19152967838E+03  0.43562454192E+03  0.10566000000E+00 0. -1.
<mgrwt>
<rscale>  1 0.83067552E+03</rscale>
<asrwt>0</asrwt>
<pdfrwt beam="1">  1       21 0.11248144E+00 0.10676272E+04</pdfrwt>
<pdfrwt beam="2">  1        4 0.12376826E+00 0.10676272E+04</pdfrwt>
<totfact> 0.11086012E+01</totfact>
</mgrwt>
</event>
<event>
 6    1  0.1375310E-005  0.9610234E+03  0.7818608E-02  0.9893542E-01
         21   -1    0    0  501  502  0.00000000000E+00  0.00000000000E+00  0.20005537035E+04  0.20005537035E+04  0.00000000000E+00 0.  1.
          4   -1    0    0  502    0 -0.00000000000E+00 -0.00000000000E+00 -0.28226009263E+03  0.28226009263E+03  0.00000000000E+00 0.  1.
    9000010    2    1    2  501    0 -0.15110174183E+03  0.13437790187E+02  0.18481799299E+04  0.20831070671E+04  0.94897507308E+03 0.  0.
        -13    1    3    3    0    0 -0.18939350060E+02  0.10277105554E+02 -0.11423232231E+03  0.11624694621E+03  0.10566000000E+00 0.  1.
          4    1    3    3  501    0 -0.13216239177E+03  0.31606846328E+01  0.19624122522E+04  0.19668601209E+04  0.00000000000E+00 0.  1.
         13    1    1    2    0    0  0.15110174183E+03 -0.13437790187E+02 -0.12988631899E+03  0.19970672902E+03  0.10566000000E+00 0. -1.
<mgrwt>
<rscale>  1 0.60575294E+03</rscale>
<asrwt>0</asrwt>
<pdfrwt beam="1">  1       21 0.30777748E+00 0.96102341E+03</pdfrwt>
<pdfrwt beam="2">  1        4 0.43424631E-01 0.96102341E+03</pdfrwt>
<totfact> 0.49207721E+00</totfact>
</mgrwt>
</event>
<event>
 6    1  0.1375310E-005  0.1031421E+04  0.7818608E-02  0.9617906E-01
         21   -1    0    0  501  502  0.00000000000E+00  0.00000000000E+00  0.73828656972E+03  0.73828656972E+03  0.00000000000E+00 0.  1.
          4   -1    0    0  502    0 -0.00000000000E+00 -0.00000000000E+00 -0.72592865156E+03  0.72592865156E+03  0.00000000000E+00 0.  1.
    9000010    2    1    2  501    0  0.25018982959E+03  0.17620561407E+03  0.26777709336E+03  0.10656147503E+04  0.98498063688E+03 0.  0.
        -13    1    3    3    0    0 -0.34167192734E+03 -0.12825840423E+03  0.11604263461E+03  0.38295669259E+03  0.10566000000E+00 0.  1.
          4    1    3    3  501    0  0.59186175693E+03  0.30446401830E+03  0.15173445875E+03  0.68265805769E+03  0.00000000000E+00 0.  1.
         13    1    1    2    0    0 -0.25018982959E+03 -0.17620561407E+03 -0.25541917520E+03  0.39860047100E+03  0.10566000000E+00 0. -1.
<mgrwt>
<rscale>  1 0.76122275E+03</rscale>
<asrwt>0</asrwt>
<pdfrwt beam="1">  1       21 0.11358255E+00 0.10314215E+04</pdfrwt>
<pdfrwt beam="2">  1        4 0.11168133E+00 0.10314215E+04</pdfrwt>
<totfact> 0.14039188E+01</totfact>
</mgrwt>
</event>
<event>
 6    1  0.1375310E-005  0.1074427E+04  0.7818608E-02  0.9477628E-01
          4   -1    0    0  502    0 -0.00000000000E+00  0.00000000000E+00  0.50187834929E+03  0.50187834929E+03  0.00000000000E+00 0.  1.
         21   -1    0    0  501  502  0.00000000000E+00 -0.00000000000E+00 -0.12967525790E+04  0.12967525790E+04  0.00000000000E+00 0.  1.
    9000010    2    1    2  501    0  0.34371337716E+03  0.27481645977E+03 -0.82924627530E+03  0.13572190788E+04  0.98016900098E+03 0.  0.
        -13    1    3    3    0    0  0.39094122912E+03 -0.29867501462E+03 -0.30543075772E+03  0.57907665116E+03  0.10566000000E+00 0.  1.
          4    1    3    3  501    0 -0.47227851968E+02  0.57349147439E+03 -0.52381551758E+03  0.77814242762E+03  0.00000000000E+00 0.  1.
         13    1    1    2    0    0 -0.34371337716E+03 -0.27481645977E+03  0.34372045604E+02  0.44141184950E+03  0.10566000000E+00 0. -1.
<mgrwt>
<rscale>  1 0.85953514E+03</rscale>
<asrwt>0</asrwt>
<pdfrwt beam="2">  1       21 0.19950039E+00 0.10744274E+04</pdfrwt>
<pdfrwt beam="1">  1        4 0.77212055E-01 0.10744274E+04</pdfrwt>
<totfact> 0.68600726E+00</totfact>
</mgrwt>
</event>
<event>
 6    1  0.1375310E-005  0.1188071E+04  0.7818608E-02  0.9280282E-01
         21   -1    0    0  501  502  0.00000000000E+00  0.00000000000E+00  0.84341726379E+03  0.84341726379E+03  0.00000000000E+00 0. -1.
          4   -1    0    0  502    0 -0.00000000000E+00 -0.00000000000E+00 -0.16103506187E+04  0.16103506187E+04  0.00000000000E+00 0.  1.
    9000010    2    1    2  501    0 -0.48973532743E+03  0.44433405423E+03  0.27521244179E+03  0.12195307434E+04  0.98703591798E+03 0.  0.
        -13    1    3    3    0    0 -0.45334080646E+03  0.73221299663E+03  0.69809267124E+02  0.86401799992E+03  0.10566000000E+00 0.  1.
          4    1    3    3  501    0 -0.36394520969E+02 -0.28787894241E+03  0.20540317467E+03  0.35551274351E+03  0.00000000000E+00 0.  1.
         13    1    1    2    0    0  0.48973532743E+03 -0.44433405423E+03 -0.10421457967E+04  0.12342371390E+04  0.10566000000E+00 0. -1.
<mgrwt>
<rscale>  1 0.10261858E+04</rscale>
<asrwt>0</asrwt>
<pdfrwt beam="1">  1       21 0.12975650E+00 0.11880713E+04</pdfrwt>
<pdfrwt beam="2">  1        4 0.24774624E+00 0.11880713E+04</pdfrwt>
<totfact> 0.99111596E-01</totfact>
</mgrwt>
</event>
<event>
 6    1  0.1375310E-005  0.9954960E+03  0.7818608E-02  0.1013451E+00
          4   -1    0    0  502    0 -0.00000000000E+00  0.00000000000E+00  0.63330480142E+03  0.63330480142E+03  0.00000000000E+00 0.  1.
         21   -1    0    0  501  502  0.00000000000E+00 -0.00000000000E+00 -0.47713056034E+03  0.47713056034E+03  0.00000000000E+00 0.  1.
    9000010    2    1    2  501    0 -0.60093722988E+02  0.21994195002E+02  0.63111812193E+02  0.99749454987E+03  0.99343710220E+03 0.  0.
        -13    1    3    3    0    0 -0.10856925238E+03 -0.46822838434E+03 -0.73622534561E+02  0.48625650764E+03  0.10566000000E+00 0.  1.
          4    1    3    3  501    0  0.48475529394E+02  0.49022257934E+03  0.13673434675E+03  0.51123804223E+03  0.00000000000E+00 0.  1.
         13    1    1    2    0    0  0.60093722988E+02 -0.21994195002E+02  0.93062428891E+02  0.11294081190E+03  0.10566000000E+00 0. -1.
<mgrwt>
<rscale>  1 0.50125824E+03</rscale>
<asrwt>0</asrwt>
<pdfrwt beam="2">  1       21 0.73404702E-01 0.99549600E+03</pdfrwt>
<pdfrwt beam="1">  1        4 0.97431508E-01 0.99549600E+03</pdfrwt>
<totfact> 0.56688259E+01</totfact>
</mgrwt>
</event>
<event>
 6    1  0.1375310E-005  0.1005584E+04  0.7818608E-02  0.9915210E-01
          4   -1    0    0  502    0 -0.00000000000E+00  0.00000000000E+00  0.12215045116E+04  0.12215045116E+04  0.00000000000E+00 0.  1.
         21   -1    0    0  501  502  0.00000000000E+00 -0.00000000000E+00 -0.26091681868E+03  0.26091681868E+03  0.00000000000E+00 0.  1.
    9000010    2    1    2  501    0  0.87336821918E+02 -0.87323994658E+02  0.85472467848E+03  0.13197554473E+04  0.99797142447E+03 0.  0.
        -13    1    3    3    0    0  0.40907081033E+03 -0.37646479308E+03  0.35870997275E+03  0.66161735467E+03  0.10566000000E+00 0.  1.
          4    1    3    3  501    0 -0.32173398841E+03  0.28914079842E+03  0.49601470574E+03  0.65813809259E+03  0.00000000000E+00 0.  1.
         13    1    1    2    0    0 -0.87336821918E+02  0.87323994658E+02  0.10586301440E+03  0.16266588298E+03  0.10566000000E+00 0. -1.
<mgrwt>
<rscale>  1 0.59529754E+03</rscale>
<asrwt>0</asrwt>
<pdfrwt beam="2">  1       21 0.40141050E-01 0.10055845E+04</pdfrwt>
<pdfrwt beam="1">  1        4 0.18792377E+00 0.10055845E+04</pdfrwt>
<totfact> 0.38018310E+01</totfact>
</mgrwt>
</event>
<event>
 6    1  0.1375310E-005  0.1008449E+04  0.7818608E-02  0.9805966E-01
          4   -1    0    0  502    0 -0.00000000000E+00  0.00000000000E+00  0.12609995355E+04  0.12609995355E+04  0.00000000000E+00 0.  1.
         21   -1    0    0  501  502  0.00000000000E+00 -0.00000000000E+00 -0.42840391468E+03  0.42840391468E+03  0.00000000000E+00 0.  1.
    9000010    2    1    2  501    0  0.11457979853E+03  0.13164056369E+03  0.19342044146E+03  0.10268306698E+04  0.99323309904E+03 0.  0.
        -13    1    3    3    0    0 -0.36305569454E+03 -0.20956894111E+03  0.46801143044E+02  0.42180438188E+03  0.10566000000E+00 0.  1.
          4    1    3    3  501    0  0.47763549307E+03  0.34120950480E+03  0.14661929841E+03  0.60502628792E+03  0.00000000000E+00 0.  1.
         13    1    1    2    0    0 -0.11457979853E+03 -0.13164056369E+03  0.63917517937E+03  0.66257278040E+03  0.10566000000E+00 0. -1.
<mgrwt>
<rscale>  1 0.65043334E+03</rscale>
<asrwt>0</asrwt>
<pdfrwt beam="2">  1       21 0.65908295E-01 0.10084492E+04</pdfrwt>
<pdfrwt beam="1">  1        4 0.19399993E+00 0.10084492E+04</pdfrwt>
<totfact> 0.11757261E+01</totfact>
</mgrwt>
</event>
<event>
 6    1  0.1375310E-005  0.1029598E+04  0.7818608E-02  0.9792297E-01
         21   -1    0    0  501  502  0.00000000000E+00  0.00000000000E+00  0.35946665856E+03  0.35946665856E+03  0.00000000000E+00 0.  1.
          4   -1    0    0  502    0 -0.00000000000E+00 -0.00000000000E+00 -0.13721052887E+04  0.13721052887E+04  0.00000000000E+00 0.  1.
    9000010    2    1    2  501    0 -0.11932016815E+03  0.12321063344E+03 -0.41547798495E+03  0.11102676659E+04  0.10152113924E+04 0.  0.
        -13    1    3    3    0    0  0.41004754220E+03  0.18682549926E+03 -0.35505529799E+03  0.57367850738E+03  0.10566000000E+00 0.  1.
          4    1    3    3  501    0 -0.52936771036E+03 -0.63614865817E+02 -0.60422686962E+02  0.53658915850E+03  0.00000000000E+00 0.  1.
         13    1    1    2    0    0  0.11932016815E+03 -0.12321063344E+03 -0.59716064521E+03  0.62130428139E+03  0.10566000000E+00 0. -1.
<mgrwt>
<rscale>  1 0.65777563E+03</rscale>
<asrwt>0</asrwt>
<pdfrwt beam="1">  1       21 0.55302562E-01 0.10295981E+04</pdfrwt>
<pdfrwt beam="2">  1        4 0.21109312E+00 0.10295981E+04</pdfrwt>
<totfact> 0.13389151E+01</totfact>
</mgrwt>
</event>
<event>
 6    1  0.1375310E-005  0.1055377E+04  0.7818608E-02  0.9580262E-01
          4   -1    0    0  502    0 -0.00000000000E+00  0.00000000000E+00  0.24118816773E+03  0.24118816773E+03  0.00000000000E+00 0.  1.
         21   -1    0    0  501  502  0.00000000000E+00 -0.00000000000E+00 -0.21036549836E+04  0.21036549836E+04  0.00000000000E+00 0.  1.
    9000010    2    1    2  501    0 -0.29481505060E+03 -0.13668858304E+03 -0.16428383143E+04  0.19526233499E+04  0.10041018558E+04 0.  0.
        -13    1    3    3    0    0 -0.42954687727E+03  0.92047406042E+02 -0.19497269740E+03  0.48062210585E+03  0.10566000000E+00 0.  1.
          4    1    3    3  501    0  0.13473182667E+03 -0.22873598908E+03 -0.14478656169E+04  0.14720012441E+04  0.00000000000E+00 0.  1.
         13    1    1    2    0    0  0.29481505060E+03  0.13668858304E+03 -0.21962850158E+03  0.39221980147E+03  0.10566000000E+00 0. -1.
<mgrwt>
<rscale>  1 0.78616462E+03</rscale>
<asrwt>0</asrwt>
<pdfrwt beam="2">  1       21 0.32363923E+00 0.10553768E+04</pdfrwt>
<pdfrwt beam="1">  1        4 0.37105872E-01 0.10553768E+04</pdfrwt>
<totfact> 0.53089366E+00</totfact>
</mgrwt>
</event>
<event>
 6    1  0.1375310E-005  0.1061766E+04  0.7818608E-02  0.9874555E-01
          4   -1    0    0  502    0 -0.00000000000E+00  0.00000000000E+00  0.23930190631E+04  0.23930190631E+04  0.00000000000E+00 0.  1.
         21   -1    0    0  501  502  0.00000000000E+00 -0.00000000000E+00 -0.15376729713E+03  0.15376729713E+03  0.00000000000E+00 0.  1.
    9000010    2    1    2  501    0  0.11240177608E+03 -0.40848217905E+02  0.17836904947E+04  0.20757886753E+04  0.10550090556E+04 0.  0.
        -13    1    3    3    0    0 -0.52128726556E+02 -0.39920304886E+03  0.21123077911E+03  0.45464154184E+03  0.10566000000E+00 0.  1.
          4    1    3    3  501    0  0.16453050264E+03  0.35835483096E+03  0.15724597155E+04  0.16211471334E+04  0.00000000000E+00 0.  1.
         13    1    1    2    0    0 -0.11240177608E+03  0.40848217905E+02  0.45556127135E+03  0.47099768501E+03  0.10566000000E+00 0. -1.
<mgrwt>
<rscale>  1 0.61510466E+03</rscale>
<asrwt>0</asrwt>
<pdfrwt beam="2">  1       21 0.23656509E-01 0.10617659E+04</pdfrwt>
<pdfrwt beam="1">  1        4 0.36815675E+00 0.10617659E+04</pdfrwt>
<totfact> 0.79442148E+00</totfact>
</mgrwt>
</event>
<event>
 6    1  0.1375310E-005  0.1048304E+04  0.7818608E-02  0.9648128E-01
          4   -1    0    0  502    0 -0.00000000000E+00  0.00000000000E+00  0.50013978993E+03  0.50013978993E+03  0.00000000000E+00 0.  1.
         21   -1    0    0  501  502  0.00000000000E+00 -0.00000000000E+00 -0.10525302399E+04  0.10525302399E+04  0.00000000000E+00 0.  1.
    9000010    2    1    2  501    0 -0.21639843755E+03  0.14945613587E+03 -0.69083204598E+03  0.12554638607E+04  0.10147783844E+04 0.  0.
        -13    1    3    3    0    0 -0.39074372495E+03 -0.11911180410E+03  0.84032303448E+02  0.41704882166E+03  0.10566000000E+00 0.  1.
          4    1    3    3  501    0  0.17434528740E+03  0.26856793997E+03 -0.77486434942E+03  0.83841503900E+03  0.00000000000E+00 0.  1.
         13    1    1    2    0    0  0.21639843755E+03 -0.14945613587E+03  0.13844159600E+03  0.29720616916E+03  0.10566000000E+00 0. -1.
<mgrwt>
<rscale>  1 0.74191041E+03</rscale>
<asrwt>0</asrwt>
<pdfrwt beam="2">  1       21 0.16192773E+00 0.10483037E+04</pdfrwt>
<pdfrwt beam="1">  1        4 0.76944584E-01 0.10483037E+04</pdfrwt>
<totfact> 0.13010744E+01</totfact>
</mgrwt>
</event>
<event>
 6    1  0.1375310E-005  0.1068975E+04  0.7818608E-02  0.9494837E-01
         21   -1    0    0  501  502  0.00000000000E+00  0.00000000000E+00  0.27074302880E+03  0.27074302880E+03  0.00000000000E+00 0.  1.
          4   -1    0    0  502    0 -0.00000000000E+00 -0.00000000000E+00 -0.22235245841E+04  0.22235245841E+04  0.00000000000E+00 0.  1.
    9000010    2    1    2  501    0 -0.11950558640E+03 -0.40332016630E+03 -0.10505238186E+04  0.14987688553E+04  0.98273040378E+03 0.  0.
        -13    1    3    3    0    0 -0.20260911135E+03  0.49028795995E+02 -0.10164319989E+04  0.10375877285E+04  0.10566000000E+00 0.  1.
          4    1    3    3  501    0  0.83103524957E+02 -0.45234896230E+03 -0.34091819703E+02  0.46118112681E+03  0.00000000000E+00 0.  1.
         13    1    1    2    0    0  0.11950558640E+03  0.40332016630E+03 -0.90225773676E+03  0.99549875763E+03  0.10566000000E+00 0. -1.
<mgrwt>
<rscale>  1 0.84665530E+03</rscale>
<asrwt>0</asrwt>
<pdfrwt beam="1">  1       21 0.41652774E-01 0.10689751E+04</pdfrwt>
<pdfrwt beam="2">  1        4 0.34208070E+00 0.10689751E+04</pdfrwt>
<totfact> 0.37170803E+00</totfact>
</mgrwt>
</event>
<event>
 6    1  0.1375310E-005  0.1033926E+04  0.7818608E-02  0.9681838E-01
          4   -1    0    0  502    0 -0.00000000000E+00  0.00000000000E+00  0.42485519092E+03  0.42485519092E+03  0.00000000000E+00 0.  1.
         21   -1    0    0  501  502  0.00000000000E+00 -0.00000000000E+00 -0.96879227443E+03  0.96879227443E+03  0.00000000000E+00 0.  1.
    9000010    2    1    2  501    0 -0.14126173091E+03 -0.19970015514E+03 -0.48504117845E+03  0.11420450660E+04  0.10045730234E+04 0.  0.
        -13    1    3    3    0    0 -0.46955055147E+03 -0.12630600051E+03 -0.61274098140E+03  0.78222915287E+03  0.10566000000E+00 0.  1.
          4    1    3    3  501    0  0.32828882056E+03 -0.73394154628E+02  0.12769980295E+03  0.35981591309E+03  0.00000000000E+00 0.  1.
         13    1    1    2    0    0  0.14126173091E+03  0.19970015514E+03 -0.58895905054E+02  0.25160239939E+03  0.10566000000E+00 0. -1.
<mgrwt>
<rscale>  1 0.72108488E+03</rscale>
<asrwt>0</asrwt>
<pdfrwt beam="2">  1       21 0.14904496E+00 0.10339255E+04</pdfrwt>
<pdfrwt beam="1">  1        4 0.65362338E-01 0.10339255E+04</pdfrwt>
<totfact> 0.23769422E+01</totfact>
</mgrwt>
</event>
<event>
 6    1  0.1375310E-005  0.1005640E+04  0.7818608E-02  0.9913670E-01
         21   -1    0    0  501  502  0.00000000000E+00  0.00000000000E+00  0.43452351885E+03  0.43452351885E+03  0.00000000000E+00 0.  1.
          4   -1    0    0  502    0 -0.00000000000E+00 -0.00000000000E+00 -0.73567236059E+03  0.73567236059E+03  0.00000000000E+00 0.  1.
    9000010    2    1    2  501    0 -0.47197853591E+02 -0.11476919886E+03 -0.25208777488E+03  0.10367544847E+04  0.99795391119E+03 0.  0.
        -13    1    3    3    0    0 -0.35217359110E+03  0.24486797481E+03 -0.35184284833E+03  0.55477920332E+03  0.10566000000E+00 0.  1.
          4    1    3    3  501    0  0.30497573751E+03 -0.35963717367E+03  0.99755073449E+02  0.48197528135E+03  0.00000000000E+00 0.  1.
         13    1    1    2    0    0  0.47197853591E+02  0.11476919886E+03 -0.49061066860E+02  0.13344139476E+03  0.10566000000E+00 0. -1.
<mgrwt>
<rscale>  1 0.59603342E+03</rscale>
<asrwt>0</asrwt>
<pdfrwt beam="1">  1       21 0.66849772E-01 0.10056399E+04</pdfrwt>
<pdfrwt beam="2">  1        4 0.11318036E+00 0.10056399E+04</pdfrwt>
<totfact> 0.48704356E+01</totfact>
</mgrwt>
</event>
<event>
 6    1  0.1375310E-005  0.1024378E+04  0.7818608E-02  0.9869643E-01
         21   -1    0    0  501  502  0.00000000000E+00  0.00000000000E+00  0.57130190818E+03  0.57130190818E+03  0.00000000000E+00 0. -1.
          4   -1    0    0  502    0 -0.00000000000E+00 -0.00000000000E+00 -0.61023806169E+03  0.61023806169E+03  0.00000000000E+00 0.  1.
    9000010    2    1    2  501    0  0.13529087591E+03  0.20228381977E+01  0.39506464360E+02  0.10251399429E+04  0.10154030869E+04 0.  0.
        -13    1    3    3    0    0 -0.27951650388E+03  0.13838834098E+03  0.36530449810E+03  0.48034174955E+03  0.10566000000E+00 0.  1.
          4    1    3    3  501    0  0.41480737979E+03 -0.13636550279E+03 -0.32579803374E+03  0.54479819334E+03  0.00000000000E+00 0.  1.
         13    1    1    2    0    0 -0.13529087591E+03 -0.20228381977E+01 -0.78442617874E+02  0.15640002698E+03  0.10566000000E+00 0. -1.
<mgrwt>
<rscale>  1 0.61755353E+03</rscale>
<asrwt>0</asrwt>
<pdfrwt beam="1">  1       21 0.87892601E-01 0.10243784E+04</pdfrwt>
<pdfrwt beam="2">  1        4 0.93882778E-01 0.10243784E+04</pdfrwt>
<totfact> 0.40419577E+01</totfact>
</mgrwt>
</event>
<event>
 6    1  0.1375310E-005  0.1009223E+04  0.7818608E-02  0.9877518E-01
          4   -1    0    0  502    0 -0.00000000000E+00  0.00000000000E+00  0.13559536535E+04  0.13559536535E+04  0.00000000000E+00 0.  1.
         21   -1    0    0  501  502  0.00000000000E+00 -0.00000000000E+00 -0.24262830157E+03  0.24262830157E+03  0.00000000000E+00 0.  1.
    9000010    2    1    2  501    0  0.13169417735E+03 -0.41021330434E+02  0.97944805031E+03  0.14063600808E+04  0.99975201308E+03 0.  0.
        -13    1    3    3    0    0 -0.11146450406E+03  0.23564067255E+03 -0.89596344798E+02  0.27564175735E+03  0.10566000000E+00 0.  1.
          4    1    3    3  501    0  0.24315868141E+03 -0.27666200299E+03  0.10690443951E+04  0.11307183234E+04  0.00000000000E+00 0.  1.
         13    1    1    2    0    0 -0.13169417735E+03  0.41021330434E+02  0.13387730161E+03  0.19222187427E+03  0.10566000000E+00 0. -1.
<mgrwt>
<rscale>  1 0.61363339E+03</rscale>
<asrwt>0</asrwt>
<pdfrwt beam="2">  1       21 0.37327432E-01 0.10092226E+04</pdfrwt>
<pdfrwt beam="1">  1        4 0.20860825E+00 0.10092226E+04</pdfrwt>
<totfact> 0.32213095E+01</totfact>
</mgrwt>
</event>
<event>
 6    1  0.1375310E-005  0.9990054E+03  0.7818608E-02  0.9695386E-01
         21   -1    0    0  501  502  0.00000000000E+00  0.00000000000E+00  0.54281334890E+03  0.54281334890E+03  0.00000000000E+00 0.  1.
          4   -1    0    0  502    0 -0.00000000000E+00 -0.00000000000E+00 -0.74898690560E+03  0.74898690560E+03  0.00000000000E+00 0.  1.
    9000010    2    1    2  501    0  0.18245021205E+03  0.18396616306E+03 -0.76138916867E+02  0.10019026040E+04  0.96482126027E+03 0.  0.
        -13    1    3    3    0    0  0.11114296485E+03  0.22025904240E+02 -0.51573324495E+03  0.52803284955E+03  0.10566000000E+00 0.  1.
          4    1    3    3  501    0  0.71307247197E+02  0.16194025882E+03  0.43959432808E+03  0.47386975448E+03  0.00000000000E+00 0.  1.
         13    1    1    2    0    0 -0.18245021205E+03 -0.18396616306E+03 -0.13003463983E+03  0.28989765047E+03  0.10566000000E+00 0. -1.
<mgrwt>
<rscale>  1 0.71292159E+03</rscale>
<asrwt>0</asrwt>
<pdfrwt beam="1">  1       21 0.83509746E-01 0.99900535E+03</pdfrwt>
<pdfrwt beam="2">  1        4 0.11522875E+00 0.99900535E+03</pdfrwt>
<totfact> 0.27810046E+01</totfact>
</mgrwt>
</event>
<event>
 6    1  0.1375310E-005  0.1053808E+04  0.7818608E-02  0.9587993E-01
          4   -1    0    0  502    0 -0.00000000000E+00  0.00000000000E+00  0.67552074049E+03  0.67552074049E+03  0.00000000000E+00 0.  1.
         21   -1    0    0  501  502  0.00000000000E+00 -0.00000000000E+00 -0.71207716301E+03  0.71207716301E+03  0.00000000000E+00 0.  1.
    9000010    2    1    2  501    0  0.24727396237E+03  0.19972043553E+03 -0.11540315479E+03  0.10601082347E+04  0.10047282798E+04 0.  0.
        -13    1    3    3    0    0  0.48423351808E+03 -0.20373050108E+03 -0.23751769951E+03  0.57654391493E+03  0.10566000000E+00 0.  1.
          4    1    3    3  501    0 -0.23695955571E+03  0.40345093661E+03  0.12211454472E+03  0.48356431974E+03  0.00000000000E+00 0.  1.
         13    1    1    2    0    0 -0.24727396237E+03 -0.19972043553E+03  0.78846732275E+02  0.32748966883E+03  0.10566000000E+00 0. -1.
<mgrwt>
<rscale>  1 0.78096018E+03</rscale>
<asrwt>0</asrwt>
<pdfrwt beam="2">  1       21 0.10955033E+00 0.10538081E+04</pdfrwt>
<pdfrwt beam="1">  1        4 0.10392627E+00 0.10538081E+04</pdfrwt>
<totfact> 0.18322300E+01</totfact>
</mgrwt>
</event>
<event>
 6    1  0.1375310E-005  0.1058443E+04  0.7818608E-02  0.9530100E-01
          4   -1    0    0  502    0 -0.00000000000E+00  0.00000000000E+00  0.93665725063E+03  0.93665725063E+03  0.00000000000E+00 0.  1.
         21   -1    0    0  501  502  0.00000000000E+00 -0.00000000000E+00 -0.58393203148E+03  0.58393203148E+03  0.00000000000E+00 0. -1.
    9000010    2    1    2  501    0  0.33199468221E+03  0.19129064669E+03  0.10346932015E+03  0.10634885329E+04  0.98665565370E+03 0.  0.
        -13    1    3    3    0    0 -0.15892102982E+03  0.30632676888E+03  0.35921483440E+03  0.49812377123E+03  0.10566000000E+00 0.  1.
          4    1    3    3  501    0  0.49091571204E+03 -0.11503612219E+03 -0.25574551425E+03  0.56536476172E+03  0.00000000000E+00 0.  1.
         13    1    1    2    0    0 -0.33199468221E+03 -0.19129064669E+03  0.24925589900E+03  0.45710074916E+03  0.10566000000E+00 0. -1.
<mgrwt>
<rscale>  1 0.82100551E+03</rscale>
<asrwt>0</asrwt>
<pdfrwt beam="2">  1       21 0.89835697E-01 0.10584432E+04</pdfrwt>
<pdfrwt beam="1">  1        4 0.14410112E+00 0.10584432E+04</pdfrwt>
<totfact> 0.13074036E+01</totfact>
</mgrwt>
</event>
<event>
 6    1  0.1375310E-005  0.1014647E+04  0.7818608E-02  0.1005484E+00
         21   -1    0    0  501  502  0.00000000000E+00  0.00000000000E+00  0.27569939057E+03  0.27569939057E+03  0.00000000000E+00 0.  1.
          4   -1    0    0  502    0 -0.00000000000E+00 -0.00000000000E+00 -0.11012753163E+04  0.11012753163E+04  0.00000000000E+00 0.  1.
    9000010    2    1    2  501    0  0.73964328273E+02 -0.22521812809E+02 -0.71183298018E+03  0.12394413555E+04  0.10116969547E+04 0.  0.
        -13    1    3    3    0    0 -0.46953413653E+03  0.64303123299E+01 -0.35427233357E+03  0.58822831603E+03  0.10566000000E+00 0.  1.
          4    1    3    3  501    0  0.54349846480E+03 -0.28952125139E+02 -0.35756064661E+03  0.65121303949E+03  0.00000000000E+00 0.  1.
         13    1    1    2    0    0 -0.73964328273E+02  0.22521812809E+02 -0.11374294555E+03  0.13753335135E+03  0.10566000000E+00 0. -1.
<mgrwt>
<rscale>  1 0.53309600E+03</rscale>
<asrwt>0</asrwt>
<pdfrwt beam="1">  1       21 0.42415290E-01 0.10146471E+04</pdfrwt>
<pdfrwt beam="2">  1        4 0.16942697E+00 0.10146471E+04</pdfrwt>
<totfact> 0.45598162E+01</totfact>
</mgrwt>
</event>
<event>
 6    1  0.1375310E-005  0.1067703E+04  0.7818608E-02  0.9500907E-01
         21   -1    0    0  501  502  0.00000000000E+00  0.00000000000E+00  0.11062439488E+04  0.11062439488E+04  0.00000000000E+00 0.  1.
          4   -1    0    0  502    0 -0.00000000000E+00 -0.00000000000E+00 -0.51221098284E+03  0.51221098284E+03  0.00000000000E+00 0.  1.
    9000010    2    1    2  501    0  0.16204685800E+03  0.38018813429E+03  0.55499648379E+03  0.12033331907E+04  0.98447319379E+03 0.  0.
        -13    1    3    3    0    0 -0.61130770070E+02  0.28532975307E+03  0.80426607751E+03  0.85556646359E+03  0.10566000000E+00 0.  1.
          4    1    3    3  501    0  0.22317762807E+03  0.94858381223E+02 -0.24926959372E+03  0.34776672715E+03  0.00000000000E+00 0.  1.
         13    1    1    2    0    0 -0.16204685800E+03 -0.38018813429E+03  0.39036482143E+02  0.41512174087E+03  0.10566000000E+00 0. -1.
<mgrwt>
<rscale>  1 0.84216954E+03</rscale>
<asrwt>0</asrwt>
<pdfrwt beam="1">  1       21 0.17019138E+00 0.10677030E+04</pdfrwt>
<pdfrwt beam="2">  1        4 0.78801690E-01 0.10677030E+04</pdfrwt>
<totfact> 0.10637492E+01</totfact>
</mgrwt>
</event>
<event>
 6    1  0.1375310E-005  0.1029277E+04  0.7818608E-02  0.9822778E-01
          4   -1    0    0  502    0 -0.00000000000E+00  0.00000000000E+00  0.68518789592E+03  0.68518789592E+03  0.00000000000E+00 0.  1.
         21   -1    0    0  501  502  0.00000000000E+00 -0.00000000000E+00 -0.57941027944E+03  0.57941027944E+03  0.00000000000E+00 0.  1.
    9000010    2    1    2  501    0 -0.79324069464E+02 -0.13356978394E+03 -0.67981626148E+02  0.10315199036E+04  0.10174864200E+04 0.  0.
        -13    1    3    3    0    0 -0.34531560608E+03 -0.77195941777E+00 -0.43743083613E+03  0.55730531245E+03  0.10566000000E+00 0.  1.
          4    1    3    3  501    0  0.26599153662E+03 -0.13279782452E+03  0.36944920998E+03  0.47421459120E+03  0.00000000000E+00 0.  1.
         13    1    1    2    0    0  0.79324069464E+02  0.13356978394E+03  0.17375924263E+03  0.23307827170E+03  0.10566000000E+00 0. -1.
<mgrwt>
<rscale>  1 0.64154361E+03</rscale>
<asrwt>0</asrwt>
<pdfrwt beam="2">  1       21 0.89140043E-01 0.10292773E+04</pdfrwt>
<pdfrwt beam="1">  1        4 0.10541352E+00 0.10292773E+04</pdfrwt>
<totfact> 0.29540594E+01</totfact>
</mgrwt>
</event>
<event>
 6    1  0.1375310E-005  0.9283624E+03  0.7818608E-02  0.9782934E-01
          4   -1    0    0  502    0 -0.00000000000E+00  0.00000000000E+00  0.10054139401E+04  0.10054139401E+04  0.00000000000E+00 0.  1.
         21   -1    0    0  501  502  0.00000000000E+00 -0.00000000000E+00 -0.41027136526E+03  0.41027136526E+03  0.00000000000E+00 0.  1.
    9000010    2    1    2  501    0 -0.24031224318E+03  0.21749910444E+02  0.19530930229E+03  0.94868456679E+03  0.89645616227E+03 0.  0.
        -13    1    3    3    0    0  0.10995702697E+02 -0.13393883475E+03  0.50379790929E+03  0.52141428970E+03  0.10566000000E+00 0.  1.
          4    1    3    3  501    0 -0.25130794587E+03  0.15568874520E+03 -0.30848860699E+03  0.42727027709E+03  0.00000000000E+00 0.  1.
         13    1    1    2    0    0  0.24031224318E+03 -0.21749910444E+02  0.39983327251E+03  0.46700073854E+03  0.10566000000E+00 0. -1.
<mgrwt>
<rscale>  1 0.66286488E+03</rscale>
<asrwt>0</asrwt>
<pdfrwt beam="2">  1       21 0.63118672E-01 0.92836237E+03</pdfrwt>
<pdfrwt beam="1">  1        4 0.15467907E+00 0.92836237E+03</pdfrwt>
<totfact> 0.24902995E+01</totfact>
</mgrwt>
</event>
<event>
 6    1  0.1375310E-005  0.1014678E+04  0.7818608E-02  0.9772402E-01
          4   -1    0    0  502    0 -0.00000000000E+00  0.00000000000E+00  0.33485219142E+04  0.33485219142E+04  0.00000000000E+00 0.  1.
         21   -1    0    0  501  502  0.00000000000E+00 -0.00000000000E+00 -0.10870822822E+03  0.10870822822E+03  0.00000000000E+00 0.  1.
    9000010    2    1    2  501    0  0.15724558027E+03 -0.10901905493E+03  0.27660556589E+04  0.29462917839E+04  0.99647380333E+03 0.  0.
        -13    1    3    3    0    0 -0.33245979760E+03 -0.25563696278E+03  0.18531359051E+04  0.18999980178E+04  0.10566000000E+00 0.  1.
          4    1    3    3  501    0  0.48970537787E+03  0.14661790785E+03  0.91291975384E+03  0.10462937661E+04  0.00000000000E+00 0.  1.
         13    1    1    2    0    0 -0.15724558027E+03  0.10901905493E+03  0.47375802703E+03  0.51093835851E+03  0.10566000000E+00 0. -1.
<mgrwt>
<rscale>  1 0.66864896E+03</rscale>
<asrwt>0</asrwt>
<pdfrwt beam="2">  1       21 0.16724345E-01 0.10146780E+04</pdfrwt>
<pdfrwt beam="1">  1        4 0.51515714E+00 0.10146780E+04</pdfrwt>
<totfact> 0.12871927E+00</totfact>
</mgrwt>
</event>
<event>
 6    1  0.1375310E-005  0.1017716E+04  0.7818608E-02  0.9733473E-01
          4   -1    0    0  502    0 -0.00000000000E+00  0.00000000000E+00  0.12215098882E+04  0.12215098882E+04  0.00000000000E+00 0.  1.
         21   -1    0    0  501  502  0.00000000000E+00 -0.00000000000E+00 -0.31857112524E+03  0.31857112524E+03  0.00000000000E+00 0.  1.
    9000010    2    1    2  501    0 -0.18443853162E+03 -0.11197259177E+03  0.64983426421E+03  0.12074891739E+04  0.99458036426E+03 0.  0.
        -13    1    3    3    0    0 -0.19392072123E+03  0.24233835954E+03 -0.14096885943E+03  0.34088906864E+03  0.10566000000E+00 0.  1.
          4    1    3    3  501    0  0.94821896064E+01 -0.35431095130E+03  0.79080312364E+03  0.86660010529E+03  0.00000000000E+00 0.  1.
         13    1    1    2    0    0  0.18443853162E+03  0.11197259177E+03  0.25310449879E+03  0.33259183954E+03  0.10566000000E+00 0. -1.
<mgrwt>
<rscale>  1 0.69058352E+03</rscale>
<asrwt>0</asrwt>
<pdfrwt beam="2">  1       21 0.49010943E-01 0.10177158E+04</pdfrwt>
<pdfrwt beam="1">  1        4 0.18792460E+00 0.10177158E+04</pdfrwt>
<totfact> 0.24843718E+01</totfact>
</mgrwt>
</event>
<event>
 6    1  0.1375310E-005  0.9651012E+03  0.7818608E-02  0.9793581E-01
         21   -1    0    0  501  502  0.00000000000E+00  0.00000000000E+00  0.41525779307E+03  0.41525779307E+03  0.00000000000E+00 0.  1.
          4   -1    0    0  502    0 -0.00000000000E+00 -0.00000000000E+00 -0.82814704548E+03  0.82814704548E+03  0.00000000000E+00 0.  1.
    9000010    2    1    2  501    0 -0.20068962917E+03  0.52235114829E+02 -0.35174522136E+03  0.10272025301E+04  0.94255795718E+03 0.  0.
        -13    1    3    3    0    0  0.40371964955E+02 -0.22733914448E+03 -0.55832162575E+03  0.60418211750E+03  0.10566000000E+00 0.  1.
          4    1    3    3  501    0 -0.24106159412E+03  0.27957425931E+03  0.20657640439E+03  0.42302041261E+03  0.00000000000E+00 0.  1.
         13    1    1    2    0    0  0.20068962917E+03 -0.52235114829E+02 -0.61144031046E+02  0.21620230844E+03  0.10566000000E+00 0. -1.
<mgrwt>
<rscale>  1 0.65708170E+03</rscale>
<asrwt>0</asrwt>
<pdfrwt beam="1">  1       21 0.63885815E-01 0.96510121E+03</pdfrwt>
<pdfrwt beam="2">  1        4 0.12740724E+00 0.96510121E+03</pdfrwt>
<totfact> 0.40202499E+01</totfact>
</mgrwt>
</event>
<event>
 6    1  0.1375310E-005  0.1003010E+04  0.7818608E-02  0.9853863E-01
          4   -1    0    0  502    0 -0.00000000000E+00  0.00000000000E+00  0.36979873055E+03  0.36979873055E+03  0.00000000000E+00 0.  1.
         21   -1    0    0  501  502  0.00000000000E+00 -0.00000000000E+00 -0.90161507616E+03  0.90161507616E+03  0.00000000000E+00 0.  1.
    9000010    2    1    2  501    0 -0.14827676806E+03 -0.32074368968E+02 -0.45550642399E+03  0.11015963153E+04  0.99147041029E+03 0.  0.
        -13    1    3    3    0    0 -0.98043353780E+02  0.44849119239E+03 -0.33899243381E+02  0.46033250888E+03  0.10566000000E+00 0.  1.
          4    1    3    3  501    0 -0.50233414277E+02 -0.48056556136E+03 -0.42160718061E+03  0.64126380641E+03  0.00000000000E+00 0.  1.
         13    1    1    2    0    0  0.14827676806E+03  0.32074368968E+02 -0.76309921613E+02  0.16981749142E+03  0.10566000000E+00 0. -1.
<mgrwt>
<rscale>  1 0.62550348E+03</rscale>
<asrwt>0</asrwt>
<pdfrwt beam="2">  1       21 0.13871001E+00 0.10030096E+04</pdfrwt>
<pdfrwt beam="1">  1        4 0.56892112E-01 0.10030096E+04</pdfrwt>
<totfact> 0.39347329E+01</totfact>
</mgrwt>
</event>
<event>
 6    1  0.1375310E-005  0.9926882E+03  0.7818608E-02  0.9505589E-01
          4   -1    0    0  502    0 -0.00000000000E+00  0.00000000000E+00  0.13680055301E+04  0.13680055301E+04  0.00000000000E+00 0.  1.
         21   -1    0    0  501  502  0.00000000000E+00 -0.00000000000E+00 -0.87574139066E+03  0.87574139066E+03  0.00000000000E+00 0.  1.
    9000010    2    1    2  501    0 -0.43569871646E+03  0.25707051880E+03 -0.51371133234E+03  0.11177339172E+04  0.85411425089E+03 0.  0.
        -13    1    3    3    0    0 -0.49501349524E+03 -0.81679221653E+02 -0.58065150918E+03  0.76737607599E+03  0.10566000000E+00 0.  1.
          4    1    3    3  501    0  0.59314778783E+02  0.33874974045E+03  0.66940176844E+02  0.35035784123E+03  0.00000000000E+00 0.  1.
         13    1    1    2    0    0  0.43569871646E+03 -0.25707051880E+03  0.10059754718E+04  0.11260130036E+04  0.10566000000E+00 0. -1.
<mgrwt>
<rscale>  1 0.83873037E+03</rscale>
<asrwt>0</asrwt>
<pdfrwt beam="2">  1       21 0.13472944E+00 0.99268816E+03</pdfrwt>
<pdfrwt beam="1">  1        4 0.21046239E+00 0.99268816E+03</pdfrwt>
<totfact> 0.15899747E+00</totfact>
</mgrwt>
</event>
<event>
 6    1  0.1375310E-005  0.1028120E+04  0.7818608E-02  0.9722331E-01
         21   -1    0    0  501  502  0.00000000000E+00  0.00000000000E+00  0.14123718731E+04  0.14123718731E+04  0.00000000000E+00 0.  1.
          4   -1    0    0  502    0 -0.00000000000E+00 -0.00000000000E+00 -0.28670828540E+03  0.28670828540E+03  0.00000000000E+00 0.  1.
    9000010    2    1    2  501    0  0.17982086995E+03  0.12182551381E+03  0.10488029667E+04  0.14686792745E+04  0.10049149951E+04 0.  0.
        -13    1    3    3    0    0 -0.18934395248E+03 -0.31636425665E+03  0.14009674360E+03  0.39441676430E+03  0.10566000000E+00 0.  1.
          4    1    3    3  501    0  0.36916482243E+03  0.43818977046E+03  0.90870622307E+03  0.10742625102E+04  0.00000000000E+00 0.  1.
         13    1    1    2    0    0 -0.17982086995E+03 -0.12182551381E+03  0.76860620978E+02  0.23040088391E+03  0.10566000000E+00 0. -1.
<mgrwt>
<rscale>  1 0.69702639E+03</rscale>
<asrwt>0</asrwt>
<pdfrwt beam="1">  1       21 0.21728798E+00 0.10281202E+04</pdfrwt>
<pdfrwt beam="2">  1        4 0.44108968E-01 0.10281202E+04</pdfrwt>
<totfact> 0.17642734E+01</totfact>
</mgrwt>
</event>
<event>
 6    1  0.1375310E-005  0.1015313E+04  0.7818608E-02  0.9727874E-01
         21   -1    0    0  501  502  0.00000000000E+00  0.00000000000E+00  0.35789968174E+03  0.35789968174E+03  0.00000000000E+00 0.  1.
          4   -1    0    0  502    0 -0.00000000000E+00 -0.00000000000E+00 -0.15593173231E+04  0.15593173231E+04  0.00000000000E+00 0.  1.
    9000010    2    1    2  501    0  0.96940140972E+02  0.19904268148E+03 -0.40924475763E+03  0.10946884224E+04  0.99088147151E+03 0.  0.
        -13    1    3    3    0    0  0.66436442399E+02  0.42334809564E+03 -0.64078812960E+03  0.77087408126E+03  0.10566000000E+00 0.  1.
          4    1    3    3  501    0  0.30503698573E+02 -0.22430541416E+03  0.23154337197E+03  0.32381434117E+03  0.00000000000E+00 0.  1.
         13    1    1    2    0    0 -0.96940140972E+02 -0.19904268148E+03 -0.79217288377E+03  0.82252858243E+03  0.10566000000E+00 0. -1.
<mgrwt>
<rscale>  1 0.69381179E+03</rscale>
<asrwt>0</asrwt>
<pdfrwt beam="1">  1       21 0.55061491E-01 0.10153135E+04</pdfrwt>
<pdfrwt beam="2">  1        4 0.23989497E+00 0.10153135E+04</pdfrwt>
<totfact> 0.88908484E+00</totfact>
</mgrwt>
</event>
<event>
 6    1  0.1375310E-005  0.1027189E+04  0.7818608E-02  0.9718403E-01
          4   -1    0    0  502    0 -0.00000000000E+00  0.00000000000E+00  0.16134646748E+04  0.16134646748E+04  0.00000000000E+00 0.  1.
         21   -1    0    0  501  502  0.00000000000E+00 -0.00000000000E+00 -0.25726671825E+03  0.25726671825E+03  0.00000000000E+00 0.  1.
    9000010    2    1    2  501    0 -0.96386741117E+02 -0.19850567884E+03  0.90724764812E+03  0.13704801572E+04  0.10032061891E+04 0.  0.
        -13    1    3    3    0    0  0.33798108038E+03  0.15371354010E+03  0.93130023068E+02  0.38279534410E+03  0.10566000000E+00 0.  1.
          4    1    3    3  501    0 -0.43436782149E+03 -0.35221921895E+03  0.81411762506E+03  0.98768481307E+03  0.00000000000E+00 0.  1.
         13    1    1    2    0    0  0.96386741117E+02  0.19850567884E+03  0.44895030841E+03  0.50025123586E+03  0.10566000000E+00 0. -1.
<mgrwt>
<rscale>  1 0.69931570E+03</rscale>
<asrwt>0</asrwt>
<pdfrwt beam="2">  1       21 0.39579496E-01 0.10271892E+04</pdfrwt>
<pdfrwt beam="1">  1        4 0.24822533E+00 0.10271892E+04</pdfrwt>
<totfact> 0.15984789E+01</totfact>
</mgrwt>
</event>
<event>
 6    1  0.1375310E-005  0.1007921E+04  0.7818608E-02  0.9774915E-01
          4   -1    0    0  502    0 -0.00000000000E+00  0.00000000000E+00  0.25217787459E+04  0.25217787459E+04  0.00000000000E+00 0.  1.
         21   -1    0    0  501  502  0.00000000000E+00 -0.00000000000E+00 -0.15139770651E+03  0.15139770651E+03  0.00000000000E+00 0.  1.
    9000010    2    1    2  501    0  0.47266628187E+02 -0.18774278535E+03  0.21796166683E+04  0.24013814119E+04  0.98915235293E+03 0.  0.
        -13    1    3    3    0    0 -0.38626263998E+03 -0.33352751644E+03  0.80950930189E+03  0.95694553256E+03  0.10566000000E+00 0.  1.
          4    1    3    3  501    0  0.43352926817E+03  0.14578473109E+03  0.13701073664E+04  0.14444358793E+04  0.00000000000E+00 0.  1.
         13    1    1    2    0    0 -0.47266628187E+02  0.18774278535E+03  0.19076437115E+03  0.27179504053E+03  0.10566000000E+00 0. -1.
<mgrwt>
<rscale>  1 0.66726278E+03</rscale>
<asrwt>0</asrwt>
<pdfrwt beam="2">  1       21 0.23291957E-01 0.10079206E+04</pdfrwt>
<pdfrwt beam="1">  1        4 0.38796593E+00 0.10079206E+04</pdfrwt>
<totfact> 0.60752638E+00</totfact>
</mgrwt>
</event>
<event>
 6    1  0.1375310E-005  0.1092994E+04  0.7818608E-02  0.9509282E-01
         21   -1    0    0  501  502  0.00000000000E+00  0.00000000000E+00  0.14700511215E+04  0.14700511215E+04  0.00000000000E+00 0.  1.
          4   -1    0    0  502    0 -0.00000000000E+00 -0.00000000000E+00 -0.38906716812E+03  0.38906716812E+03  0.00000000000E+00 0.  1.
    9000010    2    1    2  501    0 -0.29517824280E+03  0.22989052027E+03  0.98856025731E+03  0.14737327721E+04  0.10269649726E+04 0.  0.
        -13    1    3    3    0    0 -0.46031168059E+03  0.20606040975E+03  0.11411550610E+04  0.12476308028E+04  0.10566000000E+00 0.  1.
          4    1    3    3  501    0  0.16513343779E+03  0.23830110519E+02 -0.15259480365E+03  0.22610196935E+03  0.00000000000E+00 0.  1.
         13    1    1    2    0    0  0.29517824280E+03 -0.22989052027E+03  0.92423696091E+02  0.38538551749E+03  0.10566000000E+00 0. -1.
<mgrwt>
<rscale>  1 0.83602962E+03</rscale>
<asrwt>0</asrwt>
<pdfrwt beam="1">  1       21 0.22616171E+00 0.10929945E+04</pdfrwt>
<pdfrwt beam="2">  1        4 0.59856488E-01 0.10929945E+04</pdfrwt>
<totfact> 0.79946608E+00</totfact>
</mgrwt>
</event>
<event>
 6    1  0.1375310E-005  0.1114711E+04  0.7818608E-02  0.9468517E-01
          4   -1    0    0  502    0 -0.00000000000E+00  0.00000000000E+00  0.18648368575E+04  0.18648368575E+04  0.00000000000E+00 0.  1.
         21   -1    0    0  501  502  0.00000000000E+00 -0.00000000000E+00 -0.35771857697E+03  0.35771857697E+03  0.00000000000E+00 0.  1.
    9000010    2    1    2  501    0  0.40280692262E+03  0.57597633387E+02  0.14220093530E+04  0.18068458664E+04  0.10377911546E+04 0.  0.
        -13    1    3    3    0    0  0.72211735065E+03 -0.13268893184E+03  0.83329079837E+03  0.11106004622E+04  0.10566000000E+00 0.  1.
          4    1    3    3  501    0 -0.31931042804E+03  0.19028656522E+03  0.58871855465E+03  0.69624540425E+03  0.00000000000E+00 0.  1.
         13    1    1    2    0    0 -0.40280692262E+03 -0.57597633387E+02  0.85108927536E+02  0.41570956808E+03  0.10566000000E+00 0. -1.
<mgrwt>
<rscale>  1 0.86645273E+03</rscale>
<asrwt>0</asrwt>
<pdfrwt beam="2">  1       21 0.55033628E-01 0.11147113E+04</pdfrwt>
<pdfrwt beam="1">  1        4 0.28689797E+00 0.11147113E+04</pdfrwt>
<totfact> 0.45029892E+00</totfact>
</mgrwt>
</event>
<event>
 6    1  0.1375310E-005  0.1146617E+04  0.7818608E-02  0.9362311E-01
         21   -1    0    0  501  502  0.00000000000E+00  0.00000000000E+00  0.20393593258E+03  0.20393593258E+03  0.00000000000E+00 0.  1.
          4   -1    0    0  502    0 -0.00000000000E+00 -0.00000000000E+00 -0.45452703315E+04  0.45452703315E+04  0.00000000000E+00 0.  1.
    9000010    2    1    2  501    0  0.48589588331E+03  0.24873650852E+03 -0.16899843280E+04  0.20422482168E+04  0.10083481988E+04 0.  0.
        -13    1    3    3    0    0 -0.25421895626E+03 -0.15187561538E+03 -0.55786642230E+03  0.63159198583E+03  0.10566000000E+00 0.  1.
          4    1    3    3  501    0  0.74011483957E+03  0.40061212390E+03 -0.11321179057E+04  0.14106562310E+04  0.00000000000E+00 0.  1.
         13    1    1    2    0    0 -0.48589588331E+03 -0.24873650852E+03 -0.26513500709E+04  0.27069580473E+04  0.10566000000E+00 0. -1.
<mgrwt>
<rscale>  1 0.95243293E+03</rscale>
<asrwt>0</asrwt>
<pdfrwt beam="1">  1       21 0.31374758E-01 0.11466171E+04</pdfrwt>
<pdfrwt beam="2">  1        4 0.69927237E+00 0.11466171E+04</pdfrwt>
<totfact> 0.74667785E-03</totfact>
</mgrwt>
</event>
<event>
 6    1  0.1375310E-005  0.1154602E+04  0.7818608E-02  0.9340245E-01
          4   -1    0    0  502    0 -0.00000000000E+00  0.00000000000E+00  0.10379235341E+04  0.10379235341E+04  0.00000000000E+00 0.  1.
         21   -1    0    0  501  502  0.00000000000E+00 -0.00000000000E+00 -0.84777397927E+03  0.84777397927E+03  0.00000000000E+00 0. -1.
    9000010    2    1    2  501    0 -0.48917097363E+03  0.30973388825E+03  0.46508211430E+03  0.12447519257E+04  0.99894076927E+03 0.  0.
        -13    1    3    3    0    0 -0.54812104093E+03 -0.23898641458E+03  0.29824368662E+03  0.66820692127E+03  0.10566000000E+00 0.  1.
          4    1    3    3  501    0  0.58950067298E+02  0.54872030283E+03  0.16683842768E+03  0.57654500442E+03  0.00000000000E+00 0.  1.
         13    1    1    2    0    0  0.48917097363E+03 -0.30973388825E+03 -0.27493255945E+03  0.64094558769E+03  0.10566000000E+00 0. -1.
<mgrwt>
<rscale>  1 0.97160801E+03</rscale>
<asrwt>0</asrwt>
<pdfrwt beam="2">  1       21 0.13042677E+00 0.11546021E+04</pdfrwt>
<pdfrwt beam="1">  1        4 0.15968054E+00 0.11546021E+04</pdfrwt>
<totfact> 0.38081204E+00</totfact>
</mgrwt>
</event>
<event>
 6    1  0.1375310E-005  0.9980995E+03  0.7818608E-02  0.9787053E-01
          4   -1    0    0  502    0 -0.00000000000E+00  0.00000000000E+00  0.33372317504E+03  0.33372317504E+03  0.00000000000E+00 0.  1.
         21   -1    0    0  501  502  0.00000000000E+00 -0.00000000000E+00 -0.12877460108E+04  0.12877460108E+04  0.00000000000E+00 0.  1.
    9000010    2    1    2  501    0  0.19081340105E+03 -0.16802443969E+02 -0.10119467762E+04  0.14213510453E+04  0.97954603767E+03 0.  0.
        -13    1    3    3    0    0  0.35783586345E+03  0.38638280854E+03 -0.36416267145E+03  0.64027544256E+03  0.10566000000E+00 0.  1.
          4    1    3    3  501    0 -0.16702246240E+03 -0.40318525251E+03 -0.64778410479E+03  0.78107560274E+03  0.00000000000E+00 0.  1.
         13    1    1    2    0    0 -0.19081340105E+03  0.16802443969E+02  0.57923940443E+02  0.20011814057E+03  0.10566000000E+00 0. -1.
<mgrwt>
<rscale>  1 0.66062030E+03</rscale>
<asrwt>0</asrwt>
<pdfrwt beam="2">  1       21 0.19811477E+00 0.99809945E+03</pdfrwt>
<pdfrwt beam="1">  1        4 0.51342028E-01 0.99809945E+03</pdfrwt>
<totfact> 0.17373225E+01</totfact>
</mgrwt>
</event>
<event>
 6    1  0.1375310E-005  0.1043154E+04  0.7818608E-02  0.9613358E-01
          4   -1    0    0  502    0 -0.00000000000E+00  0.00000000000E+00  0.20292013821E+03  0.20292013821E+03  0.00000000000E+00 0.  1.
         21   -1    0    0  501  502  0.00000000000E+00 -0.00000000000E+00 -0.22390306474E+04  0.22390306474E+04  0.00000000000E+00 0.  1.
    9000010    2    1    2  501    0  0.25065204479E+03 -0.16562695534E+03 -0.14937267244E+04  0.18219194017E+04  0.99895547607E+03 0.  0.
        -13    1    3    3    0    0  0.74518458941E+02 -0.51622669563E+03 -0.12636976111E+04  0.13671044823E+04  0.10566000000E+00 0.  1.
          4    1    3    3  501    0  0.17613358585E+03  0.35059974029E+03 -0.23002911331E+03  0.45481491942E+03  0.00000000000E+00 0.  1.
         13    1    1    2    0    0 -0.25065204479E+03  0.16562695534E+03 -0.54238378481E+03  0.62003138395E+03  0.10566000000E+00 0. -1.
<mgrwt>
<rscale>  1 0.76418343E+03</rscale>
<asrwt>0</asrwt>
<pdfrwt beam="2">  1       21 0.34446624E+00 0.10431542E+04</pdfrwt>
<pdfrwt beam="1">  1        4 0.31218484E-01 0.10431542E+04</pdfrwt>
<totfact> 0.55559550E+00</totfact>
</mgrwt>
</event>
<event>
 6    1  0.1375310E-005  0.1125343E+04  0.7818608E-02  0.9405838E-01
          4   -1    0    0  502    0 -0.00000000000E+00  0.00000000000E+00  0.27154800414E+03  0.27154800414E+03  0.00000000000E+00 0.  1.
         21   -1    0    0  501  502  0.00000000000E+00 -0.00000000000E+00 -0.24979081641E+04  0.24979081641E+04  0.00000000000E+00 0.  1.
    9000010    2    1    2  501    0 -0.49392332451E+03  0.25803717048E+01 -0.17670972786E+04  0.20950013408E+04  0.10111532610E+04 0.  0.
        -13    1    3    3    0    0 -0.17261589080E+03 -0.90797086456E+02 -0.17490744942E+04  0.17599153259E+04  0.10566000000E+00 0.  1.
          4    1    3    3  501    0 -0.32130743371E+03  0.93377458161E+02 -0.18022784308E+02  0.33508601494E+03  0.00000000000E+00 0.  1.
         13    1    1    2    0    0  0.49392332451E+03 -0.25803717048E+01 -0.45926288137E+03  0.67445482738E+03  0.10566000000E+00 0. -1.
<mgrwt>
<rscale>  1 0.91596774E+03</rscale>
<asrwt>0</asrwt>
<pdfrwt beam="2">  1       21 0.38429355E+00 0.11253434E+04</pdfrwt>
<pdfrwt beam="1">  1        4 0.41776618E-01 0.11253434E+04</pdfrwt>
<totfact> 0.16946502E+00</totfact>
</mgrwt>
</event>
<event>
 6    1  0.1375310E-005  0.8030116E+03  0.7818608E-02  0.1000879E+00
          4   -1    0    0  502    0 -0.00000000000E+00  0.00000000000E+00  0.88921574457E+03  0.88921574457E+03  0.00000000000E+00 0.  1.
         21   -1    0    0  501  502  0.00000000000E+00 -0.00000000000E+00 -0.27293695682E+03  0.27293695682E+03  0.00000000000E+00 0.  1.
    9000010    2    1    2  501    0  0.17014925485E+03 -0.59247291220E+02  0.47305515469E+03  0.93199182141E+03  0.78253853921E+03 0.  0.
        -13    1    3    3    0    0  0.32160721848E+03 -0.34875822703E+03  0.31114399558E+03  0.56733949364E+03  0.10566000000E+00 0.  1.
          4    1    3    3  501    0 -0.15145796363E+03  0.28951093581E+03  0.16191115911E+03  0.36465232776E+03  0.00000000000E+00 0.  1.
         13    1    1    2    0    0 -0.17014925485E+03  0.59247291220E+02  0.14322363307E+03  0.23016087999E+03  0.10566000000E+00 0. -1.
<mgrwt>
<rscale>  1 0.55266457E+03</rscale>
<asrwt>0</asrwt>
<pdfrwt beam="2">  1       21 0.41990302E-01 0.80301157E+03</pdfrwt>
<pdfrwt beam="1">  1        4 0.13680242E+00 0.80301157E+03</pdfrwt>
<totfact> 0.84456440E+01</totfact>
</mgrwt>
</event>
<event>
 6    1  0.1375310E-005  0.1010960E+04  0.7818608E-02  0.9788370E-01
         21   -1    0    0  501  502  0.00000000000E+00  0.00000000000E+00  0.58043870722E+03  0.58043870722E+03  0.00000000000E+00 0.  1.
          4   -1    0    0  502    0 -0.00000000000E+00 -0.00000000000E+00 -0.76263765277E+03  0.76263765277E+03  0.00000000000E+00 0.  1.
    9000010    2    1    2  501    0 -0.47050426842E+02 -0.17740261994E+03  0.89806788420E+02  0.10149413836E+04  0.99416061114E+03 0.  0.
        -13    1    3    3    0    0 -0.28407525575E+03 -0.49633345990E+03  0.19444459238E+03  0.60403175828E+03  0.10566000000E+00 0.  1.
          4    1    3    3  501    0  0.23702482891E+03  0.31893083995E+03 -0.10463780396E+03  0.41090962535E+03  0.00000000000E+00 0.  1.
         13    1    1    2    0    0  0.47050426842E+02  0.17740261994E+03 -0.27200573397E+03  0.32813497635E+03  0.10566000000E+00 0. -1.
<mgrwt>
<rscale>  1 0.65990416E+03</rscale>
<asrwt>0</asrwt>
<pdfrwt beam="1">  1       21 0.89298263E-01 0.10109603E+04</pdfrwt>
<pdfrwt beam="2">  1        4 0.11732887E+00 0.10109603E+04</pdfrwt>
<totfact> 0.22624843E+01</totfact>
</mgrwt>
</event>
<event>
 6    1  0.1375310E-005  0.1021970E+04  0.7818608E-02  0.9896526E-01
          4   -1    0    0  502    0 -0.00000000000E+00  0.00000000000E+00  0.10043746156E+04  0.10043746156E+04  0.00000000000E+00 0.  1.
         21   -1    0    0  501  502  0.00000000000E+00 -0.00000000000E+00 -0.37026040900E+03  0.37026040900E+03  0.00000000000E+00 0.  1.
    9000010    2    1    2  501    0  0.10801435652E+03  0.62789007547E+02  0.37793454372E+03  0.10896129351E+04  0.10143038343E+04 0.  0.
        -13    1    3    3    0    0 -0.40311845924E+03 -0.83933694997E+02  0.37633958794E+03  0.55783586649E+03  0.10566000000E+00 0.  1.
          4    1    3    3  501    0  0.51113281576E+03  0.14672270254E+03  0.15949557817E+01  0.53177706858E+03  0.00000000000E+00 0.  1.
         13    1    1    2    0    0 -0.10801435652E+03 -0.62789007547E+02  0.25617966291E+03  0.28502208956E+03  0.10566000000E+00 0. -1.
<mgrwt>
<rscale>  1 0.60429966E+03</rscale>
<asrwt>0</asrwt>
<pdfrwt beam="2">  1       21 0.56963140E-01 0.10219696E+04</pdfrwt>
<pdfrwt beam="1">  1        4 0.15451917E+00 0.10219696E+04</pdfrwt>
<totfact> 0.31110930E+01</totfact>
</mgrwt>
</event>
<event>
 6    1  0.1375310E-005  0.1009725E+04  0.7818608E-02  0.9862137E-01
          4   -1    0    0  502    0 -0.00000000000E+00  0.00000000000E+00  0.15713986491E+03  0.15713986491E+03  0.00000000000E+00 0.  1.
         21   -1    0    0  501  502  0.00000000000E+00 -0.00000000000E+00 -0.25673940415E+04  0.25673940415E+04  0.00000000000E+00 0.  1.
    9000010    2    1    2  501    0  0.84580581038E+02  0.11748075184E+03 -0.23671253709E+04  0.25734852163E+04  0.99929376827E+03 0.  0.
        -13    1    3    3    0    0  0.22984217591E+03  0.83572033237E+02 -0.24067510191E+04  0.24191449295E+04  0.10566000000E+00 0.  1.
          4    1    3    3  501    0 -0.14526159487E+03  0.33908718602E+02  0.39625648237E+02  0.15434028683E+03  0.00000000000E+00 0.  1.
         13    1    1    2    0    0 -0.84580581038E+02 -0.11748075184E+03 -0.43128805712E+02  0.15104869012E+03  0.10566000000E+00 0. -1.
<mgrwt>
<rscale>  1 0.62131913E+03</rscale>
<asrwt>0</asrwt>
<pdfrwt beam="2">  1       21 0.39498365E+00 0.10097245E+04</pdfrwt>
<pdfrwt beam="1">  1        4 0.24175367E-01 0.10097245E+04</pdfrwt>
<totfact> 0.43529255E+00</totfact>
</mgrwt>
</event>
<event>
 6    1  0.1375310E-005  0.9959531E+03  0.7818608E-02  0.9643368E-01
          4   -1    0    0  502    0 -0.00000000000E+00  0.00000000000E+00  0.23181904546E+03  0.23181904546E+03  0.00000000000E+00 0.  1.
         21   -1    0    0  501  502  0.00000000000E+00 -0.00000000000E+00 -0.23046985284E+04  0.23046985284E+04  0.00000000000E+00 0.  1.
    9000010    2    1    2  501    0 -0.47482074749E+02  0.30803625354E+03 -0.19714722682E+04  0.22087610861E+04  0.94592904069E+03 0.  0.
        -13    1    3    3    0    0 -0.64663819227E+02  0.42340606508E+03 -0.27656596453E+03  0.50984590747E+03  0.10566000000E+00 0.  1.
          4    1    3    3  501    0  0.17181744478E+02 -0.11536981154E+03 -0.16949063037E+04  0.16989151786E+04  0.00000000000E+00 0.  1.
         13    1    1    2    0    0  0.47482074749E+02 -0.30803625354E+03 -0.10140721469E+03  0.32775648776E+03  0.10566000000E+00 0. -1.
<mgrwt>
<rscale>  1 0.74491108E+03</rscale>
<asrwt>0</asrwt>
<pdfrwt beam="2">  1       21 0.35456899E+00 0.99595313E+03</pdfrwt>
<pdfrwt beam="1">  1        4 0.35664470E-01 0.99595313E+03</pdfrwt>
<totfact> 0.37158171E+00</totfact>
</mgrwt>
</event>
<event>
 6    1  0.1375310E-005  0.1030295E+04  0.7818608E-02  0.9670875E-01
         21   -1    0    0  501  502  0.00000000000E+00  0.00000000000E+00  0.77401690411E+03  0.77401690411E+03  0.00000000000E+00 0.  1.
          4   -1    0    0  502    0 -0.00000000000E+00 -0.00000000000E+00 -0.53641687173E+03  0.53641687173E+03  0.00000000000E+00 0.  1.
    9000010    2    1    2  501    0  0.25193751873E+03 -0.48229281022E+02  0.21851439477E+03  0.10532123739E+04  0.99785228712E+03 0.  0.
        -13    1    3    3    0    0  0.51112844534E+02  0.36638826778E+03 -0.20884972215E+03  0.42481890642E+03  0.10566000000E+00 0.  1.
          4    1    3    3  501    0  0.20082467419E+03 -0.41461754881E+03  0.42736411692E+03  0.62839346748E+03  0.00000000000E+00 0.  1.
         13    1    1    2    0    0 -0.25193751873E+03  0.48229281022E+02  0.19085637614E+02  0.25722140194E+03  0.10566000000E+00 0. -1.
<mgrwt>
<rscale>  1 0.72777689E+03</rscale>
<asrwt>0</asrwt>
<pdfrwt beam="1">  1       21 0.11907952E+00 0.10302950E+04</pdfrwt>
<pdfrwt beam="2">  1        4 0.82525673E-01 0.10302950E+04</pdfrwt>
<totfact> 0.25635600E+01</totfact>
</mgrwt>
</event>
<event>
 6    1  0.1375310E-005  0.9883298E+03  0.7818608E-02  0.1000901E+00
         21   -1    0    0  501  502  0.00000000000E+00  0.00000000000E+00  0.29293147987E+03  0.29293147987E+03  0.00000000000E+00 0.  1.
          4   -1    0    0  502    0 -0.00000000000E+00 -0.00000000000E+00 -0.11879644655E+04  0.11879644655E+04  0.00000000000E+00 0.  1.
    9000010    2    1    2  501    0 -0.41371370734E+02  0.87259626071E+02 -0.56803972799E+03  0.11399407660E+04  0.98360052087E+03 0.  0.
        -13    1    3    3    0    0 -0.62277058367E+02 -0.25167954170E+03  0.18188920434E+03  0.31670920026E+03  0.10566000000E+00 0.  1.
          4    1    3    3  501    0  0.20905687633E+02  0.33893916777E+03 -0.74992893233E+03  0.82323156570E+03  0.00000000000E+00 0.  1.
         13    1    1    2    0    0  0.41371370734E+02 -0.87259626071E+02 -0.32699325765E+03  0.34095517941E+03  0.10566000000E+00 0. -1.
<mgrwt>
<rscale>  1 0.55257017E+03</rscale>
<asrwt>0</asrwt>
<pdfrwt beam="1">  1       21 0.45066381E-01 0.98832981E+03</pdfrwt>
<pdfrwt beam="2">  1        4 0.18276377E+00 0.98832981E+03</pdfrwt>
<totfact> 0.32353750E+01</totfact>
</mgrwt>
</event>
<event>
 6    1  0.1375310E-005  0.1048040E+04  0.7818608E-02  0.9609560E-01
         21   -1    0    0  501  502  0.00000000000E+00  0.00000000000E+00  0.11127639226E+04  0.11127639226E+04  0.00000000000E+00 0.  1.
          4   -1    0    0  502    0 -0.00000000000E+00 -0.00000000000E+00 -0.42601869525E+03  0.42601869525E+03  0.00000000000E+00 0.  1.
    9000010    2    1    2  501    0  0.22067615801E+02 -0.29930620742E+03  0.65756999526E+03  0.12372492187E+04  0.10041494635E+04 0.  0.
        -13    1    3    3    0    0 -0.16955634837E+03 -0.61339012082E+03  0.58041134968E+03  0.86132116054E+03  0.10566000000E+00 0.  1.
          4    1    3    3  501    0  0.19162396417E+03  0.31408391340E+03  0.77158645582E+02  0.37592805813E+03  0.00000000000E+00 0.  1.
         13    1    1    2    0    0 -0.22067615801E+02  0.29930620742E+03  0.29175232054E+02  0.30153339914E+03  0.10566000000E+00 0. -1.
<mgrwt>
<rscale>  1 0.76666663E+03</rscale>
<asrwt>0</asrwt>
<pdfrwt beam="1">  1       21 0.17119445E+00 0.10480398E+04</pdfrwt>
<pdfrwt beam="2">  1        4 0.65541338E-01 0.10480398E+04</pdfrwt>
<totfact> 0.15870634E+01</totfact>
</mgrwt>
</event>
<event>
 6    1  0.1375310E-005  0.1038051E+04  0.7818608E-02  0.9658464E-01
          4   -1    0    0  502    0 -0.00000000000E+00  0.00000000000E+00  0.21203349501E+04  0.21203349501E+04  0.00000000000E+00 0.  1.
         21   -1    0    0  501  502  0.00000000000E+00 -0.00000000000E+00 -0.32945548652E+03  0.32945548652E+03  0.00000000000E+00 0.  1.
    9000010    2    1    2  501    0 -0.24326426835E+03  0.96066360484E+02  0.53661789589E+03  0.11685494986E+04  0.10045610557E+04 0.  0.
        -13    1    3    3    0    0 -0.49359910500E+03  0.20677677084E+03 -0.33415580909E+02  0.53620268707E+03  0.10566000000E+00 0.  1.
          4    1    3    3  501    0  0.25033483665E+03 -0.11071041036E+03  0.57003347680E+03  0.63234681154E+03  0.00000000000E+00 0.  1.
         13    1    1    2    0    0  0.24326426835E+03 -0.96066360484E+02  0.12542615677E+04  0.12812409381E+04  0.10566000000E+00 0. -1.
<mgrwt>
<rscale>  1 0.73544617E+03</rscale>
<asrwt>0</asrwt>
<pdfrwt beam="2">  1       21 0.50685461E-01 0.10380507E+04</pdfrwt>
<pdfrwt beam="1">  1        4 0.32620537E+00 0.10380507E+04</pdfrwt>
<totfact> 0.30975305E+00</totfact>
</mgrwt>
</event>
<event>
 6    1  0.1375310E-005  0.1203139E+04  0.7818608E-02  0.9262753E-01
          4   -1    0    0  502    0 -0.00000000000E+00  0.00000000000E+00  0.31484208648E+03  0.31484208648E+03  0.00000000000E+00 0.  1.
         21   -1    0    0  501  502  0.00000000000E+00 -0.00000000000E+00 -0.28136648556E+04  0.28136648556E+04  0.00000000000E+00 0.  1.
    9000010    2    1    2  501    0 -0.67903617698E+03 -0.10644280552E+02 -0.16157825441E+04  0.20145215380E+04  0.99314669955E+03 0.  0.
        -13    1    3    3    0    0 -0.58648681061E+03 -0.21102725204E+03 -0.16739795742E+04  0.17862549947E+04  0.10566000000E+00 0.  1.
          4    1    3    3  501    0 -0.92549366370E+02  0.20038297149E+03  0.58197030074E+02  0.22826654330E+03  0.00000000000E+00 0.  1.
         13    1    1    2    0    0  0.67903617698E+03  0.10644280552E+02 -0.88304022498E+03  0.11139854041E+04  0.10566000000E+00 0. -1.
<mgrwt>
<rscale>  1 0.10428539E+04</rscale>
<asrwt>0</asrwt>
<pdfrwt beam="2">  1       21 0.43287149E+00 0.12031391E+04</pdfrwt>
<pdfrwt beam="1">  1        4 0.48437247E-01 0.12031391E+04</pdfrwt>
<totfact> 0.58426562E-01</totfact>
</mgrwt>
</event>
<event>
 6    1  0.1375310E-005  0.1092066E+04  0.7818608E-02  0.9527359E-01
          4   -1    0    0  502    0 -0.00000000000E+00  0.00000000000E+00  0.11627639557E+04  0.11627639557E+04  0.00000000000E+00 0.  1.
         21   -1    0    0  501  502  0.00000000000E+00 -0.00000000000E+00 -0.46374021933E+03  0.46374021933E+03  0.00000000000E+00 0.  1.
    9000010    2    1    2  501    0  0.24517871751E+03  0.25283635791E+03  0.39520721190E+03  0.11613769676E+04  0.10337160602E+04 0.  0.
        -13    1    3    3    0    0  0.37756701325E+03  0.17137941316E+03 -0.25904758554E+03  0.48891043708E+03  0.10566000000E+00 0.  1.
          4    1    3    3  501    0 -0.13238829574E+03  0.81456944745E+02  0.65425479744E+03  0.67246653052E+03  0.00000000000E+00 0.  1.
         13    1    1    2    0    0 -0.24517871751E+03 -0.25283635791E+03  0.30381652450E+03  0.46512720746E+03  0.10566000000E+00 0. -1.
<mgrwt>
<rscale>  1 0.82296491E+03</rscale>
<asrwt>0</asrwt>
<pdfrwt beam="2">  1       21 0.71344649E-01 0.10920658E+04</pdfrwt>
<pdfrwt beam="1">  1        4 0.17888676E+00 0.10920658E+04</pdfrwt>
<totfact> 0.12343347E+01</totfact>
</mgrwt>
</event>
<event>
 6    1  0.1375310E-005  0.1067864E+04  0.7818608E-02  0.9528803E-01
          4   -1    0    0  502    0 -0.00000000000E+00  0.00000000000E+00  0.40985060593E+03  0.40985060593E+03  0.00000000000E+00 0.  1.
         21   -1    0    0  501  502  0.00000000000E+00 -0.00000000000E+00 -0.13981700079E+04  0.13981700079E+04  0.00000000000E+00 0.  1.
    9000010    2    1    2  501    0  0.87862218622E+02  0.36435229945E+03 -0.95350776697E+03  0.14316109584E+04  0.99993025104E+03 0.  0.
        -13    1    3    3    0    0  0.13585722441E+03  0.49159898753E+03 -0.11116305072E+04  0.12230491182E+04  0.10566000000E+00 0.  1.
          4    1    3    3  501    0 -0.47995005786E+02 -0.12724668808E+03  0.15812274020E+03  0.20856184017E+03  0.00000000000E+00 0.  1.
         13    1    1    2    0    0 -0.87862218622E+02 -0.36435229945E+03 -0.34811634955E+02  0.37640965539E+03  0.10566000000E+00 0. -1.
<mgrwt>
<rscale>  1 0.82193171E+03</rscale>
<asrwt>0</asrwt>
<pdfrwt beam="2">  1       21 0.21510308E+00 0.10678637E+04</pdfrwt>
<pdfrwt beam="1">  1        4 0.63053938E-01 0.10678637E+04</pdfrwt>
<totfact> 0.84713126E+00</totfact>
</mgrwt>
</event>
<event>
 6    1  0.1375310E-005  0.1453106E+04  0.7818608E-02  0.8996922E-01
          4   -1    0    0  502    0 -0.00000000000E+00  0.00000000000E+00  0.11719260974E+04  0.11719260974E+04  0.00000000000E+00 0.  1.
         21   -1    0    0  501  502  0.00000000000E+00 -0.00000000000E+00 -0.13847492165E+04  0.13847492165E+04  0.00000000000E+00 0. -1.
    9000010    2    1    2  501    0  0.27089478340E+03 -0.10217398029E+04  0.93596014025E+02  0.14561168626E+04  0.99708570108E+03 0.  0.
        -13    1    3    3    0    0 -0.30988401560E+03 -0.56234120847E+03 -0.17976931924E+03  0.66676289427E+03  0.10566000000E+00 0.  1.
          4    1    3    3  501    0  0.58077879900E+03 -0.45939859441E+03  0.27336533327E+03  0.78935396835E+03  0.00000000000E+00 0.  1.
         13    1    1    2    0    0 -0.27089478340E+03  0.10217398029E+04 -0.30641913313E+03  0.11005584513E+04  0.10566000000E+00 0. -1.
<mgrwt>
<rscale>  1 0.13419797E+04</rscale>
<asrwt>0</asrwt>
<pdfrwt beam="2">  1       21 0.21303834E+00 0.14531057E+04</pdfrwt>
<pdfrwt beam="1">  1        4 0.18029632E+00 0.14531057E+04</pdfrwt>
<totfact> 0.61115984E-01</totfact>
</mgrwt>
</event>
<event>
 6    1  0.1375310E-005  0.1082172E+04  0.7818608E-02  0.9493330E-01
         21   -1    0    0  501  502  0.00000000000E+00  0.00000000000E+00  0.74989942885E+03  0.74989942885E+03  0.00000000000E+00 0.  1.
          4   -1    0    0  502    0 -0.00000000000E+00 -0.00000000000E+00 -0.96434111572E+03  0.96434111572E+03  0.00000000000E+00 0.  1.
    9000010    2    1    2  501    0  0.36701107071E+03  0.17730715496E+03  0.23511202509E+03  0.11074180793E+04  0.10024780221E+04 0.  0.
        -13    1    3    3    0    0  0.73701699065E+02 -0.10625275181E+03 -0.36191062162E+03  0.38431874390E+03  0.10566000000E+00 0.  1.
          4    1    3    3  501    0  0.29330937164E+03  0.28355990677E+03  0.59702264670E+03  0.72309933543E+03  0.00000000000E+00 0.  1.
         13    1    1    2    0    0 -0.36701107071E+03 -0.17730715496E+03 -0.44955371196E+03  0.60682246524E+03  0.10566000000E+00 0. -1.
<mgrwt>
<rscale>  1 0.84777377E+03</rscale>
<asrwt>0</asrwt>
<pdfrwt beam="1">  1       21 0.11536914E+00 0.10821724E+04</pdfrwt>
<pdfrwt beam="2">  1        4 0.14836017E+00 0.10821724E+04</pdfrwt>
<totfact> 0.64681428E+00</totfact>
</mgrwt>
</event>
<event>
 6    1  0.1375310E-005  0.1013390E+04  0.7818608E-02  0.9919922E-01
          4   -1    0    0  502    0 -0.00000000000E+00  0.00000000000E+00  0.89492711418E+03  0.89492711418E+03  0.00000000000E+00 0.  1.
         21   -1    0    0  501  502  0.00000000000E+00 -0.00000000000E+00 -0.35892163398E+03  0.35892163398E+03  0.00000000000E+00 0.  1.
    9000010    2    1    2  501    0 -0.75037171229E+02  0.92183984720E+02  0.46117765282E+03  0.11133934919E+04  0.10063954373E+04 0.  0.
        -13    1    3    3    0    0 -0.47891164042E+02 -0.44171475028E+03  0.67298682696E+02  0.44937134762E+03  0.10566000000E+00 0.  1.
          4    1    3    3  501    0 -0.27146007187E+02  0.53389873500E+03  0.39387897012E+03  0.66402214424E+03  0.00000000000E+00 0.  1.
         13    1    1    2    0    0  0.75037171229E+02 -0.92183984720E+02  0.74827827387E+02  0.14045525629E+03  0.10566000000E+00 0. -1.
<mgrwt>
<rscale>  1 0.59305439E+03</rscale>
<asrwt>0</asrwt>
<pdfrwt beam="2">  1       21 0.55218713E-01 0.10133905E+04</pdfrwt>
<pdfrwt beam="1">  1        4 0.13768109E+00 0.10133905E+04</pdfrwt>
<totfact> 0.45339491E+01</totfact>
</mgrwt>
</event>
<event>
 6    1  0.1375310E-005  0.1125074E+04  0.7818608E-02  0.9394968E-01
          4   -1    0    0  502    0 -0.00000000000E+00  0.00000000000E+00  0.41089299850E+03  0.41089299850E+03  0.00000000000E+00 0.  1.
         21   -1    0    0  501  502  0.00000000000E+00 -0.00000000000E+00 -0.17053645870E+04  0.17053645870E+04  0.00000000000E+00 0.  1.
    9000010    2    1    2  501    0 -0.14974392961E+03  0.49156877202E+03 -0.10796011470E+04  0.15592724691E+04  0.10008640738E+04 0.  0.
        -13    1    3    3    0    0  0.37419358471E+03  0.14343910455E+03 -0.13207651833E+03  0.42194766667E+03  0.10566000000E+00 0.  1.
          4    1    3    3  501    0 -0.52393751432E+03  0.34812966747E+03 -0.94752462864E+03  0.11373248024E+04  0.00000000000E+00 0.  1.
         13    1    1    2    0    0  0.14974392961E+03 -0.49156877202E+03 -0.21487044149E+03  0.55698511638E+03  0.10566000000E+00 0. -1.
<mgrwt>
<rscale>  1 0.92490973E+03</rscale>
<asrwt>0</asrwt>
<pdfrwt beam="2">  1       21 0.26236379E+00 0.11250742E+04</pdfrwt>
<pdfrwt beam="1">  1        4 0.63214306E-01 0.11250742E+04</pdfrwt>
<totfact> 0.41335339E+00</totfact>
</mgrwt>
</event>
<event>
 6    1  0.1375310E-005  0.1038894E+04  0.7818608E-02  0.9852320E-01
          4   -1    0    0  502    0 -0.00000000000E+00  0.00000000000E+00  0.14496581112E+04  0.14496581112E+04  0.00000000000E+00 0.  1.
         21   -1    0    0  501  502  0.00000000000E+00 -0.00000000000E+00 -0.28330697248E+03  0.28330697248E+03  0.00000000000E+00 0.  1.
    9000010    2    1    2  501    0 -0.49035792743E+02 -0.12814734736E+03  0.71484860386E+03  0.12610744165E+04  0.10297931374E+04 0.  0.
        -13    1    3    3    0    0 -0.98453471645E+02  0.12456946426E+02  0.96489338190E+03  0.96998325305E+03  0.10566000000E+00 0.  1.
          4    1    3    3  501    0  0.49417678902E+02 -0.14060429378E+03 -0.25004477804E+03  0.29109116346E+03  0.00000000000E+00 0.  1.
         13    1    1    2    0    0  0.49035792743E+02  0.12814734736E+03  0.45150253482E+03  0.47189066713E+03  0.10566000000E+00 0. -1.
<mgrwt>
<rscale>  1 0.62628766E+03</rscale>
<asrwt>0</asrwt>
<pdfrwt beam="2">  1       21 0.43585689E-01 0.10388937E+04</pdfrwt>
<pdfrwt beam="1">  1        4 0.22302432E+00 0.10388937E+04</pdfrwt>
<totfact> 0.18747147E+01</totfact>
</mgrwt>
</event>
<event>
 6    1  0.1375310E-005  0.1008128E+04  0.7818608E-02  0.9761392E-01
          4   -1    0    0  502    0 -0.00000000000E+00  0.00000000000E+00  0.26761202475E+03  0.26761202475E+03  0.00000000000E+00 0.  1.
         21   -1    0    0  501  502  0.00000000000E+00 -0.00000000000E+00 -0.15139172284E+04  0.15139172284E+04  0.00000000000E+00 0.  1.
    9000010    2    1    2  501    0  0.20187569165E+03 -0.13531332569E+02 -0.12117346946E+04  0.15762683872E+04  0.98761539395E+03 0.  0.
        -13    1    3    3    0    0  0.23791570070E+03  0.40664292015E+03 -0.26663092282E+03  0.54134499658E+03  0.10566000000E+00 0.  1.
          4    1    3    3  501    0 -0.36040009055E+02 -0.42017425272E+03 -0.94510377179E+03  0.10349233906E+04  0.00000000000E+00 0.  1.
         13    1    1    2    0    0 -0.20187569165E+03  0.13531332569E+02 -0.34570509013E+02  0.20526086597E+03  0.10566000000E+00 0. -1.
<mgrwt>
<rscale>  1 0.67476255E+03</rscale>
<asrwt>0</asrwt>
<pdfrwt beam="2">  1       21 0.23291034E+00 0.10081275E+04</pdfrwt>
<pdfrwt beam="1">  1        4 0.41171081E-01 0.10081275E+04</pdfrwt>
<totfact> 0.16103256E+01</totfact>
</mgrwt>
</event>
<event>
 6    1  0.1375310E-005  0.8529905E+03  0.7818608E-02  0.9994483E-01
          4   -1    0    0  502    0 -0.00000000000E+00  0.00000000000E+00  0.61154469839E+03  0.61154469839E+03  0.00000000000E+00 0.  1.
         21   -1    0    0  501  502  0.00000000000E+00 -0.00000000000E+00 -0.43818570662E+03  0.43818570662E+03  0.00000000000E+00 0.  1.
    9000010    2    1    2  501    0 -0.15014294992E+03  0.46740339142E+02  0.22854585187E+03  0.88307757603E+03  0.83837058284E+03 0.  0.
        -13    1    3    3    0    0 -0.15285080465E+03 -0.38812250946E+03  0.13308888008E+03  0.43785284285E+03  0.10566000000E+00 0.  1.
          4    1    3    3  501    0  0.27078547288E+01  0.43486284860E+03  0.95456971785E+02  0.44522473318E+03  0.00000000000E+00 0.  1.
         13    1    1    2    0    0  0.15014294992E+03 -0.46740339142E+02 -0.55186860092E+02  0.16665282898E+03  0.10566000000E+00 0. -1.
<mgrwt>
<rscale>  1 0.55892804E+03</rscale>
<asrwt>0</asrwt>
<pdfrwt beam="2">  1       21 0.67413186E-01 0.85299050E+03</pdfrwt>
<pdfrwt beam="1">  1        4 0.94083799E-01 0.85299050E+03</pdfrwt>
<totfact> 0.75738363E+01</totfact>
</mgrwt>
</event>
<event>
 6    1  0.1375310E-005  0.1033509E+04  0.7818608E-02  0.9721129E-01
          4   -1    0    0  502    0 -0.00000000000E+00  0.00000000000E+00  0.15601509351E+03  0.15601509351E+03  0.00000000000E+00 0.  1.
         21   -1    0    0  501  502  0.00000000000E+00 -0.00000000000E+00 -0.31923824118E+04  0.31923824118E+04  0.00000000000E+00 0.  1.
    9000010    2    1    2  501    0 -0.13376063964E+03  0.16791840296E+03 -0.29337098599E+04  0.31104330884E+04  0.10109658533E+04 0.  0.
        -13    1    3    3    0    0 -0.55402767212E+03 -0.55280469019E+02 -0.15179779851E+04  0.16168672692E+04  0.10566000000E+00 0.  1.
          4    1    3    3  501    0  0.42026703247E+03  0.22319887198E+03 -0.14157318748E+04  0.14935658192E+04  0.00000000000E+00 0.  1.
         13    1    1    2    0    0  0.13376063964E+03 -0.16791840296E+03 -0.10265745833E+03  0.23796441685E+03  0.10566000000E+00 0. -1.
<mgrwt>
<rscale>  1 0.69772570E+03</rscale>
<asrwt>0</asrwt>
<pdfrwt beam="2">  1       21 0.49113573E+00 0.10335088E+04</pdfrwt>
<pdfrwt beam="1">  1        4 0.24002323E-01 0.10335088E+04</pdfrwt>
<totfact> 0.96778980E-01</totfact>
</mgrwt>
</event>
<event>
 6    1  0.1375310E-005  0.1370497E+04  0.7818608E-02  0.9071110E-01
         21   -1    0    0  501  502  0.00000000000E+00  0.00000000000E+00  0.11081995755E+04  0.11081995755E+04  0.00000000000E+00 0. -1.
          4   -1    0    0  502    0 -0.00000000000E+00 -0.00000000000E+00 -0.12592253677E+04  0.12592253677E+04  0.00000000000E+00 0.  1.
    9000010    2    1    2  501    0  0.45252004477E+03 -0.82967387008E+03 -0.32005088953E+03  0.14073714987E+04  0.99253656958E+03 0.  0.
        -13    1    3    3    0    0  0.58238651785E+03 -0.97705642739E+03 -0.38441244957E+03  0.12006607602E+04  0.10566000000E+00 0.  1.
          4    1    3    3  501    0 -0.12986647308E+03  0.14738255731E+03  0.64361560039E+02  0.20671073857E+03  0.00000000000E+00 0.  1.
         13    1    1    2    0    0 -0.45252004477E+03  0.82967387008E+03  0.16902509736E+03  0.96005344451E+03  0.10566000000E+00 0. -1.
<mgrwt>
<rscale>  1 0.12488870E+04</rscale>
<asrwt>0</asrwt>
<pdfrwt beam="1">  1       21 0.17049224E+00 0.13704970E+04</pdfrwt>
<pdfrwt beam="2">  1        4 0.19372698E+00 0.13704970E+04</pdfrwt>
<totfact> 0.10025421E+00</totfact>
</mgrwt>
</event>
<event>
 6    1  0.1375310E-005  0.1000737E+04  0.7818608E-02  0.9990319E-01
          4   -1    0    0  502    0 -0.00000000000E+00  0.00000000000E+00  0.85009109810E+03  0.85009109810E+03  0.00000000000E+00 0.  1.
         21   -1    0    0  501  502  0.00000000000E+00 -0.00000000000E+00 -0.78605617789E+03  0.78605617789E+03  0.00000000000E+00 0.  1.
    9000010    2    1    2  501    0 -0.95318112462E+02 -0.25488044895E+02 -0.46107641630E+03  0.11018466959E+04  0.99586118340E+03 0.  0.
        -13    1    3    3    0    0 -0.34144661517E+03  0.33586262507E+03 -0.17864719412E+02  0.47927930614E+03  0.10566000000E+00 0.  1.
          4    1    3    3  501    0  0.24612850271E+03 -0.36135066996E+03 -0.44321169688E+03  0.62256738975E+03  0.00000000000E+00 0.  1.
         13    1    1    2    0    0  0.95318112462E+02  0.25488044895E+02  0.52511133650E+03  0.53430058009E+03  0.10566000000E+00 0. -1.
<mgrwt>
<rscale>  1 0.56076780E+03</rscale>
<asrwt>0</asrwt>
<pdfrwt beam="2">  1       21 0.12093172E+00 0.10007371E+04</pdfrwt>
<pdfrwt beam="1">  1        4 0.13078325E+00 0.10007371E+04</pdfrwt>
<totfact> 0.80519844E+00</totfact>
</mgrwt>
</event>
<event>
 6    1  0.1375310E-005  0.9277564E+03  0.7818608E-02  0.9788912E-01
         21   -1    0    0  501  502  0.00000000000E+00  0.00000000000E+00  0.33376095022E+03  0.33376095022E+03  0.00000000000E+00 0.  1.
          4   -1    0    0  502    0 -0.00000000000E+00 -0.00000000000E+00 -0.10188958651E+04  0.10188958651E+04  0.00000000000E+00 0.  1.
    9000010    2    1    2  501    0 -0.20163512375E+03 -0.12465027987E+03 -0.51758382192E+03  0.10623676572E+04  0.89696020591E+03 0.  0.
        -13    1    3    3    0    0  0.16973554676E+03 -0.41225753269E+03 -0.16636084512E+03  0.47585961275E+03  0.10566000000E+00 0.  1.
          4    1    3    3  501    0 -0.37137067051E+03  0.28760725282E+03 -0.35122297680E+03  0.58650804447E+03  0.00000000000E+00 0.  1.
         13    1    1    2    0    0  0.20163512375E+03  0.12465027987E+03 -0.16755109298E+03  0.29028915812E+03  0.10566000000E+00 0. -1.
<mgrwt>
<rscale>  1 0.65960986E+03</rscale>
<asrwt>0</asrwt>
<pdfrwt beam="1">  1       21 0.51347840E-01 0.92775645E+03</pdfrwt>
<pdfrwt beam="2">  1        4 0.15675321E+00 0.92775645E+03</pdfrwt>
<totfact> 0.37864501E+01</totfact>
</mgrwt>
</event>
<event>
 6    1  0.1375310E-005  0.1044859E+04  0.7818608E-02  0.9621781E-01
         21   -1    0    0  501  502  0.00000000000E+00  0.00000000000E+00  0.27663341863E+03  0.27663341863E+03  0.00000000000E+00 0.  1.
          4   -1    0    0  502    0 -0.00000000000E+00 -0.00000000000E+00 -0.16145395347E+04  0.16145395347E+04  0.00000000000E+00 0.  1.
    9000010    2    1    2  501    0 -0.28716175588E+03 -0.43861256568E+02 -0.10121973983E+04  0.14547421296E+04  0.10036659836E+04 0.  0.
        -13    1    3    3    0    0  0.23416793826E+03 -0.21370985065E+03 -0.15769100350E+02  0.31741959496E+03  0.10566000000E+00 0.  1.
          4    1    3    3  501    0 -0.52132969414E+03  0.16984859408E+03 -0.99642829792E+03  0.11373225346E+04  0.00000000000E+00 0.  1.
         13    1    1    2    0    0  0.28716175588E+03  0.43861256568E+02 -0.32570871776E+03  0.43643082368E+03  0.10566000000E+00 0. -1.
<mgrwt>
<rscale>  1 0.75871205E+03</rscale>
<asrwt>0</asrwt>
<pdfrwt beam="1">  1       21 0.42558987E-01 0.10448594E+04</pdfrwt>
<pdfrwt beam="2">  1        4 0.24839070E+00 0.10448594E+04</pdfrwt>
<totfact> 0.13662666E+01</totfact>
</mgrwt>
</event>
<event>
 6    1  0.1375310E-005  0.9091462E+03  0.7818608E-02  0.9815460E-01
         21   -1    0    0  501  502  0.00000000000E+00  0.00000000000E+00  0.18900144302E+04  0.18900144302E+04  0.00000000000E+00 0.  1.
          4   -1    0    0  502    0 -0.00000000000E+00 -0.00000000000E+00 -0.25589327191E+03  0.25589327191E+03  0.00000000000E+00 0.  1.
    9000010    2    1    2  501    0 -0.15150122681E+03 -0.17423018022E+03  0.16802651085E+04  0.19104548347E+04  0.87933956082E+03 0.  0.
        -13    1    3    3    0    0 -0.13952085151E+03  0.35435326514E+02 -0.61165956421E+02  0.15640657198E+03  0.10566000000E+00 0.  1.
          4    1    3    3  501    0 -0.11980375299E+02 -0.20966550673E+03  0.17414310650E+04  0.17540482628E+04  0.00000000000E+00 0.  1.
         13    1    1    2    0    0  0.15150122681E+03  0.17423018022E+03 -0.46143950272E+02  0.23545286733E+03  0.10566000000E+00 0. -1.
<mgrwt>
<rscale>  1 0.64539434E+03</rscale>
<asrwt>0</asrwt>
<pdfrwt beam="1">  1       21 0.29077144E+00 0.90914622E+03</pdfrwt>
<pdfrwt beam="2">  1        4 0.39368197E-01 0.90914622E+03</pdfrwt>
<totfact> 0.77425894E+00</totfact>
</mgrwt>
</event>
<event>
 6    1  0.1375310E-005  0.1034487E+04  0.7818608E-02  0.9632351E-01
         21   -1    0    0  501  502  0.00000000000E+00  0.00000000000E+00  0.34447436122E+03  0.34447436122E+03  0.00000000000E+00 0.  1.
          4   -1    0    0  502    0 -0.00000000000E+00 -0.00000000000E+00 -0.21559206014E+04  0.21559206014E+04  0.00000000000E+00 0.  1.
    9000010    2    1    2  501    0 -0.11680241935E+03  0.26405536541E+03 -0.48436461135E+03  0.11422662125E+04  0.99337554949E+03 0.  0.
        -13    1    3    3    0    0 -0.54265934194E+02 -0.29806722218E+03  0.10951525842E+03  0.32215285742E+03  0.10566000000E+00 0.  1.
          4    1    3    3  501    0 -0.62536485151E+02  0.56212258759E+03 -0.59387986977E+03  0.82011335508E+03  0.00000000000E+00 0.  1.
         13    1    1    2    0    0  0.11680241935E+03 -0.26405536541E+03 -0.13270816289E+04  0.13581287502E+04  0.10566000000E+00 0. -1.
<mgrwt>
<rscale>  1 0.75191489E+03</rscale>
<asrwt>0</asrwt>
<pdfrwt beam="1">  1       21 0.52996057E-01 0.10344868E+04</pdfrwt>
<pdfrwt beam="2">  1        4 0.33168008E+00 0.10344868E+04</pdfrwt>
<totfact> 0.25968964E+00</totfact>
</mgrwt>
</event>
<event>
 6    1  0.1375310E-005  0.9717097E+03  0.7818608E-02  0.1023652E+00
         21   -1    0    0  501  502  0.00000000000E+00  0.00000000000E+00  0.15873152766E+04  0.15873152766E+04  0.00000000000E+00 0.  1.
          4   -1    0    0  502    0 -0.00000000000E+00 -0.00000000000E+00 -0.16464663487E+03  0.16464663487E+03  0.00000000000E+00 0.  1.
    9000010    2    1    2  501    0  0.28813028500E+02  0.41451532167E+02  0.13604794141E+04  0.16718624026E+04  0.97039746329E+03 0.  0.
        -13    1    3    3    0    0 -0.65564409892E+01 -0.44187334643E+03  0.40007845546E+03  0.59611896706E+03  0.10566000000E+00 0.  1.
          4    1    3    3  501    0  0.35369469489E+02  0.48332487860E+03  0.96040095867E+03  0.10757434355E+04  0.00000000000E+00 0.  1.
         13    1    1    2    0    0 -0.28813028500E+02 -0.41451532167E+02  0.62189227599E+02  0.80099508886E+02  0.10566000000E+00 0. -1.
<mgrwt>
<rscale>  1 0.46391296E+03</rscale>
<asrwt>0</asrwt>
<pdfrwt beam="1">  1       21 0.24420234E+00 0.97170966E+03</pdfrwt>
<pdfrwt beam="2">  1        4 0.25330253E-01 0.97170966E+03</pdfrwt>
<totfact> 0.35789265E+01</totfact>
</mgrwt>
</event>
<event>
 6    1  0.1375310E-005  0.9927339E+03  0.7818608E-02  0.9870273E-01
          4   -1    0    0  502    0 -0.00000000000E+00  0.00000000000E+00  0.84014450014E+03  0.84014450014E+03  0.00000000000E+00 0.  1.
         21   -1    0    0  501  502  0.00000000000E+00 -0.00000000000E+00 -0.41038732298E+03  0.41038732298E+03  0.00000000000E+00 0.  1.
    9000010    2    1    2  501    0  0.98043097357E+02  0.11134561550E+03  0.46771256012E+03  0.10973948998E+04  0.98158557046E+03 0.  0.
        -13    1    3    3    0    0 -0.37183064950E+03  0.30201534112E+03  0.16407426619E+03  0.50635133472E+03  0.10566000000E+00 0.  1.
          4    1    3    3  501    0  0.46987374686E+03 -0.19066972562E+03  0.30363829393E+03  0.59104356506E+03  0.00000000000E+00 0.  1.
         13    1    1    2    0    0 -0.98043097357E+02 -0.11134561550E+03 -0.37955382968E+02  0.15313692334E+03  0.10566000000E+00 0. -1.
<mgrwt>
<rscale>  1 0.61723841E+03</rscale>
<asrwt>0</asrwt>
<pdfrwt beam="2">  1       21 0.63136511E-01 0.99273387E+03</pdfrwt>
<pdfrwt beam="1">  1        4 0.12925300E+00 0.99273387E+03</pdfrwt>
<totfact> 0.39698078E+01</totfact>
</mgrwt>
</event>
<event>
 6    1  0.1375310E-005  0.1095715E+04  0.7818608E-02  0.9451364E-01
         21   -1    0    0  501  502  0.00000000000E+00  0.00000000000E+00  0.72315478273E+03  0.72315478273E+03  0.00000000000E+00 0. -1.
          4   -1    0    0  502    0 -0.00000000000E+00 -0.00000000000E+00 -0.11039320426E+04  0.11039320426E+04  0.00000000000E+00 0.  1.
    9000010    2    1    2  501    0  0.15535769043E+02  0.45490686889E+03 -0.67327349953E+03  0.12860362909E+04  0.99669981279E+03 0.  0.
        -13    1    3    3    0    0 -0.39107461338E+03  0.37044865742E+03 -0.55329840582E+02  0.54150989228E+03  0.10566000000E+00 0.  1.
          4    1    3    3  501    0  0.40661038242E+03  0.84458211478E+02 -0.61794365895E+03  0.74452639860E+03  0.00000000000E+00 0.  1.
         13    1    1    2    0    0 -0.15535769043E+02 -0.45490686889E+03  0.29249623963E+03  0.54105053447E+03  0.10566000000E+00 0. -1.
<mgrwt>
<rscale>  1 0.87966491E+03</rscale>
<asrwt>0</asrwt>
<pdfrwt beam="1">  1       21 0.11125458E+00 0.10957154E+04</pdfrwt>
<pdfrwt beam="2">  1        4 0.16983570E+00 0.10957154E+04</pdfrwt>
<totfact> 0.48857383E+00</totfact>
</mgrwt>
</event>
<event>
 6    1  0.1375310E-005  0.1090088E+04  0.7818608E-02  0.9497192E-01
         21   -1    0    0  501  502  0.00000000000E+00  0.00000000000E+00  0.10325682768E+04  0.10325682768E+04  0.00000000000E+00 0.  1.
          4   -1    0    0  502    0 -0.00000000000E+00 -0.00000000000E+00 -0.71666266722E+03  0.71666266722E+03  0.00000000000E+00 0.  1.
    9000010    2    1    2  501    0  0.34436951251E+03 -0.19024227806E+03  0.61810953112E+03  0.12531364904E+04  0.10166165382E+04 0.  0.
        -13    1    3    3    0    0 -0.14372048292E+03 -0.37452034324E+03 -0.51316810102E+02  0.40441870737E+03  0.10566000000E+00 0.  1.
          4    1    3    3  501    0  0.48808999543E+03  0.18427806518E+03  0.66942634122E+03  0.84871778305E+03  0.00000000000E+00 0.  1.
         13    1    1    2    0    0 -0.34436951251E+03  0.19024227806E+03 -0.30220392155E+03  0.49609445358E+03  0.10566000000E+00 0. -1.
<mgrwt>
<rscale>  1 0.84491180E+03</rscale>
<asrwt>0</asrwt>
<pdfrwt beam="1">  1       21 0.15885666E+00 0.10900879E+04</pdfrwt>
<pdfrwt beam="2">  1        4 0.11025579E+00 0.10900879E+04</pdfrwt>
<totfact> 0.58294433E+00</totfact>
</mgrwt>
</event>
<event>
 6    1  0.1375310E-005  0.1143477E+04  0.7818608E-02  0.9372891E-01
          4   -1    0    0  502    0 -0.00000000000E+00  0.00000000000E+00  0.10281363575E+04  0.10281363575E+04  0.00000000000E+00 0.  1.
         21   -1    0    0  501  502  0.00000000000E+00 -0.00000000000E+00 -0.68816708602E+03  0.68816708602E+03  0.00000000000E+00 0.  1.
    9000010    2    1    2  501    0 -0.49459470957E+03 -0.18990941222E+03  0.14904122803E+03  0.11531488994E+04  0.10133358698E+04 0.  0.
        -13    1    3    3    0    0 -0.17764859125E+03  0.15547654808E+03 -0.37933770232E+03  0.44679870472E+03  0.10566000000E+00 0.  1.
          4    1    3    3  501    0 -0.31694611832E+03 -0.34538596030E+03  0.52837893035E+03  0.70635019468E+03  0.00000000000E+00 0.  1.
         13    1    1    2    0    0  0.49459470957E+03  0.18990941222E+03  0.19092804342E+03  0.56315454408E+03  0.10566000000E+00 0. -1.
<mgrwt>
<rscale>  1 0.94340632E+03</rscale>
<asrwt>0</asrwt>
<pdfrwt beam="2">  1       21 0.10587186E+00 0.11434768E+04</pdfrwt>
<pdfrwt beam="1">  1        4 0.15817482E+00 0.11434768E+04</pdfrwt>
<totfact> 0.67179875E+00</totfact>
</mgrwt>
</event>
<event>
 6    1  0.1375310E-005  0.1159648E+04  0.7818608E-02  0.9328305E-01
          4   -1    0    0  502    0 -0.00000000000E+00  0.00000000000E+00  0.20451579967E+04  0.20451579967E+04  0.00000000000E+00 0.  1.
         21   -1    0    0  501  502  0.00000000000E+00 -0.00000000000E+00 -0.37792195308E+03  0.37792195308E+03  0.00000000000E+00 0. -1.
    9000010    2    1    2  501    0  0.21599999750E+03  0.55628375595E+03  0.11536883832E+04  0.16357815141E+04  0.99432221157E+03 0.  0.
        -13    1    3    3    0    0 -0.71800084054E+02  0.31261692455E+03  0.12124253798E+04  0.12541371162E+04  0.10566000000E+00 0.  1.
          4    1    3    3  501    0  0.28780008155E+03  0.24366683141E+03 -0.58736996614E+02  0.38164439789E+03  0.00000000000E+00 0.  1.
         13    1    1    2    0    0 -0.21599999750E+03 -0.55628375595E+03  0.51354766042E+03  0.78729843563E+03  0.10566000000E+00 0. -1.
<mgrwt>
<rscale>  1 0.98218308E+03</rscale>
<asrwt>0</asrwt>
<pdfrwt beam="2">  1       21 0.58141840E-01 0.11596483E+04</pdfrwt>
<pdfrwt beam="1">  1        4 0.31463969E+00 0.11596483E+04</pdfrwt>
<totfact> 0.26645004E+00</totfact>
</mgrwt>
</event>
<event>
 6    1  0.1375310E-005  0.1037847E+04  0.7818608E-02  0.9689701E-01
         21   -1    0    0  501  502  0.00000000000E+00  0.00000000000E+00  0.51592621371E+03  0.51592621371E+03  0.00000000000E+00 0.  1.
          4   -1    0    0  502    0 -0.00000000000E+00 -0.00000000000E+00 -0.14844176736E+04  0.14844176736E+04  0.00000000000E+00 0.  1.
    9000010    2    1    2  501    0 -0.21362908514E+03  0.99198995506E+02 -0.35899887973E+02  0.10384681792E+04  0.10107668032E+04 0.  0.
        -13    1    3    3    0    0  0.11179559110E+03 -0.41465592793E+03 -0.61153030118E+01  0.42950576347E+03  0.10566000000E+00 0.  1.
          4    1    3    3  501    0 -0.32542467624E+03  0.51385492344E+03 -0.29784584961E+02  0.60896241571E+03  0.00000000000E+00 0.  1.
         13    1    1    2    0    0  0.21362908514E+03 -0.99198995506E+02 -0.93259157189E+03  0.96187570812E+03  0.10566000000E+00 0. -1.
<mgrwt>
<rscale>  1 0.71633321E+03</rscale>
<asrwt>0</asrwt>
<pdfrwt beam="1">  1       21 0.79373264E-01 0.10378475E+04</pdfrwt>
<pdfrwt beam="2">  1        4 0.22837195E+00 0.10378475E+04</pdfrwt>
<totfact> 0.45649883E+00</totfact>
</mgrwt>
</event>
<event>
 6    1  0.1375310E-005  0.1010458E+04  0.7818608E-02  0.9846501E-01
          4   -1    0    0  502    0 -0.00000000000E+00  0.00000000000E+00  0.23042454970E+04  0.23042454970E+04  0.00000000000E+00 0.  1.
         21   -1    0    0  501  502  0.00000000000E+00 -0.00000000000E+00 -0.18486759634E+03  0.18486759634E+03  0.00000000000E+00 0.  1.
    9000010    2    1    2  501    0 -0.45318388185E+02 -0.14505508693E+03  0.12537795338E+04  0.16102756349E+04  0.99896434687E+03 0.  0.
        -13    1    3    3    0    0  0.41219881969E+03  0.31497486609E+02  0.94315022409E+03  0.10297729434E+04  0.10566000000E+00 0.  1.
          4    1    3    3  501    0 -0.45751720788E+03 -0.17655257354E+03  0.31062930970E+03  0.58050269144E+03  0.00000000000E+00 0.  1.
         13    1    1    2    0    0  0.45318388185E+02  0.14505508693E+03  0.86559836683E+03  0.87883745845E+03  0.10566000000E+00 0. -1.
<mgrwt>
<rscale>  1 0.62925650E+03</rscale>
<asrwt>0</asrwt>
<pdfrwt beam="2">  1       21 0.28441170E-01 0.10104576E+04</pdfrwt>
<pdfrwt beam="1">  1        4 0.35449929E+00 0.10104576E+04</pdfrwt>
<totfact> 0.68226699E+00</totfact>
</mgrwt>
</event>
<event>
 6    1  0.1375310E-005  0.1089798E+04  0.7818608E-02  0.9649722E-01
          4   -1    0    0  502    0 -0.00000000000E+00  0.00000000000E+00  0.14403565260E+04  0.14403565260E+04  0.00000000000E+00 0.  1.
         21   -1    0    0  501  502  0.00000000000E+00 -0.00000000000E+00 -0.30639190000E+03  0.30639190000E+03  0.00000000000E+00 0. -1.
    9000010    2    1    2  501    0  0.32151428818E+02  0.23058971538E+03  0.99444899596E+03  0.14753263315E+04  0.10646378011E+04 0.  0.
        -13    1    3    3    0    0 -0.38248004494E+03  0.59368963702E+02  0.94844011442E+03  0.10243799688E+04  0.10566000000E+00 0.  1.
          4    1    3    3  501    0  0.41463147375E+03  0.17122075167E+03  0.46008881540E+02  0.45094636268E+03  0.00000000000E+00 0.  1.
         13    1    1    2    0    0 -0.32151428818E+02 -0.23058971538E+03  0.13951563003E+03  0.27142209453E+03  0.10566000000E+00 0. -1.
<mgrwt>
<rscale>  1 0.74090875E+03</rscale>
<asrwt>0</asrwt>
<pdfrwt beam="2">  1       21 0.47137216E-01 0.10897977E+04</pdfrwt>
<pdfrwt beam="1">  1        4 0.22159331E+00 0.10897977E+04</pdfrwt>
<totfact> 0.16114499E+01</totfact>
</mgrwt>
</event>
<event>
 6    1  0.1375310E-005  0.9615600E+03  0.7818608E-02  0.9659013E-01
         21   -1    0    0  501  502  0.00000000000E+00  0.00000000000E+00  0.30924850934E+03  0.30924850934E+03  0.00000000000E+00 0. -1.
          4   -1    0    0  502    0 -0.00000000000E+00 -0.00000000000E+00 -0.15638225204E+04  0.15638225204E+04  0.00000000000E+00 0.  1.
    9000010    2    1    2  501    0 -0.12725222322E+03 -0.30279583955E+03 -0.12038461582E+04  0.15407281721E+04  0.90372522319E+03 0.  0.
        -13    1    3    3    0    0  0.30966761326E+02 -0.29459521915E+02 -0.12235424124E+04  0.12242887118E+04  0.10566000000E+00 0.  1.
          4    1    3    3  501    0 -0.15821898455E+03 -0.27333631763E+03  0.19696254225E+02  0.31643946031E+03  0.00000000000E+00 0.  1.
         13    1    1    2    0    0  0.12725222322E+03  0.30279583955E+03 -0.50727852833E+02  0.33234285757E+03  0.10566000000E+00 0. -1.
<mgrwt>
<rscale>  1 0.73510471E+03</rscale>
<asrwt>0</asrwt>
<pdfrwt beam="1">  1       21 0.47576695E-01 0.96156005E+03</pdfrwt>
<pdfrwt beam="2">  1        4 0.24058807E+00 0.96156005E+03</pdfrwt>
<totfact> 0.12166079E+01</totfact>
</mgrwt>
</event>
<event>
 6    1  0.1375310E-005  0.9837146E+03  0.7818608E-02  0.9894555E-01
         21   -1    0    0  501  502  0.00000000000E+00  0.00000000000E+00  0.20085877692E+03  0.20085877692E+03  0.00000000000E+00 0.  1.
          4   -1    0    0  502    0 -0.00000000000E+00 -0.00000000000E+00 -0.16367807763E+04  0.16367807763E+04  0.00000000000E+00 0.  1.
    9000010    2    1    2  501    0 -0.13229517497E+03 -0.48716974636E+02 -0.13570688883E+04  0.16761057139E+04  0.97355998266E+03 0.  0.
        -13    1    3    3    0    0  0.15803068490E+03  0.36361565086E+03 -0.27563276936E+03  0.48287003803E+03  0.10566000000E+00 0.  1.
          4    1    3    3  501    0 -0.29032585987E+03 -0.41233262550E+03 -0.10814361189E+04  0.11932356759E+04  0.00000000000E+00 0.  1.
         13    1    1    2    0    0  0.13229517497E+03  0.48716974636E+02 -0.78853111106E+02  0.16153383929E+03  0.10566000000E+00 0. -1.
<mgrwt>
<rscale>  1 0.60525904E+03</rscale>
<asrwt>0</asrwt>
<pdfrwt beam="1">  1       21 0.30901350E-01 0.98371459E+03</pdfrwt>
<pdfrwt beam="2">  1        4 0.25181243E+00 0.98371459E+03</pdfrwt>
<totfact> 0.25385787E+01</totfact>
</mgrwt>
</event>
<event>
 6    1  0.1375310E-005  0.9913061E+03  0.7818608E-02  0.1007409E+00
          4   -1    0    0  502    0 -0.00000000000E+00  0.00000000000E+00  0.14514215036E+03  0.14514215036E+03  0.00000000000E+00 0.  1.
         21   -1    0    0  501  502  0.00000000000E+00 -0.00000000000E+00 -0.19734832633E+04  0.19734832633E+04  0.00000000000E+00 0.  1.
    9000010    2    1    2  501    0 -0.93051398086E+01  0.77533862494E+02 -0.16695294516E+04  0.19416529853E+04  0.98822550061E+03 0.  0.
        -13    1    3    3    0    0  0.35498039805E+02  0.50655142673E+03 -0.58590462256E+03  0.77533134636E+03  0.10566000000E+00 0.  1.
          4    1    3    3  501    0 -0.44803179613E+02 -0.42901756423E+03 -0.10836248290E+04  0.11663216389E+04  0.00000000000E+00 0.  1.
         13    1    1    2    0    0  0.93051398086E+01 -0.77533862494E+02 -0.15881166140E+03  0.17697242842E+03  0.10566000000E+00 0. -1.
<mgrwt>
<rscale>  1 0.52517636E+03</rscale>
<asrwt>0</asrwt>
<pdfrwt beam="2">  1       21 0.30361283E+00 0.99130607E+03</pdfrwt>
<pdfrwt beam="1">  1        4 0.22329560E-01 0.99130607E+03</pdfrwt>
<totfact> 0.19248189E+01</totfact>
</mgrwt>
</event>
<event>
 6    1  0.1375310E-005  0.1025353E+04  0.7818608E-02  0.9677339E-01
         21   -1    0    0  501  502  0.00000000000E+00  0.00000000000E+00  0.10541185953E+04  0.10541185953E+04  0.00000000000E+00 0.  1.
          4   -1    0    0  502    0 -0.00000000000E+00 -0.00000000000E+00 -0.38859321670E+03  0.38859321670E+03  0.00000000000E+00 0.  1.
    9000010    2    1    2  501    0 -0.24152294111E+03 -0.80636711706E+02  0.53844801512E+03  0.11581344449E+04  0.99323386834E+03 0.  0.
        -13    1    3    3    0    0  0.22683142585E+03 -0.20873295912E+03 -0.12782214079E+03  0.33370713929E+03  0.10566000000E+00 0.  1.
          4    1    3    3  501    0 -0.46835436695E+03  0.12809624742E+03  0.66627015591E+03  0.82442730565E+03  0.00000000000E+00 0.  1.
         13    1    1    2    0    0  0.24152294111E+03  0.80636711706E+02  0.12707736345E+03  0.28457736702E+03  0.10566000000E+00 0. -1.
<mgrwt>
<rscale>  1 0.72382207E+03</rscale>
<asrwt>0</asrwt>
<pdfrwt beam="1">  1       21 0.16217209E+00 0.10253532E+04</pdfrwt>
<pdfrwt beam="2">  1        4 0.59783573E-01 0.10253532E+04</pdfrwt>
<totfact> 0.22790117E+01</totfact>
</mgrwt>
</event>
<event>
 6    1  0.1375310E-005  0.1015665E+04  0.7818608E-02  0.9790027E-01
          4   -1    0    0  502    0 -0.00000000000E+00  0.00000000000E+00  0.27235067136E+03  0.27235067136E+03  0.00000000000E+00 0.  1.
         21   -1    0    0  501  502  0.00000000000E+00 -0.00000000000E+00 -0.13410624117E+04  0.13410624117E+04  0.00000000000E+00 0.  1.
    9000010    2    1    2  501    0  0.17982980488E+03  0.81081233722E+01 -0.98513796336E+03  0.14149462401E+04  0.99958569177E+03 0.  0.
        -13    1    3    3    0    0 -0.17176295021E+03 -0.82950398189E+02  0.13742387546E+03  0.23509277389E+03  0.10566000000E+00 0.  1.
          4    1    3    3  501    0  0.35159275509E+03  0.91058521561E+02 -0.11225618388E+04  0.11798534662E+04  0.00000000000E+00 0.  1.
         13    1    1    2    0    0 -0.17982980488E+03 -0.81081233722E+01 -0.83573776999E+02  0.19846684296E+03  0.10566000000E+00 0. -1.
<mgrwt>
<rscale>  1 0.65900492E+03</rscale>
<asrwt>0</asrwt>
<pdfrwt beam="2">  1       21 0.20631730E+00 0.10156653E+04</pdfrwt>
<pdfrwt beam="1">  1        4 0.41900103E-01 0.10156653E+04</pdfrwt>
<totfact> 0.23276424E+01</totfact>
</mgrwt>
</event>
<event>
 6    1  0.1375310E-005  0.1015056E+04  0.7818608E-02  0.9799122E-01
          4   -1    0    0  502    0 -0.00000000000E+00  0.00000000000E+00  0.58972592453E+03  0.58972592453E+03  0.00000000000E+00 0.  1.
         21   -1    0    0  501  502  0.00000000000E+00 -0.00000000000E+00 -0.61431287300E+03  0.61431287300E+03  0.00000000000E+00 0.  1.
    9000010    2    1    2  501    0  0.15698565707E+03 -0.77388343036E+02 -0.85663645164E+02  0.10186639713E+04  0.99985227615E+03 0.  0.
        -13    1    3    3    0    0 -0.19872115839E+03 -0.20476375845E+03  0.34371651077E+03  0.44672065825E+03  0.10566000000E+00 0.  1.
          4    1    3    3  501    0  0.35570681546E+03  0.12737541541E+03 -0.42938015593E+03  0.57194331303E+03  0.00000000000E+00 0.  1.
         13    1    1    2    0    0 -0.15698565707E+03  0.77388343036E+02  0.61076696698E+02  0.18537482625E+03  0.10566000000E+00 0. -1.
<mgrwt>
<rscale>  1 0.65409663E+03</rscale>
<asrwt>0</asrwt>
<pdfrwt beam="2">  1       21 0.94509673E-01 0.10150557E+04</pdfrwt>
<pdfrwt beam="1">  1        4 0.90727065E-01 0.10150557E+04</pdfrwt>
<totfact> 0.36788269E+01</totfact>
</mgrwt>
</event>
<event>
 6    1  0.1375310E-005  0.1029590E+04  0.7818608E-02  0.9668896E-01
          4   -1    0    0  502    0 -0.00000000000E+00  0.00000000000E+00  0.46681766450E+03  0.46681766450E+03  0.00000000000E+00 0.  1.
         21   -1    0    0  501  502  0.00000000000E+00 -0.00000000000E+00 -0.12962695098E+04  0.12962695098E+04  0.00000000000E+00 0.  1.
    9000010    2    1    2  501    0 -0.20384429979E+03 -0.15939029505E+03 -0.10141396405E+04  0.14451762473E+04  0.99654272897E+03 0.  0.
        -13    1    3    3    0    0  0.17982384973E+03  0.54966081897E+02  0.12392488485E+03  0.22520052251E+03  0.10566000000E+00 0.  1.
          4    1    3    3  501    0 -0.38366814952E+03 -0.21435637695E+03 -0.11380645253E+04  0.12199757248E+04  0.00000000000E+00 0.  1.
         13    1    1    2    0    0  0.20384429979E+03  0.15939029505E+03  0.18468779511E+03  0.31791092705E+03  0.10566000000E+00 0. -1.
<mgrwt>
<rscale>  1 0.72899291E+03</rscale>
<asrwt>0</asrwt>
<pdfrwt beam="2">  1       21 0.19942608E+00 0.10295898E+04</pdfrwt>
<pdfrwt beam="1">  1        4 0.71818103E-01 0.10295898E+04</pdfrwt>
<totfact> 0.81419329E+00</totfact>
</mgrwt>
</event>
<event>
 6    1  0.1375310E-005  0.1025584E+04  0.7818608E-02  0.9675786E-01
         21   -1    0    0  501  502  0.00000000000E+00  0.00000000000E+00  0.40256888027E+03  0.40256888027E+03  0.00000000000E+00 0.  1.
          4   -1    0    0  502    0 -0.00000000000E+00 -0.00000000000E+00 -0.10878352414E+04  0.10878352414E+04  0.00000000000E+00 0.  1.
    9000010    2    1    2  501    0  0.98698896023E+02 -0.23598250345E+03 -0.68733214183E+03  0.12346044098E+04  0.99317337933E+03 0.  0.
        -13    1    3    3    0    0 -0.23300247435E+03  0.22948316283E+03  0.17073779015E+02  0.32748160280E+03  0.10566000000E+00 0.  1.
          4    1    3    3  501    0  0.33170137037E+03 -0.46546566628E+03 -0.70440592085E+03  0.90712280696E+03  0.00000000000E+00 0.  1.
         13    1    1    2    0    0 -0.98698896023E+02  0.23598250345E+03  0.20657806792E+01  0.25579971193E+03  0.10566000000E+00 0. -1.
<mgrwt>
<rscale>  1 0.72476958E+03</rscale>
<asrwt>0</asrwt>
<pdfrwt beam="1">  1       21 0.61933676E-01 0.10255840E+04</pdfrwt>
<pdfrwt beam="2">  1        4 0.16735926E+00 0.10255840E+04</pdfrwt>
<totfact> 0.20709430E+01</totfact>
</mgrwt>
</event>
<event>
 6    1  0.1375310E-005  0.1047686E+04  0.7818608E-02  0.9625220E-01
         21   -1    0    0  501  502  0.00000000000E+00  0.00000000000E+00  0.13367495180E+04  0.13367495180E+04  0.00000000000E+00 0.  1.
          4   -1    0    0  502    0 -0.00000000000E+00 -0.00000000000E+00 -0.54267139748E+03  0.54267139748E+03  0.00000000000E+00 0.  1.
    9000010    2    1    2  501    0 -0.21857759536E+03  0.18256082685E+03  0.10595668095E+04  0.14900767543E+04  0.10082372187E+04 0.  0.
        -13    1    3    3    0    0  0.33862419508E+03 -0.16072506966E+03  0.52481849587E+03  0.64492895600E+03  0.10566000000E+00 0.  1.
          4    1    3    3  501    0 -0.55720179044E+03  0.34328589651E+03  0.53474831364E+03  0.84514779829E+03  0.00000000000E+00 0.  1.
         13    1    1    2    0    0  0.21857759536E+03 -0.18256082685E+03 -0.26548868900E+03  0.38934416118E+03  0.10566000000E+00 0. -1.
<mgrwt>
<rscale>  1 0.75649176E+03</rscale>
<asrwt>0</asrwt>
<pdfrwt beam="1">  1       21 0.20565377E+00 0.10476865E+04</pdfrwt>
<pdfrwt beam="2">  1        4 0.83487907E-01 0.10476865E+04</pdfrwt>
<totfact> 0.52192446E+00</totfact>
</mgrwt>
</event>
<event>
 6    1  0.1375310E-005  0.1053731E+04  0.7818608E-02  0.9573246E-01
         21   -1    0    0  501  502  0.00000000000E+00  0.00000000000E+00  0.38952660038E+03  0.38952660038E+03  0.00000000000E+00 0.  1.
          4   -1    0    0  502    0 -0.00000000000E+00 -0.00000000000E+00 -0.13645080851E+04  0.13645080851E+04  0.00000000000E+00 0.  1.
    9000010    2    1    2  501    0  0.17493506198E+02 -0.33400852837E+03 -0.48306209509E+03  0.11591797310E+04  0.99924018200E+03 0.  0.
        -13    1    3    3    0    0  0.31314289376E+03 -0.57033643039E+03 -0.42270676389E+03  0.77590149835E+03  0.10566000000E+00 0.  1.
          4    1    3    3  501    0 -0.29564938756E+03  0.23632790203E+03 -0.60355331201E+02  0.38327823268E+03  0.00000000000E+00 0.  1.
         13    1    1    2    0    0 -0.17493506198E+02  0.33400852837E+03 -0.49191938961E+03  0.59485495444E+03  0.10566000000E+00 0. -1.
<mgrwt>
<rscale>  1 0.79092512E+03</rscale>
<asrwt>0</asrwt>
<pdfrwt beam="1">  1       21 0.59927171E-01 0.10537308E+04</pdfrwt>
<pdfrwt beam="2">  1        4 0.20992432E+00 0.10537308E+04</pdfrwt>
<totfact> 0.11375299E+01</totfact>
</mgrwt>
</event>
<event>
 6    1  0.1375310E-005  0.1127317E+04  0.7818608E-02  0.9425810E-01
         21   -1    0    0  501  502  0.00000000000E+00  0.00000000000E+00  0.50325636917E+03  0.50325636917E+03  0.00000000000E+00 0.  1.
          4   -1    0    0  502    0 -0.00000000000E+00 -0.00000000000E+00 -0.12984798442E+04  0.12984798442E+04  0.00000000000E+00 0.  1.
    9000010    2    1    2  501    0  0.44036428295E+03  0.12437752533E+03 -0.39715446492E+03  0.11952303037E+04  0.10302685763E+04 0.  0.
        -13    1    3    3    0    0  0.93691111970E+02 -0.33774779740E+03  0.16656053663E+03  0.38806445681E+03  0.10566000000E+00 0.  1.
          4    1    3    3  501    0  0.34667317098E+03  0.46212532273E+03 -0.56371500156E+03  0.80716584688E+03  0.00000000000E+00 0.  1.
         13    1    1    2    0    0 -0.44036428295E+03 -0.12437752533E+03 -0.39806901012E+03  0.60650590969E+03  0.10566000000E+00 0. -1.
<mgrwt>
<rscale>  1 0.89981698E+03</rscale>
<asrwt>0</asrwt>
<pdfrwt beam="1">  1       21 0.77424056E-01 0.11273171E+04</pdfrwt>
<pdfrwt beam="2">  1        4 0.19976613E+00 0.11273171E+04</pdfrwt>
<totfact> 0.73281539E+00</totfact>
</mgrwt>
</event>
<event>
 6    1  0.1375310E-005  0.1060479E+04  0.7818608E-02  0.9560690E-01
          4   -1    0    0  502    0 -0.00000000000E+00  0.00000000000E+00  0.12607882664E+04  0.12607882664E+04  0.00000000000E+00 0.  1.
         21   -1    0    0  501  502  0.00000000000E+00 -0.00000000000E+00 -0.39079403169E+03  0.39079403169E+03  0.00000000000E+00 0.  1.
    9000010    2    1    2  501    0  0.17956444923E+03  0.29182550853E+03  0.63427212286E+03  0.12356851425E+04  0.10035990866E+04 0.  0.
        -13    1    3    3    0    0  0.31855218505E+03 -0.11534676757E+03 -0.12653558459E+03  0.36165126395E+03  0.10566000000E+00 0.  1.
          4    1    3    3  501    0 -0.13898773581E+03  0.40717227609E+03  0.76080770745E+03  0.87403387854E+03  0.00000000000E+00 0.  1.
         13    1    1    2    0    0 -0.17956444923E+03 -0.29182550853E+03  0.23572211186E+03  0.41589715561E+03  0.10566000000E+00 0. -1.
<mgrwt>
<rscale>  1 0.79953551E+03</rscale>
<asrwt>0</asrwt>
<pdfrwt beam="2">  1       21 0.60122159E-01 0.10604794E+04</pdfrwt>
<pdfrwt beam="1">  1        4 0.19396742E+00 0.10604794E+04</pdfrwt>
<totfact> 0.14384079E+01</totfact>
</mgrwt>
</event>
<event>
 6    1  0.1375310E-005  0.1013438E+04  0.7818608E-02  0.9917017E-01
         21   -1    0    0  501  502  0.00000000000E+00  0.00000000000E+00  0.78597953669E+03  0.78597953669E+03  0.00000000000E+00 0.  1.
          4   -1    0    0  502    0 -0.00000000000E+00 -0.00000000000E+00 -0.47282882634E+03  0.47282882634E+03  0.00000000000E+00 0.  1.
    9000010    2    1    2  501    0  0.79558673401E+02 -0.89779229754E+02  0.42108738494E+03  0.10974385099E+04  0.10063134724E+04 0.  0.
        -13    1    3    3    0    0 -0.27673085841E+03 -0.33387033649E+03  0.49629271536E+03  0.65905678061E+03  0.10566000000E+00 0.  1.
          4    1    3    3  501    0  0.35628953181E+03  0.24409110673E+03 -0.75205330424E+02  0.43838172931E+03  0.00000000000E+00 0.  1.
         13    1    1    2    0    0 -0.79558673401E+02  0.89779229754E+02 -0.10793667459E+03  0.16136985311E+03  0.10566000000E+00 0. -1.
<mgrwt>
<rscale>  1 0.59443606E+03</rscale>
<asrwt>0</asrwt>
<pdfrwt beam="1">  1       21 0.12091993E+00 0.10134381E+04</pdfrwt>
<pdfrwt beam="2">  1        4 0.72742896E-01 0.10134381E+04</pdfrwt>
<totfact> 0.32911637E+01</totfact>
</mgrwt>
</event>
<event>
 6    1  0.1375310E-005  0.9069547E+03  0.7818608E-02  0.1005656E+00
          4   -1    0    0  502    0 -0.00000000000E+00  0.00000000000E+00  0.14721769651E+04  0.14721769651E+04  0.00000000000E+00 0.  1.
         21   -1    0    0  501  502  0.00000000000E+00 -0.00000000000E+00 -0.20338085657E+03  0.20338085657E+03  0.00000000000E+00 0.  1.
    9000010    2    1    2  501    0  0.49485339272E+02 -0.95635160760E+02  0.84953312473E+03  0.12426879295E+04  0.90053977003E+03 0.  0.
        -13    1    3    3    0    0 -0.20335638828E+03  0.29484050983E+03  0.63800302336E+03  0.73166427811E+03  0.10566000000E+00 0.  1.
          4    1    3    3  501    0  0.25284172755E+03 -0.39047567059E+03  0.21153010137E+03  0.51102365142E+03  0.00000000000E+00 0.  1.
         13    1    1    2    0    0 -0.49485339272E+02  0.95635160760E+02  0.41926298377E+03  0.43286989212E+03  0.10566000000E+00 0. -1.
<mgrwt>
<rscale>  1 0.53238098E+03</rscale>
<asrwt>0</asrwt>
<pdfrwt beam="2">  1       21 0.31289364E-01 0.90695466E+03</pdfrwt>
<pdfrwt beam="1">  1        4 0.22648876E+00 0.90695466E+03</pdfrwt>
<totfact> 0.35891493E+01</totfact>
</mgrwt>
</event>
<event>
 6    1  0.1375310E-005  0.1274582E+04  0.7818608E-02  0.9220102E-01
          4   -1    0    0  502    0 -0.00000000000E+00  0.00000000000E+00  0.10633210271E+04  0.10633210271E+04  0.00000000000E+00 0.  1.
         21   -1    0    0  501  502  0.00000000000E+00 -0.00000000000E+00 -0.11208611495E+04  0.11208611495E+04  0.00000000000E+00 0. -1.
    9000010    2    1    2  501    0  0.54130460010E+03 -0.39292355064E+03  0.44233183529E+03  0.13491542896E+04  0.10849701646E+04 0.  0.
        -13    1    3    3    0    0  0.86960270189E+03 -0.36689127711E+03  0.35558524383E+03  0.10085925566E+04  0.10566000000E+00 0.  1.
          4    1    3    3  501    0 -0.32829810179E+03 -0.26032273522E+02  0.86746591463E+02  0.34056173308E+03  0.00000000000E+00 0.  1.
         13    1    1    2    0    0 -0.54130460010E+03  0.39292355064E+03 -0.49987195773E+03  0.83502788697E+03  0.10566000000E+00 0. -1.
<mgrwt>
<rscale>  1 0.10848330E+04</rscale>
<asrwt>0</asrwt>
<pdfrwt beam="2">  1       21 0.17244018E+00 0.12745822E+04</pdfrwt>
<pdfrwt beam="1">  1        4 0.16358785E+00 0.12745822E+04</pdfrwt>
<totfact> 0.16014746E+00</totfact>
</mgrwt>
</event>
<event>
 6    1  0.1375310E-005  0.1010797E+04  0.7818608E-02  0.1027949E+00
         21   -1    0    0  501  502  0.00000000000E+00  0.00000000000E+00  0.53956783634E+03  0.53956783634E+03  0.00000000000E+00 0.  1.
          4   -1    0    0  502    0 -0.00000000000E+00 -0.00000000000E+00 -0.68821303053E+03  0.68821303053E+03  0.00000000000E+00 0.  1.
    9000010    2    1    2  501    0  0.69427944469E+01  0.38822763307E+02  0.62745888294E+02  0.10127422418E+04  0.10100269266E+04 0.  0.
        -13    1    3    3    0    0  0.23253121116E+03  0.19863904027E+03  0.44563243070E+03  0.54047803558E+03  0.10566000000E+00 0.  1.
          4    1    3    3  501    0 -0.22558841671E+03 -0.15981627696E+03 -0.38288654241E+03  0.47226420624E+03  0.00000000000E+00 0.  1.
         13    1    1    2    0    0 -0.69427944469E+01 -0.38822763307E+02 -0.21139108249E+03  0.21503862506E+03  0.10566000000E+00 0. -1.
<mgrwt>
<rscale>  1 0.44924041E+03</rscale>
<asrwt>0</asrwt>
<pdfrwt beam="1">  1       21 0.83010436E-01 0.10107966E+04</pdfrwt>
<pdfrwt beam="2">  1        4 0.10587893E+00 0.10107966E+04</pdfrwt>
<totfact> 0.34708862E+01</totfact>
</mgrwt>
</event>
<event>
 6    1  0.1375310E-005  0.1071119E+04  0.7818608E-02  0.9522851E-01
          4   -1    0    0  502    0 -0.00000000000E+00  0.00000000000E+00  0.14429632736E+04  0.14429632736E+04  0.00000000000E+00 0.  1.
         21   -1    0    0  501  502  0.00000000000E+00 -0.00000000000E+00 -0.50101222486E+03  0.50101222486E+03  0.00000000000E+00 0.  1.
    9000010    2    1    2  501    0 -0.19987511409E+03 -0.32220116521E+03  0.17079975284E+03  0.10846513545E+04  0.10017646196E+04 0.  0.
        -13    1    3    3    0    0  0.34618666741E+03 -0.38178599882E+03  0.14209126346E+03  0.53459863066E+03  0.10566000000E+00 0.  1.
          4    1    3    3  501    0 -0.54606178151E+03  0.59584833608E+02  0.28708489383E+02  0.55005272382E+03  0.00000000000E+00 0.  1.
         13    1    1    2    0    0  0.19987511409E+03  0.32220116521E+03  0.77115129593E+03  0.85932414401E+03  0.10566000000E+00 0. -1.
<mgrwt>
<rscale>  1 0.82619859E+03</rscale>
<asrwt>0</asrwt>
<pdfrwt beam="2">  1       21 0.77078804E-01 0.10711190E+04</pdfrwt>
<pdfrwt beam="1">  1        4 0.22199435E+00 0.10711190E+04</pdfrwt>
<totfact> 0.53445015E+00</totfact>
</mgrwt>
</event>
<event>
 6    1  0.1375310E-005  0.1032497E+04  0.7818608E-02  0.9761777E-01
          4   -1    0    0  502    0 -0.00000000000E+00  0.00000000000E+00  0.35884462301E+03  0.35884462301E+03  0.00000000000E+00 0.  1.
         21   -1    0    0  501  502  0.00000000000E+00 -0.00000000000E+00 -0.10551360438E+04  0.10551360438E+04  0.00000000000E+00 0.  1.
    9000010    2    1    2  501    0 -0.15840521508E+03  0.10143245989E+03 -0.51943005900E+03  0.11557933152E+04  0.10152191119E+04 0.  0.
        -13    1    3    3    0    0 -0.19902911665E+03  0.51418461698E+03 -0.89780885840E+02  0.55862243800E+03  0.10566000000E+00 0.  1.
          4    1    3    3  501    0  0.40623901570E+02 -0.41275215709E+03 -0.42964917315E+03  0.59717087718E+03  0.00000000000E+00 0.  1.
         13    1    1    2    0    0  0.15840521508E+03 -0.10143245989E+03 -0.17686136183E+03  0.25818735166E+03  0.10566000000E+00 0. -1.
<mgrwt>
<rscale>  1 0.67454766E+03</rscale>
<asrwt>0</asrwt>
<pdfrwt beam="2">  1       21 0.16232862E+00 0.10324973E+04</pdfrwt>
<pdfrwt beam="1">  1        4 0.55206865E-01 0.10324973E+04</pdfrwt>
<totfact> 0.26977006E+01</totfact>
</mgrwt>
</event>
<event>
 6    1  0.1375310E-005  0.8693089E+03  0.7818608E-02  0.9691056E-01
         21   -1    0    0  501  502  0.00000000000E+00  0.00000000000E+00  0.89370422602E+03  0.89370422602E+03  0.00000000000E+00 0.  1.
          4   -1    0    0  502    0 -0.00000000000E+00 -0.00000000000E+00 -0.45691617284E+03  0.45691617284E+03  0.00000000000E+00 0.  1.
    9000010    2    1    2  501    0  0.34555618227E+03  0.19945513507E+03  0.37554537725E+03  0.94695952321E+03  0.77233838582E+03 0.  0.
        -13    1    3    3    0    0 -0.63390852980E+02  0.34105182591E+03  0.37952645827E+03  0.51417418439E+03  0.10566000000E+00 0.  1.
          4    1    3    3  501    0  0.40894703525E+03 -0.14159669084E+03 -0.39810810199E+01  0.43278533882E+03  0.00000000000E+00 0.  1.
         13    1    1    2    0    0 -0.34555618227E+03 -0.19945513507E+03  0.61242675930E+02  0.40366087565E+03  0.10566000000E+00 0. -1.
<mgrwt>
<rscale>  1 0.71551801E+03</rscale>
<asrwt>0</asrwt>
<pdfrwt beam="1">  1       21 0.13749296E+00 0.86930893E+03</pdfrwt>
<pdfrwt beam="2">  1        4 0.70294796E-01 0.86930893E+03</pdfrwt>
<totfact> 0.25683070E+01</totfact>
</mgrwt>
</event>
<event>
 6    1  0.1375310E-005  0.1011353E+04  0.7818608E-02  0.9823827E-01
          4   -1    0    0  502    0 -0.00000000000E+00  0.00000000000E+00  0.25816889940E+04  0.25816889940E+04  0.00000000000E+00 0.  1.
         21   -1    0    0  501  502  0.00000000000E+00 -0.00000000000E+00 -0.14080896724E+03  0.14080896724E+03  0.00000000000E+00 0.  1.
    9000010    2    1    2  501    0 -0.53008406651E+02 -0.15434624636E+03  0.22756359862E+04  0.24902518439E+04  0.99809941843E+03 0.  0.
        -13    1    3    3    0    0 -0.36100151895E+03 -0.87307982896E+02  0.20935371112E+04  0.21262272756E+04  0.10566000000E+00 0.  1.
          4    1    3    3  501    0  0.30799311230E+03 -0.67038263467E+02  0.18209887507E+03  0.36402456826E+03  0.00000000000E+00 0.  1.
         13    1    1    2    0    0  0.53008406651E+02  0.15434624636E+03  0.16524404052E+03  0.23224611737E+03  0.10566000000E+00 0. -1.
<mgrwt>
<rscale>  1 0.64099404E+03</rscale>
<asrwt>0</asrwt>
<pdfrwt beam="2">  1       21 0.21662920E-01 0.10113531E+04</pdfrwt>
<pdfrwt beam="1">  1        4 0.39718289E+00 0.10113531E+04</pdfrwt>
<totfact> 0.60506741E+00</totfact>
</mgrwt>
</event>
<event>
 6    1  0.1375310E-005  0.1032519E+04  0.7818608E-02  0.9803164E-01
          4   -1    0    0  502    0 -0.00000000000E+00  0.00000000000E+00  0.12166950626E+04  0.12166950626E+04  0.00000000000E+00 0.  1.
         21   -1    0    0  501  502  0.00000000000E+00 -0.00000000000E+00 -0.45061107913E+03  0.45061107913E+03  0.00000000000E+00 0.  1.
    9000010    2    1    2  501    0 -0.13011077534E+03 -0.10000088789E+03  0.16673159595E+03  0.10458946138E+04  0.10193954712E+04 0.  0.
        -13    1    3    3    0    0  0.18569628278E+03 -0.48674628230E+03  0.16538587079E+03  0.54658718443E+03  0.10566000000E+00 0.  1.
          4    1    3    3  501    0 -0.31580705812E+03  0.38674539440E+03  0.13457251622E+01  0.49930742937E+03  0.00000000000E+00 0.  1.
         13    1    1    2    0    0  0.13011077534E+03  0.10000088789E+03  0.59935238755E+03  0.62141152795E+03  0.10566000000E+00 0. -1.
<mgrwt>
<rscale>  1 0.65193030E+03</rscale>
<asrwt>0</asrwt>
<pdfrwt beam="2">  1       21 0.69324782E-01 0.10325193E+04</pdfrwt>
<pdfrwt beam="1">  1        4 0.18718385E+00 0.10325193E+04</pdfrwt>
<totfact> 0.11623030E+01</totfact>
</mgrwt>
</event>
<event>
 6    1  0.1375310E-005  0.1009939E+04  0.7818608E-02  0.9914668E-01
          4   -1    0    0  502    0 -0.00000000000E+00  0.00000000000E+00  0.23604871025E+03  0.23604871025E+03  0.00000000000E+00 0.  1.
         21   -1    0    0  501  502  0.00000000000E+00 -0.00000000000E+00 -0.14544458825E+04  0.14544458825E+04  0.00000000000E+00 0.  1.
    9000010    2    1    2  501    0 -0.10679589087E+03 -0.59239428855E+02 -0.11976254008E+04  0.15666150146E+04  0.10025274714E+04 0.  0.
        -13    1    3    3    0    0 -0.61084524085E+02  0.44631444750E+03 -0.81402621779E+03  0.93035831783E+03  0.10566000000E+00 0.  1.
          4    1    3    3  501    0 -0.45711366783E+02 -0.50555387635E+03 -0.38359918300E+03  0.63625669674E+03  0.00000000000E+00 0.  1.
         13    1    1    2    0    0  0.10679589087E+03  0.59239428855E+02 -0.20771771438E+02  0.12387957818E+03  0.10566000000E+00 0. -1.
<mgrwt>
<rscale>  1 0.59555653E+03</rscale>
<asrwt>0</asrwt>
<pdfrwt beam="2">  1       21 0.22376090E+00 0.10099386E+04</pdfrwt>
<pdfrwt beam="1">  1        4 0.36315187E-01 0.10099386E+04</pdfrwt>
<totfact> 0.23825992E+01</totfact>
</mgrwt>
</event>
<event>
 6    1  0.1375310E-005  0.1171839E+04  0.7818608E-02  0.9343076E-01
         21   -1    0    0  501  502  0.00000000000E+00  0.00000000000E+00  0.53552181656E+03  0.53552181656E+03  0.00000000000E+00 0. -1.
          4   -1    0    0  502    0 -0.00000000000E+00 -0.00000000000E+00 -0.13961484093E+04  0.13961484093E+04  0.00000000000E+00 0.  1.
    9000010    2    1    2  501    0 -0.27902910978E+03  0.47182997134E+03 -0.49108593507E+03  0.12705794040E+04  0.10357247995E+04 0.  0.
        -13    1    3    3    0    0 -0.19424141355E+03  0.78964183078E+03 -0.21495344652E+03  0.84111173038E+03  0.10566000000E+00 0.  1.
          4    1    3    3  501    0 -0.84787696227E+02 -0.31781185944E+03 -0.27613248856E+03  0.42946767360E+03  0.00000000000E+00 0.  1.
         13    1    1    2    0    0  0.27902910978E+03 -0.47182997134E+03 -0.36954065769E+03  0.66109082191E+03  0.10566000000E+00 0. -1.
<mgrwt>
<rscale>  1 0.96912109E+03</rscale>
<asrwt>0</asrwt>
<pdfrwt beam="1">  1       21 0.82387971E-01 0.11718390E+04</pdfrwt>
<pdfrwt beam="2">  1        4 0.21479206E+00 0.11718390E+04</pdfrwt>
<totfact> 0.50217670E+00</totfact>
</mgrwt>
</event>
<event>
 6    1  0.1375310E-005  0.1156193E+04  0.7818608E-02  0.9326005E-01
          4   -1    0    0  502    0 -0.00000000000E+00  0.00000000000E+00  0.10961029141E+04  0.10961029141E+04  0.00000000000E+00 0.  1.
         21   -1    0    0  501  502  0.00000000000E+00 -0.00000000000E+00 -0.82103492647E+03  0.82103492647E+03  0.00000000000E+00 0. -1.
    9000010    2    1    2  501    0 -0.57757923182E+03 -0.18721708356E+03  0.51316398321E+03  0.12649586323E+04  0.98393854603E+03 0.  0.
        -13    1    3    3    0    0 -0.20406573776E+03  0.90429412815E+02 -0.27222455066E+03  0.35203198885E+03  0.10566000000E+00 0.  1.
          4    1    3    3  501    0 -0.37351349406E+03 -0.27764649638E+03  0.78538853387E+03  0.91292664345E+03  0.00000000000E+00 0.  1.
         13    1    1    2    0    0  0.57757923182E+03  0.18721708356E+03 -0.23809599559E+03  0.65217920826E+03  0.10566000000E+00 0. -1.
<mgrwt>
<rscale>  1 0.98423633E+03</rscale>
<asrwt>0</asrwt>
<pdfrwt beam="2">  1       21 0.12631307E+00 0.11561934E+04</pdfrwt>
<pdfrwt beam="1">  1        4 0.16863122E+00 0.11561934E+04</pdfrwt>
<totfact> 0.35608393E+00</totfact>
</mgrwt>
</event>
<event>
 6    1  0.1375310E-005  0.1029990E+04  0.7818608E-02  0.9665272E-01
         21   -1    0    0  501  502  0.00000000000E+00  0.00000000000E+00  0.72896491008E+03  0.72896491008E+03  0.00000000000E+00 0.  1.
          4   -1    0    0  502    0 -0.00000000000E+00 -0.00000000000E+00 -0.57221208865E+03  0.57221208865E+03  0.00000000000E+00 0.  1.
    9000010    2    1    2  501    0  0.14740143211E+02  0.26122757024E+03  0.11964090533E+03  0.10369149682E+04  0.99620358856E+03 0.  0.
        -13    1    3    3    0    0  0.25188936966E+03 -0.30265660575E+03  0.15733295407E+03  0.42403177375E+03  0.10566000000E+00 0.  1.
          4    1    3    3  501    0 -0.23714922645E+03  0.56388417600E+03 -0.37692048743E+02  0.61288319448E+03  0.00000000000E+00 0.  1.
         13    1    1    2    0    0 -0.14740143211E+02 -0.26122757024E+03  0.37111916105E+02  0.26426203049E+03  0.10566000000E+00 0. -1.
<mgrwt>
<rscale>  1 0.73122669E+03</rscale>
<asrwt>0</asrwt>
<pdfrwt beam="1">  1       21 0.11214845E+00 0.10299897E+04</pdfrwt>
<pdfrwt beam="2">  1        4 0.88032629E-01 0.10299897E+04</pdfrwt>
<totfact> 0.25719700E+01</totfact>
</mgrwt>
</event>
<event>
 6    1  0.1375310E-005  0.1062703E+04  0.7818608E-02  0.9545125E-01
         21   -1    0    0  501  502  0.00000000000E+00  0.00000000000E+00  0.10926837539E+04  0.10926837539E+04  0.00000000000E+00 0.  1.
          4   -1    0    0  502    0 -0.00000000000E+00 -0.00000000000E+00 -0.46449621625E+03  0.46449621625E+03  0.00000000000E+00 0.  1.
    9000010    2    1    2  501    0 -0.18758579592E+03  0.30648597558E+03  0.51133260828E+03  0.11793213064E+04  0.10001078059E+04 0.  0.
        -13    1    3    3    0    0 -0.44064134113E+03 -0.17250382541E+03  0.41436542097E+03  0.62898416081E+03  0.10566000000E+00 0.  1.
          4    1    3    3  501    0  0.25305554520E+03  0.47898980099E+03  0.96967187313E+02  0.55033714560E+03  0.00000000000E+00 0.  1.
         13    1    1    2    0    0  0.18758579592E+03 -0.30648597558E+03  0.11685492932E+03  0.37785866369E+03  0.10566000000E+00 0. -1.
<mgrwt>
<rscale>  1 0.81037122E+03</rscale>
<asrwt>0</asrwt>
<pdfrwt beam="1">  1       21 0.16810519E+00 0.10627030E+04</pdfrwt>
<pdfrwt beam="2">  1        4 0.71460957E-01 0.10627030E+04</pdfrwt>
<totfact> 0.13779274E+01</totfact>
</mgrwt>
</event>
<event>
 6    1  0.1375310E-005  0.9844695E+03  0.7818608E-02  0.9973813E-01
          4   -1    0    0  502    0 -0.00000000000E+00  0.00000000000E+00  0.22393414588E+04  0.22393414588E+04  0.00000000000E+00 0.  1.
         21   -1    0    0  501  502  0.00000000000E+00 -0.00000000000E+00 -0.15485633590E+03  0.15485633590E+03  0.00000000000E+00 0.  1.
    9000010    2    1    2  501    0 -0.10540166895E+03 -0.28528738033E+02  0.14642796001E+04  0.17644531620E+04  0.97839501890E+03 0.  0.
        -13    1    3    3    0    0 -0.17982985475E+03 -0.37973134005E+03  0.13063371646E+04  0.13722432241E+04  0.10566000000E+00 0.  1.
          4    1    3    3  501    0  0.74428185802E+02  0.35120260202E+03  0.15794243554E+03  0.39220993798E+03  0.00000000000E+00 0.  1.
         13    1    1    2    0    0  0.10540166895E+03  0.28528738033E+02  0.62020552278E+03  0.62974463266E+03  0.10566000000E+00 0. -1.
<mgrwt>
<rscale>  1 0.56813530E+03</rscale>
<asrwt>0</asrwt>
<pdfrwt beam="2">  1       21 0.23824053E-01 0.98446951E+03</pdfrwt>
<pdfrwt beam="1">  1        4 0.34451405E+00 0.98446951E+03</pdfrwt>
<totfact> 0.11293314E+01</totfact>
</mgrwt>
</event>
<event>
 6    1  0.1375310E-005  0.1098621E+04  0.7818608E-02  0.9434544E-01
          4   -1    0    0  502    0 -0.00000000000E+00  0.00000000000E+00  0.60311396214E+03  0.60311396214E+03  0.00000000000E+00 0.  1.
         21   -1    0    0  501  502  0.00000000000E+00 -0.00000000000E+00 -0.19822989174E+04  0.19822989174E+04  0.00000000000E+00 0.  1.
    9000010    2    1    2  501    0 -0.44434276324E+03 -0.17967092337E+03 -0.16888828018E+04  0.20147685952E+04  0.98855715160E+03 0.  0.
        -13    1    3    3    0    0 -0.75134553022E+03 -0.10990102542E+03 -0.13717755864E+04  0.15679179225E+04  0.10566000000E+00 0.  1.
          4    1    3    3  501    0  0.30700276698E+03 -0.69769897944E+02 -0.31710721540E+03  0.44685067266E+03  0.00000000000E+00 0.  1.
         13    1    1    2    0    0  0.44434276324E+03  0.17967092337E+03  0.30969784654E+03  0.57064428435E+03  0.10566000000E+00 0. -1.
<mgrwt>
<rscale>  1 0.89286579E+03</rscale>
<asrwt>0</asrwt>
<pdfrwt beam="2">  1       21 0.30496906E+00 0.10986207E+04</pdfrwt>
<pdfrwt beam="1">  1        4 0.92786763E-01 0.10986207E+04</pdfrwt>
<totfact> 0.93501356E-01</totfact>
</mgrwt>
</event>
<event>
 6    1  0.1375310E-005  0.1007793E+04  0.7818608E-02  0.9822680E-01
          4   -1    0    0  502    0 -0.00000000000E+00  0.00000000000E+00  0.14841074160E+03  0.14841074160E+03  0.00000000000E+00 0.  1.
         21   -1    0    0  501  502  0.00000000000E+00 -0.00000000000E+00 -0.25728790622E+04  0.25728790622E+04  0.00000000000E+00 0.  1.
    9000010    2    1    2  501    0 -0.16293429407E+03  0.29314506564E+02 -0.23092844663E+04  0.25196112081E+04  0.99410209205E+03 0.  0.
        -13    1    3    3    0    0 -0.46961349804E+03 -0.29454431285E+03 -0.11260265399E+04  0.12550812601E+04  0.10566000000E+00 0.  1.
          4    1    3    3  501    0  0.30667920397E+03  0.32385881941E+03 -0.11832579264E+04  0.12645299481E+04  0.00000000000E+00 0.  1.
         13    1    1    2    0    0  0.16293429407E+03 -0.29314506564E+02 -0.11518385426E+03  0.20167859561E+03  0.10566000000E+00 0. -1.
<mgrwt>
<rscale>  1 0.64159494E+03</rscale>
<asrwt>0</asrwt>
<pdfrwt beam="2">  1       21 0.39582757E+00 0.10077926E+04</pdfrwt>
<pdfrwt beam="1">  1        4 0.22832421E-01 0.10077926E+04</pdfrwt>
<totfact> 0.47923827E+00</totfact>
</mgrwt>
</event>
<event>
 6    1  0.1375310E-005  0.1174744E+04  0.7818608E-02  0.9402603E-01
          4   -1    0    0  502    0 -0.00000000000E+00  0.00000000000E+00  0.27634013345E+03  0.27634013345E+03  0.00000000000E+00 0.  1.
         21   -1    0    0  501  502  0.00000000000E+00 -0.00000000000E+00 -0.24096149153E+04  0.24096149153E+04  0.00000000000E+00 0.  1.
    9000010    2    1    2  501    0  0.29539868684E+03 -0.32508159358E+03 -0.17197342143E+04  0.20826688490E+04  0.10895344602E+04 0.  0.
        -13    1    3    3    0    0  0.70724624151E+03 -0.23877465983E+03 -0.98396247003E+03  0.12350679082E+04  0.10566000000E+00 0.  1.
          4    1    3    3  501    0 -0.41184755467E+03 -0.86306933749E+02 -0.73577174432E+03  0.84760094080E+03  0.00000000000E+00 0.  1.
         13    1    1    2    0    0 -0.29539868684E+03  0.32508159358E+03 -0.41354056748E+03  0.60328619973E+03  0.10566000000E+00 0. -1.
<mgrwt>
<rscale>  1 0.91861770E+03</rscale>
<asrwt>0</asrwt>
<pdfrwt beam="2">  1       21 0.37071000E+00 0.11747441E+04</pdfrwt>
<pdfrwt beam="1">  1        4 0.42513865E-01 0.11747441E+04</pdfrwt>
<totfact> 0.19828770E+00</totfact>
</mgrwt>
</event>
<event>
 6    1  0.1375310E-005  0.1093796E+04  0.7818608E-02  0.9499193E-01
          4   -1    0    0  502    0 -0.00000000000E+00  0.00000000000E+00  0.16616932880E+04  0.16616932880E+04  0.00000000000E+00 0.  1.
         21   -1    0    0  501  502  0.00000000000E+00 -0.00000000000E+00 -0.35671556722E+03  0.35671556722E+03  0.00000000000E+00 0.  1.
    9000010    2    1    2  501    0  0.38601103481E+03 -0.23362318772E+02  0.11869627178E+04  0.16140848897E+04  0.10231516119E+04 0.  0.
        -13    1    3    3    0    0 -0.17306976454E+03  0.33470467160E+03  0.20561426174E+03  0.42925236911E+03  0.10566000000E+00 0.  1.
          4    1    3    3  501    0  0.55908079935E+03 -0.35806699037E+03  0.98134845604E+03  0.11848325206E+04  0.00000000000E+00 0.  1.
         13    1    1    2    0    0 -0.38601103481E+03  0.23362318772E+02  0.11801500295E+03  0.40432396543E+03  0.10566000000E+00 0. -1.
<mgrwt>
<rscale>  1 0.84343322E+03</rscale>
<asrwt>0</asrwt>
<pdfrwt beam="2">  1       21 0.54879319E-01 0.10937959E+04</pdfrwt>
<pdfrwt beam="1">  1        4 0.25564512E+00 0.10937959E+04</pdfrwt>
<totfact> 0.70831837E+00</totfact>
</mgrwt>
</event>
<event>
 6    1  0.1375310E-005  0.1163898E+04  0.7818608E-02  0.9410297E-01
          4   -1    0    0  502    0 -0.00000000000E+00  0.00000000000E+00  0.10292374791E+04  0.10292374791E+04  0.00000000000E+00 0.  1.
         21   -1    0    0  501  502  0.00000000000E+00 -0.00000000000E+00 -0.76009878233E+03  0.76009878233E+03  0.00000000000E+00 0. -1.
    9000010    2    1    2  501    0  0.39482492264E+03  0.19284726439E+03  0.52939678274E+03  0.12786396104E+04  0.10777669102E+04 0.  0.
        -13    1    3    3    0    0  0.22921014114E+03 -0.13655697572E+03 -0.28150608499E+03  0.38785407496E+03  0.10566000000E+00 0.  1.
          4    1    3    3  501    0  0.16561478150E+03  0.32940424011E+03  0.81090286773E+03  0.89078553544E+03  0.00000000000E+00 0.  1.
         13    1    1    2    0    0 -0.39482492264E+03 -0.19284726439E+03 -0.26025808595E+03  0.51069665104E+03  0.10566000000E+00 0. -1.
<mgrwt>
<rscale>  1 0.91233109E+03</rscale>
<asrwt>0</asrwt>
<pdfrwt beam="2">  1       21 0.11693827E+00 0.11638979E+04</pdfrwt>
<pdfrwt beam="1">  1        4 0.15834423E+00 0.11638979E+04</pdfrwt>
<totfact> 0.51879401E+00</totfact>
</mgrwt>
</event>
<event>
 6    1  0.1375310E-005  0.1015717E+04  0.7818608E-02  0.9908706E-01
          4   -1    0    0  502    0 -0.00000000000E+00  0.00000000000E+00  0.10086724565E+04  0.10086724565E+04  0.00000000000E+00 0.  1.
         21   -1    0    0  501  502  0.00000000000E+00 -0.00000000000E+00 -0.44312533097E+03  0.44312533097E+03  0.00000000000E+00 0.  1.
    9000010    2    1    2  501    0 -0.94058790168E+02  0.78280638107E+02  0.16006461462E+03  0.10282520495E+04  0.10083187404E+04 0.  0.
        -13    1    3    3    0    0  0.10112715690E+03 -0.21597428190E+03 -0.34048187388E+03  0.41569160433E+03  0.10566000000E+00 0.  1.
          4    1    3    3  501    0 -0.19518594707E+03  0.29425492001E+03  0.50054648850E+03  0.61256044521E+03  0.00000000000E+00 0.  1.
         13    1    1    2    0    0  0.94058790168E+02 -0.78280638107E+02  0.40548251091E+03  0.42354573794E+03  0.10566000000E+00 0. -1.
<mgrwt>
<rscale>  1 0.59841189E+03</rscale>
<asrwt>0</asrwt>
<pdfrwt beam="2">  1       21 0.68173128E-01 0.10157173E+04</pdfrwt>
<pdfrwt beam="1">  1        4 0.15518038E+00 0.10157173E+04</pdfrwt>
<totfact> 0.20557689E+01</totfact>
</mgrwt>
</event>
<event>
 6    1  0.1375310E-005  0.1074439E+04  0.7818608E-02  0.9729021E-01
          4   -1    0    0  502    0 -0.00000000000E+00  0.00000000000E+00  0.31975356576E+03  0.31975356576E+03  0.00000000000E+00 0.  1.
         21   -1    0    0  501  502  0.00000000000E+00 -0.00000000000E+00 -0.13639158304E+04  0.13639158304E+04  0.00000000000E+00 0.  1.
    9000010    2    1    2  501    0  0.15520432821E+03  0.10269911983E+03 -0.10432018466E+04  0.14975607551E+04  0.10581978216E+04 0.  0.
        -13    1    3    3    0    0 -0.12724606357E+03  0.41430194331E+03 -0.72176372103E+02  0.43937125621E+03  0.10566000000E+00 0.  1.
          4    1    3    3  501    0  0.28245039178E+03 -0.31160282348E+03 -0.97102547448E+03  0.10581894989E+04  0.00000000000E+00 0.  1.
         13    1    1    2    0    0 -0.15520432821E+03 -0.10269911983E+03 -0.96041801557E+00  0.18610864105E+03  0.10566000000E+00 0. -1.
<mgrwt>
<rscale>  1 0.69314862E+03</rscale>
<asrwt>0</asrwt>
<pdfrwt beam="2">  1       21 0.20983320E+00 0.10744385E+04</pdfrwt>
<pdfrwt beam="1">  1        4 0.49192856E-01 0.10744385E+04</pdfrwt>
<totfact> 0.15669747E+01</totfact>
</mgrwt>
</event>
<event>
 6    1  0.1375310E-005  0.1061280E+04  0.7818608E-02  0.9578484E-01
          4   -1    0    0  502    0 -0.00000000000E+00  0.00000000000E+00  0.20337801333E+04  0.20337801333E+04  0.00000000000E+00 0.  1.
         21   -1    0    0  501  502  0.00000000000E+00 -0.00000000000E+00 -0.23545588381E+03  0.23545588381E+03  0.00000000000E+00 0.  1.
    9000010    2    1    2  501    0  0.27327143261E+03 -0.16942128435E+03  0.13395355977E+04  0.17089968845E+04  0.10114019411E+04 0.  0.
        -13    1    3    3    0    0  0.38256416861E+03  0.35701386023E+03  0.63885639929E+03  0.82580369918E+03  0.10566000000E+00 0.  1.
          4    1    3    3  501    0 -0.10929273600E+03 -0.52643514458E+03  0.70067919836E+03  0.88319318533E+03  0.00000000000E+00 0.  1.
         13    1    1    2    0    0 -0.27327143261E+03  0.16942128435E+03  0.45878865179E+03  0.56023913255E+03  0.10566000000E+00 0. -1.
<mgrwt>
<rscale>  1 0.78736740E+03</rscale>
<asrwt>0</asrwt>
<pdfrwt beam="2">  1       21 0.36223984E-01 0.10612798E+04</pdfrwt>
<pdfrwt beam="1">  1        4 0.31288924E+00 0.10612798E+04</pdfrwt>
<totfact> 0.76220092E+00</totfact>
</mgrwt>
</event>
<event>
 6    1  0.1375310E-005  0.1036172E+04  0.7818608E-02  0.9580809E-01
          4   -1    0    0  502    0 -0.00000000000E+00  0.00000000000E+00  0.93287035318E+03  0.93287035318E+03  0.00000000000E+00 0.  1.
         21   -1    0    0  501  502  0.00000000000E+00 -0.00000000000E+00 -0.54608031022E+03  0.54608031022E+03  0.00000000000E+00 0.  1.
    9000010    2    1    2  501    0  0.24232436116E+03  0.24235586285E+03  0.11695279581E+03  0.10427516132E+04  0.97785249918E+03 0.  0.
        -13    1    3    3    0    0 -0.36131363386E+03  0.49522616410E+02  0.17858759273E+03  0.40607089405E+03  0.10566000000E+00 0.  1.
          4    1    3    3  501    0  0.60363799502E+03  0.19283324644E+03 -0.61634796925E+02  0.63668071917E+03  0.00000000000E+00 0.  1.
         13    1    1    2    0    0 -0.24232436116E+03 -0.24235586285E+03  0.26983724715E+03  0.43619905018E+03  0.10566000000E+00 0. -1.
<mgrwt>
<rscale>  1 0.78579463E+03</rscale>
<asrwt>0</asrwt>
<pdfrwt beam="2">  1       21 0.84012356E-01 0.10361723E+04</pdfrwt>
<pdfrwt beam="1">  1        4 0.14351852E+00 0.10361723E+04</pdfrwt>
<totfact> 0.15554434E+01</totfact>
</mgrwt>
</event>
<event>
 6    1  0.1375310E-005  0.9856065E+03  0.7818608E-02  0.1039588E+00
         21   -1    0    0  501  502  0.00000000000E+00  0.00000000000E+00  0.10012521314E+04  0.10012521314E+04  0.00000000000E+00 0.  1.
          4   -1    0    0  502    0 -0.00000000000E+00 -0.00000000000E+00 -0.28579633362E+03  0.28579633362E+03  0.00000000000E+00 0.  1.
    9000010    2    1    2  501    0 -0.38521935556E+01  0.29947279782E+02  0.75193948947E+03  0.12396907847E+04  0.98514393203E+03 0.  0.
        -13    1    3    3    0    0  0.47475650391E+03 -0.10155390679E+03  0.31772736629E+03  0.58022204753E+03  0.10566000000E+00 0.  1.
          4    1    3    3  501    0 -0.47860869746E+03  0.13150118657E+03  0.43421212318E+03  0.65946873714E+03  0.00000000000E+00 0.  1.
         13    1    1    2    0    0  0.38521935556E+01 -0.29947279782E+02 -0.36483691703E+02  0.47357680326E+02  0.10566000000E+00 0. -1.
<mgrwt>
<rscale>  1 0.41234296E+03</rscale>
<asrwt>0</asrwt>
<pdfrwt beam="1">  1       21 0.15403879E+00 0.98560654E+03</pdfrwt>
<pdfrwt beam="2">  1        4 0.43968667E-01 0.98560654E+03</pdfrwt>
<totfact> 0.50835777E+01</totfact>
</mgrwt>
</event>
<event>
 6    1  0.1375310E-005  0.1037080E+04  0.7818608E-02  0.9653703E-01
          4   -1    0    0  502    0 -0.00000000000E+00  0.00000000000E+00  0.12368136784E+04  0.12368136784E+04  0.00000000000E+00 0.  1.
         21   -1    0    0  501  502  0.00000000000E+00 -0.00000000000E+00 -0.34508485879E+03  0.34508485879E+03  0.00000000000E+00 0.  1.
    9000010    2    1    2  501    0 -0.52072212089E+02  0.26140517607E+03  0.75136170127E+03  0.12806559100E+04  0.10022429708E+04 0.  0.
        -13    1    3    3    0    0 -0.33299878286E+03  0.15914499193E+03 -0.96625326846E+02  0.38151249363E+03  0.10566000000E+00 0.  1.
          4    1    3    3  501    0  0.28092657077E+03  0.10226018414E+03  0.84798702812E+03  0.89914341642E+03  0.00000000000E+00 0.  1.
         13    1    1    2    0    0  0.52072212089E+02 -0.26140517607E+03  0.14036711837E+03  0.30124262718E+03  0.10566000000E+00 0. -1.
<mgrwt>
<rscale>  1 0.73841474E+03</rscale>
<asrwt>0</asrwt>
<pdfrwt beam="2">  1       21 0.53089979E-01 0.10370801E+04</pdfrwt>
<pdfrwt beam="1">  1        4 0.19027903E+00 0.10370801E+04</pdfrwt>
<totfact> 0.20093755E+01</totfact>
</mgrwt>
</event>
<event>
 6    1  0.1375310E-005  0.1153653E+04  0.7818608E-02  0.9346321E-01
          4   -1    0    0  502    0 -0.00000000000E+00  0.00000000000E+00  0.37668015410E+03  0.37668015410E+03  0.00000000000E+00 0.  1.
         21   -1    0    0  501  502  0.00000000000E+00 -0.00000000000E+00 -0.22904353600E+04  0.22904353600E+04  0.00000000000E+00 0. -1.
    9000010    2    1    2  501    0 -0.86982581101E+02 -0.56108633526E+03 -0.76078793317E+03  0.13819239377E+04  0.10042567626E+04 0.  0.
        -13    1    3    3    0    0  0.76362403356E+02 -0.70932073981E+03 -0.87866713637E+03  0.11318228997E+04  0.10566000000E+00 0.  1.
          4    1    3    3  501    0 -0.16334498446E+03  0.14823440455E+03  0.11787920320E+03  0.25010103796E+03  0.00000000000E+00 0.  1.
         13    1    1    2    0    0  0.86982581101E+02  0.56108633526E+03 -0.11529672728E+04  0.12851915765E+04  0.10566000000E+00 0. -1.
<mgrwt>
<rscale>  1 0.96628034E+03</rscale>
<asrwt>0</asrwt>
<pdfrwt beam="2">  1       21 0.35237467E+00 0.11536531E+04</pdfrwt>
<pdfrwt beam="1">  1        4 0.57950793E-01 0.11536531E+04</pdfrwt>
<totfact> 0.13544335E+00</totfact>
</mgrwt>
</event>
<event>
 6    1  0.1375310E-005  0.1218019E+04  0.7818608E-02  0.9231494E-01
          4   -1    0    0  502    0 -0.00000000000E+00  0.00000000000E+00  0.17802284861E+04  0.17802284861E+04  0.00000000000E+00 0.  1.
         21   -1    0    0  501  502  0.00000000000E+00 -0.00000000000E+00 -0.71074587467E+03  0.71074587467E+03  0.00000000000E+00 0. -1.
    9000010    2    1    2  501    0  0.56610275972E+03 -0.46832202812E+03  0.30419840762E+02  0.12183985048E+04  0.97147912651E+03 0.  0.
        -13    1    3    3    0    0 -0.13784862850E+02  0.26613517650E+03 -0.74601398666E+02  0.27673694090E+03  0.10566000000E+00 0.  1.
          4    1    3    3  501    0  0.57988762257E+03 -0.73445720462E+03  0.10502123943E+03  0.94166156392E+03  0.00000000000E+00 0.  1.
         13    1    1    2    0    0 -0.56610275972E+03  0.46832202812E+03  0.10390627706E+04  0.12725758559E+04  0.10566000000E+00 0. -1.
<mgrwt>
<rscale>  1 0.10734192E+04</rscale>
<asrwt>0</asrwt>
<pdfrwt beam="2">  1       21 0.10934552E+00 0.12180187E+04</pdfrwt>
<pdfrwt beam="1">  1        4 0.27388130E+00 0.12180187E+04</pdfrwt>
<totfact> 0.10608464E+00</totfact>
</mgrwt>
</event>
<event>
 6    1  0.1375310E-005  0.1231749E+04  0.7818608E-02  0.9230774E-01
         21   -1    0    0  501  502  0.00000000000E+00  0.00000000000E+00  0.51012886461E+03  0.51012886461E+03  0.00000000000E+00 0. -1.
          4   -1    0    0  502    0 -0.00000000000E+00 -0.00000000000E+00 -0.20386089821E+04  0.20386089821E+04  0.00000000000E+00 0.  1.
    9000010    2    1    2  501    0  0.70592162273E+03  0.95196721075E+02 -0.13224468296E+04  0.18072275771E+04  0.10048970818E+04 0.  0.
        -13    1    3    3    0    0  0.83018459769E+03  0.80258748664E+02 -0.49398533861E+03  0.96936549294E+03  0.10566000000E+00 0.  1.
          4    1    3    3  501    0 -0.12426297495E+03  0.14937972411E+02 -0.82846149097E+03  0.83786208411E+03  0.00000000000E+00 0.  1.
         13    1    1    2    0    0 -0.70592162273E+03 -0.95196721075E+02 -0.20603328793E+03  0.74151026969E+03  0.10566000000E+00 0. -1.
<mgrwt>
<rscale>  1 0.10741359E+04</rscale>
<asrwt>0</asrwt>
<pdfrwt beam="1">  1       21 0.78481364E-01 0.12317491E+04</pdfrwt>
<pdfrwt beam="2">  1        4 0.31363215E+00 0.12317491E+04</pdfrwt>
<totfact> 0.13486415E+00</totfact>
</mgrwt>
</event>
<event>
 6    1  0.1375310E-005  0.1000007E+04  0.7818608E-02  0.9853262E-01
          4   -1    0    0  502    0 -0.00000000000E+00  0.00000000000E+00  0.82352259360E+03  0.82352259360E+03  0.00000000000E+00 0.  1.
         21   -1    0    0  501  502  0.00000000000E+00 -0.00000000000E+00 -0.42812008033E+03  0.42812008033E+03  0.00000000000E+00 0.  1.
    9000010    2    1    2  501    0  0.40578122969E+02 -0.14791068528E+03  0.23008599213E+03  0.10261349840E+04  0.98817472481E+03 0.  0.
        -13    1    3    3    0    0  0.31447312429E+03  0.32544186501E+03  0.86970261802E+02  0.46083575274E+03  0.10566000000E+00 0.  1.
          4    1    3    3  501    0 -0.27389500132E+03 -0.47335255028E+03  0.14311573033E+03  0.56529923127E+03  0.00000000000E+00 0.  1.
         13    1    1    2    0    0 -0.40578122969E+02  0.14791068528E+03  0.16531652115E+03  0.22550768992E+03  0.10566000000E+00 0. -1.
<mgrwt>
<rscale>  1 0.62580852E+03</rscale>
<asrwt>0</asrwt>
<pdfrwt beam="2">  1       21 0.65864628E-01 0.10000067E+04</pdfrwt>
<pdfrwt beam="1">  1        4 0.12669578E+00 0.10000067E+04</pdfrwt>
<totfact> 0.37952131E+01</totfact>
</mgrwt>
</event>
<event>
 6    1  0.1375310E-005  0.9855569E+03  0.7818608E-02  0.9908035E-01
          4   -1    0    0  502    0 -0.00000000000E+00  0.00000000000E+00  0.16051452296E+04  0.16051452296E+04  0.00000000000E+00 0.  1.
         21   -1    0    0  501  502  0.00000000000E+00 -0.00000000000E+00 -0.25657811888E+03  0.25657811888E+03  0.00000000000E+00 0.  1.
    9000010    2    1    2  501    0 -0.12766817484E+03  0.41497610346E+02  0.72403516904E+03  0.12229265327E+04  0.97637142717E+03 0.  0.
        -13    1    3    3    0    0  0.31090396200E+03  0.33105858392E+03  0.26955824047E+03  0.52813134327E+03  0.10566000000E+00 0.  1.
          4    1    3    3  501    0 -0.43857213684E+03 -0.28956097357E+03  0.45447692857E+03  0.69479518941E+03  0.00000000000E+00 0.  1.
         13    1    1    2    0    0  0.12766817484E+03 -0.41497610346E+02  0.62453194165E+03  0.63879681577E+03  0.10566000000E+00 0. -1.
<mgrwt>
<rscale>  1 0.59873454E+03</rscale>
<asrwt>0</asrwt>
<pdfrwt beam="2">  1       21 0.39473558E-01 0.98555689E+03</pdfrwt>
<pdfrwt beam="1">  1        4 0.24694541E+00 0.98555689E+03</pdfrwt>
<totfact> 0.16447951E+01</totfact>
</mgrwt>
</event>
<event>
 6    1  0.1375310E-005  0.1013138E+04  0.7818608E-02  0.9797755E-01
          4   -1    0    0  502    0 -0.00000000000E+00  0.00000000000E+00  0.81341584152E+03  0.81341584152E+03  0.00000000000E+00 0.  1.
         21   -1    0    0  501  502  0.00000000000E+00 -0.00000000000E+00 -0.45019264368E+03  0.45019264368E+03  0.00000000000E+00 0.  1.
    9000010    2    1    2  501    0 -0.56035103196E+02 -0.16769769028E+03  0.22164865409E+03  0.10371006250E+04  0.99759066378E+03 0.  0.
        -13    1    3    3    0    0  0.21796519945E+03  0.34391384030E+03 -0.21784275014E+02  0.40775007482E+03  0.10566000000E+00 0.  1.
          4    1    3    3  501    0 -0.27400030264E+03 -0.51161153058E+03  0.24343292910E+03  0.62935055020E+03  0.00000000000E+00 0.  1.
         13    1    1    2    0    0  0.56035103196E+02  0.16769769028E+03  0.14157454376E+03  0.22650786017E+03  0.10566000000E+00 0. -1.
<mgrwt>
<rscale>  1 0.65483141E+03</rscale>
<asrwt>0</asrwt>
<pdfrwt beam="2">  1       21 0.69260407E-01 0.10131385E+04</pdfrwt>
<pdfrwt beam="1">  1        4 0.12514090E+00 0.10131385E+04</pdfrwt>
<totfact> 0.34891534E+01</totfact>
</mgrwt>
</event>
<event>
 6    1  0.1375310E-005  0.1023391E+04  0.7818608E-02  0.9755511E-01
          4   -1    0    0  502    0 -0.00000000000E+00  0.00000000000E+00  0.19728695300E+03  0.19728695300E+03  0.00000000000E+00 0.  1.
         21   -1    0    0  501  502  0.00000000000E+00 -0.00000000000E+00 -0.19547627439E+04  0.19547627439E+04  0.00000000000E+00 0.  1.
    9000010    2    1    2  501    0 -0.86420299832E+02  0.17727241524E+03 -0.13046649011E+04  0.16581552846E+04  0.10042083779E+04 0.  0.
        -13    1    3    3    0    0  0.45695418567E+03  0.30025108699E+02 -0.52817731759E+03  0.69905645332E+03  0.10566000000E+00 0.  1.
          4    1    3    3  501    0 -0.54337448550E+03  0.14724730654E+03 -0.77648758348E+03  0.95909883123E+03  0.00000000000E+00 0.  1.
         13    1    1    2    0    0  0.86420299832E+02 -0.17727241524E+03 -0.45281088984E+03  0.49389441235E+03  0.10566000000E+00 0. -1.
<mgrwt>
<rscale>  1 0.67805739E+03</rscale>
<asrwt>0</asrwt>
<pdfrwt beam="2">  1       21 0.30073274E+00 0.10233907E+04</pdfrwt>
<pdfrwt beam="1">  1        4 0.30351838E-01 0.10233907E+04</pdfrwt>
<totfact> 0.11058719E+01</totfact>
</mgrwt>
</event>
<event>
 6    1  0.1375310E-005  0.1040289E+04  0.7818608E-02  0.9685552E-01
          4   -1    0    0  502    0 -0.00000000000E+00  0.00000000000E+00  0.70443221386E+03  0.70443221386E+03  0.00000000000E+00 0.  1.
         21   -1    0    0  501  502  0.00000000000E+00 -0.00000000000E+00 -0.69698660082E+03  0.69698660082E+03  0.00000000000E+00 0.  1.
    9000010    2    1    2  501    0 -0.12815144326E+03  0.19956506382E+03 -0.23043825989E+03  0.10655054996E+04  0.10128924774E+04 0.  0.
        -13    1    3    3    0    0 -0.52312582760E+03  0.11877853308E+03  0.98226127659E+02  0.54535983969E+03  0.10566000000E+00 0.  1.
          4    1    3    3  501    0  0.39497438435E+03  0.80786530744E+02 -0.32866438755E+03  0.52014565987E+03  0.00000000000E+00 0.  1.
         13    1    1    2    0    0  0.12815144326E+03 -0.19956506382E+03  0.23788387293E+03  0.33591331511E+03  0.10566000000E+00 0. -1.
<mgrwt>
<rscale>  1 0.71883583E+03</rscale>
<asrwt>0</asrwt>
<pdfrwt beam="2">  1       21 0.10722871E+00 0.10402885E+04</pdfrwt>
<pdfrwt beam="1">  1        4 0.10837419E+00 0.10402885E+04</pdfrwt>
<totfact> 0.17479524E+01</totfact>
</mgrwt>
</event>
<event>
 6    1  0.1375310E-005  0.1281335E+04  0.7818608E-02  0.9178900E-01
          4   -1    0    0  502    0 -0.00000000000E+00  0.00000000000E+00  0.53434519302E+03  0.53434519302E+03  0.00000000000E+00 0.  1.
         21   -1    0    0  501  502  0.00000000000E+00 -0.00000000000E+00 -0.19962381199E+04  0.19962381199E+04  0.00000000000E+00 0. -1.
    9000010    2    1    2  501    0  0.65472482894E+03 -0.40126737957E+03 -0.10651512008E+04  0.16662430328E+04  0.10257381011E+04 0.  0.
        -13    1    3    3    0    0  0.19191962769E+03 -0.23676819150E+03 -0.11303907851E+04  0.11707585824E+04  0.10566000000E+00 0.  1.
          4    1    3    3  501    0  0.46280520125E+03 -0.16449918807E+03  0.65239584302E+02  0.49548445035E+03  0.00000000000E+00 0.  1.
         13    1    1    2    0    0 -0.65472482894E+03  0.40126737957E+03 -0.39674172602E+03  0.86434028013E+03  0.10566000000E+00 0. -1.
<mgrwt>
<rscale>  1 0.11273896E+04</rscale>
<asrwt>0</asrwt>
<pdfrwt beam="2">  1       21 0.30711355E+00 0.12813348E+04</pdfrwt>
<pdfrwt beam="1">  1        4 0.82206953E-01 0.12813348E+04</pdfrwt>
<totfact> 0.11671020E+00</totfact>
</mgrwt>
</event>
<event>
 6    1  0.1375310E-005  0.8323002E+03  0.7818608E-02  0.1022607E+00
          4   -1    0    0  502    0 -0.00000000000E+00  0.00000000000E+00  0.97656431020E+03  0.97656431020E+03  0.00000000000E+00 0.  1.
         21   -1    0    0  501  502  0.00000000000E+00 -0.00000000000E+00 -0.28267007139E+03  0.28267007139E+03  0.00000000000E+00 0.  1.
    9000010    2    1    2  501    0 -0.82795272132E+02 -0.42033686815E+01  0.34558490550E+03  0.90119509851E+03  0.82816118798E+03 0.  0.
        -13    1    3    3    0    0 -0.51110381320E+02  0.39004120588E+03  0.28751824304E+02  0.39442501433E+03  0.10566000000E+00 0.  1.
          4    1    3    3  501    0 -0.31684890811E+02 -0.39424457456E+03  0.31683308119E+03  0.50677008418E+03  0.00000000000E+00 0.  1.
         13    1    1    2    0    0  0.82795272132E+02  0.42033686815E+01  0.34830933331E+03  0.35803928308E+03  0.10566000000E+00 0. -1.
<mgrwt>
<rscale>  1 0.46757494E+03</rscale>
<asrwt>0</asrwt>
<pdfrwt beam="2">  1       21 0.43487704E-01 0.83230023E+03</pdfrwt>
<pdfrwt beam="1">  1        4 0.15024066E+00 0.83230023E+03</pdfrwt>
<totfact> 0.61110293E+01</totfact>
</mgrwt>
</event>
<event>
 6    1  0.1375310E-005  0.1040474E+04  0.7818608E-02  0.9679357E-01
          4   -1    0    0  502    0 -0.00000000000E+00  0.00000000000E+00  0.59225898522E+03  0.59225898522E+03  0.00000000000E+00 0.  1.
         21   -1    0    0  501  502  0.00000000000E+00 -0.00000000000E+00 -0.89452375940E+03  0.89452375940E+03  0.00000000000E+00 0.  1.
    9000010    2    1    2  501    0  0.22820594390E+03  0.80643922467E+02 -0.51824198430E+03  0.11623947647E+04  0.10119315390E+04 0.  0.
        -13    1    3    3    0    0 -0.17933863703E+02 -0.26056518050E+03  0.20070592386E+03  0.32939143249E+03  0.10566000000E+00 0.  1.
          4    1    3    3  501    0  0.24613980761E+03  0.34120910297E+03 -0.71894790816E+03  0.83300333222E+03  0.00000000000E+00 0.  1.
         13    1    1    2    0    0 -0.22820594390E+03 -0.80643922467E+02  0.21597721011E+03  0.32438797992E+03  0.10566000000E+00 0. -1.
<mgrwt>
<rscale>  1 0.72259259E+03</rscale>
<asrwt>0</asrwt>
<pdfrwt beam="2">  1       21 0.13761904E+00 0.10404743E+04</pdfrwt>
<pdfrwt beam="1">  1        4 0.91116767E-01 0.10404743E+04</pdfrwt>
<totfact> 0.13850138E+01</totfact>
</mgrwt>
</event>
<event>
 6    1  0.1375310E-005  0.1008220E+04  0.7818608E-02  0.1026619E+00
         21   -1    0    0  501  502  0.00000000000E+00  0.00000000000E+00  0.97335784212E+03  0.97335784212E+03  0.00000000000E+00 0.  1.
          4   -1    0    0  502    0 -0.00000000000E+00 -0.00000000000E+00 -0.28810861324E+03  0.28810861324E+03  0.00000000000E+00 0.  1.
    9000010    2    1    2  501    0  0.31645904117E+02 -0.26615980218E+02  0.61809524373E+03  0.11826023790E+04  0.10073712240E+04 0.  0.
        -13    1    3    3    0    0  0.51837809472E+03  0.14365770694E+02  0.28958675796E+03  0.59395515488E+03  0.10566000000E+00 0.  1.
          4    1    3    3  501    0 -0.48673219060E+03 -0.40981750912E+02  0.32850848576E+03  0.58864722415E+03  0.00000000000E+00 0.  1.
         13    1    1    2    0    0 -0.31645904117E+02  0.26615980218E+02  0.67153985153E+02  0.78864076336E+02  0.10566000000E+00 0. -1.
<mgrwt>
<rscale>  1 0.45371929E+03</rscale>
<asrwt>0</asrwt>
<pdfrwt beam="1">  1       21 0.14974736E+00 0.10082195E+04</pdfrwt>
<pdfrwt beam="2">  1        4 0.44324403E-01 0.10082195E+04</pdfrwt>
<totfact> 0.53986918E+01</totfact>
</mgrwt>
</event>
<event>
 6    1  0.1375310E-005  0.1023832E+04  0.7818608E-02  0.9722425E-01
          4   -1    0    0  502    0 -0.00000000000E+00  0.00000000000E+00  0.31615203617E+03  0.31615203617E+03  0.00000000000E+00 0.  1.
         21   -1    0    0  501  502  0.00000000000E+00 -0.00000000000E+00 -0.13023620472E+04  0.13023620472E+04  0.00000000000E+00 0.  1.
    9000010    2    1    2  501    0  0.26256240489E+02 -0.21830120576E+03 -0.94803511150E+03  0.13953501510E+04  0.99994333075E+03 0.  0.
        -13    1    3    3    0    0 -0.17389538748E+03  0.20041157969E+02 -0.10525715525E+04  0.10670277119E+04  0.10566000000E+00 0.  1.
          4    1    3    3  501    0  0.20015162797E+03 -0.23834236373E+03  0.10453644096E+03  0.32832243910E+03  0.00000000000E+00 0.  1.
         13    1    1    2    0    0 -0.26256240489E+02  0.21830120576E+03 -0.38174899571E+02  0.22316393240E+03  0.10566000000E+00 0. -1.
<mgrwt>
<rscale>  1 0.69697177E+03</rscale>
<asrwt>0</asrwt>
<pdfrwt beam="2">  1       21 0.20036339E+00 0.10238318E+04</pdfrwt>
<pdfrwt beam="1">  1        4 0.48638774E-01 0.10238318E+04</pdfrwt>
<totfact> 0.18731375E+01</totfact>
</mgrwt>
</event>
<event>
 6    1  0.1375310E-005  0.1037439E+04  0.7818608E-02  0.9666621E-01
         21   -1    0    0  501  502  0.00000000000E+00  0.00000000000E+00  0.27630553588E+04  0.27630553588E+04  0.00000000000E+00 0. -1.
          4   -1    0    0  502    0 -0.00000000000E+00 -0.00000000000E+00 -0.15210743612E+03  0.15210743612E+03  0.00000000000E+00 0.  1.
    9000010    2    1    2  501    0 -0.13264025371E+03 -0.21765127097E+03  0.19966783353E+04  0.22501119323E+04  0.10056410000E+04 0.  0.
        -13    1    3    3    0    0  0.35753808267E+03 -0.34269663758E+03  0.12835028116E+04  0.13757376002E+04  0.10566000000E+00 0.  1.
          4    1    3    3  501    0 -0.49017833638E+03  0.12504536661E+03  0.71317552362E+03  0.87437433212E+03  0.00000000000E+00 0.  1.
         13    1    1    2    0    0  0.13264025371E+03  0.21765127097E+03  0.61426958740E+03  0.66505086259E+03  0.10566000000E+00 0. -1.
<mgrwt>
<rscale>  1 0.73039417E+03</rscale>
<asrwt>0</asrwt>
<pdfrwt beam="1">  1       21 0.42508540E+00 0.10374388E+04</pdfrwt>
<pdfrwt beam="2">  1        4 0.23401146E-01 0.10374388E+04</pdfrwt>
<totfact> 0.29091511E+00</totfact>
</mgrwt>
</event>
<event>
 6    1  0.1375310E-005  0.9844086E+03  0.7818608E-02  0.9793933E-01
         21   -1    0    0  501  502  0.00000000000E+00  0.00000000000E+00  0.32707348593E+03  0.32707348593E+03  0.00000000000E+00 0.  1.
          4   -1    0    0  502    0 -0.00000000000E+00 -0.00000000000E+00 -0.10987519413E+04  0.10987519413E+04  0.00000000000E+00 0.  1.
    9000010    2    1    2  501    0 -0.67070194485E+02 -0.18330076239E+03 -0.53966788306E+03  0.11226315993E+04  0.96486408534E+03 0.  0.
        -13    1    3    3    0    0  0.28755208878E+03  0.33052930817E+02  0.14351087686E+03  0.32306978029E+03  0.10566000000E+00 0.  1.
          4    1    3    3  501    0 -0.35462228327E+03 -0.21635369320E+03 -0.68317875991E+03  0.79956181897E+03  0.00000000000E+00 0.  1.
         13    1    1    2    0    0  0.67070194485E+02  0.18330076239E+03 -0.23201057227E+03  0.30319382792E+03  0.10566000000E+00 0. -1.
<mgrwt>
<rscale>  1 0.65689165E+03</rscale>
<asrwt>0</asrwt>
<pdfrwt beam="1">  1       21 0.50318997E-01 0.98440860E+03</pdfrwt>
<pdfrwt beam="2">  1        4 0.16903876E+00 0.98440860E+03</pdfrwt>
<totfact> 0.31935556E+01</totfact>
</mgrwt>
</event>
<event>
 6    1  0.1375310E-005  0.9046648E+03  0.7818608E-02  0.1006007E+00
          4   -1    0    0  502    0 -0.00000000000E+00  0.00000000000E+00  0.88516448349E+03  0.88516448349E+03  0.00000000000E+00 0.  1.
         21   -1    0    0  501  502  0.00000000000E+00 -0.00000000000E+00 -0.30814747308E+03  0.30814747308E+03  0.00000000000E+00 0.  1.
    9000010    2    1    2  501    0 -0.90519022064E+01 -0.10693867209E+03  0.40641750550E+03  0.99176290854E+03  0.89827649499E+03 0.  0.
        -13    1    3    3    0    0  0.30948834794E+03  0.19111849108E+03 -0.41994682213E+02  0.36615963683E+03  0.10566000000E+00 0.  1.
          4    1    3    3  501    0 -0.31854025015E+03 -0.29805716317E+03  0.44841218772E+03  0.62560327171E+03  0.00000000000E+00 0.  1.
         13    1    1    2    0    0  0.90519022064E+01  0.10693867209E+03  0.17059950491E+03  0.20154904803E+03  0.10566000000E+00 0. -1.
<mgrwt>
<rscale>  1 0.53092981E+03</rscale>
<asrwt>0</asrwt>
<pdfrwt beam="2">  1       21 0.47407304E-01 0.90466484E+03</pdfrwt>
<pdfrwt beam="1">  1        4 0.13617915E+00 0.90466484E+03</pdfrwt>
<totfact> 0.65518856E+01</totfact>
</mgrwt>
</event>
<event>
 6    1  0.1375310E-005  0.1007050E+04  0.7818608E-02  0.9850309E-01
          4   -1    0    0  502    0 -0.00000000000E+00  0.00000000000E+00  0.22559607740E+03  0.22559607740E+03  0.00000000000E+00 0.  1.
         21   -1    0    0  501  502  0.00000000000E+00 -0.00000000000E+00 -0.15066671276E+04  0.15066671276E+04  0.00000000000E+00 0.  1.
    9000010    2    1    2  501    0  0.14616316502E+03  0.40343023356E+02 -0.11734187810E+04  0.15463055416E+04  0.99556916490E+03 0.  0.
        -13    1    3    3    0    0  0.46140930456E+03  0.25707248486E+03 -0.98990836208E+03  0.11220086387E+04  0.10566000000E+00 0.  1.
          4    1    3    3  501    0 -0.31524613954E+03 -0.21672946150E+03 -0.18351041889E+03  0.42429690291E+03  0.00000000000E+00 0.  1.
         13    1    1    2    0    0 -0.14616316502E+03 -0.40343023356E+02 -0.10765226922E+03  0.18595766339E+03  0.10566000000E+00 0. -1.
<mgrwt>
<rscale>  1 0.62731186E+03</rscale>
<asrwt>0</asrwt>
<pdfrwt beam="2">  1       21 0.23179494E+00 0.10070497E+04</pdfrwt>
<pdfrwt beam="1">  1        4 0.34707089E-01 0.10070497E+04</pdfrwt>
<totfact> 0.23130435E+01</totfact>
</mgrwt>
</event>
<event>
 6    1  0.1375310E-005  0.1205292E+04  0.7818608E-02  0.9259568E-01
         21   -1    0    0  501  502  0.00000000000E+00  0.00000000000E+00  0.18319094234E+04  0.18319094234E+04  0.00000000000E+00 0. -1.
          4   -1    0    0  502    0 -0.00000000000E+00 -0.00000000000E+00 -0.48757441106E+03  0.48757441106E+03  0.00000000000E+00 0.  1.
    9000010    2    1    2  501    0 -0.40838829979E+03  0.54803125718E+03  0.90084431849E+03  0.15047426062E+04  0.99277921140E+03 0.  0.
        -13    1    3    3    0    0 -0.54617043233E+03  0.16714559455E+02  0.76356931746E+03  0.93894602155E+03  0.10566000000E+00 0.  1.
          4    1    3    3  501    0  0.13778213254E+03  0.53131669772E+03  0.13727500103E+03  0.56579658468E+03  0.00000000000E+00 0.  1.
         13    1    1    2    0    0  0.40838829979E+03 -0.54803125718E+03  0.44349069381E+03  0.81474122819E+03  0.10566000000E+00 0. -1.
<mgrwt>
<rscale>  1 0.10459184E+04</rscale>
<asrwt>0</asrwt>
<pdfrwt beam="1">  1       21 0.28183222E+00 0.12052924E+04</pdfrwt>
<pdfrwt beam="2">  1        4 0.75011449E-01 0.12052924E+04</pdfrwt>
<totfact> 0.20997602E+00</totfact>
</mgrwt>
</event>
<event>
 6    1  0.1375310E-005  0.1106008E+04  0.7818608E-02  0.9491508E-01
          4   -1    0    0  502    0 -0.00000000000E+00  0.00000000000E+00  0.23081138204E+04  0.23081138204E+04  0.00000000000E+00 0.  1.
         21   -1    0    0  501  502  0.00000000000E+00 -0.00000000000E+00 -0.24275021257E+03  0.24275021257E+03  0.00000000000E+00 0.  1.
    9000010    2    1    2  501    0 -0.33707018482E+03 -0.18448434404E+03  0.14219466400E+04  0.18014401287E+04  0.10371130640E+04 0.  0.
        -13    1    3    3    0    0  0.20230425403E+02  0.30529916254E+03  0.10419241357E+04  0.10859202385E+04  0.10566000000E+00 0.  1.
          4    1    3    3  501    0 -0.35730061023E+03 -0.48978350658E+03  0.38002250432E+03  0.71551989013E+03  0.00000000000E+00 0.  1.
         13    1    1    2    0    0  0.33707018482E+03  0.18448434404E+03  0.64341696784E+03  0.74942390432E+03  0.10566000000E+00 0. -1.
<mgrwt>
<rscale>  1 0.84912818E+03</rscale>
<asrwt>0</asrwt>
<pdfrwt beam="2">  1       21 0.37346188E-01 0.11060083E+04</pdfrwt>
<pdfrwt beam="1">  1        4 0.35509442E+00 0.11060083E+04</pdfrwt>
<totfact> 0.38272047E+00</totfact>
</mgrwt>
</event>
<event>
 6    1  0.1375310E-005  0.1010688E+04  0.7818608E-02  0.9802142E-01
         21   -1    0    0  501  502  0.00000000000E+00  0.00000000000E+00  0.30622029077E+03  0.30622029077E+03  0.00000000000E+00 0.  1.
          4   -1    0    0  502    0 -0.00000000000E+00 -0.00000000000E+00 -0.11546540518E+04  0.11546540518E+04  0.00000000000E+00 0.  1.
    9000010    2    1    2  501    0 -0.78620464846E+02 -0.15696440164E+03 -0.68440170558E+03  0.12206129698E+04  0.99532473419E+03 0.  0.
        -13    1    3    3    0    0  0.31994623619E+02 -0.43117424325E+03 -0.79496846452E+03  0.90493632634E+03  0.10566000000E+00 0.  1.
          4    1    3    3  501    0 -0.11061508846E+03  0.27420984161E+03  0.11056675894E+03  0.31567664344E+03  0.00000000000E+00 0.  1.
         13    1    1    2    0    0  0.78620464846E+02  0.15696440164E+03 -0.16403205542E+03  0.24026137277E+03  0.10566000000E+00 0. -1.
<mgrwt>
<rscale>  1 0.65247697E+03</rscale>
<asrwt>0</asrwt>
<pdfrwt beam="1">  1       21 0.47110814E-01 0.10106880E+04</pdfrwt>
<pdfrwt beam="2">  1        4 0.17763908E+00 0.10106880E+04</pdfrwt>
<totfact> 0.31887206E+01</totfact>
</mgrwt>
</event>
<event>
 6    1  0.1375310E-005  0.1056877E+04  0.7818608E-02  0.9582440E-01
          4   -1    0    0  502    0 -0.00000000000E+00  0.00000000000E+00  0.12092908513E+04  0.12092908513E+04  0.00000000000E+00 0.  1.
         21   -1    0    0  501  502  0.00000000000E+00 -0.00000000000E+00 -0.49233417213E+03  0.49233417213E+03  0.00000000000E+00 0.  1.
    9000010    2    1    2  501    0 -0.32054209880E+03  0.19998004628E+02  0.17444631651E+03  0.10711770382E+04  0.10068970020E+04 0.  0.
        -13    1    3    3    0    0 -0.58523731576E+03  0.12025556002E+03  0.39165487777E+03  0.71439321799E+03  0.10566000000E+00 0.  1.
          4    1    3    3  501    0  0.26469521696E+03 -0.10025755539E+03 -0.21720856125E+03  0.35678382023E+03  0.00000000000E+00 0.  1.
         13    1    1    2    0    0  0.32054209880E+03 -0.19998004628E+02  0.54251036266E+03  0.63044798520E+03  0.10566000000E+00 0. -1.
<mgrwt>
<rscale>  1 0.78469423E+03</rscale>
<asrwt>0</asrwt>
<pdfrwt beam="2">  1       21 0.75743719E-01 0.10568769E+04</pdfrwt>
<pdfrwt beam="1">  1        4 0.18604475E+00 0.10568769E+04</pdfrwt>
<totfact> 0.96199729E+00</totfact>
</mgrwt>
</event>
<event>
 6    1  0.1375310E-005  0.1021947E+04  0.7818608E-02  0.1011658E+00
          4   -1    0    0  502    0 -0.00000000000E+00  0.00000000000E+00  0.80579014975E+03  0.80579014975E+03  0.00000000000E+00 0.  1.
         21   -1    0    0  501  502  0.00000000000E+00 -0.00000000000E+00 -0.37612012341E+03  0.37612012341E+03  0.00000000000E+00 0.  1.
    9000010    2    1    2  501    0  0.58453890473E+02 -0.22126011908E+02  0.34907605145E+03  0.10799209714E+04  0.10200337235E+04 0.  0.
        -13    1    3    3    0    0  0.37953816018E+03 -0.12405099658E+03  0.55603502175E+03  0.68455300844E+03  0.10566000000E+00 0.  1.
          4    1    3    3  501    0 -0.32108426971E+03  0.10192498468E+03 -0.20695897031E+03  0.39536796298E+03  0.00000000000E+00 0.  1.
         13    1    1    2    0    0 -0.58453890473E+02  0.22126011908E+02  0.80593974896E+02  0.10198930173E+03  0.10566000000E+00 0. -1.
<mgrwt>
<rscale>  1 0.50821058E+03</rscale>
<asrwt>0</asrwt>
<pdfrwt beam="2">  1       21 0.57864634E-01 0.10219468E+04</pdfrwt>
<pdfrwt beam="1">  1        4 0.12396772E+00 0.10219468E+04</pdfrwt>
<totfact> 0.53528501E+01</totfact>
</mgrwt>
</event>
<event>
 6    1  0.1375310E-005  0.1049544E+04  0.7818608E-02  0.9568785E-01
          4   -1    0    0  502    0 -0.00000000000E+00  0.00000000000E+00  0.63620966980E+03  0.63620966980E+03  0.00000000000E+00 0.  1.
         21   -1    0    0  501  502  0.00000000000E+00 -0.00000000000E+00 -0.13028044503E+04  0.13028044503E+04  0.00000000000E+00 0.  1.
    9000010    2    1    2  501    0  0.34034928932E+03 -0.48079337542E+02  0.14321913423E+03  0.10592710615E+04  0.99166234171E+03 0.  0.
        -13    1    3    3    0    0  0.59931188424E+03  0.11081787340E+03 -0.15989811718E+03  0.63009741683E+03  0.10566000000E+00 0.  1.
          4    1    3    3  501    0 -0.25896259492E+03 -0.15889721094E+03  0.30311725141E+03  0.42917364471E+03  0.00000000000E+00 0.  1.
         13    1    1    2    0    0 -0.34034928932E+03  0.48079337542E+02 -0.80981391476E+03  0.87974305859E+03  0.10566000000E+00 0. -1.
<mgrwt>
<rscale>  1 0.79397083E+03</rscale>
<asrwt>0</asrwt>
<pdfrwt beam="2">  1       21 0.20043145E+00 0.10495444E+04</pdfrwt>
<pdfrwt beam="1">  1        4 0.97878413E-01 0.10495444E+04</pdfrwt>
<totfact> 0.38942853E+00</totfact>
</mgrwt>
</event>
<event>
 6    1  0.1375310E-005  0.1051937E+04  0.7818608E-02  0.9625337E-01
          4   -1    0    0  502    0 -0.00000000000E+00  0.00000000000E+00  0.18323474211E+04  0.18323474211E+04  0.00000000000E+00 0.  1.
         21   -1    0    0  501  502  0.00000000000E+00 -0.00000000000E+00 -0.50493880376E+03  0.50493880376E+03  0.00000000000E+00 0.  1.
    9000010    2    1    2  501    0 -0.29499041249E+02  0.27968749352E+03  0.76016538502E+02  0.10546805046E+04  0.10136454830E+04 0.  0.
        -13    1    3    3    0    0 -0.49023935854E+03  0.11214269425E+03 -0.13535304725E+03  0.52079849376E+03  0.10566000000E+00 0.  1.
          4    1    3    3  501    0  0.46074031729E+03  0.16754479926E+03  0.21136958575E+03  0.53388201086E+03  0.00000000000E+00 0.  1.
         13    1    1    2    0    0  0.29499041249E+02 -0.27968749352E+03  0.12513920788E+04  0.12826057202E+04  0.10566000000E+00 0. -1.
<mgrwt>
<rscale>  1 0.75641700E+03</rscale>
<asrwt>0</asrwt>
<pdfrwt beam="2">  1       21 0.77682894E-01 0.10519375E+04</pdfrwt>
<pdfrwt beam="1">  1        4 0.28189960E+00 0.10519375E+04</pdfrwt>
<totfact> 0.22313221E+00</totfact>
</mgrwt>
</event>
<event>
 6    1  0.1375310E-005  0.9952465E+03  0.7818608E-02  0.9837507E-01
          4   -1    0    0  502    0 -0.00000000000E+00  0.00000000000E+00  0.89702049198E+03  0.89702049198E+03  0.00000000000E+00 0.  1.
         21   -1    0    0  501  502  0.00000000000E+00 -0.00000000000E+00 -0.42237787819E+03  0.42237787819E+03  0.00000000000E+00 0.  1.
    9000010    2    1    2  501    0 -0.16363409740E+03  0.66780660783E+01  0.22423979162E+03  0.10201955979E+04  0.98167961144E+03 0.  0.
        -13    1    3    3    0    0  0.40761017889E+03  0.46841207201E+02  0.17293004305E+03  0.44524708599E+03  0.10566000000E+00 0.  1.
          4    1    3    3  501    0 -0.57124427629E+03 -0.40163141123E+02  0.51309748569E+02  0.57494851195E+03  0.00000000000E+00 0.  1.
         13    1    1    2    0    0  0.16363409740E+03 -0.66780660783E+01  0.25040282216E+03  0.29920277223E+03  0.10566000000E+00 0. -1.
<mgrwt>
<rscale>  1 0.63387964E+03</rscale>
<asrwt>0</asrwt>
<pdfrwt beam="2">  1       21 0.64981212E-01 0.99524649E+03</pdfrwt>
<pdfrwt beam="1">  1        4 0.13800315E+00 0.99524649E+03</pdfrwt>
<totfact> 0.31399537E+01</totfact>
</mgrwt>
</event>
<event>
 6    1  0.1375310E-005  0.1088834E+04  0.7818608E-02  0.9470345E-01
          4   -1    0    0  502    0 -0.00000000000E+00  0.00000000000E+00  0.74389182590E+03  0.74389182590E+03  0.00000000000E+00 0.  1.
         21   -1    0    0  501  502  0.00000000000E+00 -0.00000000000E+00 -0.85923103936E+03  0.85923103936E+03  0.00000000000E+00 0.  1.
    9000010    2    1    2  501    0 -0.25572221245E+03 -0.35042391960E+03 -0.30338481522E+03  0.11303100769E+04  0.99868300797E+03 0.  0.
        -13    1    3    3    0    0 -0.46170159208E+03  0.17903960467E+03 -0.20416965947E+02  0.49562123020E+03  0.10566000000E+00 0.  1.
          4    1    3    3  501    0  0.20597937963E+03 -0.52946352427E+03 -0.28296784927E+03  0.63468884667E+03  0.00000000000E+00 0.  1.
         13    1    1    2    0    0  0.25572221245E+03  0.35042391960E+03  0.18804560176E+03  0.47281278840E+03  0.10566000000E+00 0. -1.
<mgrwt>
<rscale>  1 0.86505938E+03</rscale>
<asrwt>0</asrwt>
<pdfrwt beam="2">  1       21 0.13218939E+00 0.10888336E+04</pdfrwt>
<pdfrwt beam="1">  1        4 0.11444490E+00 0.10888336E+04</pdfrwt>
<totfact> 0.88331982E+00</totfact>
</mgrwt>
</event>
<event>
 6    1  0.1375310E-005  0.9641722E+03  0.7818608E-02  0.1010093E+00
         21   -1    0    0  501  502  0.00000000000E+00  0.00000000000E+00  0.14025283194E+04  0.14025283194E+04  0.00000000000E+00 0.  1.
          4   -1    0    0  502    0 -0.00000000000E+00 -0.00000000000E+00 -0.19422297026E+03  0.19422297026E+03  0.00000000000E+00 0.  1.
    9000010    2    1    2  501    0 -0.61669422579E+02 -0.47924242619E+02  0.11393664223E+04  0.14925762566E+04  0.96100373924E+03 0.  0.
        -13    1    3    3    0    0  0.22702347211E+03 -0.42712442943E+03  0.50704008776E+03  0.70076001375E+03  0.10566000000E+00 0.  1.
          4    1    3    3  501    0 -0.28869289469E+03  0.37920018681E+03  0.63232633454E+03  0.79181624287E+03  0.00000000000E+00 0.  1.
         13    1    1    2    0    0  0.61669422579E+02  0.47924242619E+02  0.68938926808E+02  0.10417503302E+03  0.10566000000E+00 0. -1.
<mgrwt>
<rscale>  1 0.51437631E+03</rscale>
<asrwt>0</asrwt>
<pdfrwt beam="1">  1       21 0.21577358E+00 0.96417220E+03</pdfrwt>
<pdfrwt beam="2">  1        4 0.29880458E-01 0.96417220E+03</pdfrwt>
<totfact> 0.39832524E+01</totfact>
</mgrwt>
</event>
<event>
 6    1  0.1375310E-005  0.1012120E+04  0.7818608E-02  0.9774872E-01
          4   -1    0    0  502    0 -0.00000000000E+00  0.00000000000E+00  0.45939272939E+03  0.45939272939E+03  0.00000000000E+00 0.  1.
         21   -1    0    0  501  502  0.00000000000E+00 -0.00000000000E+00 -0.11306101844E+04  0.11306101844E+04  0.00000000000E+00 0.  1.
    9000010    2    1    2  501    0  0.67537758663E+01  0.19110937023E+03 -0.85489385696E+03  0.13248511898E+04  0.99389072020E+03 0.  0.
        -13    1    3    3    0    0 -0.13046712739E+03 -0.32680058602E+03 -0.67228532292E+03  0.75880686669E+03  0.10566000000E+00 0.  1.
          4    1    3    3  501    0  0.13722090326E+03  0.51790995625E+03 -0.18260853404E+03  0.56604432316E+03  0.00000000000E+00 0.  1.
         13    1    1    2    0    0 -0.67537758663E+01 -0.19110937023E+03  0.18367640199E+03  0.26515172390E+03  0.10566000000E+00 0. -1.
<mgrwt>
<rscale>  1 0.66728647E+03</rscale>
<asrwt>0</asrwt>
<pdfrwt beam="2">  1       21 0.17394003E+00 0.10121201E+04</pdfrwt>
<pdfrwt beam="1">  1        4 0.70675806E-01 0.10121201E+04</pdfrwt>
<totfact> 0.12854700E+01</totfact>
</mgrwt>
</event>
<event>
 6    1  0.1375310E-005  0.1140601E+04  0.7818608E-02  0.9365497E-01
         21   -1    0    0  501  502  0.00000000000E+00  0.00000000000E+00  0.16225252665E+04  0.16225252665E+04  0.00000000000E+00 0.  1.
          4   -1    0    0  502    0 -0.00000000000E+00 -0.00000000000E+00 -0.53051871565E+03  0.53051871565E+03  0.00000000000E+00 0.  1.
    9000010    2    1    2  501    0 -0.46231896042E+03  0.29461926659E+03  0.11273241981E+04  0.16036928369E+04  0.10002157438E+04 0.  0.
        -13    1    3    3    0    0 -0.70092225148E+03  0.46304707994E+03  0.74687676034E+03  0.11240682840E+04  0.10566000000E+00 0.  1.
          4    1    3    3  501    0  0.23860329107E+03 -0.16842781335E+03  0.38044743777E+03  0.47962455288E+03  0.00000000000E+00 0.  1.
         13    1    1    2    0    0  0.46231896042E+03 -0.29461926659E+03 -0.35317647250E+02  0.54935114524E+03  0.10566000000E+00 0. -1.
<mgrwt>
<rscale>  1 0.94970343E+03</rscale>
<asrwt>0</asrwt>
<pdfrwt beam="1">  1       21 0.24961927E+00 0.11406011E+04</pdfrwt>
<pdfrwt beam="2">  1        4 0.81618264E-01 0.11406011E+04</pdfrwt>
<totfact> 0.27924630E+00</totfact>
</mgrwt>
</event>
<event>
 6    1  0.1375310E-005  0.9721716E+03  0.7818608E-02  0.1006096E+00
          4   -1    0    0  502    0 -0.00000000000E+00  0.00000000000E+00  0.29132548594E+03  0.29132548594E+03  0.00000000000E+00 0.  1.
         21   -1    0    0  501  502  0.00000000000E+00 -0.00000000000E+00 -0.10288455521E+04  0.10288455521E+04  0.00000000000E+00 0.  1.
    9000010    2    1    2  501    0  0.78534922257E+02  0.35636610259E+02 -0.75653990092E+03  0.12318564454E+04  0.96833877254E+03 0.  0.
        -13    1    3    3    0    0 -0.14976556149E+03 -0.42209355563E+03 -0.25446924309E+03  0.51511872413E+03  0.10566000000E+00 0.  1.
          4    1    3    3  501    0  0.22830048375E+03  0.45773016589E+03 -0.50207065783E+03  0.71673772128E+03  0.00000000000E+00 0.  1.
         13    1    1    2    0    0 -0.78534922257E+02 -0.35636610259E+02  0.19019834714E+02  0.88314592685E+02  0.10566000000E+00 0. -1.
<mgrwt>
<rscale>  1 0.53056321E+03</rscale>
<asrwt>0</asrwt>
<pdfrwt beam="2">  1       21 0.15828394E+00 0.97217163E+03</pdfrwt>
<pdfrwt beam="1">  1        4 0.44819304E-01 0.97217163E+03</pdfrwt>
<totfact> 0.45299300E+01</totfact>
</mgrwt>
</event>
<event>
 6    1  0.1375310E-005  0.8810541E+03  0.7818608E-02  0.1025365E+00
         21   -1    0    0  501  502  0.00000000000E+00  0.00000000000E+00  0.30224719872E+03  0.30224719872E+03  0.00000000000E+00 0.  1.
          4   -1    0    0  502    0 -0.00000000000E+00 -0.00000000000E+00 -0.82868707745E+03  0.82868707745E+03  0.00000000000E+00 0.  1.
    9000010    2    1    2  501    0 -0.33606073718E+02  0.54855699234E+02 -0.35868674615E+03  0.95126891896E+03  0.87870237190E+03 0.  0.
        -13    1    3    3    0    0  0.23964990671E+03 -0.29765514872E+03 -0.32901656335E+03  0.50426439045E+03  0.10566000000E+00 0.  1.
          4    1    3    3  501    0 -0.27325598043E+03  0.35251084795E+03 -0.29670182796E+02  0.44700452852E+03  0.00000000000E+00 0.  1.
         13    1    1    2    0    0  0.33606073718E+02 -0.54855699234E+02 -0.16775313257E+03  0.17966535721E+03  0.10566000000E+00 0. -1.
<mgrwt>
<rscale>  1 0.45799176E+03</rscale>
<asrwt>0</asrwt>
<pdfrwt beam="1">  1       21 0.46499569E-01 0.88105413E+03</pdfrwt>
<pdfrwt beam="2">  1        4 0.12749032E+00 0.88105413E+03</pdfrwt>
<totfact> 0.81041121E+01</totfact>
</mgrwt>
</event>
<event>
 6    1  0.1375310E-005  0.1024563E+04  0.7818608E-02  0.9741472E-01
          4   -1    0    0  502    0 -0.00000000000E+00  0.00000000000E+00  0.59424118501E+03  0.59424118501E+03  0.00000000000E+00 0.  1.
         21   -1    0    0  501  502  0.00000000000E+00 -0.00000000000E+00 -0.98423246808E+03  0.98423246808E+03  0.00000000000E+00 0.  1.
    9000010    2    1    2  501    0 -0.12264724498E+03  0.16540527083E+03 -0.67495053230E+03  0.12269014198E+04  0.10036571240E+04 0.  0.
        -13    1    3    3    0    0  0.13601804658E+03 -0.12483569023E+03  0.19834791879E+03  0.27097373784E+03  0.10566000000E+00 0.  1.
          4    1    3    3  501    0 -0.25866529156E+03  0.29024096106E+03 -0.87329845108E+03  0.95592768199E+03  0.00000000000E+00 0.  1.
         13    1    1    2    0    0  0.12264724498E+03 -0.16540527083E+03  0.28495924922E+03  0.35157223326E+03  0.10566000000E+00 0. -1.
<mgrwt>
<rscale>  1 0.68600341E+03</rscale>
<asrwt>0</asrwt>
<pdfrwt beam="2">  1       21 0.15142038E+00 0.10245628E+04</pdfrwt>
<pdfrwt beam="1">  1        4 0.91421720E-01 0.10245628E+04</pdfrwt>
<totfact> 0.10578848E+01</totfact>
</mgrwt>
</event>
<event>
 6    1  0.1375310E-005  0.1097456E+04  0.7818608E-02  0.9443329E-01
         21   -1    0    0  501  502  0.00000000000E+00  0.00000000000E+00  0.14409179414E+04  0.14409179414E+04  0.00000000000E+00 0.  1.
          4   -1    0    0  502    0 -0.00000000000E+00 -0.00000000000E+00 -0.56033442877E+03  0.56033442877E+03  0.00000000000E+00 0.  1.
    9000010    2    1    2  501    0  0.34634808426E+03 -0.31188329439E+03  0.10367360869E+04  0.15097121150E+04  0.99356971140E+03 0.  0.
        -13    1    3    3    0    0  0.51658358885E+02  0.87838728044E+02 -0.17368813915E+03  0.20137479741E+03  0.10566000000E+00 0.  1.
          4    1    3    3  501    0  0.29468972538E+03 -0.39972202243E+03  0.12104242261E+04  0.13083373176E+04  0.00000000000E+00 0.  1.
         13    1    1    2    0    0 -0.34634808426E+03  0.31188329439E+03 -0.15615257434E+03  0.49154025515E+03  0.10566000000E+00 0. -1.
<mgrwt>
<rscale>  1 0.88594093E+03</rscale>
<asrwt>0</asrwt>
<pdfrwt beam="1">  1       21 0.22167968E+00 0.10974557E+04</pdfrwt>
<pdfrwt beam="2">  1        4 0.86205297E-01 0.10974557E+04</pdfrwt>
<totfact> 0.37566907E+00</totfact>
</mgrwt>
</event>
<event>
 6    1  0.1375310E-005  0.1015570E+04  0.7818608E-02  0.9716705E-01
         21   -1    0    0  501  502  0.00000000000E+00  0.00000000000E+00  0.31311353926E+03  0.31311353926E+03  0.00000000000E+00 0.  1.
          4   -1    0    0  502    0 -0.00000000000E+00 -0.00000000000E+00 -0.12727561934E+04  0.12727561934E+04  0.00000000000E+00 0.  1.
    9000010    2    1    2  501    0 -0.22925094006E+03 -0.13174475775E+02 -0.87696948693E+03  0.13418114935E+04  0.98926894363E+03 0.  0.
        -13    1    3    3    0    0  0.33806418687E+03 -0.20728920679E+03 -0.22458833772E+03  0.45573692224E+03  0.10566000000E+00 0.  1.
          4    1    3    3  501    0 -0.56731512693E+03  0.19411473102E+03 -0.65238114921E+03  0.88607457129E+03  0.00000000000E+00 0.  1.
         13    1    1    2    0    0  0.22925094006E+03  0.13174475775E+02 -0.82673167164E+02  0.24405823908E+03  0.10566000000E+00 0. -1.
<mgrwt>
<rscale>  1 0.70030828E+03</rscale>
<asrwt>0</asrwt>
<pdfrwt beam="1">  1       21 0.48171314E-01 0.10155701E+04</pdfrwt>
<pdfrwt beam="2">  1        4 0.19580865E+00 0.10155701E+04</pdfrwt>
<totfact> 0.22815966E+01</totfact>
</mgrwt>
</event>
<event>
 6    1  0.1375310E-005  0.9980131E+03  0.7818608E-02  0.9933888E-01
         21   -1    0    0  501  502  0.00000000000E+00  0.00000000000E+00  0.21440414061E+04  0.21440414061E+04  0.00000000000E+00 0.  1.
          4   -1    0    0  502    0 -0.00000000000E+00 -0.00000000000E+00 -0.19761413858E+03  0.19761413858E+03  0.00000000000E+00 0.  1.
    9000010    2    1    2  501    0  0.10408225522E+03 -0.57698043960E+02  0.19806026216E+04  0.22178405774E+04  0.99089247751E+03 0.  0.
        -13    1    3    3    0    0 -0.11372253733E+03  0.40032608446E+03  0.48763299866E+03  0.64107701717E+03  0.10566000000E+00 0.  1.
          4    1    3    3  501    0  0.21780479255E+03 -0.45802412842E+03  0.14929696229E+04  0.15767635602E+04  0.00000000000E+00 0.  1.
         13    1    1    2    0    0 -0.10408225522E+03  0.57698043960E+02 -0.34175354095E+02  0.12381496727E+03  0.10566000000E+00 0. -1.
<mgrwt>
<rscale>  1 0.58646686E+03</rscale>
<asrwt>0</asrwt>
<pdfrwt beam="1">  1       21 0.32985251E+00 0.99801307E+03</pdfrwt>
<pdfrwt beam="2">  1        4 0.30402177E-01 0.99801307E+03</pdfrwt>
<totfact> 0.72909025E+00</totfact>
</mgrwt>
</event>
<event>
 6    1  0.1375310E-005  0.1024472E+04  0.7818608E-02  0.9830978E-01
          4   -1    0    0  502    0 -0.00000000000E+00  0.00000000000E+00  0.50341963634E+03  0.50341963634E+03  0.00000000000E+00 0.  1.
         21   -1    0    0  501  502  0.00000000000E+00 -0.00000000000E+00 -0.77325839237E+03  0.77325839237E+03  0.00000000000E+00 0.  1.
    9000010    2    1    2  501    0  0.20024880993E+02  0.15206872752E+03 -0.37473624035E+03  0.10908571818E+04  0.10129246011E+04 0.  0.
        -13    1    3    3    0    0  0.30230273181E+03  0.26720164902E+03 -0.59206501236E+03  0.71646678424E+03  0.10566000000E+00 0.  1.
          4    1    3    3  501    0 -0.28227785082E+03 -0.11513292150E+03  0.21732877200E+03  0.37439039760E+03  0.00000000000E+00 0.  1.
         13    1    1    2    0    0 -0.20024880993E+02 -0.15206872752E+03  0.10489748433E+03  0.18582084687E+03  0.10566000000E+00 0. -1.
<mgrwt>
<rscale>  1 0.63726233E+03</rscale>
<asrwt>0</asrwt>
<pdfrwt beam="2">  1       21 0.11896283E+00 0.10244716E+04</pdfrwt>
<pdfrwt beam="1">  1        4 0.77449175E-01 0.10244716E+04</pdfrwt>
<totfact> 0.29755000E+01</totfact>
</mgrwt>
</event>
<event>
 6    1  0.1375310E-005  0.1139435E+04  0.7818608E-02  0.9375622E-01
          4   -1    0    0  502    0 -0.00000000000E+00  0.00000000000E+00  0.98403127356E+03  0.98403127356E+03  0.00000000000E+00 0.  1.
         21   -1    0    0  501  502  0.00000000000E+00 -0.00000000000E+00 -0.71367498662E+03  0.71367498662E+03  0.00000000000E+00 0.  1.
    9000010    2    1    2  501    0 -0.52195903426E+03 -0.93277360717E+02  0.11520350939E+03  0.11452442298E+04  0.10085487583E+04 0.  0.
        -13    1    3    3    0    0 -0.17939845885E+03 -0.53248683383E+03 -0.50382204587E+02  0.56414928250E+03  0.10566000000E+00 0.  1.
          4    1    3    3  501    0 -0.34256057541E+03  0.43920947311E+03  0.16558571398E+03  0.58109494729E+03  0.00000000000E+00 0.  1.
         13    1    1    2    0    0  0.52195903426E+03  0.93277360717E+02  0.15515277755E+03  0.55246203039E+03  0.10566000000E+00 0. -1.
<mgrwt>
<rscale>  1 0.94109380E+03</rscale>
<asrwt>0</asrwt>
<pdfrwt beam="2">  1       21 0.10979615E+00 0.11394352E+04</pdfrwt>
<pdfrwt beam="1">  1        4 0.15138943E+00 0.11394352E+04</pdfrwt>
<totfact> 0.69067253E+00</totfact>
</mgrwt>
</event>
<event>
 6    1  0.1375310E-005  0.9953396E+03  0.7818608E-02  0.9741188E-01
          4   -1    0    0  502    0 -0.00000000000E+00  0.00000000000E+00  0.32092013304E+03  0.32092013304E+03  0.00000000000E+00 0.  1.
         21   -1    0    0  501  502  0.00000000000E+00 -0.00000000000E+00 -0.14841230959E+04  0.14841230959E+04  0.00000000000E+00 0.  1.
    9000010    2    1    2  501    0 -0.20964652965E+03 -0.81145013957E+02 -0.12186829263E+04  0.15734957863E+04  0.96962092271E+03 0.  0.
        -13    1    3    3    0    0 -0.34043653447E+03  0.15419488686E+03 -0.53413865413E+02  0.37752635579E+03  0.10566000000E+00 0.  1.
          4    1    3    3  501    0  0.13079000481E+03 -0.23533990082E+03 -0.11652690609E+04  0.11959694305E+04  0.00000000000E+00 0.  1.
         13    1    1    2    0    0  0.20964652965E+03  0.81145013957E+02  0.55479963490E+02  0.23154744265E+03  0.10566000000E+00 0. -1.
<mgrwt>
<rscale>  1 0.68616534E+03</rscale>
<asrwt>0</asrwt>
<pdfrwt beam="2">  1       21 0.22832663E+00 0.99533960E+03</pdfrwt>
<pdfrwt beam="1">  1        4 0.49372329E-01 0.99533960E+03</pdfrwt>
<totfact> 0.11848636E+01</totfact>
</mgrwt>
</event>
<event>
 6    1  0.1375310E-005  0.1007822E+04  0.7818608E-02  0.9773954E-01
          4   -1    0    0  502    0 -0.00000000000E+00  0.00000000000E+00  0.24610912511E+03  0.24610912511E+03  0.00000000000E+00 0.  1.
         21   -1    0    0  501  502  0.00000000000E+00 -0.00000000000E+00 -0.14730327164E+04  0.14730327164E+04  0.00000000000E+00 0.  1.
    9000010    2    1    2  501    0  0.18334666854E+03  0.64237230120E+02 -0.10646644094E+04  0.14660203769E+04  0.98892012727E+03 0.  0.
        -13    1    3    3    0    0 -0.66330546362E+02  0.24015942720E+03 -0.11270700899E+04  0.11542804211E+04  0.10566000000E+00 0.  1.
          4    1    3    3  501    0  0.24967721490E+03 -0.17592219708E+03  0.62405680478E+02  0.31173995577E+03  0.00000000000E+00 0.  1.
         13    1    1    2    0    0 -0.18334666854E+03 -0.64237230120E+02 -0.16225918192E+03  0.25312146468E+03  0.10566000000E+00 0. -1.
<mgrwt>
<rscale>  1 0.66779268E+03</rscale>
<asrwt>0</asrwt>
<pdfrwt beam="2">  1       21 0.22662042E+00 0.10078221E+04</pdfrwt>
<pdfrwt beam="1">  1        4 0.37862942E-01 0.10078221E+04</pdfrwt>
<totfact> 0.20984853E+01</totfact>
</mgrwt>
</event>
<event>
 6    1  0.1375310E-005  0.1524999E+04  0.7818608E-02  0.8948557E-01
         21   -1    0    0  501  502  0.00000000000E+00  0.00000000000E+00  0.17093390398E+04  0.17093390398E+04  0.00000000000E+00 0. -1.
          4   -1    0    0  502    0 -0.00000000000E+00 -0.00000000000E+00 -0.10625280969E+04  0.10625280969E+04  0.00000000000E+00 0.  1.
    9000010    2    1    2  501    0 -0.10916767562E+04 -0.17699933892E+03  0.67000413627E+03  0.16656913634E+04  0.10500167949E+04 0.  0.
        -13    1    3    3    0    0 -0.35872646021E+03 -0.23224759060E+03 -0.24455166225E+03  0.49237094072E+03  0.10566000000E+00 0.  1.
          4    1    3    3  501    0 -0.73295029596E+03  0.55248251684E+02  0.91455579852E+03  0.11733204227E+04  0.00000000000E+00 0.  1.
         13    1    1    2    0    0  0.10916767562E+04  0.17699933892E+03 -0.23193193385E+02  0.11061757732E+04  0.10566000000E+00 0. -1.
<mgrwt>
<rscale>  1 0.14072924E+04</rscale>
<asrwt>0</asrwt>
<pdfrwt beam="1">  1       21 0.26297524E+00 0.15249991E+04</pdfrwt>
<pdfrwt beam="2">  1        4 0.16346586E+00 0.15249991E+04</pdfrwt>
<totfact> 0.37716647E-01</totfact>
</mgrwt>
</event>
<event>
 6    1  0.1375310E-005  0.1020449E+04  0.7818608E-02  0.9822120E-01
         21   -1    0    0  501  502  0.00000000000E+00  0.00000000000E+00  0.68673250292E+03  0.68673250292E+03  0.00000000000E+00 0.  1.
          4   -1    0    0  502    0 -0.00000000000E+00 -0.00000000000E+00 -0.50713323260E+03  0.50713323260E+03  0.00000000000E+00 0.  1.
    9000010    2    1    2  501    0 -0.11143740377E+03  0.11447486357E+03  0.15078573574E+03  0.10315296019E+04  0.10078661578E+04 0.  0.
        -13    1    3    3    0    0 -0.49990088808E+03  0.16201757179E+03  0.30875154499E+03  0.60949004846E+03  0.10566000000E+00 0.  1.
          4    1    3    3  501    0  0.38846348431E+03 -0.47542708219E+02 -0.15796580925E+03  0.42203955341E+03  0.00000000000E+00 0.  1.
         13    1    1    2    0    0  0.11143740377E+03 -0.11447486357E+03  0.28813534573E+02  0.16233613365E+03  0.10566000000E+00 0. -1.
<mgrwt>
<rscale>  1 0.64188866E+03</rscale>
<asrwt>0</asrwt>
<pdfrwt beam="1">  1       21 0.10565115E+00 0.10204494E+04</pdfrwt>
<pdfrwt beam="2">  1        4 0.78020497E-01 0.10204494E+04</pdfrwt>
<totfact> 0.39590412E+01</totfact>
</mgrwt>
</event>
<event>
 6    1  0.1375310E-005  0.1037119E+04  0.7818608E-02  0.9642265E-01
          4   -1    0    0  502    0 -0.00000000000E+00  0.00000000000E+00  0.97980662316E+03  0.97980662316E+03  0.00000000000E+00 0.  1.
         21   -1    0    0  501  502  0.00000000000E+00 -0.00000000000E+00 -0.75382322912E+03  0.75382322912E+03  0.00000000000E+00 0.  1.
    9000010    2    1    2  501    0  0.26289873506E+03 -0.87411590775E+02 -0.34991371278E+03  0.10945570709E+04  0.99942935917E+03 0.  0.
        -13    1    3    3    0    0  0.18400699761E+03 -0.49277068599E+03  0.38788322338E+02  0.52743347378E+03  0.10566000000E+00 0.  1.
          4    1    3    3  501    0  0.78891737445E+02  0.40535909522E+03 -0.38870203511E+03  0.56712359712E+03  0.00000000000E+00 0.  1.
         13    1    1    2    0    0 -0.26289873506E+03  0.87411590775E+02  0.57589710681E+03  0.63907278138E+03  0.10566000000E+00 0. -1.
<mgrwt>
<rscale>  1 0.74560847E+03</rscale>
<asrwt>0</asrwt>
<pdfrwt beam="2">  1       21 0.11597280E+00 0.10371189E+04</pdfrwt>
<pdfrwt beam="1">  1        4 0.15073948E+00 0.10371189E+04</pdfrwt>
<totfact> 0.61477132E+00</totfact>
</mgrwt>
</event>
<event>
 6    1  0.1375310E-005  0.1043495E+04  0.7818608E-02  0.9615537E-01
          4   -1    0    0  502    0 -0.00000000000E+00  0.00000000000E+00  0.15179531315E+04  0.15179531315E+04  0.00000000000E+00 0.  1.
         21   -1    0    0  501  502  0.00000000000E+00 -0.00000000000E+00 -0.30294071100E+03  0.30294071100E+03  0.00000000000E+00 0. -1.
    9000010    2    1    2  501    0 -0.22826540521E+03  0.19143201329E+03  0.82563436074E+03  0.13306218817E+04  0.10000655896E+04 0.  0.
        -13    1    3    3    0    0  0.77661231853E+02 -0.38083519653E+03  0.37895193810E+03  0.54283634403E+03  0.10566000000E+00 0.  1.
          4    1    3    3  501    0 -0.30592663706E+03  0.57226720983E+03  0.44668242264E+03  0.78778553770E+03  0.00000000000E+00 0.  1.
         13    1    1    2    0    0  0.22826540521E+03 -0.19143201329E+03  0.38937805975E+03  0.49027196076E+03  0.10566000000E+00 0. -1.
<mgrwt>
<rscale>  1 0.76276320E+03</rscale>
<asrwt>0</asrwt>
<pdfrwt beam="2">  1       21 0.46606264E-01 0.10434953E+04</pdfrwt>
<pdfrwt beam="1">  1        4 0.23353125E+00 0.10434953E+04</pdfrwt>
<totfact> 0.13942469E+01</totfact>
</mgrwt>
</event>
<event>
 6    1  0.1375310E-005  0.1029351E+04  0.7818608E-02  0.9649703E-01
          4   -1    0    0  502    0 -0.00000000000E+00  0.00000000000E+00  0.76461265976E+03  0.76461265976E+03  0.00000000000E+00 0.  1.
         21   -1    0    0  501  502  0.00000000000E+00 -0.00000000000E+00 -0.55781126573E+03  0.55781126573E+03  0.00000000000E+00 0. -1.
    9000010    2    1    2  501    0  0.59186636902E+02 -0.26989658357E+03  0.14814906992E+03  0.10399574140E+04  0.99157251488E+03 0.  0.
        -13    1    3    3    0    0 -0.57164414693E+02 -0.60429223046E+03 -0.89476209866E+02  0.61354940583E+03  0.10566000000E+00 0.  1.
          4    1    3    3  501    0  0.11635105160E+03  0.33439564688E+03  0.23762527978E+03  0.42640800820E+03  0.00000000000E+00 0.  1.
         13    1    1    2    0    0 -0.59186636902E+02  0.26989658357E+03  0.58652324113E+02  0.28246651147E+03  0.10566000000E+00 0. -1.
<mgrwt>
<rscale>  1 0.74092074E+03</rscale>
<asrwt>0</asrwt>
<pdfrwt beam="2">  1       21 0.85817118E-01 0.10293509E+04</pdfrwt>
<pdfrwt beam="1">  1        4 0.11763272E+00 0.10293509E+04</pdfrwt>
<totfact> 0.24688707E+01</totfact>
</mgrwt>
</event>
<event>
 6    1  0.1375310E-005  0.1090989E+04  0.7818608E-02  0.9460205E-01
          4   -1    0    0  502    0 -0.00000000000E+00  0.00000000000E+00  0.44473105704E+03  0.44473105704E+03  0.00000000000E+00 0.  1.
         21   -1    0    0  501  502  0.00000000000E+00 -0.00000000000E+00 -0.13542911956E+04  0.13542911956E+04  0.00000000000E+00 0.  1.
    9000010    2    1    2  501    0 -0.44693172339E+03 -0.21570558576E+01 -0.75231735103E+03  0.13252312400E+04  0.99524058629E+03 0.  0.
        -13    1    3    3    0    0 -0.26621116919E+03 -0.38614836870E+03 -0.87790379499E+01  0.46910130241E+03  0.10566000000E+00 0.  1.
          4    1    3    3  501    0 -0.18072055420E+03  0.38399131284E+03 -0.74353831308E+03  0.85612993761E+03  0.00000000000E+00 0.  1.
         13    1    1    2    0    0  0.44693172339E+03  0.21570558576E+01 -0.15724278755E+03  0.47379101265E+03  0.10566000000E+00 0. -1.
<mgrwt>
<rscale>  1 0.87282417E+03</rscale>
<asrwt>0</asrwt>
<pdfrwt beam="2">  1       21 0.20835249E+00 0.10909887E+04</pdfrwt>
<pdfrwt beam="1">  1        4 0.68420162E-01 0.10909887E+04</pdfrwt>
<totfact> 0.78247899E+00</totfact>
</mgrwt>
</event>
<event>
 6    1  0.1375310E-005  0.9101334E+03  0.7818608E-02  0.1017214E+00
         21   -1    0    0  501  502  0.00000000000E+00  0.00000000000E+00  0.15003414289E+03  0.15003414289E+03  0.00000000000E+00 0.  1.
          4   -1    0    0  502    0 -0.00000000000E+00 -0.00000000000E+00 -0.17772285043E+04  0.17772285043E+04  0.00000000000E+00 0.  1.
    9000010    2    1    2  501    0 -0.71106167997E+01 -0.74304626744E+02 -0.12705748841E+04  0.15629150094E+04  0.90706728085E+03 0.  0.
        -13    1    3    3    0    0  0.28272817227E+03 -0.26042576319E+03 -0.11251906907E+04  0.11890378039E+04  0.10566000000E+00 0.  1.
          4    1    3    3  501    0 -0.28983878906E+03  0.18612113644E+03 -0.14538419341E+03  0.37387720547E+03  0.00000000000E+00 0.  1.
         13    1    1    2    0    0  0.71106167997E+01  0.74304626744E+02 -0.35661947729E+03  0.36434763781E+03  0.10566000000E+00 0. -1.
<mgrwt>
<rscale>  1 0.48705470E+03</rscale>
<asrwt>0</asrwt>
<pdfrwt beam="1">  1       21 0.23082175E-01 0.91013339E+03</pdfrwt>
<pdfrwt beam="2">  1        4 0.27341978E+00 0.91013339E+03</pdfrwt>
<totfact> 0.33670475E+01</totfact>
</mgrwt>
</event>
<event>
 6    1  0.1375310E-005  0.1022335E+04  0.7818608E-02  0.9903127E-01
          4   -1    0    0  502    0 -0.00000000000E+00  0.00000000000E+00  0.61980812473E+03  0.61980812473E+03  0.00000000000E+00 0.  1.
         21   -1    0    0  501  502  0.00000000000E+00 -0.00000000000E+00 -0.54122209180E+03  0.54122209180E+03  0.00000000000E+00 0.  1.
    9000010    2    1    2  501    0  0.72407763453E+02 -0.98415093741E+02  0.13129527617E+02  0.10224193218E+04  0.10150076208E+04 0.  0.
        -13    1    3    3    0    0  0.28056953619E+03 -0.17284120038E+03  0.43524313845E+03  0.54592119020E+03  0.10566000000E+00 0.  1.
          4    1    3    3  501    0 -0.20816177274E+03  0.74426106637E+02 -0.42211361083E+03  0.47649813161E+03  0.00000000000E+00 0.  1.
         13    1    1    2    0    0 -0.72407763453E+02  0.98415093741E+02  0.65456505305E+02  0.13861089472E+03  0.10566000000E+00 0. -1.
<mgrwt>
<rscale>  1 0.60109993E+03</rscale>
<asrwt>0</asrwt>
<pdfrwt beam="2">  1       21 0.83264937E-01 0.10223350E+04</pdfrwt>
<pdfrwt beam="1">  1        4 0.95355096E-01 0.10223350E+04</pdfrwt>
<totfact> 0.44330503E+01</totfact>
</mgrwt>
</event>
<event>
 6    1  0.1375310E-005  0.1031002E+04  0.7818608E-02  0.9740124E-01
         21   -1    0    0  501  502  0.00000000000E+00  0.00000000000E+00  0.44645995898E+03  0.44645995898E+03  0.00000000000E+00 0.  1.
          4   -1    0    0  502    0 -0.00000000000E+00 -0.00000000000E+00 -0.13457407924E+04  0.13457407924E+04  0.00000000000E+00 0.  1.
    9000010    2    1    2  501    0  0.18755934997E+03 -0.77629161932E+02 -0.18224382892E+03  0.10469847602E+04  0.10108211901E+04 0.  0.
        -13    1    3    3    0    0  0.76518061534E+02  0.36499355417E+03  0.22483732472E+03  0.43546198695E+03  0.10566000000E+00 0.  1.
          4    1    3    3  501    0  0.11104128844E+03 -0.44262271610E+03 -0.40708115364E+03  0.61152277324E+03  0.00000000000E+00 0.  1.
         13    1    1    2    0    0 -0.18755934997E+03  0.77629161932E+02 -0.71703700453E+03  0.74521599122E+03  0.10566000000E+00 0. -1.
<mgrwt>
<rscale>  1 0.68677264E+03</rscale>
<asrwt>0</asrwt>
<pdfrwt beam="1">  1       21 0.68686148E-01 0.10310016E+04</pdfrwt>
<pdfrwt beam="2">  1        4 0.20703704E+00 0.10310016E+04</pdfrwt>
<totfact> 0.87519355E+00</totfact>
</mgrwt>
</event>
<event>
 6    1  0.1375310E-005  0.1006866E+04  0.7818608E-02  0.1005241E+00
         21   -1    0    0  501  502  0.00000000000E+00  0.00000000000E+00  0.10135487356E+04  0.10135487356E+04  0.00000000000E+00 0.  1.
          4   -1    0    0  502    0 -0.00000000000E+00 -0.00000000000E+00 -0.31577728967E+03  0.31577728967E+03  0.00000000000E+00 0.  1.
    9000010    2    1    2  501    0  0.76324805987E+02  0.23033051227E+02  0.72966509702E+03  0.12434586065E+04  0.10037042168E+04 0.  0.
        -13    1    3    3    0    0  0.97567205943E+02  0.10241964746E+03 -0.23554545807E+03  0.27475592413E+03  0.10566000000E+00 0.  1.
          4    1    3    3  501    0 -0.21242399956E+02 -0.79386596231E+02  0.96521055509E+03  0.96870268239E+03  0.00000000000E+00 0.  1.
         13    1    1    2    0    0 -0.76324805987E+02 -0.23033051227E+02 -0.31893651095E+02  0.85867418745E+02  0.10566000000E+00 0. -1.
<mgrwt>
<rscale>  1 0.53410502E+03</rscale>
<asrwt>0</asrwt>
<pdfrwt beam="1">  1       21 0.15593057E+00 0.10068655E+04</pdfrwt>
<pdfrwt beam="2">  1        4 0.48581122E-01 0.10068655E+04</pdfrwt>
<totfact> 0.39809849E+01</totfact>
</mgrwt>
</event>
<event>
 6    1  0.1375310E-005  0.1013443E+04  0.7818608E-02  0.9863279E-01
          4   -1    0    0  502    0 -0.00000000000E+00  0.00000000000E+00  0.69426613508E+03  0.69426613508E+03  0.00000000000E+00 0.  1.
         21   -1    0    0  501  502  0.00000000000E+00 -0.00000000000E+00 -0.48311583738E+03  0.48311583738E+03  0.00000000000E+00 0.  1.
    9000010    2    1    2  501    0  0.13300614450E+03  0.51542561029E+02  0.16084325758E+03  0.10261269576E+04  0.10033537310E+04 0.  0.
        -13    1    3    3    0    0 -0.18857573881E+03 -0.29754013927E+03 -0.22196106219E+03  0.41636242390E+03  0.10566000000E+00 0.  1.
          4    1    3    3  501    0  0.32158188331E+03  0.34908270030E+03  0.38280431978E+03  0.60976453370E+03  0.00000000000E+00 0.  1.
         13    1    1    2    0    0 -0.13300614450E+03 -0.51542561029E+02  0.50307040117E+02  0.15125501486E+03  0.10566000000E+00 0. -1.
<mgrwt>
<rscale>  1 0.62074421E+03</rscale>
<asrwt>0</asrwt>
<pdfrwt beam="2">  1       21 0.74325513E-01 0.10134426E+04</pdfrwt>
<pdfrwt beam="1">  1        4 0.10681018E+00 0.10134426E+04</pdfrwt>
<totfact> 0.44010092E+01</totfact>
</mgrwt>
</event>
<event>
 6    1  0.1375310E-005  0.1098962E+04  0.7818608E-02  0.9441189E-01
         21   -1    0    0  501  502  0.00000000000E+00  0.00000000000E+00  0.38888623618E+03  0.38888623618E+03  0.00000000000E+00 0.  1.
          4   -1    0    0  502    0 -0.00000000000E+00 -0.00000000000E+00 -0.17154550259E+04  0.17154550259E+04  0.00000000000E+00 0.  1.
    9000010    2    1    2  501    0 -0.32646652790E+03 -0.33490060600E+03 -0.63425953017E+03  0.12688588076E+04  0.99447408826E+03 0.  0.
        -13    1    3    3    0    0 -0.11289311212E+03  0.33118747332E+03 -0.39940696725E+03  0.53099522964E+03  0.10566000000E+00 0.  1.
          4    1    3    3  501    0 -0.21357341578E+03 -0.66608807932E+03 -0.23485256293E+03  0.73786357794E+03  0.00000000000E+00 0.  1.
         13    1    1    2    0    0  0.32646652790E+03  0.33490060600E+03 -0.69230925953E+03  0.83548245448E+03  0.10566000000E+00 0. -1.
<mgrwt>
<rscale>  1 0.88762136E+03</rscale>
<asrwt>0</asrwt>
<pdfrwt beam="1">  1       21 0.59828651E-01 0.10989620E+04</pdfrwt>
<pdfrwt beam="2">  1        4 0.26391616E+00 0.10989620E+04</pdfrwt>
<totfact> 0.51975183E+00</totfact>
</mgrwt>
</event>
<event>
 6    1  0.1375310E-005  0.9975026E+03  0.7818608E-02  0.1033680E+00
          4   -1    0    0  502    0 -0.00000000000E+00  0.00000000000E+00  0.83450747693E+03  0.83450747693E+03  0.00000000000E+00 0.  1.
         21   -1    0    0  501  502  0.00000000000E+00 -0.00000000000E+00 -0.31970420341E+03  0.31970420341E+03  0.00000000000E+00 0.  1.
    9000010    2    1    2  501    0  0.25780380652E+02 -0.23118802023E+02  0.50590027525E+03  0.11184572180E+04  0.99690137577E+03 0.  0.
        -13    1    3    3    0    0  0.31039700932E+03  0.38176973219E+03  0.17108419459E+03  0.52092633320E+03  0.10566000000E+00 0.  1.
          4    1    3    3  501    0 -0.28461662867E+03 -0.40488853422E+03  0.33481608065E+03  0.59753088482E+03  0.00000000000E+00 0.  1.
         13    1    1    2    0    0 -0.25780380652E+02  0.23118802023E+02  0.89029982679E+01  0.35754462319E+02  0.10566000000E+00 0. -1.
<mgrwt>
<rscale>  1 0.43056957E+03</rscale>
<asrwt>0</asrwt>
<pdfrwt beam="2">  1       21 0.49185263E-01 0.99750261E+03</pdfrwt>
<pdfrwt beam="1">  1        4 0.12838576E+00 0.99750261E+03</pdfrwt>
<totfact> 0.69948898E+01</totfact>
</mgrwt>
</event>
<event>
 6    1  0.1375310E-005  0.1058783E+04  0.7818608E-02  0.9613066E-01
         21   -1    0    0  501  502  0.00000000000E+00  0.00000000000E+00  0.79149843529E+03  0.79149843529E+03  0.00000000000E+00 0.  1.
          4   -1    0    0  502    0 -0.00000000000E+00 -0.00000000000E+00 -0.60264698120E+03  0.60264698120E+03  0.00000000000E+00 0.  1.
    9000010    2    1    2  501    0 -0.23587765595E+03  0.16456290471E+03  0.27499552016E+03  0.10939121248E+04  0.10189710410E+04 0.  0.
        -13    1    3    3    0    0 -0.31050243049E+03  0.44894861468E+03 -0.16004025360E+03  0.56884049777E+03  0.10566000000E+00 0.  1.
          4    1    3    3  501    0  0.74624774539E+02 -0.28438570998E+03  0.43503577376E+03  0.52507162698E+03  0.00000000000E+00 0.  1.
         13    1    1    2    0    0  0.23587765595E+03 -0.16456290471E+03 -0.86144066074E+02  0.30023329173E+03  0.10566000000E+00 0. -1.
<mgrwt>
<rscale>  1 0.76437416E+03</rscale>
<asrwt>0</asrwt>
<pdfrwt beam="1">  1       21 0.12176899E+00 0.10587829E+04</pdfrwt>
<pdfrwt beam="2">  1        4 0.92714920E-01 0.10587829E+04</pdfrwt>
<totfact> 0.18364834E+01</totfact>
</mgrwt>
</event>
<event>
 6    1  0.1375310E-005  0.1014152E+04  0.7818608E-02  0.9709876E-01
         21   -1    0    0  501  502  0.00000000000E+00  0.00000000000E+00  0.31658979577E+03  0.31658979577E+03  0.00000000000E+00 0.  1.
          4   -1    0    0  502    0 -0.00000000000E+00 -0.00000000000E+00 -0.12434173970E+04  0.12434173970E+04  0.00000000000E+00 0.  1.
    9000010    2    1    2  501    0 -0.18900000634E+03  0.14120012372E+03 -0.69646280581E+03  0.12302702863E+04  0.98632959006E+03 0.  0.
        -13    1    3    3    0    0  0.40254205165E+03  0.77522211236E+02 -0.20376280831E+03  0.45778716649E+03  0.10566000000E+00 0.  1.
          4    1    3    3  501    0 -0.59154205799E+03  0.63677912481E+02 -0.49269999750E+03  0.77248311984E+03  0.00000000000E+00 0.  1.
         13    1    1    2    0    0  0.18900000634E+03 -0.14120012372E+03 -0.23036479544E+03  0.32973690645E+03  0.10566000000E+00 0. -1.
<mgrwt>
<rscale>  1 0.70431795E+03</rscale>
<asrwt>0</asrwt>
<pdfrwt beam="1">  1       21 0.48706123E-01 0.10141521E+04</pdfrwt>
<pdfrwt beam="2">  1        4 0.19129498E+00 0.10141521E+04</pdfrwt>
<totfact> 0.23897096E+01</totfact>
</mgrwt>
</event>
<event>
 6    1  0.1375310E-005  0.1043672E+04  0.7818608E-02  0.9605394E-01
          4   -1    0    0  502    0 -0.00000000000E+00  0.00000000000E+00  0.14257449072E+04  0.14257449072E+04  0.00000000000E+00 0.  1.
         21   -1    0    0  501  502  0.00000000000E+00 -0.00000000000E+00 -0.32056224368E+03  0.32056224368E+03  0.00000000000E+00 0. -1.
    9000010    2    1    2  501    0  0.26479479939E+03  0.15782773364E+03  0.84182662010E+03  0.13408662846E+04  0.99710804607E+03 0.  0.
        -13    1    3    3    0    0 -0.35454753966E+03 -0.10470894327E+03  0.26689761107E+03  0.45596301016E+03  0.10566000000E+00 0.  1.
          4    1    3    3  501    0  0.61934233905E+03  0.26253667691E+03  0.57492900903E+03  0.88490327442E+03  0.00000000000E+00 0.  1.
         13    1    1    2    0    0 -0.26479479939E+03 -0.15782773364E+03  0.26335604343E+03  0.40544086630E+03  0.10566000000E+00 0. -1.
<mgrwt>
<rscale>  1 0.76940168E+03</rscale>
<asrwt>0</asrwt>
<pdfrwt beam="2">  1       21 0.49317269E-01 0.10436716E+04</pdfrwt>
<pdfrwt beam="1">  1        4 0.21934537E+00 0.10436716E+04</pdfrwt>
<totfact> 0.15182459E+01</totfact>
</mgrwt>
</event>
<event>
 6    1  0.1375310E-005  0.1081837E+04  0.7818608E-02  0.9425785E-01
         21   -1    0    0  501  502  0.00000000000E+00  0.00000000000E+00  0.73564184751E+03  0.73564184751E+03  0.00000000000E+00 0.  1.
          4   -1    0    0  502    0 -0.00000000000E+00 -0.00000000000E+00 -0.10700087515E+04  0.10700087515E+04  0.00000000000E+00 0.  1.
    9000010    2    1    2  501    0  0.22705158607E+03 -0.46537660291E+03  0.15536225431E+03  0.10929357437E+04  0.94986488753E+03 0.  0.
        -13    1    3    3    0    0  0.40901816170E+03 -0.60217005188E+03 -0.11772848210E+03  0.73740398334E+03  0.10566000000E+00 0.  1.
          4    1    3    3  501    0 -0.18196657563E+03  0.13679344897E+03  0.27309073641E+03  0.35553176038E+03  0.00000000000E+00 0.  1.
         13    1    1    2    0    0 -0.22705158607E+03  0.46537660291E+03 -0.48972915826E+03  0.71271485525E+03  0.10566000000E+00 0. -1.
<mgrwt>
<rscale>  1 0.89983749E+03</rscale>
<asrwt>0</asrwt>
<pdfrwt beam="1">  1       21 0.11317567E+00 0.10818369E+04</pdfrwt>
<pdfrwt beam="2">  1        4 0.16461673E+00 0.10818369E+04</pdfrwt>
<totfact> 0.51133373E+00</totfact>
</mgrwt>
</event>
<event>
 6    1  0.1375310E-005  0.1017080E+04  0.7818608E-02  0.9758944E-01
          4   -1    0    0  502    0 -0.00000000000E+00  0.00000000000E+00  0.24340346803E+04  0.24340346803E+04  0.00000000000E+00 0.  1.
         21   -1    0    0  501  502  0.00000000000E+00 -0.00000000000E+00 -0.15841955124E+03  0.15841955124E+03  0.00000000000E+00 0.  1.
    9000010    2    1    2  501    0  0.15539129610E+03 -0.12373402439E+03  0.16725475404E+04  0.19575155799E+04  0.99749456486E+03 0.  0.
        -13    1    3    3    0    0  0.17079397781E+03 -0.10046837291E+03 -0.73425820375E+02  0.21131928231E+03  0.10566000000E+00 0.  1.
          4    1    3    3  501    0 -0.15402681709E+02 -0.23265651474E+02  0.17459733608E+04  0.17461962976E+04  0.00000000000E+00 0.  1.
         13    1    1    2    0    0 -0.15539129610E+03  0.12373402439E+03  0.60306758861E+03  0.63493865159E+03  0.10566000000E+00 0. -1.
<mgrwt>
<rscale>  1 0.67613170E+03</rscale>
<asrwt>0</asrwt>
<pdfrwt beam="2">  1       21 0.24372240E-01 0.10170801E+04</pdfrwt>
<pdfrwt beam="1">  1        4 0.37446685E+00 0.10170801E+04</pdfrwt>
<totfact> 0.68429995E+00</totfact>
</mgrwt>
</event>
<event>
 6    1  0.1375310E-005  0.1080238E+04  0.7818608E-02  0.9460655E-01
         21   -1    0    0  501  502  0.00000000000E+00  0.00000000000E+00  0.19714171793E+04  0.19714171793E+04  0.00000000000E+00 0. -1.
          4   -1    0    0  502    0 -0.00000000000E+00 -0.00000000000E+00 -0.41023134032E+03  0.41023134032E+03  0.00000000000E+00 0.  1.
    9000010    2    1    2  501    0 -0.41427762191E+03  0.19920568889E+03  0.15886724875E+04  0.19211440337E+04  0.97755064901E+03 0.  0.
        -13    1    3    3    0    0 -0.24826922816E+03  0.20776596958E+03 -0.64019948388E-01  0.32373495800E+03  0.10566000000E+00 0.  1.
          4    1    3    3  501    0 -0.16600839375E+03 -0.85602806950E+01  0.15887365074E+04  0.15974090757E+04  0.00000000000E+00 0.  1.
         13    1    1    2    0    0  0.41427762191E+03 -0.19920568889E+03 -0.27486648517E+02  0.46050448587E+03  0.10566000000E+00 0. -1.
<mgrwt>
<rscale>  1 0.87247763E+03</rscale>
<asrwt>0</asrwt>
<pdfrwt beam="1">  1       21 0.30329495E+00 0.10802380E+04</pdfrwt>
<pdfrwt beam="2">  1        4 0.63112515E-01 0.10802380E+04</pdfrwt>
<totfact> 0.23157887E+00</totfact>
</mgrwt>
</event>
<event>
 6    1  0.1375310E-005  0.1058348E+04  0.7818608E-02  0.9571477E-01
         21   -1    0    0  501  502  0.00000000000E+00  0.00000000000E+00  0.13592322236E+04  0.13592322236E+04  0.00000000000E+00 0. -1.
          4   -1    0    0  502    0 -0.00000000000E+00 -0.00000000000E+00 -0.37905724136E+03  0.37905724136E+03  0.00000000000E+00 0.  1.
    9000010    2    1    2  501    0 -0.20690347425E+03  0.25980569103E+03  0.54374632838E+03  0.11898571302E+04  0.10048840112E+04 0.  0.
        -13    1    3    3    0    0  0.10612310535E+03  0.44941300121E+03  0.66032120567E+03  0.80576563899E+03  0.10566000000E+00 0.  1.
          4    1    3    3  501    0 -0.31302657960E+03 -0.18960731018E+03 -0.11657487729E+03  0.38409149122E+03  0.00000000000E+00 0.  1.
         13    1    1    2    0    0  0.20690347425E+03 -0.25980569103E+03  0.43642865388E+03  0.54843233478E+03  0.10566000000E+00 0. -1.
<mgrwt>
<rscale>  1 0.79213143E+03</rscale>
<asrwt>0</asrwt>
<pdfrwt beam="1">  1       21 0.20911265E+00 0.10583477E+04</pdfrwt>
<pdfrwt beam="2">  1        4 0.58316499E-01 0.10583477E+04</pdfrwt>
<totfact> 0.11036498E+01</totfact>
</mgrwt>
</event>
<event>
 6    1  0.1375310E-005  0.1030413E+04  0.7818608E-02  0.9719199E-01
          4   -1    0    0  502    0 -0.00000000000E+00  0.00000000000E+00  0.81144581535E+03  0.81144581535E+03  0.00000000000E+00 0.  1.
         21   -1    0    0  501  502  0.00000000000E+00 -0.00000000000E+00 -0.53605469516E+03  0.53605469516E+03  0.00000000000E+00 0.  1.
    9000010    2    1    2  501    0 -0.18165129433E+03 -0.12057068682E+03  0.46605342571E+02  0.10314666097E+04  0.10070833261E+04 0.  0.
        -13    1    3    3    0    0 -0.13520749729E+03 -0.56579745943E+03  0.49325171448E+02  0.58381573816E+03  0.10566000000E+00 0.  1.
          4    1    3    3  501    0 -0.46443797039E+02  0.44522677261E+03 -0.27198288769E+01  0.44765087155E+03  0.00000000000E+00 0.  1.
         13    1    1    2    0    0  0.18165129433E+03  0.12057068682E+03  0.22878577762E+03  0.31603390080E+03  0.10566000000E+00 0. -1.
<mgrwt>
<rscale>  1 0.69885111E+03</rscale>
<asrwt>0</asrwt>
<pdfrwt beam="2">  1       21 0.82469953E-01 0.10304132E+04</pdfrwt>
<pdfrwt beam="1">  1        4 0.12483782E+00 0.10304132E+04</pdfrwt>
<totfact> 0.23351494E+01</totfact>
</mgrwt>
</event>
<event>
 6    1  0.1375310E-005  0.1053719E+04  0.7818608E-02  0.9447874E-01
         21   -1    0    0  501  502  0.00000000000E+00  0.00000000000E+00  0.14843167380E+04  0.14843167380E+04  0.00000000000E+00 0.  1.
          4   -1    0    0  502    0 -0.00000000000E+00 -0.00000000000E+00 -0.55729002886E+03  0.55729002886E+03  0.00000000000E+00 0.  1.
    9000010    2    1    2  501    0  0.50267316955E+03 -0.12569513828E+03  0.10723985427E+04  0.15034501314E+04  0.91752061553E+03 0.  0.
        -13    1    3    3    0    0  0.61770971019E+03  0.21770878045E+03  0.86870096886E+03  0.10879355604E+04  0.10566000000E+00 0.  1.
          4    1    3    3  501    0 -0.11503654064E+03 -0.34340391874E+03  0.20369757389E+03  0.41551457098E+03  0.00000000000E+00 0.  1.
         13    1    1    2    0    0 -0.50267316955E+03  0.12569513828E+03 -0.14537183358E+03  0.53815663550E+03  0.10566000000E+00 0. -1.
<mgrwt>
<rscale>  1 0.88238376E+03</rscale>
<asrwt>0</asrwt>
<pdfrwt beam="1">  1       21 0.22835642E+00 0.10537190E+04</pdfrwt>
<pdfrwt beam="2">  1        4 0.85736928E-01 0.10537190E+04</pdfrwt>
<totfact> 0.34613144E+00</totfact>
</mgrwt>
</event>
<event>
 6    1  0.1375310E-005  0.1104942E+04  0.7818608E-02  0.9476451E-01
          4   -1    0    0  502    0 -0.00000000000E+00  0.00000000000E+00  0.27660761389E+03  0.27660761389E+03  0.00000000000E+00 0.  1.
         21   -1    0    0  501  502  0.00000000000E+00 -0.00000000000E+00 -0.24336556719E+04  0.24336556719E+04  0.00000000000E+00 0. -1.
    9000010    2    1    2  501    0  0.13976288155E+03 -0.38149134907E+03 -0.19792234633E+04  0.22667647964E+04  0.10275348227E+04 0.  0.
        -13    1    3    3    0    0 -0.39263175509E+03 -0.56397457352E+01 -0.11301347671E+04  0.11964096726E+04  0.10566000000E+00 0.  1.
          4    1    3    3  501    0  0.53239463663E+03 -0.37585160334E+03 -0.84908869621E+03  0.10703551237E+04  0.00000000000E+00 0.  1.
         13    1    1    2    0    0 -0.13976288155E+03  0.38149134907E+03 -0.17782459470E+03  0.44349848942E+03  0.10566000000E+00 0. -1.
<mgrwt>
<rscale>  1 0.86042486E+03</rscale>
<asrwt>0</asrwt>
<pdfrwt beam="2">  1       21 0.37440855E+00 0.11049421E+04</pdfrwt>
<pdfrwt beam="1">  1        4 0.42555019E-01 0.11049421E+04</pdfrwt>
<totfact> 0.18975245E+00</totfact>
</mgrwt>
</event>
<event>
 6    1  0.1375310E-005  0.1057220E+04  0.7818608E-02  0.9639601E-01
          4   -1    0    0  502    0 -0.00000000000E+00  0.00000000000E+00  0.59498064371E+03  0.59498064371E+03  0.00000000000E+00 0.  1.
         21   -1    0    0  501  502  0.00000000000E+00 -0.00000000000E+00 -0.11931086186E+04  0.11931086186E+04  0.00000000000E+00 0.  1.
    9000010    2    1    2  501    0 -0.53465645325E+02  0.25844979082E+03 -0.89906571698E+03  0.13878163487E+04  0.10237481061E+04 0.  0.
        -13    1    3    3    0    0  0.25107567397E+02  0.42962546064E+03  0.37977944925E+02  0.43203097324E+03  0.10566000000E+00 0.  1.
          4    1    3    3  501    0 -0.78573212723E+02 -0.17117566982E+03 -0.93704366190E+03  0.95578537549E+03  0.00000000000E+00 0.  1.
         13    1    1    2    0    0  0.53465645325E+02 -0.25844979082E+03  0.30093774206E+03  0.40027291360E+03  0.10566000000E+00 0. -1.
<mgrwt>
<rscale>  1 0.74729677E+03</rscale>
<asrwt>0</asrwt>
<pdfrwt beam="2">  1       21 0.18355517E+00 0.10572204E+04</pdfrwt>
<pdfrwt beam="1">  1        4 0.91535485E-01 0.10572204E+04</pdfrwt>
<totfact> 0.59963021E+00</totfact>
</mgrwt>
</event>
<event>
 6    1  0.1375310E-005  0.1256291E+04  0.7818608E-02  0.9193959E-01
          4   -1    0    0  502    0 -0.00000000000E+00  0.00000000000E+00  0.11089593470E+04  0.11089593470E+04  0.00000000000E+00 0.  1.
         21   -1    0    0  501  502  0.00000000000E+00 -0.00000000000E+00 -0.92670375041E+03  0.92670375041E+03  0.00000000000E+00 0. -1.
    9000010    2    1    2  501    0 -0.59513602761E+02  0.76775455349E+03  0.79851926582E+02  0.12588262767E+04  0.99261187851E+03 0.  0.
        -13    1    3    3    0    0 -0.37870022223E+03  0.20477162823E+03  0.35264618977E+03  0.55651111792E+03  0.10566000000E+00 0.  1.
          4    1    3    3  501    0  0.31918661947E+03  0.56298292526E+03 -0.27279426319E+03  0.70231515875E+03  0.00000000000E+00 0.  1.
         13    1    1    2    0    0  0.59513602761E+02 -0.76775455349E+03  0.10240367005E+03  0.77683682078E+03  0.10566000000E+00 0. -1.
<mgrwt>
<rscale>  1 0.11116000E+04</rscale>
<asrwt>0</asrwt>
<pdfrwt beam="2">  1       21 0.14256981E+00 0.12562911E+04</pdfrwt>
<pdfrwt beam="1">  1        4 0.17060913E+00 0.12562911E+04</pdfrwt>
<totfact> 0.24560370E+00</totfact>
</mgrwt>
</event>
<event>
 6    1  0.1375310E-005  0.1014273E+04  0.7818608E-02  0.9615728E-01
          4   -1    0    0  502    0 -0.00000000000E+00  0.00000000000E+00  0.11319937935E+04  0.11319937935E+04  0.00000000000E+00 0.  1.
         21   -1    0    0  501  502  0.00000000000E+00 -0.00000000000E+00 -0.51146999004E+03  0.51146999004E+03  0.00000000000E+00 0.  1.
    9000010    2    1    2  501    0 -0.16421464566E+03  0.27953274797E+03  0.85487503766E+02  0.10178689784E+04  0.96106406491E+03 0.  0.
        -13    1    3    3    0    0 -0.23845940587E+03 -0.16084228390E+03 -0.30888758949E+03  0.42207189274E+03  0.10566000000E+00 0.  1.
          4    1    3    3  501    0  0.74244760202E+02  0.44037503187E+03  0.39437509325E+03  0.59579708567E+03  0.00000000000E+00 0.  1.
         13    1    1    2    0    0  0.16421464566E+03 -0.27953274797E+03  0.53503629967E+03  0.62559480510E+03  0.10566000000E+00 0. -1.
<mgrwt>
<rscale>  1 0.76263896E+03</rscale>
<asrwt>0</asrwt>
<pdfrwt beam="2">  1       21 0.78687691E-01 0.10142727E+04</pdfrwt>
<pdfrwt beam="1">  1        4 0.17415289E+00 0.10142727E+04</pdfrwt>
<totfact> 0.10704588E+01</totfact>
</mgrwt>
</event>
<event>
 6    1  0.1375310E-005  0.1028405E+04  0.7818608E-02  0.9775325E-01
          4   -1    0    0  502    0 -0.00000000000E+00  0.00000000000E+00  0.29781016910E+03  0.29781016910E+03  0.00000000000E+00 0.  1.
         21   -1    0    0  501  502  0.00000000000E+00 -0.00000000000E+00 -0.14670004170E+04  0.14670004170E+04  0.00000000000E+00 0.  1.
    9000010    2    1    2  501    0  0.17958902056E+03 -0.29622869612E+02 -0.11998065577E+04  0.15802378354E+04  0.10121690126E+04 0.  0.
        -13    1    3    3    0    0 -0.27684570914E+03  0.33653144597E+03 -0.60752494333E+03  0.74765201045E+03  0.10566000000E+00 0.  1.
          4    1    3    3  501    0  0.45643472970E+03 -0.36615431558E+03 -0.59228161433E+03  0.83258582499E+03  0.00000000000E+00 0.  1.
         13    1    1    2    0    0 -0.17958902056E+03  0.29622869612E+02  0.30616309748E+02  0.18457275068E+03  0.10566000000E+00 0. -1.
<mgrwt>
<rscale>  1 0.66703748E+03</rscale>
<asrwt>0</asrwt>
<pdfrwt beam="2">  1       21 0.22569237E+00 0.10284045E+04</pdfrwt>
<pdfrwt beam="1">  1        4 0.45816949E-01 0.10284045E+04</pdfrwt>
<totfact> 0.14349869E+01</totfact>
</mgrwt>
</event>
<event>
 6    1  0.1375310E-005  0.1030389E+04  0.7818608E-02  0.9640883E-01
         21   -1    0    0  501  502  0.00000000000E+00  0.00000000000E+00  0.31236824652E+03  0.31236824652E+03  0.00000000000E+00 0.  1.
          4   -1    0    0  502    0 -0.00000000000E+00 -0.00000000000E+00 -0.14198191123E+04  0.14198191123E+04  0.00000000000E+00 0.  1.
    9000010    2    1    2  501    0  0.28270284735E+03 -0.25407470427E+02 -0.74344196619E+03  0.12705934576E+04  0.99052275998E+03 0.  0.
        -13    1    3    3    0    0 -0.40525418238E+01  0.13186880361E+03  0.21812952438E+03  0.25492411623E+03  0.10566000000E+00 0.  1.
          4    1    3    3  501    0  0.28675538918E+03 -0.15727627404E+03 -0.96157149057E+03  0.10156693414E+04  0.00000000000E+00 0.  1.
         13    1    1    2    0    0 -0.28270284735E+03  0.25407470427E+02 -0.36400889958E+03  0.46159390117E+03  0.10566000000E+00 0. -1.
<mgrwt>
<rscale>  1 0.74648354E+03</rscale>
<asrwt>0</asrwt>
<pdfrwt beam="1">  1       21 0.48056653E-01 0.10303891E+04</pdfrwt>
<pdfrwt beam="2">  1        4 0.21843371E+00 0.10303891E+04</pdfrwt>
<totfact> 0.16293740E+01</totfact>
</mgrwt>
</event>
<event>
 6    1  0.1375310E-005  0.1057314E+04  0.7818608E-02  0.9563157E-01
          4   -1    0    0  502    0 -0.00000000000E+00  0.00000000000E+00  0.80010987371E+03  0.80010987371E+03  0.00000000000E+00 0.  1.
         21   -1    0    0  501  502  0.00000000000E+00 -0.00000000000E+00 -0.10607070667E+04  0.10607070667E+04  0.00000000000E+00 0.  1.
    9000010    2    1    2  501    0  0.10384002292E+03 -0.32669335987E+03 -0.72616223441E+03  0.12826628774E+04  0.10002005622E+04 0.  0.
        -13    1    3    3    0    0 -0.69285748953E+02 -0.27051186111E+03 -0.95228702003E+03  0.99238488586E+03  0.10566000000E+00 0.  1.
          4    1    3    3  501    0  0.17312577187E+03 -0.56181498753E+02  0.22612478561E+03  0.29027799151E+03  0.00000000000E+00 0.  1.
         13    1    1    2    0    0 -0.10384002292E+03  0.32669335987E+03  0.46556504137E+03  0.57815406308E+03  0.10566000000E+00 0. -1.
<mgrwt>
<rscale>  1 0.79783463E+03</rscale>
<asrwt>0</asrwt>
<pdfrwt beam="2">  1       21 0.16318570E+00 0.10573138E+04</pdfrwt>
<pdfrwt beam="1">  1        4 0.12309383E+00 0.10573138E+04</pdfrwt>
<totfact> 0.41149216E+00</totfact>
</mgrwt>
</event>
<event>
 6    1  0.1375310E-005  0.1007533E+04  0.7818608E-02  0.9879054E-01
          4   -1    0    0  502    0 -0.00000000000E+00  0.00000000000E+00  0.38973469840E+03  0.38973469840E+03  0.00000000000E+00 0.  1.
         21   -1    0    0  501  502  0.00000000000E+00 -0.00000000000E+00 -0.10602591343E+04  0.10602591343E+04  0.00000000000E+00 0.  1.
    9000010    2    1    2  501    0  0.12718909611E+03 -0.53398022416E+02 -0.77976664245E+03  0.12740327977E+04  0.99804565926E+03 0.  0.
        -13    1    3    3    0    0  0.50932662232E+03  0.17074092322E+03 -0.57204952176E+03  0.78473354559E+03  0.10566000000E+00 0.  1.
          4    1    3    3  501    0 -0.38213752621E+03 -0.22413894563E+03 -0.20771712069E+03  0.48929925211E+03  0.00000000000E+00 0.  1.
         13    1    1    2    0    0 -0.12718909611E+03  0.53398022416E+02  0.10924220657E+03  0.17596103497E+03  0.10566000000E+00 0. -1.
<mgrwt>
<rscale>  1 0.61287224E+03</rscale>
<asrwt>0</asrwt>
<pdfrwt beam="2">  1       21 0.16311679E+00 0.10075334E+04</pdfrwt>
<pdfrwt beam="1">  1        4 0.59959185E-01 0.10075334E+04</pdfrwt>
<totfact> 0.22312988E+01</totfact>
</mgrwt>
</event>
<event>
 6    1  0.1375310E-005  0.1045497E+04  0.7818608E-02  0.9627862E-01
         21   -1    0    0  501  502  0.00000000000E+00  0.00000000000E+00  0.37897848572E+03  0.37897848572E+03  0.00000000000E+00 0.  1.
          4   -1    0    0  502    0 -0.00000000000E+00 -0.00000000000E+00 -0.13385092217E+04  0.13385092217E+04  0.00000000000E+00 0.  1.
    9000010    2    1    2  501    0 -0.19412754959E+03 -0.20731465725E+03 -0.45862565494E+03  0.11416658739E+04  0.10061802043E+04 0.  0.
        -13    1    3    3    0    0  0.62396305133E+02 -0.38780600152E+03 -0.66063378818E+03  0.76858558857E+03  0.10566000000E+00 0.  1.
          4    1    3    3  501    0 -0.25652385472E+03  0.18049134426E+03  0.20200813324E+03  0.37308028531E+03  0.00000000000E+00 0.  1.
         13    1    1    2    0    0  0.19412754959E+03  0.20731465725E+03 -0.50090508108E+03  0.57582183359E+03  0.10566000000E+00 0. -1.
<mgrwt>
<rscale>  1 0.75479251E+03</rscale>
<asrwt>0</asrwt>
<pdfrwt beam="1">  1       21 0.58304383E-01 0.10454968E+04</pdfrwt>
<pdfrwt beam="2">  1        4 0.20592449E+00 0.10454968E+04</pdfrwt>
<totfact> 0.12851033E+01</totfact>
</mgrwt>
</event>
<event>
 6    1  0.1375310E-005  0.9576722E+03  0.7818608E-02  0.9795069E-01
         21   -1    0    0  501  502  0.00000000000E+00  0.00000000000E+00  0.29333245015E+03  0.29333245015E+03  0.00000000000E+00 0.  1.
          4   -1    0    0  502    0 -0.00000000000E+00 -0.00000000000E+00 -0.12438238921E+04  0.12438238921E+04  0.00000000000E+00 0.  1.
    9000010    2    1    2  501    0  0.20926765659E+03 -0.28533353104E+02 -0.60671236176E+03  0.11336824627E+04  0.93409257144E+03 0.  0.
        -13    1    3    3    0    0  0.93328414210E+02 -0.39033071256E+03 -0.63664443017E+03  0.75258514449E+03  0.10566000000E+00 0.  1.
          4    1    3    3  501    0  0.11593924238E+03  0.36179735946E+03  0.29932068417E+02  0.38109731822E+03  0.00000000000E+00 0.  1.
         13    1    1    2    0    0 -0.20926765659E+03  0.28533353104E+02 -0.34377908019E+03  0.40347387955E+03  0.10566000000E+00 0. -1.
<mgrwt>
<rscale>  1 0.65627850E+03</rscale>
<asrwt>0</asrwt>
<pdfrwt beam="1">  1       21 0.45128069E-01 0.95767220E+03</pdfrwt>
<pdfrwt beam="2">  1        4 0.19135752E+00 0.95767220E+03</pdfrwt>
<totfact> 0.28266757E+01</totfact>
</mgrwt>
</event>
<event>
 6    1  0.1375310E-005  0.1073330E+04  0.7818608E-02  0.9529831E-01
          4   -1    0    0  502    0 -0.00000000000E+00  0.00000000000E+00  0.25873659433E+03  0.25873659433E+03  0.00000000000E+00 0.  1.
         21   -1    0    0  501  502  0.00000000000E+00 -0.00000000000E+00 -0.20174661163E+04  0.20174661163E+04  0.00000000000E+00 0. -1.
    9000010    2    1    2  501    0  0.20493140830E+03 -0.30539539507E+03 -0.12349574846E+04  0.16362024077E+04  0.10083526669E+04 0.  0.
        -13    1    3    3    0    0  0.46331141600E+03 -0.53094797660E+03 -0.65310064035E+03  0.96078284728E+03  0.10566000000E+00 0.  1.
          4    1    3    3  501    0 -0.25838000770E+03  0.22555258153E+03 -0.58185684428E+03  0.67541956046E+03  0.00000000000E+00 0.  1.
         13    1    1    2    0    0 -0.20493140830E+03  0.30539539507E+03 -0.52377203738E+03  0.64000030293E+03  0.10566000000E+00 0. -1.
<mgrwt>
<rscale>  1 0.82119751E+03</rscale>
<asrwt>0</asrwt>
<pdfrwt beam="2">  1       21 0.31037940E+00 0.10733305E+04</pdfrwt>
<pdfrwt beam="1">  1        4 0.39805630E-01 0.10733305E+04</pdfrwt>
<totfact> 0.55541472E+00</totfact>
</mgrwt>
</event>
<event>
 6    1  0.1375310E-005  0.1057518E+04  0.7818608E-02  0.9570546E-01
          4   -1    0    0  502    0 -0.00000000000E+00  0.00000000000E+00  0.13239619675E+04  0.13239619675E+04  0.00000000000E+00 0.  1.
         21   -1    0    0  501  502  0.00000000000E+00 -0.00000000000E+00 -0.37114246620E+03  0.37114246620E+03  0.00000000000E+00 0.  1.
    9000010    2    1    2  501    0  0.17580754566E+03  0.28396052039E+03  0.63188143973E+03  0.12319164365E+04  0.10033952772E+04 0.  0.
        -13    1    3    3    0    0 -0.33089595096E+03  0.41482537997E+03  0.36857246087E+03  0.64607886230E+03  0.10566000000E+00 0.  1.
          4    1    3    3  501    0  0.50670349661E+03 -0.13086485959E+03  0.26330897885E+03  0.58583757416E+03  0.00000000000E+00 0.  1.
         13    1    1    2    0    0 -0.17580754566E+03 -0.28396052039E+03  0.32093806154E+03  0.46318799721E+03  0.10566000000E+00 0. -1.
<mgrwt>
<rscale>  1 0.79276692E+03</rscale>
<asrwt>0</asrwt>
<pdfrwt beam="2">  1       21 0.57098842E-01 0.10575178E+04</pdfrwt>
<pdfrwt beam="1">  1        4 0.20368645E+00 0.10575178E+04</pdfrwt>
<totfact> 0.13905217E+01</totfact>
</mgrwt>
</event>
<event>
 6    1  0.1375310E-005  0.1024016E+04  0.7818608E-02  0.9701636E-01
          4   -1    0    0  502    0 -0.00000000000E+00  0.00000000000E+00  0.42509022930E+03  0.42509022930E+03  0.00000000000E+00 0.  1.
         21   -1    0    0  501  502  0.00000000000E+00 -0.00000000000E+00 -0.97181670292E+03  0.97181670292E+03  0.00000000000E+00 0.  1.
    9000010    2    1    2  501    0  0.67138585631E+02  0.22581194788E+03 -0.32752826626E+03  0.10751205267E+04  0.99654942492E+03 0.  0.
        -13    1    3    3    0    0  0.27154508773E+03 -0.33079088702E+03 -0.17868342730E+03  0.46377486345E+03  0.10566000000E+00 0.  1.
          4    1    3    3  501    0 -0.20440650210E+03  0.55660283491E+03 -0.14884483897E+03  0.61134566328E+03  0.00000000000E+00 0.  1.
         13    1    1    2    0    0 -0.67138585631E+02 -0.22581194788E+03 -0.21919820736E+03  0.32178640549E+03  0.10566000000E+00 0. -1.
<mgrwt>
<rscale>  1 0.70919472E+03</rscale>
<asrwt>0</asrwt>
<pdfrwt beam="2">  1       21 0.14951026E+00 0.10240163E+04</pdfrwt>
<pdfrwt beam="1">  1        4 0.65398498E-01 0.10240163E+04</pdfrwt>
<totfact> 0.23559667E+01</totfact>
</mgrwt>
</event>
<event>
 6    1  0.1375310E-005  0.1026295E+04  0.7818608E-02  0.9728346E-01
         21   -1    0    0  501  502  0.00000000000E+00  0.00000000000E+00  0.14002690151E+04  0.14002690151E+04  0.00000000000E+00 0.  1.
          4   -1    0    0  502    0 -0.00000000000E+00 -0.00000000000E+00 -0.29693982361E+03  0.29693982361E+03  0.00000000000E+00 0.  1.
    9000010    2    1    2  501    0 -0.21374301350E+03  0.10998624625E+02  0.10663811120E+04  0.14800171784E+04  0.10037306047E+04 0.  0.
        -13    1    3    3    0    0  0.56952048201E+02 -0.25818349660E+03  0.10659657343E+04  0.10982646364E+04  0.10566000000E+00 0.  1.
          4    1    3    3  501    0 -0.27069506170E+03  0.26918212123E+03  0.41537772866E+00  0.38175254204E+03  0.00000000000E+00 0.  1.
         13    1    1    2    0    0  0.21374301350E+03 -0.10998624625E+02  0.36948079500E+02  0.21719166031E+03  0.10566000000E+00 0. -1.
<mgrwt>
<rscale>  1 0.69353890E+03</rscale>
<asrwt>0</asrwt>
<pdfrwt beam="1">  1       21 0.21542600E+00 0.10262954E+04</pdfrwt>
<pdfrwt beam="2">  1        4 0.45683051E-01 0.10262954E+04</pdfrwt>
<totfact> 0.16883267E+01</totfact>
</mgrwt>
</event>
<event>
 6    1  0.1375310E-005  0.1036335E+04  0.7818608E-02  0.9571731E-01
          4   -1    0    0  502    0 -0.00000000000E+00  0.00000000000E+00  0.36555990696E+03  0.36555990696E+03  0.00000000000E+00 0.  1.
         21   -1    0    0  501  502  0.00000000000E+00 -0.00000000000E+00 -0.13904746869E+04  0.13904746869E+04  0.00000000000E+00 0. -1.
    9000010    2    1    2  501    0  0.17218198409E+03 -0.30865610730E+03 -0.92409191951E+03  0.13885016177E+04  0.97420513161E+03 0.  0.
        -13    1    3    3    0    0 -0.33038090505E+03  0.11169764892E+03 -0.16516067431E+03  0.38588335893E+03  0.10566000000E+00 0.  1.
          4    1    3    3  501    0  0.50256288914E+03 -0.42035375622E+03 -0.75893124520E+03  0.10026182588E+04  0.00000000000E+00 0.  1.
         13    1    1    2    0    0 -0.17218198409E+03  0.30865610730E+03 -0.10082286045E+03  0.36753297617E+03  0.10566000000E+00 0. -1.
<mgrwt>
<rscale>  1 0.79195800E+03</rscale>
<asrwt>0</asrwt>
<pdfrwt beam="2">  1       21 0.21391918E+00 0.10363353E+04</pdfrwt>
<pdfrwt beam="1">  1        4 0.56239985E-01 0.10363353E+04</pdfrwt>
<totfact> 0.11111904E+01</totfact>
</mgrwt>
</event>
<event>
 6    1  0.1375310E-005  0.1021811E+04  0.7818608E-02  0.9788446E-01
         21   -1    0    0  501  502  0.00000000000E+00  0.00000000000E+00  0.40151753749E+03  0.40151753749E+03  0.00000000000E+00 0.  1.
          4   -1    0    0  502    0 -0.00000000000E+00 -0.00000000000E+00 -0.99584238599E+03  0.99584238599E+03  0.00000000000E+00 0.  1.
    9000010    2    1    2  501    0 -0.12296831013E+01 -0.17770239983E+03 -0.32044524686E+03  0.10708791394E+04  0.10062391962E+04 0.  0.
        -13    1    3    3    0    0 -0.22665752976E+03 -0.52892654585E+03 -0.30948852280E+03  0.65339121789E+03  0.10566000000E+00 0.  1.
          4    1    3    3  501    0  0.22542784666E+03  0.35122414602E+03 -0.10956724068E+02  0.41748792150E+03  0.00000000000E+00 0.  1.
         13    1    1    2    0    0  0.12296831013E+01  0.17770239983E+03 -0.27387960163E+03  0.32648078409E+03  0.10566000000E+00 0. -1.
<mgrwt>
<rscale>  1 0.65986297E+03</rscale>
<asrwt>0</asrwt>
<pdfrwt beam="1">  1       21 0.61771929E-01 0.10218106E+04</pdfrwt>
<pdfrwt beam="2">  1        4 0.15320652E+00 0.10218106E+04</pdfrwt>
<totfact> 0.26582951E+01</totfact>
</mgrwt>
</event>
<event>
 6    1  0.1375310E-005  0.1097574E+04  0.7818608E-02  0.9445125E-01
         21   -1    0    0  501  502  0.00000000000E+00  0.00000000000E+00  0.17814152991E+04  0.17814152991E+04  0.00000000000E+00 0.  1.
          4   -1    0    0  502    0 -0.00000000000E+00 -0.00000000000E+00 -0.45335638892E+03  0.45335638892E+03  0.00000000000E+00 0.  1.
    9000010    2    1    2  501    0 -0.38134475187E+03 -0.26252377251E+03  0.13862570073E+04  0.17681566641E+04  0.99515172093E+03 0.  0.
        -13    1    3    3    0    0 -0.50257039708E+03 -0.43859403638E+03  0.14032429591E+04  0.15537157225E+04  0.10566000000E+00 0.  1.
          4    1    3    3  501    0  0.12122564521E+03  0.17607026388E+03 -0.16985951863E+02  0.21444094161E+03  0.00000000000E+00 0.  1.
         13    1    1    2    0    0  0.38134475187E+03  0.26252377251E+03 -0.58198097078E+02  0.46661502395E+03  0.10566000000E+00 0. -1.
<mgrwt>
<rscale>  1 0.88453296E+03</rscale>
<asrwt>0</asrwt>
<pdfrwt beam="1">  1       21 0.27406389E+00 0.10975744E+04</pdfrwt>
<pdfrwt beam="2">  1        4 0.69747138E-01 0.10975744E+04</pdfrwt>
<totfact> 0.28159080E+00</totfact>
</mgrwt>
</event>
<event>
 6    1  0.1375310E-005  0.1082203E+04  0.7818608E-02  0.9515087E-01
         21   -1    0    0  501  502  0.00000000000E+00  0.00000000000E+00  0.10482854906E+04  0.10482854906E+04  0.00000000000E+00 0.  1.
          4   -1    0    0  502    0 -0.00000000000E+00 -0.00000000000E+00 -0.69796891226E+03  0.69796891226E+03  0.00000000000E+00 0.  1.
    9000010    2    1    2  501    0 -0.14712184931E+03  0.34788216228E+03  0.65148666909E+03  0.12631702776E+04  0.10141486246E+04 0.  0.
        -13    1    3    3    0    0 -0.51698967489E+03  0.45616618054E+03  0.48713864806E+03  0.84419783333E+03  0.10566000000E+00 0.  1.
          4    1    3    3  501    0  0.36986782558E+03 -0.10828401826E+03  0.16434802103E+03  0.41897244424E+03  0.00000000000E+00 0.  1.
         13    1    1    2    0    0  0.14712184931E+03 -0.34788216228E+03 -0.30117009075E+03  0.48308412528E+03  0.10566000000E+00 0. -1.
<mgrwt>
<rscale>  1 0.83180603E+03</rscale>
<asrwt>0</asrwt>
<pdfrwt beam="1">  1       21 0.16127469E+00 0.10822034E+04</pdfrwt>
<pdfrwt beam="2">  1        4 0.10737983E+00 0.10822034E+04</pdfrwt>
<totfact> 0.59628662E+00</totfact>
</mgrwt>
</event>
<event>
 6    1  0.1375310E-005  0.1044110E+04  0.7818608E-02  0.9584384E-01
          4   -1    0    0  502    0 -0.00000000000E+00  0.00000000000E+00  0.51754136849E+03  0.51754136849E+03  0.00000000000E+00 0.  1.
         21   -1    0    0  501  502  0.00000000000E+00 -0.00000000000E+00 -0.93471854531E+03  0.93471854531E+03  0.00000000000E+00 0.  1.
    9000010    2    1    2  501    0 -0.14300481204E+03  0.29837309620E+03 -0.40878434328E+03  0.11212805615E+04  0.99029721679E+03 0.  0.
        -13    1    3    3    0    0 -0.43862742342E+03  0.64942430445E+02 -0.56094752655E+03  0.71503403735E+03  0.10566000000E+00 0.  1.
          4    1    3    3  501    0  0.29562261139E+03  0.23343066576E+03  0.15216318328E+03  0.40624652420E+03  0.00000000000E+00 0.  1.
         13    1    1    2    0    0  0.14300481204E+03 -0.29837309620E+03 -0.83928335484E+01  0.33097935226E+03  0.10566000000E+00 0. -1.
<mgrwt>
<rscale>  1 0.78338448E+03</rscale>
<asrwt>0</asrwt>
<pdfrwt beam="2">  1       21 0.14380285E+00 0.10441099E+04</pdfrwt>
<pdfrwt beam="1">  1        4 0.79621749E-01 0.10441099E+04</pdfrwt>
<totfact> 0.16804082E+01</totfact>
</mgrwt>
</event>
<event>
 6    1  0.1375310E-005  0.1016378E+04  0.7818608E-02  0.9828628E-01
         21   -1    0    0  501  502  0.00000000000E+00  0.00000000000E+00  0.54755480926E+03  0.54755480926E+03  0.00000000000E+00 0.  1.
          4   -1    0    0  502    0 -0.00000000000E+00 -0.00000000000E+00 -0.79015753105E+03  0.79015753105E+03  0.00000000000E+00 0.  1.
    9000010    2    1    2  501    0 -0.50168701169E+02 -0.15012363336E+03  0.36297710919E+02  0.10170264092E+04  0.10039776837E+04 0.  0.
        -13    1    3    3    0    0 -0.62611410068E+02 -0.17845737253E+03  0.50916172741E+03  0.54315089828E+03  0.10566000000E+00 0.  1.
          4    1    3    3  501    0  0.12442708900E+02  0.28333739165E+02 -0.47286401649E+03  0.47387551094E+03  0.00000000000E+00 0.  1.
         13    1    1    2    0    0  0.50168701169E+02  0.15012363336E+03 -0.27890043271E+03  0.32068593109E+03  0.10566000000E+00 0. -1.
<mgrwt>
<rscale>  1 0.63848582E+03</rscale>
<asrwt>0</asrwt>
<pdfrwt beam="1">  1       21 0.84239201E-01 0.10163785E+04</pdfrwt>
<pdfrwt beam="2">  1        4 0.12156270E+00 0.10163785E+04</pdfrwt>
<totfact> 0.23785233E+01</totfact>
</mgrwt>
</event>
<event>
 6    1  0.1375310E-005  0.1021017E+04  0.7818608E-02  0.9747124E-01
          4   -1    0    0  502    0 -0.00000000000E+00  0.00000000000E+00  0.47097176372E+03  0.47097176372E+03  0.00000000000E+00 0.  1.
         21   -1    0    0  501  502  0.00000000000E+00 -0.00000000000E+00 -0.87256264892E+03  0.87256264892E+03  0.00000000000E+00 0.  1.
    9000010    2    1    2  501    0 -0.19797207787E+03 -0.50036971672E+02 -0.47558153388E+03  0.11263449345E+04  0.10003891613E+04 0.  0.
        -13    1    3    3    0    0 -0.32369743836E+03  0.59328176160E+02  0.22990700842E+03  0.40144377909E+03  0.10566000000E+00 0.  1.
          4    1    3    3  501    0  0.12572536049E+03 -0.10936514783E+03 -0.70548854230E+03  0.72490115543E+03  0.00000000000E+00 0.  1.
         13    1    1    2    0    0  0.19797207787E+03  0.50036971672E+02  0.73990648686E+02  0.21718947812E+03  0.10566000000E+00 0. -1.
<mgrwt>
<rscale>  1 0.68279021E+03</rscale>
<asrwt>0</asrwt>
<pdfrwt beam="2">  1       21 0.13424040E+00 0.10210167E+04</pdfrwt>
<pdfrwt beam="1">  1        4 0.72457196E-01 0.10210167E+04</pdfrwt>
<totfact> 0.25171263E+01</totfact>
</mgrwt>
</event>
<event>
 6    1  0.1375310E-005  0.9756431E+03  0.7818608E-02  0.1035473E+00
          4   -1    0    0  502    0 -0.00000000000E+00  0.00000000000E+00  0.25046163975E+03  0.25046163975E+03  0.00000000000E+00 0.  1.
         21   -1    0    0  501  502  0.00000000000E+00 -0.00000000000E+00 -0.12305938110E+04  0.12305938110E+04  0.00000000000E+00 0.  1.
    9000010    2    1    2  501    0  0.34941462969E+02  0.34100490824E+01 -0.10308695253E+04  0.14193559814E+04  0.97501122526E+03 0.  0.
        -13    1    3    3    0    0 -0.13340115110E+03 -0.36099732916E+03 -0.88279379163E+02  0.39485212260E+03  0.10566000000E+00 0.  1.
          4    1    3    3  501    0  0.16834261407E+03  0.36440737824E+03 -0.94259014613E+03  0.10245038588E+04  0.00000000000E+00 0.  1.
         13    1    1    2    0    0 -0.34941462969E+02 -0.34100490824E+01  0.50737354019E+02  0.61699469415E+02  0.10566000000E+00 0. -1.
<mgrwt>
<rscale>  1 0.42493118E+03</rscale>
<asrwt>0</asrwt>
<pdfrwt beam="2">  1       21 0.18932212E+00 0.97564308E+03</pdfrwt>
<pdfrwt beam="1">  1        4 0.38532560E-01 0.97564308E+03</pdfrwt>
<totfact> 0.36370728E+01</totfact>
</mgrwt>
</event>
<event>
 6    1  0.1375310E-005  0.1002397E+04  0.7818608E-02  0.1000798E+00
         21   -1    0    0  501  502  0.00000000000E+00  0.00000000000E+00  0.63743922684E+03  0.63743922684E+03  0.00000000000E+00 0.  1.
          4   -1    0    0  502    0 -0.00000000000E+00 -0.00000000000E+00 -0.72407375655E+03  0.72407375655E+03  0.00000000000E+00 0.  1.
    9000010    2    1    2  501    0  0.92770377582E+02 -0.41264899113E+01  0.23261424513E+03  0.10290326648E+04  0.99808590172E+03 0.  0.
        -13    1    3    3    0    0  0.42846731691E+03  0.31462944484E+03  0.18850665083E+03  0.56401302981E+03  0.10566000000E+00 0.  1.
          4    1    3    3  501    0 -0.33569693932E+03 -0.31875593475E+03  0.44107594299E+02  0.46501963495E+03  0.00000000000E+00 0.  1.
         13    1    1    2    0    0 -0.92770377582E+02  0.41264899113E+01 -0.31924877484E+03  0.33248031863E+03  0.10566000000E+00 0. -1.
<mgrwt>
<rscale>  1 0.55301814E+03</rscale>
<asrwt>0</asrwt>
<pdfrwt beam="1">  1       21 0.98067574E-01 0.10023965E+04</pdfrwt>
<pdfrwt beam="2">  1        4 0.11139596E+00 0.10023965E+04</pdfrwt>
<totfact> 0.20495419E+01</totfact>
</mgrwt>
</event>
<event>
 6    1  0.1375310E-005  0.1000473E+04  0.7818608E-02  0.1000629E+00
         21   -1    0    0  501  502  0.00000000000E+00  0.00000000000E+00  0.51023547814E+03  0.51023547814E+03  0.00000000000E+00 0.  1.
          4   -1    0    0  502    0 -0.00000000000E+00 -0.00000000000E+00 -0.82888593237E+03  0.82888593237E+03  0.00000000000E+00 0.  1.
    9000010    2    1    2  501    0  0.86852962801E+02 -0.35679426095E+02  0.66975484449E+01  0.10004950787E+04  0.99605676882E+03 0.  0.
        -13    1    3    3    0    0  0.35976575042E+03 -0.79383106765E+02  0.38441496441E+03  0.53245464487E+03  0.10566000000E+00 0.  1.
          4    1    3    3  501    0 -0.27291278762E+03  0.43703680670E+02 -0.37771741597E+03  0.46804043381E+03  0.00000000000E+00 0.  1.
         13    1    1    2    0    0 -0.86852962801E+02  0.35679426095E+02 -0.32534800268E+03  0.33862633183E+03  0.10566000000E+00 0. -1.
<mgrwt>
<rscale>  1 0.55375258E+03</rscale>
<asrwt>0</asrwt>
<pdfrwt beam="1">  1       21 0.78497767E-01 0.10004727E+04</pdfrwt>
<pdfrwt beam="2">  1        4 0.12752091E+00 0.10004727E+04</pdfrwt>
<totfact> 0.24915215E+01</totfact>
</mgrwt>
</event>
<event>
 6    1  0.1375310E-005  0.1062847E+04  0.7818608E-02  0.9520169E-01
          4   -1    0    0  502    0 -0.00000000000E+00  0.00000000000E+00  0.91035894727E+03  0.91035894727E+03  0.00000000000E+00 0.  1.
         21   -1    0    0  501  502  0.00000000000E+00 -0.00000000000E+00 -0.66193875711E+03  0.66193875711E+03  0.00000000000E+00 0.  1.
    9000010    2    1    2  501    0 -0.39158414694E+03 -0.10530306856E+02 -0.73329761311E+02  0.10653735740E+04  0.98802559017E+03 0.  0.
        -13    1    3    3    0    0 -0.16025030343E+03 -0.44529117391E+03  0.18636350658E+03  0.50862142804E+03  0.10566000000E+00 0.  1.
          4    1    3    3  501    0 -0.23133384351E+03  0.43476086705E+03 -0.25969326789E+03  0.55675214599E+03  0.00000000000E+00 0.  1.
         13    1    1    2    0    0  0.39158414694E+03  0.10530306856E+02  0.32174995147E+03  0.50692413035E+03  0.10566000000E+00 0. -1.
<mgrwt>
<rscale>  1 0.82813009E+03</rscale>
<asrwt>0</asrwt>
<pdfrwt beam="2">  1       21 0.10183673E+00 0.10628469E+04</pdfrwt>
<pdfrwt beam="1">  1        4 0.14005522E+00 0.10628469E+04</pdfrwt>
<totfact> 0.10359563E+01</totfact>
</mgrwt>
</event>
<event>
 6    1  0.1375310E-005  0.1046517E+04  0.7818608E-02  0.9662168E-01
         21   -1    0    0  501  502  0.00000000000E+00  0.00000000000E+00  0.10523527617E+04  0.10523527617E+04  0.00000000000E+00 0.  1.
          4   -1    0    0  502    0 -0.00000000000E+00 -0.00000000000E+00 -0.40991545685E+03  0.40991545685E+03  0.00000000000E+00 0.  1.
    9000010    2    1    2  501    0  0.21543125861E+03 -0.13087999295E+03  0.60099890169E+03  0.12068130323E+04  0.10157055752E+04 0.  0.
        -13    1    3    3    0    0  0.48205532632E+03 -0.36062934859E+03  0.12505998895E+03  0.61487468373E+03  0.10566000000E+00 0.  1.
          4    1    3    3  501    0 -0.26662406771E+03  0.22974935564E+03  0.47593891274E+03  0.59193834861E+03  0.00000000000E+00 0.  1.
         13    1    1    2    0    0 -0.21543125861E+03  0.13087999295E+03  0.41438403158E+02  0.25545518621E+03  0.10566000000E+00 0. -1.
<mgrwt>
<rscale>  1 0.73314660E+03</rscale>
<asrwt>0</asrwt>
<pdfrwt beam="1">  1       21 0.16190042E+00 0.10465171E+04</pdfrwt>
<pdfrwt beam="2">  1        4 0.63063917E-01 0.10465171E+04</pdfrwt>
<totfact> 0.20327545E+01</totfact>
</mgrwt>
</event>
<event>
 6    1  0.1375310E-005  0.1027362E+04  0.7818608E-02  0.9706527E-01
         21   -1    0    0  501  502  0.00000000000E+00  0.00000000000E+00  0.51689568716E+03  0.51689568716E+03  0.00000000000E+00 0.  1.
          4   -1    0    0  502    0 -0.00000000000E+00 -0.00000000000E+00 -0.77577799048E+03  0.77577799048E+03  0.00000000000E+00 0.  1.
    9000010    2    1    2  501    0  0.15222135522E+03  0.17174594243E+03 -0.14859217562E+03  0.10380525215E+04  0.10014017141E+04 0.  0.
        -13    1    3    3    0    0  0.16289314892E+01  0.54280373750E+03 -0.28743612806E+03  0.61421339104E+03  0.10566000000E+00 0.  1.
          4    1    3    3  501    0  0.15059242373E+03 -0.37105779507E+03  0.13884395244E+03  0.42383913044E+03  0.00000000000E+00 0.  1.
         13    1    1    2    0    0 -0.15222135522E+03 -0.17174594243E+03 -0.11029012770E+03  0.25462115615E+03  0.10566000000E+00 0. -1.
<mgrwt>
<rscale>  1 0.70629496E+03</rscale>
<asrwt>0</asrwt>
<pdfrwt beam="1">  1       21 0.79522414E-01 0.10273624E+04</pdfrwt>
<pdfrwt beam="2">  1        4 0.11935046E+00 0.10273624E+04</pdfrwt>
<totfact> 0.28524162E+01</totfact>
</mgrwt>
</event>
<event>
 6    1  0.1375310E-005  0.9896082E+03  0.7818608E-02  0.9909372E-01
         21   -1    0    0  501  502  0.00000000000E+00  0.00000000000E+00  0.10226250961E+04  0.10226250961E+04  0.00000000000E+00 0.  1.
          4   -1    0    0  502    0 -0.00000000000E+00 -0.00000000000E+00 -0.42252148088E+03  0.42252148088E+03  0.00000000000E+00 0.  1.
    9000010    2    1    2  501    0  0.12635952587E+03  0.38288204901E+02  0.75271742250E+03  0.12433454329E+04  0.98076074098E+03 0.  0.
        -13    1    3    3    0    0  0.40508896246E+03 -0.32770925365E+03  0.31814681639E+03  0.61049801832E+03  0.10566000000E+00 0.  1.
          4    1    3    3  501    0 -0.27872943659E+03  0.36599745855E+03  0.43457060610E+03  0.63284741461E+03  0.00000000000E+00 0.  1.
         13    1    1    2    0    0 -0.12635952587E+03 -0.38288204901E+02 -0.15261380727E+03  0.20180114406E+03  0.10566000000E+00 0. -1.
<mgrwt>
<rscale>  1 0.59809218E+03</rscale>
<asrwt>0</asrwt>
<pdfrwt beam="1">  1       21 0.15732694E+00 0.98960818E+03</pdfrwt>
<pdfrwt beam="2">  1        4 0.65003305E-01 0.98960818E+03</pdfrwt>
<totfact> 0.20769609E+01</totfact>
</mgrwt>
</event>
<event>
 6    1  0.1375310E-005  0.1017219E+04  0.7818608E-02  0.9699567E-01
          4   -1    0    0  502    0 -0.00000000000E+00  0.00000000000E+00  0.31600701764E+03  0.31600701764E+03  0.00000000000E+00 0.  1.
         21   -1    0    0  501  502  0.00000000000E+00 -0.00000000000E+00 -0.14245118544E+04  0.14245118544E+04  0.00000000000E+00 0.  1.
    9000010    2    1    2  501    0 -0.13459135287E+03  0.20112994502E+03 -0.11001672778E+04  0.14983668266E+04  0.98801165015E+03 0.  0.
        -13    1    3    3    0    0 -0.13032834796E+03  0.99398168559E+01  0.16968803443E+03  0.21419224644E+03  0.10566000000E+00 0.  1.
          4    1    3    3  501    0 -0.42630049126E+01  0.19119012817E+03 -0.12698553122E+04  0.12841745801E+04  0.00000000000E+00 0.  1.
         13    1    1    2    0    0  0.13459135287E+03 -0.20112994502E+03 -0.83375589403E+01  0.24215204543E+03  0.10566000000E+00 0. -1.
<mgrwt>
<rscale>  1 0.71042557E+03</rscale>
<asrwt>0</asrwt>
<pdfrwt beam="2">  1       21 0.21915567E+00 0.10172193E+04</pdfrwt>
<pdfrwt beam="1">  1        4 0.48616464E-01 0.10172193E+04</pdfrwt>
<totfact> 0.14016911E+01</totfact>
</mgrwt>
</event>
<event>
 6    1  0.1375310E-005  0.1025808E+04  0.7818608E-02  0.9820294E-01
          4   -1    0    0  502    0 -0.00000000000E+00  0.00000000000E+00  0.37108472837E+03  0.37108472837E+03  0.00000000000E+00 0.  1.
         21   -1    0    0  501  502  0.00000000000E+00 -0.00000000000E+00 -0.20223114957E+04  0.20223114957E+04  0.00000000000E+00 0.  1.
    9000010    2    1    2  501    0 -0.12061023567E+03 -0.10238902921E+03 -0.18643733193E+04  0.21279497963E+04  0.10135344689E+04 0.  0.
        -13    1    3    3    0    0  0.26439837050E+03  0.31816316600E+03 -0.10934381921E+04  0.11690771530E+04  0.10566000000E+00 0.  1.
          4    1    3    3  501    0 -0.38500860617E+03 -0.42055219521E+03 -0.77093512714E+03  0.95887264325E+03  0.00000000000E+00 0.  1.
         13    1    1    2    0    0  0.12061023567E+03  0.10238902921E+03  0.21314655195E+03  0.26544642779E+03  0.10566000000E+00 0. -1.
<mgrwt>
<rscale>  1 0.64284756E+03</rscale>
<asrwt>0</asrwt>
<pdfrwt beam="2">  1       21 0.31112484E+00 0.10258082E+04</pdfrwt>
<pdfrwt beam="1">  1        4 0.57089959E-01 0.10258082E+04</pdfrwt>
<totfact> 0.26009380E+00</totfact>
</mgrwt>
</event>
<event>
 6    1  0.1375310E-005  0.1024059E+04  0.7818608E-02  0.9661807E-01
          4   -1    0    0  502    0 -0.00000000000E+00  0.00000000000E+00  0.16444910845E+04  0.16444910845E+04  0.00000000000E+00 0.  1.
         21   -1    0    0  501  502  0.00000000000E+00 -0.00000000000E+00 -0.25969317118E+03  0.25969317118E+03  0.00000000000E+00 0.  1.
    9000010    2    1    2  501    0  0.26389725342E+03 -0.53926585278E+02  0.97624515009E+03  0.14148324308E+04  0.98800120310E+03 0.  0.
        -13    1    3    3    0    0 -0.32503557413E+03  0.42762937542E+02  0.66571982734E+03  0.74206448032E+03  0.10566000000E+00 0.  1.
          4    1    3    3  501    0  0.58893282754E+03 -0.96689522819E+02  0.31052532275E+03  0.67276795052E+03  0.00000000000E+00 0.  1.
         13    1    1    2    0    0 -0.26389725342E+03  0.53926585278E+02  0.40855276322E+03  0.48935182482E+03  0.10566000000E+00 0. -1.
<mgrwt>
<rscale>  1 0.73337010E+03</rscale>
<asrwt>0</asrwt>
<pdfrwt beam="2">  1       21 0.39952797E-01 0.10240587E+04</pdfrwt>
<pdfrwt beam="1">  1        4 0.25299862E+00 0.10240587E+04</pdfrwt>
<totfact> 0.14646982E+01</totfact>
</mgrwt>
</event>
<event>
 6    1  0.1375310E-005  0.1026931E+04  0.7818608E-02  0.9617668E-01
         21   -1    0    0  501  502  0.00000000000E+00  0.00000000000E+00  0.23996392940E+03  0.23996392940E+03  0.00000000000E+00 0.  1.
          4   -1    0    0  502    0 -0.00000000000E+00 -0.00000000000E+00 -0.20884471620E+04  0.20884471620E+04  0.00000000000E+00 0.  1.
    9000010    2    1    2  501    0 -0.22390833354E+03  0.21482255647E+03 -0.10361571243E+04  0.14588379835E+04  0.97892951904E+03 0.  0.
        -13    1    3    3    0    0 -0.46343418880E+03  0.22745281151E+03 -0.14536475988E+03  0.53631795923E+03  0.10566000000E+00 0.  1.
          4    1    3    3  501    0  0.23952585526E+03 -0.12630255044E+02 -0.89079236437E+03  0.92252002423E+03  0.00000000000E+00 0.  1.
         13    1    1    2    0    0  0.22390833354E+03 -0.21482255647E+03 -0.81232610835E+03  0.86957310795E+03  0.10566000000E+00 0. -1.
<mgrwt>
<rscale>  1 0.76137733E+03</rscale>
<asrwt>0</asrwt>
<pdfrwt beam="1">  1       21 0.36917527E-01 0.10269307E+04</pdfrwt>
<pdfrwt beam="2">  1        4 0.32129956E+00 0.10269307E+04</pdfrwt>
<totfact> 0.65204072E+00</totfact>
</mgrwt>
</event>
<event>
 6    1  0.1375310E-005  0.1030261E+04  0.7818608E-02  0.9703787E-01
         21   -1    0    0  501  502  0.00000000000E+00  0.00000000000E+00  0.62722005126E+03  0.62722005126E+03  0.00000000000E+00 0.  1.
          4   -1    0    0  502    0 -0.00000000000E+00 -0.00000000000E+00 -0.70554698509E+03  0.70554698509E+03  0.00000000000E+00 0.  1.
    9000010    2    1    2  501    0  0.34288941012E+02  0.22708727620E+03  0.10952131449E+03  0.10360662813E+04  0.10043376217E+04 0.  0.
        -13    1    3    3    0    0 -0.29350001050E+03 -0.10042857681E+03  0.38698958645E+03  0.49597288877E+03  0.10566000000E+00 0.  1.
          4    1    3    3  501    0  0.32778895152E+03  0.32751585301E+03 -0.27746827197E+03  0.54009339253E+03  0.00000000000E+00 0.  1.
         13    1    1    2    0    0 -0.34288941012E+02 -0.22708727620E+03 -0.18784824832E+03  0.29670075505E+03  0.10566000000E+00 0. -1.
<mgrwt>
<rscale>  1 0.70791737E+03</rscale>
<asrwt>0</asrwt>
<pdfrwt beam="1">  1       21 0.96495393E-01 0.10302613E+04</pdfrwt>
<pdfrwt beam="2">  1        4 0.10854569E+00 0.10302613E+04</pdfrwt>
<totfact> 0.22670132E+01</totfact>
</mgrwt>
</event>
<event>
 6    1  0.1375310E-005  0.1020550E+04  0.7818608E-02  0.9736591E-01
         21   -1    0    0  501  502  0.00000000000E+00  0.00000000000E+00  0.42399193514E+03  0.42399193514E+03  0.00000000000E+00 0.  1.
          4   -1    0    0  502    0 -0.00000000000E+00 -0.00000000000E+00 -0.99167701233E+03  0.99167701233E+03  0.00000000000E+00 0.  1.
    9000010    2    1    2  501    0  0.21174397448E+03 -0.29603356265E+01 -0.27965974176E+03  0.10581736617E+04  0.99833744441E+03 0.  0.
        -13    1    3    3    0    0  0.25577671582E+03  0.13796559490E+02  0.34613608023E+03  0.43060686317E+03  0.10566000000E+00 0.  1.
          4    1    3    3  501    0 -0.44032741331E+02 -0.16756895116E+02 -0.62579582199E+03  0.62756679857E+03  0.00000000000E+00 0.  1.
         13    1    1    2    0    0 -0.21174397448E+03  0.29603356265E+01 -0.28802533542E+03  0.35749528574E+03  0.10566000000E+00 0. -1.
<mgrwt>
<rscale>  1 0.68879351E+03</rscale>
<asrwt>0</asrwt>
<pdfrwt beam="1">  1       21 0.65229530E-01 0.10205498E+04</pdfrwt>
<pdfrwt beam="2">  1        4 0.15256569E+00 0.10205498E+04</pdfrwt>
<totfact> 0.23784739E+01</totfact>
</mgrwt>
</event>
<event>
 6    1  0.1375310E-005  0.1001005E+04  0.7818608E-02  0.1018009E+00
         21   -1    0    0  501  502  0.00000000000E+00  0.00000000000E+00  0.49868550557E+03  0.49868550557E+03  0.00000000000E+00 0.  1.
          4   -1    0    0  502    0 -0.00000000000E+00 -0.00000000000E+00 -0.69139843856E+03  0.69139843856E+03  0.00000000000E+00 0.  1.
    9000010    2    1    2  501    0  0.79685081125E+01 -0.54182723999E+02 -0.11811643801E+02  0.10010745467E+04  0.99950561205E+03 0.  0.
        -13    1    3    3    0    0 -0.45594600132E+03 -0.22029797505E+03  0.24584411475E+02  0.50697372553E+03  0.10566000000E+00 0.  1.
          4    1    3    3  501    0  0.46391450943E+03  0.16611525105E+03 -0.36396055276E+02  0.49410082122E+03  0.00000000000E+00 0.  1.
         13    1    1    2    0    0 -0.79685081125E+01  0.54182723999E+02 -0.18090128919E+03  0.18900939738E+03  0.10566000000E+00 0. -1.
<mgrwt>
<rscale>  1 0.48412130E+03</rscale>
<asrwt>0</asrwt>
<pdfrwt beam="1">  1       21 0.76720847E-01 0.10010049E+04</pdfrwt>
<pdfrwt beam="2">  1        4 0.10636899E+00 0.10010049E+04</pdfrwt>
<totfact> 0.41339501E+01</totfact>
</mgrwt>
</event>
<event>
 6    1  0.1375310E-005  0.8313140E+03  0.7818608E-02  0.9711547E-01
          4   -1    0    0  502    0 -0.00000000000E+00  0.00000000000E+00  0.10896292234E+04  0.10896292234E+04  0.00000000000E+00 0.  1.
         21   -1    0    0  501  502  0.00000000000E+00 -0.00000000000E+00 -0.49716930710E+03  0.49716930710E+03  0.00000000000E+00 0.  1.
    9000010    2    1    2  501    0  0.17774867092E+02 -0.42557187564E+03 -0.30811602516E+02  0.83188478408E+03  0.71390165422E+03 0.  0.
        -13    1    3    3    0    0 -0.12699421954E+03 -0.59156331799E+03  0.21807190695E+02  0.60543394001E+03  0.10566000000E+00 0.  1.
          4    1    3    3  501    0  0.14476908663E+03  0.16599144235E+03 -0.52618793210E+02  0.22645084406E+03  0.00000000000E+00 0.  1.
         13    1    1    2    0    0 -0.17774867092E+02  0.42557187564E+03  0.62327151886E+03  0.75491374648E+03  0.10566000000E+00 0. -1.
<mgrwt>
<rscale>  1 0.70333409E+03</rscale>
<asrwt>0</asrwt>
<pdfrwt beam="2">  1       21 0.76487586E-01 0.83131398E+03</pdfrwt>
<pdfrwt beam="1">  1        4 0.16763526E+00 0.83131398E+03</pdfrwt>
<totfact> 0.13016627E+01</totfact>
</mgrwt>
</event>
<event>
 6    1  0.1375310E-005  0.1023289E+04  0.7818608E-02  0.9700544E-01
          4   -1    0    0  502    0 -0.00000000000E+00  0.00000000000E+00  0.41372664815E+03  0.41372664815E+03  0.00000000000E+00 0.  1.
         21   -1    0    0  501  502  0.00000000000E+00 -0.00000000000E+00 -0.11994882766E+04  0.11994882766E+04  0.00000000000E+00 0.  1.
    9000010    2    1    2  501    0  0.18781329258E+03 -0.14447085021E+03 -0.88826785284E+03  0.13550421209E+04  0.99547662533E+03 0.  0.
        -13    1    3    3    0    0 -0.21282409504E+03 -0.28045301824E+03  0.20454382487E+02  0.35265618356E+03  0.10566000000E+00 0.  1.
          4    1    3    3  501    0  0.40063738763E+03  0.13598216804E+03 -0.90872223533E+03  0.10023859373E+04  0.00000000000E+00 0.  1.
         13    1    1    2    0    0 -0.18781329258E+03  0.14447085021E+03  0.10250622442E+03  0.25817280383E+03  0.10566000000E+00 0. -1.
<mgrwt>
<rscale>  1 0.70984431E+03</rscale>
<asrwt>0</asrwt>
<pdfrwt beam="2">  1       21 0.18453665E+00 0.10232885E+04</pdfrwt>
<pdfrwt beam="1">  1        4 0.63650255E-01 0.10232885E+04</pdfrwt>
<totfact> 0.13563667E+01</totfact>
</mgrwt>
</event>
<event>
 6    1  0.1375310E-005  0.9831895E+03  0.7818608E-02  0.9753812E-01
         21   -1    0    0  501  502  0.00000000000E+00  0.00000000000E+00  0.10913322950E+04  0.10913322950E+04  0.00000000000E+00 0.  1.
          4   -1    0    0  502    0 -0.00000000000E+00 -0.00000000000E+00 -0.10904191202E+04  0.10904191202E+04  0.00000000000E+00 0.  1.
    9000010    2    1    2  501    0 -0.85524830451E+02  0.20666885996E+03  0.85248024931E+03  0.13013009579E+04  0.95741061891E+03 0.  0.
        -13    1    3    3    0    0 -0.15318846685E+03  0.57809187461E+03  0.59983151884E+03  0.84702702674E+03  0.10566000000E+00 0.  1.
          4    1    3    3  501    0  0.67663636398E+02 -0.37142301465E+03  0.25264873046E+03  0.45427393113E+03  0.00000000000E+00 0.  1.
         13    1    1    2    0    0  0.85524830451E+02 -0.20666885996E+03 -0.85156707451E+03  0.88045045736E+03  0.10566000000E+00 0. -1.
<mgrwt>
<rscale>  1 0.67901281E+03</rscale>
<asrwt>0</asrwt>
<pdfrwt beam="1">  1       21 0.16789728E+00 0.98318951E+03</pdfrwt>
<pdfrwt beam="2">  1        4 0.16775679E+00 0.98318951E+03</pdfrwt>
<totfact> 0.16833007E+00</totfact>
</mgrwt>
</event>
<event>
 6    1  0.1375310E-005  0.9444777E+03  0.7818608E-02  0.9957293E-01
          4   -1    0    0  502    0 -0.00000000000E+00  0.00000000000E+00  0.58340001721E+03  0.58340001721E+03  0.00000000000E+00 0.  1.
         21   -1    0    0  501  502  0.00000000000E+00 -0.00000000000E+00 -0.61494859788E+03  0.61494859788E+03  0.00000000000E+00 0.  1.
    9000010    2    1    2  501    0 -0.36786865080E+02  0.12501798915E+03 -0.21949000399E+03  0.96964627401E+03  0.93544388597E+03 0.  0.
        -13    1    3    3    0    0  0.23336159569E+03  0.41287664736E+03 -0.30744606752E+03  0.56519718318E+03  0.10566000000E+00 0.  1.
          4    1    3    3  501    0 -0.27014846077E+03 -0.28785865821E+03  0.87956063532E+02  0.40444909083E+03  0.00000000000E+00 0.  1.
         13    1    1    2    0    0  0.36786865080E+02 -0.12501798915E+03  0.18794142332E+03  0.22870234108E+03  0.10566000000E+00 0. -1.
<mgrwt>
<rscale>  1 0.57563192E+03</rscale>
<asrwt>0</asrwt>
<pdfrwt beam="2">  1       21 0.94607476E-01 0.94447765E+03</pdfrwt>
<pdfrwt beam="1">  1        4 0.89753849E-01 0.94447765E+03</pdfrwt>
<totfact> 0.37877157E+01</totfact>
</mgrwt>
</event>
<event>
 6    1  0.1375310E-005  0.1031287E+04  0.7818608E-02  0.9665518E-01
         21   -1    0    0  501  502  0.00000000000E+00  0.00000000000E+00  0.12802308085E+04  0.12802308085E+04  0.00000000000E+00 0.  1.
          4   -1    0    0  502    0 -0.00000000000E+00 -0.00000000000E+00 -0.43870090148E+03  0.43870090148E+03  0.00000000000E+00 0.  1.
    9000010    2    1    2  501    0 -0.24844863122E+03  0.78119218695E+02  0.98113088466E+03  0.14234358913E+04  0.99785900268E+03 0.  0.
        -13    1    3    3    0    0  0.15996496807E+03  0.31106820134E+03  0.16334135457E+02  0.35017000449E+03  0.10566000000E+00 0.  1.
          4    1    3    3  501    0 -0.40841359929E+03 -0.23294898265E+03  0.96479674920E+03  0.10732658868E+04  0.00000000000E+00 0.  1.
         13    1    1    2    0    0  0.24844863122E+03 -0.78119218695E+02 -0.13960097767E+03  0.29549581861E+03  0.10566000000E+00 0. -1.
<mgrwt>
<rscale>  1 0.73107463E+03</rscale>
<asrwt>0</asrwt>
<pdfrwt beam="1">  1       21 0.19695858E+00 0.10312865E+04</pdfrwt>
<pdfrwt beam="2">  1        4 0.67492447E-01 0.10312865E+04</pdfrwt>
<totfact> 0.97294459E+00</totfact>
</mgrwt>
</event>
<event>
 6    1  0.1375310E-005  0.8733440E+03  0.7818608E-02  0.9920866E-01
         21   -1    0    0  501  502  0.00000000000E+00  0.00000000000E+00  0.13637730331E+04  0.13637730331E+04  0.00000000000E+00 0.  1.
          4   -1    0    0  502    0 -0.00000000000E+00 -0.00000000000E+00 -0.25358335230E+03  0.25358335230E+03  0.00000000000E+00 0.  1.
    9000010    2    1    2  501    0 -0.63699500865E+02 -0.17384060064E+03  0.11333080513E+04  0.14307748991E+04  0.85349369766E+03 0.  0.
        -13    1    3    3    0    0  0.11160828521E+03  0.31181004251E+03  0.61888422234E+03  0.70192563976E+03  0.10566000000E+00 0.  1.
          4    1    3    3  501    0 -0.17530778608E+03 -0.48565064314E+03  0.51442382892E+03  0.72884925931E+03  0.00000000000E+00 0.  1.
         13    1    1    2    0    0  0.63699500865E+02  0.17384060064E+03 -0.23118370407E+02  0.18658148637E+03  0.10566000000E+00 0. -1.
<mgrwt>
<rscale>  1 0.59260625E+03</rscale>
<asrwt>0</asrwt>
<pdfrwt beam="1">  1       21 0.20981123E+00 0.87334396E+03</pdfrwt>
<pdfrwt beam="2">  1        4 0.39012824E-01 0.87334396E+03</pdfrwt>
<totfact> 0.25985371E+01</totfact>
</mgrwt>
</event>
<event>
 6    1  0.1375310E-005  0.9963864E+03  0.7818608E-02  0.9893341E-01
          4   -1    0    0  502    0 -0.00000000000E+00  0.00000000000E+00  0.53132347583E+03  0.53132347583E+03  0.00000000000E+00 0.  1.
         21   -1    0    0  501  502  0.00000000000E+00 -0.00000000000E+00 -0.83539340674E+03  0.83539340674E+03  0.00000000000E+00 0.  1.
    9000010    2    1    2  501    0  0.13615023159E+03 -0.37132618290E+01 -0.51038490819E+03  0.11194992560E+04  0.98703351299E+03 0.  0.
        -13    1    3    3    0    0  0.28088588564E+03  0.44089229313E+03 -0.33074278082E+03  0.61860625047E+03  0.10566000000E+00 0.  1.
          4    1    3    3  501    0 -0.14473565405E+03 -0.44460555496E+03 -0.17964212737E+03  0.50089300552E+03  0.00000000000E+00 0.  1.
         13    1    1    2    0    0 -0.13615023159E+03  0.37132618290E+01  0.20631497729E+03  0.24721762658E+03  0.10566000000E+00 0. -1.
<mgrwt>
<rscale>  1 0.60585100E+03</rscale>
<asrwt>0</asrwt>
<pdfrwt beam="2">  1       21 0.12852206E+00 0.99638639E+03</pdfrwt>
<pdfrwt beam="1">  1        4 0.81742074E-01 0.99638639E+03</pdfrwt>
<totfact> 0.21522836E+01</totfact>
</mgrwt>
</event>
<event>
 6    1  0.1375310E-005  0.1053144E+04  0.7818608E-02  0.9595060E-01
         21   -1    0    0  501  502  0.00000000000E+00  0.00000000000E+00  0.14598741385E+04  0.14598741385E+04  0.00000000000E+00 0.  1.
          4   -1    0    0  502    0 -0.00000000000E+00 -0.00000000000E+00 -0.33494627697E+03  0.33494627697E+03  0.00000000000E+00 0.  1.
    9000010    2    1    2  501    0 -0.26756780040E+03  0.15818323743E+03  0.10216848340E+04  0.14672939306E+04  0.10062291559E+04 0.  0.
        -13    1    3    3    0    0 -0.31311947919E+03  0.48992098923E+03  0.26329743623E+03  0.63827261811E+03  0.10566000000E+00 0.  1.
          4    1    3    3  501    0  0.45551678795E+02 -0.33173775180E+03  0.75838739777E+03  0.82902131246E+03  0.00000000000E+00 0.  1.
         13    1    1    2    0    0  0.26756780040E+03 -0.15818323743E+03  0.10324302753E+03  0.32752648490E+03  0.10566000000E+00 0. -1.
<mgrwt>
<rscale>  1 0.77623995E+03</rscale>
<asrwt>0</asrwt>
<pdfrwt beam="1">  1       21 0.22459602E+00 0.10531437E+04</pdfrwt>
<pdfrwt beam="2">  1        4 0.51530197E-01 0.10531437E+04</pdfrwt>
<totfact> 0.11357217E+01</totfact>
</mgrwt>
</event>
<event>
 6    1  0.1375310E-005  0.9982890E+03  0.7818608E-02  0.1050431E+00
         21   -1    0    0  501  502  0.00000000000E+00  0.00000000000E+00  0.14864090136E+04  0.14864090136E+04  0.00000000000E+00 0.  1.
          4   -1    0    0  502    0 -0.00000000000E+00 -0.00000000000E+00 -0.22700756747E+03  0.22700756747E+03  0.00000000000E+00 0.  1.
    9000010    2    1    2  501    0  0.20929733303E+02 -0.37386744776E+01  0.13166681197E+04  0.16523304576E+04  0.99806260928E+03 0.  0.
        -13    1    3    3    0    0 -0.31121066539E+03 -0.33608219952E+03  0.95578826915E+03  0.10598747802E+04  0.10566000000E+00 0.  1.
          4    1    3    3  501    0  0.33214039869E+03  0.33234352505E+03  0.36087985059E+03  0.59245567737E+03  0.00000000000E+00 0.  1.
         13    1    1    2    0    0 -0.20929733303E+02  0.37386744776E+01 -0.57266673574E+02  0.61086123540E+02  0.10566000000E+00 0. -1.
<mgrwt>
<rscale>  1 0.38136396E+03</rscale>
<asrwt>0</asrwt>
<pdfrwt beam="1">  1       21 0.22867830E+00 0.99828904E+03</pdfrwt>
<pdfrwt beam="2">  1        4 0.34924242E-01 0.99828904E+03</pdfrwt>
<totfact> 0.23964235E+01</totfact>
</mgrwt>
</event>
<event>
 6    1  0.1375310E-005  0.1026229E+04  0.7818608E-02  0.9856079E-01
          4   -1    0    0  502    0 -0.00000000000E+00  0.00000000000E+00  0.88469786888E+03  0.88469786888E+03  0.00000000000E+00 0.  1.
         21   -1    0    0  501  502  0.00000000000E+00 -0.00000000000E+00 -0.48732763392E+03  0.48732763392E+03  0.00000000000E+00 0.  1.
    9000010    2    1    2  501    0 -0.60654311047E+02 -0.12687125289E+03  0.85340577411E+02  0.10297715348E+04  0.10165486410E+04 0.  0.
        -13    1    3    3    0    0 -0.24861234291E+03  0.33163606992E+03  0.27693882791E+03  0.49848340543E+03  0.10566000000E+00 0.  1.
          4    1    3    3  501    0  0.18795803186E+03 -0.45850732282E+03 -0.19159825050E+03  0.53128812937E+03  0.00000000000E+00 0.  1.
         13    1    1    2    0    0  0.60654311047E+02  0.12687125289E+03  0.31202965755E+03  0.34225396800E+03  0.10566000000E+00 0. -1.
<mgrwt>
<rscale>  1 0.62437943E+03</rscale>
<asrwt>0</asrwt>
<pdfrwt beam="2">  1       21 0.74973483E-01 0.10262292E+04</pdfrwt>
<pdfrwt beam="1">  1        4 0.13610736E+00 0.10262292E+04</pdfrwt>
<totfact> 0.23391958E+01</totfact>
</mgrwt>
</event>
<event>
 6    1  0.1375310E-005  0.1167311E+04  0.7818608E-02  0.9313708E-01
          4   -1    0    0  502    0 -0.00000000000E+00  0.00000000000E+00  0.99961493524E+03  0.99961493524E+03  0.00000000000E+00 0.  1.
         21   -1    0    0  501  502  0.00000000000E+00 -0.00000000000E+00 -0.88918423488E+03  0.88918423488E+03  0.00000000000E+00 0.  1.
    9000010    2    1    2  501    0  0.14545552450E+03 -0.59958198836E+03 -0.22159588596E+03  0.11881583666E+04  0.99093879582E+03 0.  0.
        -13    1    3    3    0    0 -0.29944313443E+03 -0.47714885588E+03 -0.40269025715E+03  0.69245698480E+03  0.10566000000E+00 0.  1.
          4    1    3    3  501    0  0.44489865893E+03 -0.12243313247E+03  0.18109437118E+03  0.49570138180E+03  0.00000000000E+00 0.  1.
         13    1    1    2    0    0 -0.14545552450E+03  0.59958198836E+03  0.33202658632E+03  0.70064080352E+03  0.10566000000E+00 0. -1.
<mgrwt>
<rscale>  1 0.99530589E+03</rscale>
<asrwt>0</asrwt>
<pdfrwt beam="2">  1       21 0.13679757E+00 0.11673113E+04</pdfrwt>
<pdfrwt beam="1">  1        4 0.15378691E+00 0.11673113E+04</pdfrwt>
<totfact> 0.37089472E+00</totfact>
</mgrwt>
</event>
<event>
 6    1  0.1375310E-005  0.1002910E+04  0.7818608E-02  0.9883423E-01
          4   -1    0    0  502    0 -0.00000000000E+00  0.00000000000E+00  0.68634868592E+03  0.68634868592E+03  0.00000000000E+00 0.  1.
         21   -1    0    0  501  502  0.00000000000E+00 -0.00000000000E+00 -0.53214442894E+03  0.53214442894E+03  0.00000000000E+00 0.  1.
    9000010    2    1    2  501    0  0.60594311354E+02 -0.12387499234E+03 -0.11420114467E+02  0.10029748375E+04  0.99338382378E+03 0.  0.
        -13    1    3    3    0    0 -0.41015723278E+03  0.13697475773E+03 -0.13065881033E+03  0.45173308019E+03  0.10566000000E+00 0.  1.
          4    1    3    3  501    0  0.47075154413E+03 -0.26084975006E+03  0.11923869587E+03  0.55124175731E+03  0.00000000000E+00 0.  1.
         13    1    1    2    0    0 -0.60594311354E+02  0.12387499234E+03  0.16562437144E+03  0.21551827736E+03  0.10566000000E+00 0. -1.
<mgrwt>
<rscale>  1 0.61071459E+03</rscale>
<asrwt>0</asrwt>
<pdfrwt beam="2">  1       21 0.81868373E-01 0.10029098E+04</pdfrwt>
<pdfrwt beam="1">  1        4 0.10559211E+00 0.10029098E+04</pdfrwt>
<totfact> 0.36129485E+01</totfact>
</mgrwt>
</event>
<event>
 6    1  0.1375310E-005  0.1100938E+04  0.7818608E-02  0.9486098E-01
          4   -1    0    0  502    0 -0.00000000000E+00  0.00000000000E+00  0.13790301200E+04  0.13790301200E+04  0.00000000000E+00 0.  1.
         21   -1    0    0  501  502  0.00000000000E+00 -0.00000000000E+00 -0.55819198313E+03  0.55819198313E+03  0.00000000000E+00 0.  1.
    9000010    2    1    2  501    0  0.38890262349E+03 -0.80015354659E+02  0.88893599424E+02  0.11045213618E+04  0.10268484110E+04 0.  0.
        -13    1    3    3    0    0  0.66521130646E+03 -0.31653652001E+03  0.75775976673E+02  0.74056968649E+03  0.10566000000E+00 0.  1.
          4    1    3    3  501    0 -0.27630868297E+03  0.23652116535E+03  0.13117622751E+02  0.36395167532E+03  0.00000000000E+00 0.  1.
         13    1    1    2    0    0 -0.38890262349E+03  0.80015354659E+02  0.73194453747E+03  0.83270074134E+03  0.10566000000E+00 0. -1.
<mgrwt>
<rscale>  1 0.85316539E+03</rscale>
<asrwt>0</asrwt>
<pdfrwt beam="2">  1       21 0.85875690E-01 0.11009384E+04</pdfrwt>
<pdfrwt beam="1">  1        4 0.21215848E+00 0.11009384E+04</pdfrwt>
<totfact> 0.47700283E+00</totfact>
</mgrwt>
</event>
<event>
 6    1  0.1375310E-005  0.1023350E+04  0.7818608E-02  0.9783958E-01
         21   -1    0    0  501  502  0.00000000000E+00  0.00000000000E+00  0.26358247188E+03  0.26358247188E+03  0.00000000000E+00 0. -1.
          4   -1    0    0  502    0 -0.00000000000E+00 -0.00000000000E+00 -0.14707406078E+04  0.14707406078E+04  0.00000000000E+00 0.  1.
    9000010    2    1    2  501    0  0.97914371194E+02  0.15049060915E+03 -0.11635819040E+04  0.15495704161E+04  0.10074775331E+04 0.  0.
        -13    1    3    3    0    0  0.18380976341E+03  0.28242176549E+03 -0.12989492691E+04  0.13419453407E+04  0.10566000000E+00 0.  1.
          4    1    3    3  501    0 -0.85895392213E+02 -0.13193115634E+03  0.13536736505E+03  0.20762507541E+03  0.00000000000E+00 0.  1.
         13    1    1    2    0    0 -0.97914371194E+02 -0.15049060915E+03 -0.43576231898E+02  0.18475266352E+03  0.10566000000E+00 0. -1.
<mgrwt>
<rscale>  1 0.66230594E+03</rscale>
<asrwt>0</asrwt>
<pdfrwt beam="1">  1       21 0.40551149E-01 0.10233502E+04</pdfrwt>
<pdfrwt beam="2">  1        4 0.22626779E+00 0.10233502E+04</pdfrwt>
<totfact> 0.20854431E+01</totfact>
</mgrwt>
</event>
<event>
 6    1  0.1375310E-005  0.1054086E+04  0.7818608E-02  0.9567520E-01
         21   -1    0    0  501  502  0.00000000000E+00  0.00000000000E+00  0.11111506174E+04  0.11111506174E+04  0.00000000000E+00 0.  1.
          4   -1    0    0  502    0 -0.00000000000E+00 -0.00000000000E+00 -0.48524702413E+03  0.48524702413E+03  0.00000000000E+00 0.  1.
    9000010    2    1    2  501    0 -0.88472614205E+02  0.32910434328E+03  0.23906037896E+03  0.10808544757E+04  0.99747654638E+03 0.  0.
        -13    1    3    3    0    0  0.31172600800E+03  0.27152877903E+03  0.46133920654E+03  0.61946336176E+03  0.10566000000E+00 0.  1.
          4    1    3    3  501    0 -0.40019862221E+03  0.57575564248E+02 -0.22227882758E+03  0.46139111392E+03  0.00000000000E+00 0.  1.
         13    1    1    2    0    0  0.88472614205E+02 -0.32910434328E+03  0.38684321434E+03  0.51554316587E+03  0.10566000000E+00 0. -1.
<mgrwt>
<rscale>  1 0.79483749E+03</rscale>
<asrwt>0</asrwt>
<pdfrwt beam="1">  1       21 0.17094625E+00 0.10540856E+04</pdfrwt>
<pdfrwt beam="2">  1        4 0.74653389E-01 0.10540856E+04</pdfrwt>
<totfact> 0.11897293E+01</totfact>
</mgrwt>
</event>
<event>
 6    1  0.1375310E-005  0.1067605E+04  0.7818608E-02  0.9546052E-01
          4   -1    0    0  502    0 -0.00000000000E+00  0.00000000000E+00  0.12694514373E+04  0.12694514373E+04  0.00000000000E+00 0.  1.
         21   -1    0    0  501  502  0.00000000000E+00 -0.00000000000E+00 -0.41808143794E+03  0.41808143794E+03  0.00000000000E+00 0.  1.
    9000010    2    1    2  501    0 -0.26556553174E+03 -0.23297203653E+03  0.46640124604E+03  0.11650369675E+04  0.10074621540E+04 0.  0.
        -13    1    3    3    0    0 -0.48286532402E+02  0.29071506110E+03 -0.14735098807E+03  0.32948317227E+03  0.10566000000E+00 0.  1.
          4    1    3    3  501    0 -0.21727899934E+03 -0.52368709763E+03  0.61375223411E+03  0.83555379519E+03  0.00000000000E+00 0.  1.
         13    1    1    2    0    0  0.26556553174E+03  0.23297203653E+03  0.38496875335E+03  0.52249590780E+03  0.10566000000E+00 0. -1.
<mgrwt>
<rscale>  1 0.80972082E+03</rscale>
<asrwt>0</asrwt>
<pdfrwt beam="2">  1       21 0.64320222E-01 0.10676053E+04</pdfrwt>
<pdfrwt beam="1">  1        4 0.19530022E+00 0.10676053E+04</pdfrwt>
<totfact> 0.12099633E+01</totfact>
</mgrwt>
</event>
<event>
 6    1  0.1375310E-005  0.8589752E+03  0.7818608E-02  0.9852135E-01
          4   -1    0    0  502    0 -0.00000000000E+00  0.00000000000E+00  0.14851546263E+04  0.14851546263E+04  0.00000000000E+00 0.  1.
         21   -1    0    0  501  502  0.00000000000E+00 -0.00000000000E+00 -0.22558640244E+03  0.22558640244E+03  0.00000000000E+00 0.  1.
    9000010    2    1    2  501    0 -0.34480279606E+02 -0.24043258350E+03  0.11708655328E+04  0.14521585555E+04  0.82391847758E+03 0.  0.
        -13    1    3    3    0    0  0.24810065506E+02 -0.34848581982E+02  0.12295498478E+04  0.12302937870E+04  0.10566000000E+00 0.  1.
          4    1    3    3  501    0 -0.59290345112E+02 -0.20558400152E+03 -0.58684314978E+02  0.22186476856E+03  0.00000000000E+00 0.  1.
         13    1    1    2    0    0  0.34480279606E+02  0.24043258350E+03  0.88702691119E+02  0.25858247324E+03  0.10566000000E+00 0. -1.
<mgrwt>
<rscale>  1 0.62638163E+03</rscale>
<asrwt>0</asrwt>
<pdfrwt beam="2">  1       21 0.34705601E-01 0.85897519E+03</pdfrwt>
<pdfrwt beam="1">  1        4 0.22848532E+00 0.85897519E+03</pdfrwt>
<totfact> 0.28385425E+01</totfact>
</mgrwt>
</event>
<event>
 6    1  0.1375310E-005  0.1017541E+04  0.7818608E-02  0.9792748E-01
          4   -1    0    0  502    0 -0.00000000000E+00  0.00000000000E+00  0.35624491757E+03  0.35624491757E+03  0.00000000000E+00 0.  1.
         21   -1    0    0  501  502  0.00000000000E+00 -0.00000000000E+00 -0.10137807050E+04  0.10137807050E+04  0.00000000000E+00 0.  1.
    9000010    2    1    2  501    0  0.17013396265E+03 -0.50333467638E+02 -0.60987282400E+03  0.11863117351E+04  0.10019539152E+04 0.  0.
        -13    1    3    3    0    0 -0.11901306075E+03 -0.34145251193E+03 -0.67989039492E+03  0.77006810530E+03  0.10566000000E+00 0.  1.
          4    1    3    3  501    0  0.28914702341E+03  0.29111904430E+03  0.70017570915E+02  0.41624362978E+03  0.00000000000E+00 0.  1.
         13    1    1    2    0    0 -0.17013396265E+03  0.50333467638E+02 -0.47662963441E+02  0.18371388750E+03  0.10566000000E+00 0. -1.
<mgrwt>
<rscale>  1 0.65753181E+03</rscale>
<asrwt>0</asrwt>
<pdfrwt beam="2">  1       21 0.15596626E+00 0.10175415E+04</pdfrwt>
<pdfrwt beam="1">  1        4 0.54806911E-01 0.10175415E+04</pdfrwt>
<totfact> 0.30766860E+01</totfact>
</mgrwt>
</event>
<event>
 6    1  0.1375310E-005  0.1000673E+04  0.7818608E-02  0.9905178E-01
         21   -1    0    0  501  502  0.00000000000E+00  0.00000000000E+00  0.28169914127E+03  0.28169914127E+03  0.00000000000E+00 0. -1.
          4   -1    0    0  502    0 -0.00000000000E+00 -0.00000000000E+00 -0.12287662463E+04  0.12287662463E+04  0.00000000000E+00 0.  1.
    9000010    2    1    2  501    0 -0.87824778959E+02 -0.95077884443E+02 -0.95167092952E+03  0.13809501288E+04  0.99226644815E+03 0.  0.
        -13    1    3    3    0    0  0.21112495759E+03  0.30789189728E+02  0.13124854007E+03  0.25049533401E+03  0.10566000000E+00 0.  1.
          4    1    3    3  501    0 -0.29894973655E+03 -0.12586707417E+03 -0.10829194696E+04  0.11304547948E+04  0.00000000000E+00 0.  1.
         13    1    1    2    0    0  0.87824778959E+02  0.95077884443E+02  0.46038244520E+01  0.12951525884E+03  0.10566000000E+00 0. -1.
<mgrwt>
<rscale>  1 0.60010972E+03</rscale>
<asrwt>0</asrwt>
<pdfrwt beam="1">  1       21 0.43338329E-01 0.10006726E+04</pdfrwt>
<pdfrwt beam="2">  1        4 0.18904096E+00 0.10006726E+04</pdfrwt>
<totfact> 0.31803369E+01</totfact>
</mgrwt>
</event>
<event>
 6    1  0.1375310E-005  0.1053949E+04  0.7818608E-02  0.9740667E-01
         21   -1    0    0  501  502  0.00000000000E+00  0.00000000000E+00  0.38653530848E+03  0.38653530848E+03  0.00000000000E+00 0. -1.
          4   -1    0    0  502    0 -0.00000000000E+00 -0.00000000000E+00 -0.12199325103E+04  0.12199325103E+04  0.00000000000E+00 0.  1.
    9000010    2    1    2  501    0 -0.16674109353E+03 -0.90409384987E+02 -0.91902392632E+03  0.13983611243E+04  0.10367412443E+04 0.  0.
        -13    1    3    3    0    0  0.57922763464E+02 -0.13035165733E+03  0.20592478579E+03  0.25050275380E+03  0.10566000000E+00 0.  1.
          4    1    3    3  501    0 -0.22466385699E+03  0.39942272343E+02 -0.11249487121E+04  0.11478583705E+04  0.00000000000E+00 0.  1.
         13    1    1    2    0    0  0.16674109353E+03  0.90409384987E+02  0.85626724541E+02  0.20810669447E+03  0.10566000000E+00 0. -1.
<mgrwt>
<rscale>  1 0.68646296E+03</rscale>
<asrwt>0</asrwt>
<pdfrwt beam="1">  1       21 0.59466970E-01 0.10539492E+04</pdfrwt>
<pdfrwt beam="2">  1        4 0.18768193E+00 0.10539492E+04</pdfrwt>
<totfact> 0.16268938E+01</totfact>
</mgrwt>
</event>
<event>
 6    1  0.1375310E-005  0.9578052E+03  0.7818608E-02  0.9914894E-01
         21   -1    0    0  501  502  0.00000000000E+00  0.00000000000E+00  0.38782911369E+03  0.38782911369E+03  0.00000000000E+00 0.  1.
          4   -1    0    0  502    0 -0.00000000000E+00 -0.00000000000E+00 -0.87165559602E+03  0.87165559602E+03  0.00000000000E+00 0.  1.
    9000010    2    1    2  501    0  0.14269801755E+03 -0.10297510352E+02 -0.25764473905E+03  0.99185258329E+03  0.94705964569E+03 0.  0.
        -13    1    3    3    0    0  0.24409941836E+03 -0.37360592639E+03 -0.38942755418E+03  0.59230038443E+03  0.10566000000E+00 0.  1.
          4    1    3    3  501    0 -0.10140140081E+03  0.36330841604E+03  0.13178281513E+03  0.39955219886E+03  0.00000000000E+00 0.  1.
         13    1    1    2    0    0 -0.14269801755E+03  0.10297510352E+02 -0.22618174328E+03  0.26763212641E+03  0.10566000000E+00 0. -1.
<mgrwt>
<rscale>  1 0.59544871E+03</rscale>
<asrwt>0</asrwt>
<pdfrwt beam="1">  1       21 0.59666018E-01 0.95780517E+03</pdfrwt>
<pdfrwt beam="2">  1        4 0.13410086E+00 0.95780517E+03</pdfrwt>
<totfact> 0.41100276E+01</totfact>
</mgrwt>
</event>
<event>
 6    1  0.1375310E-005  0.1025925E+04  0.7818608E-02  0.9709851E-01
          4   -1    0    0  502    0 -0.00000000000E+00  0.00000000000E+00  0.86885328750E+03  0.86885328750E+03  0.00000000000E+00 0.  1.
         21   -1    0    0  501  502  0.00000000000E+00 -0.00000000000E+00 -0.50963448364E+03  0.50963448364E+03  0.00000000000E+00 0.  1.
    9000010    2    1    2  501    0  0.22528821324E+03  0.34475923397E+02  0.96145837845E+02  0.10304205866E+04  0.10002895555E+04 0.  0.
        -13    1    3    3    0    0  0.10402721767E+03  0.51747898406E+03  0.56714788699E+02  0.53086979513E+03  0.10566000000E+00 0.  1.
          4    1    3    3  501    0  0.12126099557E+03 -0.48300306066E+03  0.39431049147E+02  0.49955079150E+03  0.00000000000E+00 0.  1.
         13    1    1    2    0    0 -0.22528821324E+03 -0.34475923397E+02  0.26307296601E+03  0.34806718450E+03  0.10566000000E+00 0. -1.
<mgrwt>
<rscale>  1 0.70433303E+03</rscale>
<asrwt>0</asrwt>
<pdfrwt beam="2">  1       21 0.78405305E-01 0.10259252E+04</pdfrwt>
<pdfrwt beam="1">  1        4 0.13366974E+00 0.10259252E+04</pdfrwt>
<totfact> 0.22082734E+01</totfact>
</mgrwt>
</event>
<event>
 6    1  0.1375310E-005  0.1038957E+04  0.7818608E-02  0.9709322E-01
         21   -1    0    0  501  502  0.00000000000E+00  0.00000000000E+00  0.49471272194E+03  0.49471272194E+03  0.00000000000E+00 0.  1.
          4   -1    0    0  502    0 -0.00000000000E+00 -0.00000000000E+00 -0.91304792815E+03  0.91304792815E+03  0.00000000000E+00 0.  1.
    9000010    2    1    2  501    0 -0.19310507346E+03  0.10505168206E+03 -0.13280674149E+03  0.10474109024E+04  0.10154341646E+04 0.  0.
        -13    1    3    3    0    0  0.17450129690E+03  0.20237912734E+03  0.34523136684E+03  0.43656926326E+03  0.10566000000E+00 0.  1.
          4    1    3    3  501    0 -0.36760637036E+03 -0.97327445281E+02 -0.47803810834E+03  0.61084163918E+03  0.00000000000E+00 0.  1.
         13    1    1    2    0    0  0.19310507346E+03 -0.10505168206E+03 -0.28552846473E+03  0.36034974765E+03  0.10566000000E+00 0. -1.
<mgrwt>
<rscale>  1 0.70464472E+03</rscale>
<asrwt>0</asrwt>
<pdfrwt beam="1">  1       21 0.76109651E-01 0.10389572E+04</pdfrwt>
<pdfrwt beam="2">  1        4 0.14046891E+00 0.10389572E+04</pdfrwt>
<totfact> 0.20769287E+01</totfact>
</mgrwt>
</event>
<event>
 6    1  0.1375310E-005  0.1002625E+04  0.7818608E-02  0.9917329E-01
          4   -1    0    0  502    0 -0.00000000000E+00  0.00000000000E+00  0.15024989644E+04  0.15024989644E+04  0.00000000000E+00 0.  1.
         21   -1    0    0  501  502  0.00000000000E+00 -0.00000000000E+00 -0.24345933405E+03  0.24345933405E+03  0.00000000000E+00 0.  1.
    9000010    2    1    2  501    0  0.11802381863E+03  0.37232130864E+02  0.83676520249E+03  0.13059224398E+04  0.99495807011E+03 0.  0.
        -13    1    3    3    0    0  0.24502405801E+03 -0.43918294898E+03  0.49761885545E+03  0.70749062760E+03  0.10566000000E+00 0.  1.
          4    1    3    3  501    0 -0.12700023938E+03  0.47641507985E+03  0.33914634704E+03  0.59843181217E+03  0.00000000000E+00 0.  1.
         13    1    1    2    0    0 -0.11802381863E+03 -0.37232130864E+02  0.42227442784E+03  0.44003585866E+03  0.10566000000E+00 0. -1.
<mgrwt>
<rscale>  1 0.59428760E+03</rscale>
<asrwt>0</asrwt>
<pdfrwt beam="2">  1       21 0.37455283E-01 0.10026253E+04</pdfrwt>
<pdfrwt beam="1">  1        4 0.23115368E+00 0.10026253E+04</pdfrwt>
<totfact> 0.22974930E+01</totfact>
</mgrwt>
</event>
<event>
 6    1  0.1375310E-005  0.1175776E+04  0.7818608E-02  0.9311909E-01
          4   -1    0    0  502    0 -0.00000000000E+00  0.00000000000E+00  0.47221022317E+03  0.47221022317E+03  0.00000000000E+00 0.  1.
         21   -1    0    0  501  502  0.00000000000E+00 -0.00000000000E+00 -0.17911298470E+04  0.17911298470E+04  0.00000000000E+00 0. -1.
    9000010    2    1    2  501    0  0.13020732414E+03 -0.59360148828E+03 -0.11201601069E+04  0.16239481474E+04  0.10065447065E+04 0.  0.
        -13    1    3    3    0    0  0.13834794475E+03  0.17033326068E+03 -0.73757849342E+03  0.76952947873E+03  0.10566000000E+00 0.  1.
          4    1    3    3  501    0 -0.81406206041E+01 -0.76393474896E+03 -0.38258161352E+03  0.85441866867E+03  0.00000000000E+00 0.  1.
         13    1    1    2    0    0 -0.13020732414E+03  0.59360148828E+03 -0.19875951684E+03  0.63939192272E+03  0.10566000000E+00 0. -1.
<mgrwt>
<rscale>  1 0.99693829E+03</rscale>
<asrwt>0</asrwt>
<pdfrwt beam="2">  1       21 0.27555844E+00 0.11757759E+04</pdfrwt>
<pdfrwt beam="1">  1        4 0.72647727E-01 0.11757759E+04</pdfrwt>
<totfact> 0.24835625E+00</totfact>
</mgrwt>
</event>
<event>
 6    1  0.1375310E-005  0.8284789E+03  0.7818608E-02  0.1006420E+00
          4   -1    0    0  502    0 -0.00000000000E+00  0.00000000000E+00  0.29991056917E+03  0.29991056917E+03  0.00000000000E+00 0.  1.
         21   -1    0    0  501  502  0.00000000000E+00 -0.00000000000E+00 -0.11236911837E+04  0.11236911837E+04  0.00000000000E+00 0.  1.
    9000010    2    1    2  501    0 -0.82495481129E+02  0.11056241643E+03 -0.93293213792E+03  0.12476937696E+04  0.81691359184E+03 0.  0.
        -13    1    3    3    0    0 -0.22456104969E+03  0.31985040108E+03 -0.13957199462E+03  0.41498469484E+03  0.10566000000E+00 0.  1.
          4    1    3    3  501    0  0.14206556856E+03 -0.20928798465E+03 -0.79336014330E+03  0.83270907481E+03  0.00000000000E+00 0.  1.
         13    1    1    2    0    0  0.82495481129E+02 -0.11056241643E+03  0.10915152339E+03  0.17590798321E+03  0.10566000000E+00 0. -1.
<mgrwt>
<rscale>  1 0.52922422E+03</rscale>
<asrwt>0</asrwt>
<pdfrwt beam="2">  1       21 0.17287557E+00 0.82847895E+03</pdfrwt>
<pdfrwt beam="1">  1        4 0.46140087E-01 0.82847895E+03</pdfrwt>
<totfact> 0.33612930E+01</totfact>
</mgrwt>
</event>
<event>
 6    1  0.1375310E-005  0.9915209E+03  0.7818608E-02  0.9803959E-01
         21   -1    0    0  501  502  0.00000000000E+00  0.00000000000E+00  0.24761985658E+03  0.24761985658E+03  0.00000000000E+00 0.  1.
          4   -1    0    0  502    0 -0.00000000000E+00 -0.00000000000E+00 -0.15262883292E+04  0.15262883292E+04  0.00000000000E+00 0.  1.
    9000010    2    1    2  501    0  0.12493692679E+03  0.13620515982E+03 -0.84591073577E+03  0.13033336952E+04  0.97414201575E+03 0.  0.
        -13    1    3    3    0    0  0.11132304920E+03  0.23955226044E+03 -0.10453968369E+04  0.10782544526E+04  0.10566000000E+00 0.  1.
          4    1    3    3  501    0  0.13613877593E+02 -0.10334710062E+03  0.19948610117E+03  0.22507924255E+03  0.00000000000E+00 0.  1.
         13    1    1    2    0    0 -0.12493692679E+03 -0.13620515982E+03 -0.43275773681E+03  0.47057449057E+03  0.10566000000E+00 0. -1.
<mgrwt>
<rscale>  1 0.65150519E+03</rscale>
<asrwt>0</asrwt>
<pdfrwt beam="1">  1       21 0.38095361E-01 0.99152093E+03</pdfrwt>
<pdfrwt beam="2">  1        4 0.23481360E+00 0.99152093E+03</pdfrwt>
<totfact> 0.21062436E+01</totfact>
</mgrwt>
</event>
<event>
 6    1  0.1375310E-005  0.1000650E+04  0.7818608E-02  0.9803339E-01
         21   -1    0    0  501  502  0.00000000000E+00  0.00000000000E+00  0.74561435095E+03  0.74561435095E+03  0.00000000000E+00 0.  1.
          4   -1    0    0  502    0 -0.00000000000E+00 -0.00000000000E+00 -0.47594313815E+03  0.47594313815E+03  0.00000000000E+00 0.  1.
    9000010    2    1    2  501    0 -0.17984892536E+03 -0.10930014942E+02  0.28577680541E+03  0.10406583391E+04  0.98429482124E+03 0.  0.
        -13    1    3    3    0    0 -0.41839845568E+03  0.36262011202E+03  0.20338142177E+03  0.58984288353E+03  0.10566000000E+00 0.  1.
          4    1    3    3  501    0  0.23854953032E+03 -0.37355012696E+03  0.82395383639E+02  0.45081545561E+03  0.00000000000E+00 0.  1.
         13    1    1    2    0    0  0.17984892536E+03  0.10930014942E+02 -0.16105592612E+02  0.18089914997E+03  0.10566000000E+00 0. -1.
<mgrwt>
<rscale>  1 0.65183687E+03</rscale>
<asrwt>0</asrwt>
<pdfrwt beam="1">  1       21 0.11470990E+00 0.10006505E+04</pdfrwt>
<pdfrwt beam="2">  1        4 0.73222021E-01 0.10006505E+04</pdfrwt>
<totfact> 0.37192647E+01</totfact>
</mgrwt>
</event>
<event>
 6    1  0.1375310E-005  0.1006259E+04  0.7818608E-02  0.9926805E-01
         21   -1    0    0  501  502  0.00000000000E+00  0.00000000000E+00  0.21892157588E+03  0.21892157588E+03  0.00000000000E+00 0.  1.
          4   -1    0    0  502    0 -0.00000000000E+00 -0.00000000000E+00 -0.18931361250E+04  0.18931361250E+04  0.00000000000E+00 0.  1.
    9000010    2    1    2  501    0  0.36904758543E+02  0.11288254554E+03 -0.96918741701E+03  0.13970977730E+04  0.99922645469E+03 0.  0.
        -13    1    3    3    0    0  0.45586192097E+03  0.58232222059E+02 -0.83618375231E+03  0.95415112088E+03  0.10566000000E+00 0.  1.
          4    1    3    3  501    0 -0.41895716243E+03  0.54650323479E+02 -0.13300366469E+03  0.44294665213E+03  0.00000000000E+00 0.  1.
         13    1    1    2    0    0 -0.36904758543E+02 -0.11288254554E+03 -0.70502713206E+03  0.71495992783E+03  0.10566000000E+00 0. -1.
<mgrwt>
<rscale>  1 0.58979616E+03</rscale>
<asrwt>0</asrwt>
<pdfrwt beam="1">  1       21 0.33680243E-01 0.10062594E+04</pdfrwt>
<pdfrwt beam="2">  1        4 0.29125171E+00 0.10062594E+04</pdfrwt>
<totfact> 0.12146183E+01</totfact>
</mgrwt>
</event>
<event>
 6    1  0.1375310E-005  0.1042852E+04  0.7818608E-02  0.9621804E-01
         21   -1    0    0  501  502  0.00000000000E+00  0.00000000000E+00  0.93026704333E+03  0.93026704333E+03  0.00000000000E+00 0. -1.
          4   -1    0    0  502    0 -0.00000000000E+00 -0.00000000000E+00 -0.48199221970E+03  0.48199221970E+03  0.00000000000E+00 0.  1.
    9000010    2    1    2  501    0 -0.28399462714E+03  0.68543889691E+02  0.39579160055E+03  0.11154331979E+04  0.10010939091E+04 0.  0.
        -13    1    3    3    0    0 -0.53168691147E+03  0.36776497148E+03  0.17998342011E+03  0.67107085226E+03  0.10566000000E+00 0.  1.
          4    1    3    3  501    0  0.24769228433E+03 -0.29922108179E+03  0.21580818043E+03  0.44436234566E+03  0.00000000000E+00 0.  1.
         13    1    1    2    0    0  0.28399462714E+03 -0.68543889691E+02  0.52483223084E+02  0.29682606511E+03  0.10566000000E+00 0. -1.
<mgrwt>
<rscale>  1 0.75869674E+03</rscale>
<asrwt>0</asrwt>
<pdfrwt beam="1">  1       21 0.14311801E+00 0.10428520E+04</pdfrwt>
<pdfrwt beam="2">  1        4 0.74152649E-01 0.10428520E+04</pdfrwt>
<totfact> 0.20029739E+01</totfact>
</mgrwt>
</event>
<event>
 6    1  0.1375310E-005  0.1010308E+04  0.7818608E-02  0.9709243E-01
         21   -1    0    0  501  502  0.00000000000E+00  0.00000000000E+00  0.20947405720E+04  0.20947405720E+04  0.00000000000E+00 0.  1.
          4   -1    0    0  502    0 -0.00000000000E+00 -0.00000000000E+00 -0.26129352793E+03  0.26129352793E+03  0.00000000000E+00 0.  1.
    9000010    2    1    2  501    0  0.20046458561E+03 -0.13037313694E+03  0.18587400180E+04  0.21155700681E+04  0.98160025133E+03 0.  0.
        -13    1    3    3    0    0  0.24022827978E+03  0.40618838012E+03  0.89695646270E+03  0.10135233267E+04  0.10566000000E+00 0.  1.
          4    1    3    3  501    0 -0.39763694171E+02 -0.53656151706E+03  0.96178355533E+03  0.11020467414E+04  0.00000000000E+00 0.  1.
         13    1    1    2    0    0 -0.20046458561E+03  0.13037313694E+03 -0.25292973958E+02  0.24046403185E+03  0.10566000000E+00 0. -1.
<mgrwt>
<rscale>  1 0.70469131E+03</rscale>
<asrwt>0</asrwt>
<pdfrwt beam="1">  1       21 0.32226777E+00 0.10103080E+04</pdfrwt>
<pdfrwt beam="2">  1        4 0.40199006E-01 0.10103080E+04</pdfrwt>
<totfact> 0.46409624E+00</totfact>
</mgrwt>
</event>
<event>
 6    1  0.1375310E-005  0.1026331E+04  0.7818608E-02  0.9618305E-01
         21   -1    0    0  501  502  0.00000000000E+00  0.00000000000E+00  0.36534808984E+03  0.36534808984E+03  0.00000000000E+00 0.  1.
          4   -1    0    0  502    0 -0.00000000000E+00 -0.00000000000E+00 -0.15986403200E+04  0.15986403200E+04  0.00000000000E+00 0.  1.
    9000010    2    1    2  501    0  0.10402755899E+03 -0.29220092073E+03 -0.12902185885E+04  0.16486414065E+04  0.97834113173E+03 0.  0.
        -13    1    3    3    0    0  0.37850694600E+03 -0.14108925631E+03 -0.12722068496E+04  0.13347973501E+04  0.10566000000E+00 0.  1.
          4    1    3    3  501    0 -0.27447938702E+03 -0.15111166442E+03 -0.18011738896E+02  0.31384405643E+03  0.00000000000E+00 0.  1.
         13    1    1    2    0    0 -0.10402755899E+03  0.29220092073E+03  0.56926358298E+02  0.31534700337E+03  0.10566000000E+00 0. -1.
<mgrwt>
<rscale>  1 0.76096408E+03</rscale>
<asrwt>0</asrwt>
<pdfrwt beam="1">  1       21 0.56207397E-01 0.10263306E+04</pdfrwt>
<pdfrwt beam="2">  1        4 0.24594467E+00 0.10263306E+04</pdfrwt>
<totfact> 0.77812653E+00</totfact>
</mgrwt>
</event>
<event>
 6    1  0.1375310E-005  0.1227218E+04  0.7818608E-02  0.9227189E-01
          4   -1    0    0  502    0 -0.00000000000E+00  0.00000000000E+00  0.18144168091E+04  0.18144168091E+04  0.00000000000E+00 0.  1.
         21   -1    0    0  501  502  0.00000000000E+00 -0.00000000000E+00 -0.54662659110E+03  0.54662659110E+03  0.00000000000E+00 0. -1.
    9000010    2    1    2  501    0  0.71204403177E+03 -0.16036205526E+03  0.57698541902E+03  0.13560886881E+04  0.98658079460E+03 0.  0.
        -13    1    3    3    0    0  0.17515484086E+03 -0.41450605201E+03  0.61364433200E+03  0.76095588754E+03  0.10566000000E+00 0.  1.
          4    1    3    3  501    0  0.53688919090E+03  0.25414399675E+03 -0.36658912982E+02  0.59513280055E+03  0.00000000000E+00 0.  1.
         13    1    1    2    0    0 -0.71204403177E+03  0.16036205526E+03  0.69080479902E+03  0.10049547121E+04  0.10566000000E+00 0. -1.
<mgrwt>
<rscale>  1 0.10777151E+04</rscale>
<asrwt>0</asrwt>
<pdfrwt beam="2">  1       21 0.84096400E-01 0.12272181E+04</pdfrwt>
<pdfrwt beam="1">  1        4 0.27914104E+00 0.12272181E+04</pdfrwt>
<totfact> 0.18778902E+00</totfact>
</mgrwt>
</event>
<event>
 6    1  0.1375310E-005  0.1039516E+04  0.7818608E-02  0.9441375E-01
          4   -1    0    0  502    0 -0.00000000000E+00  0.00000000000E+00  0.41410415196E+03  0.41410415196E+03  0.00000000000E+00 0.  1.
         21   -1    0    0  501  502  0.00000000000E+00 -0.00000000000E+00 -0.17432752039E+04  0.17432752039E+04  0.00000000000E+00 0.  1.
    9000010    2    1    2  501    0  0.47117097432E+03  0.28804795604E+03 -0.12048638554E+04  0.15913175198E+04  0.88069337831E+03 0.  0.
        -13    1    3    3    0    0 -0.20466124925E+03 -0.13198759408E+03 -0.29759718755E+03  0.38454004881E+03  0.10566000000E+00 0.  1.
          4    1    3    3  501    0  0.67583222357E+03  0.42003555012E+03 -0.90726666787E+03  0.12067774710E+04  0.00000000000E+00 0.  1.
         13    1    1    2    0    0 -0.47117097432E+03 -0.28804795604E+03 -0.12430719652E+03  0.56606183610E+03  0.10566000000E+00 0. -1.
<mgrwt>
<rscale>  1 0.88747544E+03</rscale>
<asrwt>0</asrwt>
<pdfrwt beam="2">  1       21 0.26819618E+00 0.10395165E+04</pdfrwt>
<pdfrwt beam="1">  1        4 0.63708332E-01 0.10395165E+04</pdfrwt>
<totfact> 0.37837025E+00</totfact>
</mgrwt>
</event>
<event>
 6    1  0.1375310E-005  0.1009410E+04  0.7818608E-02  0.9763308E-01
         21   -1    0    0  501  502  0.00000000000E+00  0.00000000000E+00  0.27149605152E+03  0.27149605152E+03  0.00000000000E+00 0.  1.
          4   -1    0    0  502    0 -0.00000000000E+00 -0.00000000000E+00 -0.14395935348E+04  0.14395935348E+04  0.00000000000E+00 0.  1.
    9000010    2    1    2  501    0 -0.18455591348E+03 -0.77800312333E+02 -0.11146854722E+04  0.15038056557E+04  0.98934017128E+03 0.  0.
        -13    1    3    3    0    0  0.38038229462E+03 -0.17652518889E+03 -0.60768477081E+03  0.73833097200E+03  0.10566000000E+00 0.  1.
          4    1    3    3  501    0 -0.56493820811E+03  0.98724876561E+02 -0.50700070135E+03  0.76547468371E+03  0.00000000000E+00 0.  1.
         13    1    1    2    0    0  0.18455591348E+03  0.77800312333E+02 -0.53412011143E+02  0.20728393064E+03  0.10566000000E+00 0. -1.
<mgrwt>
<rscale>  1 0.67369346E+03</rscale>
<asrwt>0</asrwt>
<pdfrwt beam="1">  1       21 0.41768623E-01 0.10094096E+04</pdfrwt>
<pdfrwt beam="2">  1        4 0.22147593E+00 0.10094096E+04</pdfrwt>
<totfact> 0.21047487E+01</totfact>
</mgrwt>
</event>
<event>
 6    1  0.1375310E-005  0.1086619E+04  0.7818608E-02  0.9551909E-01
         21   -1    0    0  501  502  0.00000000000E+00  0.00000000000E+00  0.76233249458E+03  0.76233249458E+03  0.00000000000E+00 0.  1.
          4   -1    0    0  502    0 -0.00000000000E+00 -0.00000000000E+00 -0.69315908482E+03  0.69315908482E+03  0.00000000000E+00 0.  1.
    9000010    2    1    2  501    0  0.71638931696E+02  0.32041270025E+03  0.19482286807E+03  0.11039460879E+04  0.10358303819E+04 0.  0.
        -13    1    3    3    0    0 -0.56130107822E+02  0.49360874879E+03  0.51667330261E+03  0.71676460479E+03  0.10566000000E+00 0.  1.
          4    1    3    3  501    0  0.12776903952E+03 -0.17319604854E+03 -0.32185043454E+03  0.38718148316E+03  0.00000000000E+00 0.  1.
         13    1    1    2    0    0 -0.71638931696E+02 -0.32041270025E+03 -0.12564945832E+03  0.35154549144E+03  0.10566000000E+00 0. -1.
<mgrwt>
<rscale>  1 0.80562614E+03</rscale>
<asrwt>0</asrwt>
<pdfrwt beam="1">  1       21 0.11728192E+00 0.10866191E+04</pdfrwt>
<pdfrwt beam="2">  1        4 0.10663986E+00 0.10866191E+04</pdfrwt>
<totfact> 0.14409033E+01</totfact>
</mgrwt>
</event>
<event>
 6    1  0.1375310E-005  0.9879851E+03  0.7818608E-02  0.1024530E+00
          4   -1    0    0  502    0 -0.00000000000E+00  0.00000000000E+00  0.64100757696E+03  0.64100757696E+03  0.00000000000E+00 0.  1.
         21   -1    0    0  501  502  0.00000000000E+00 -0.00000000000E+00 -0.68356270501E+03  0.68356270501E+03  0.00000000000E+00 0.  1.
    9000010    2    1    2  501    0 -0.41532367731E+02  0.21525429626E+02 -0.32362186740E+03  0.10396372989E+04  0.98687705344E+03 0.  0.
        -13    1    3    3    0    0 -0.46475227290E+03  0.16736849240E+02  0.59372826897E+02  0.46882826389E+03  0.10566000000E+00 0.  1.
          4    1    3    3  501    0  0.42321990517E+03  0.47885803865E+01 -0.38299469429E+03  0.57080903505E+03  0.00000000000E+00 0.  1.
         13    1    1    2    0    0  0.41532367731E+02 -0.21525429626E+02  0.28106673934E+03  0.28493298303E+03  0.10566000000E+00 0. -1.
<mgrwt>
<rscale>  1 0.46086739E+03</rscale>
<asrwt>0</asrwt>
<pdfrwt beam="2">  1       21 0.10516349E+00 0.98798512E+03</pdfrwt>
<pdfrwt beam="1">  1        4 0.98616550E-01 0.98798512E+03</pdfrwt>
<totfact> 0.23214267E+01</totfact>
</mgrwt>
</event>
<event>
 6    1  0.1375310E-005  0.1014676E+04  0.7818608E-02  0.9831030E-01
          4   -1    0    0  502    0 -0.00000000000E+00  0.00000000000E+00  0.11214797560E+04  0.11214797560E+04  0.00000000000E+00 0.  1.
         21   -1    0    0  501  502  0.00000000000E+00 -0.00000000000E+00 -0.39948242371E+03  0.39948242371E+03  0.00000000000E+00 0.  1.
    9000010    2    1    2  501    0  0.14485323529E+03 -0.62698448066E+02  0.28144154900E+03  0.10529846540E+04  0.10023241896E+04 0.  0.
        -13    1    3    3    0    0 -0.43012863233E+03 -0.28784114378E+02  0.18445359173E+03  0.46889476886E+03  0.10566000000E+00 0.  1.
          4    1    3    3  501    0  0.57498186763E+03 -0.33914333687E+02  0.96987957270E+02  0.58408988519E+03  0.00000000000E+00 0.  1.
         13    1    1    2    0    0 -0.14485323529E+03  0.62698448066E+02  0.44055578325E+03  0.46797752561E+03  0.10566000000E+00 0. -1.
<mgrwt>
<rscale>  1 0.63723559E+03</rscale>
<asrwt>0</asrwt>
<pdfrwt beam="2">  1       21 0.61458835E-01 0.10146760E+04</pdfrwt>
<pdfrwt beam="1">  1        4 0.17253535E+00 0.10146760E+04</pdfrwt>
<totfact> 0.19358358E+01</totfact>
</mgrwt>
</event>
<event>
 6    1  0.1375310E-005  0.9466767E+03  0.7818608E-02  0.9961540E-01
         21   -1    0    0  501  502  0.00000000000E+00  0.00000000000E+00  0.50232446870E+03  0.50232446870E+03  0.00000000000E+00 0.  1.
          4   -1    0    0  502    0 -0.00000000000E+00 -0.00000000000E+00 -0.57544294260E+03  0.57544294260E+03  0.00000000000E+00 0.  1.
    9000010    2    1    2  501    0  0.77043819460E+02 -0.10181167867E+03 -0.49855235087E+02  0.94798853215E+03  0.93802736878E+03 0.  0.
        -13    1    3    3    0    0 -0.65227625767E+02  0.40146474920E+03  0.66691772390E+02  0.41216063820E+03  0.10566000000E+00 0.  1.
          4    1    3    3  501    0  0.14227144523E+03 -0.50327642787E+03 -0.11654700748E+03  0.53582789395E+03  0.00000000000E+00 0.  1.
         13    1    1    2    0    0 -0.77043819460E+02  0.10181167867E+03 -0.23263238817E+02  0.12977887916E+03  0.10566000000E+00 0. -1.
<mgrwt>
<rscale>  1 0.57369267E+03</rscale>
<asrwt>0</asrwt>
<pdfrwt beam="1">  1       21 0.77280688E-01 0.94667667E+03</pdfrwt>
<pdfrwt beam="2">  1        4 0.88529683E-01 0.94667667E+03</pdfrwt>
<totfact> 0.63353974E+01</totfact>
</mgrwt>
</event>
<event>
 6    1  0.1375310E-005  0.1028844E+04  0.7818608E-02  0.9573830E-01
         21   -1    0    0  501  502  0.00000000000E+00  0.00000000000E+00  0.42278534087E+03  0.42278534087E+03  0.00000000000E+00 0.  1.
          4   -1    0    0  502    0 -0.00000000000E+00 -0.00000000000E+00 -0.14228379726E+04  0.14228379726E+04  0.00000000000E+00 0.  1.
    9000010    2    1    2  501    0  0.25017038849E+03  0.25693242761E+03 -0.32110450968E+03  0.10777886573E+04  0.96432400572E+03 0.  0.
        -13    1    3    3    0    0  0.11297987606E+03  0.66492014192E+02 -0.65592418583E+03  0.66889624686E+03  0.10566000000E+00 0.  1.
          4    1    3    3  501    0  0.13719051243E+03  0.19044041342E+03  0.33481967615E+03  0.40889241042E+03  0.00000000000E+00 0.  1.
         13    1    1    2    0    0 -0.25017038849E+03 -0.25693242761E+03 -0.67894812201E+03  0.76783465615E+03  0.10566000000E+00 0. -1.
<mgrwt>
<rscale>  1 0.79052773E+03</rscale>
<asrwt>0</asrwt>
<pdfrwt beam="1">  1       21 0.65043897E-01 0.10288441E+04</pdfrwt>
<pdfrwt beam="2">  1        4 0.21889816E+00 0.10288441E+04</pdfrwt>
<totfact> 0.83060427E+00</totfact>
</mgrwt>
</event>
<event>
 6    1  0.1375310E-005  0.1033852E+04  0.7818608E-02  0.9662533E-01
          4   -1    0    0  502    0 -0.00000000000E+00  0.00000000000E+00  0.25123973791E+04  0.25123973791E+04  0.00000000000E+00 0.  1.
         21   -1    0    0  501  502  0.00000000000E+00 -0.00000000000E+00 -0.20436260445E+03  0.20436260445E+03  0.00000000000E+00 0. -1.
    9000010    2    1    2  501    0 -0.24563174612E+03  0.88612167690E+02  0.22062987049E+04  0.24365148944E+04  0.10003318370E+04 0.  0.
        -13    1    3    3    0    0 -0.28219544719E+03  0.12009648918E+03  0.89936767827E+02  0.31960298888E+03  0.10566000000E+00 0.  1.
          4    1    3    3  501    0  0.36563701069E+02 -0.31484321492E+02  0.21163619371E+04  0.21169119055E+04  0.00000000000E+00 0.  1.
         13    1    1    2    0    0  0.24563174612E+03 -0.88612167690E+02  0.10173606972E+03  0.28024508918E+03  0.10566000000E+00 0. -1.
<mgrwt>
<rscale>  1 0.73292027E+03</rscale>
<asrwt>0</asrwt>
<pdfrwt beam="2">  1       21 0.31440403E-01 0.10338524E+04</pdfrwt>
<pdfrwt beam="1">  1        4 0.38652265E+00 0.10338524E+04</pdfrwt>
<totfact> 0.34019254E+00</totfact>
</mgrwt>
</event>
<event>
 6    1  0.1375310E-005  0.1016551E+04  0.7818608E-02  0.9920121E-01
         21   -1    0    0  501  502  0.00000000000E+00  0.00000000000E+00  0.25386961751E+04  0.25386961751E+04  0.00000000000E+00 0.  1.
          4   -1    0    0  502    0 -0.00000000000E+00 -0.00000000000E+00 -0.16627549659E+03  0.16627549659E+03  0.00000000000E+00 0.  1.
    9000010    2    1    2  501    0 -0.10293101230E+03  0.57048161029E+02  0.23790188185E+04  0.25871038110E+04  0.10097159522E+04 0.  0.
        -13    1    3    3    0    0 -0.37907153205E+03 -0.16482350006E+03  0.39510261278E+03  0.57181124366E+03  0.10566000000E+00 0.  1.
          4    1    3    3  501    0  0.27614051975E+03  0.22187166109E+03  0.19839162057E+04  0.20152925673E+04  0.00000000000E+00 0.  1.
         13    1    1    2    0    0  0.10293101230E+03 -0.57048161029E+02 -0.65981399939E+01  0.11786786069E+03  0.10566000000E+00 0. -1.
<mgrwt>
<rscale>  1 0.59295985E+03</rscale>
<asrwt>0</asrwt>
<pdfrwt beam="1">  1       21 0.39056861E+00 0.10165508E+04</pdfrwt>
<pdfrwt beam="2">  1        4 0.25580848E-01 0.10165508E+04</pdfrwt>
<totfact> 0.41691902E+00</totfact>
</mgrwt>
</event>
<event>
 6    1  0.1375310E-005  0.1096675E+04  0.7818608E-02  0.9457774E-01
          4   -1    0    0  502    0 -0.00000000000E+00  0.00000000000E+00  0.68967768186E+03  0.68967768186E+03  0.00000000000E+00 0.  1.
         21   -1    0    0  501  502  0.00000000000E+00 -0.00000000000E+00 -0.10100278097E+04  0.10100278097E+04  0.00000000000E+00 0.  1.
    9000010    2    1    2  501    0 -0.35113091446E+03  0.27143466872E+03 -0.51921435718E+03  0.12133756741E+04  0.10028595512E+04 0.  0.
        -13    1    3    3    0    0  0.23328222999E+02 -0.34753840271E+03 -0.51969962912E+02  0.35217614280E+03  0.10566000000E+00 0.  1.
          4    1    3    3  501    0 -0.37445913746E+03  0.61897307144E+03 -0.46724439427E+03  0.86119953133E+03  0.00000000000E+00 0.  1.
         13    1    1    2    0    0  0.35113091446E+03 -0.27143466872E+03  0.19886422931E+03  0.48632981745E+03  0.10566000000E+00 0. -1.
<mgrwt>
<rscale>  1 0.87469876E+03</rscale>
<asrwt>0</asrwt>
<pdfrwt beam="2">  1       21 0.15538889E+00 0.10966754E+04</pdfrwt>
<pdfrwt beam="1">  1        4 0.10610426E+00 0.10966754E+04</pdfrwt>
<totfact> 0.68169546E+00</totfact>
</mgrwt>
</event>
<event>
 6    1  0.1375310E-005  0.1198490E+04  0.7818608E-02  0.9293875E-01
         21   -1    0    0  501  502  0.00000000000E+00  0.00000000000E+00  0.75552981333E+03  0.75552981333E+03  0.00000000000E+00 0.  1.
          4   -1    0    0  502    0 -0.00000000000E+00 -0.00000000000E+00 -0.11896519259E+04  0.11896519259E+04  0.00000000000E+00 0.  1.
    9000010    2    1    2  501    0 -0.32936066395E+03 -0.51684987681E+03 -0.76237820469E+01  0.11985137546E+04  0.10299343940E+04 0.  0.
        -13    1    3    3    0    0  0.58686266189E+02  0.23687097858E+03  0.21147161532E+03  0.32291205240E+03  0.10566000000E+00 0.  1.
          4    1    3    3  501    0 -0.38804693014E+03 -0.75372085539E+03 -0.21909539737E+03  0.87560170225E+03  0.00000000000E+00 0.  1.
         13    1    1    2    0    0  0.32936066395E+03  0.51684987681E+03 -0.42649833056E+03  0.74666798461E+03  0.10566000000E+00 0. -1.
<mgrwt>
<rscale>  1 0.10134869E+04</rscale>
<asrwt>0</asrwt>
<pdfrwt beam="1">  1       21 0.11623536E+00 0.11984895E+04</pdfrwt>
<pdfrwt beam="2">  1        4 0.18302337E+00 0.11984895E+04</pdfrwt>
<totfact> 0.34811769E+00</totfact>
</mgrwt>
</event>
<event>
 6    1  0.1375310E-005  0.1021545E+04  0.7818608E-02  0.9745852E-01
          4   -1    0    0  502    0 -0.00000000000E+00  0.00000000000E+00  0.44877984994E+03  0.44877984994E+03  0.00000000000E+00 0.  1.
         21   -1    0    0  501  502  0.00000000000E+00 -0.00000000000E+00 -0.86476541511E+03  0.86476541511E+03  0.00000000000E+00 0. -1.
    9000010    2    1    2  501    0  0.60061160314E+02 -0.19573668684E+03 -0.25446980030E+03  0.10527626985E+04  0.10008167797E+04 0.  0.
        -13    1    3    3    0    0  0.63373633797E+01 -0.15323181156E+03 -0.64157106060E+03  0.65964656234E+03  0.10566000000E+00 0.  1.
          4    1    3    3  501    0  0.53723796935E+02 -0.42504875276E+02  0.38710126030E+03  0.39311613615E+03  0.00000000000E+00 0.  1.
         13    1    1    2    0    0 -0.60061160314E+02  0.19573668684E+03 -0.16151576487E+03  0.26078256656E+03  0.10566000000E+00 0. -1.
<mgrwt>
<rscale>  1 0.68351200E+03</rscale>
<asrwt>0</asrwt>
<pdfrwt beam="2">  1       21 0.13304083E+00 0.10215451E+04</pdfrwt>
<pdfrwt beam="1">  1        4 0.69043054E-01 0.10215451E+04</pdfrwt>
<totfact> 0.28731451E+01</totfact>
</mgrwt>
</event>
<event>
 6    1  0.1375310E-005  0.1012593E+04  0.7818608E-02  0.9835292E-01
          4   -1    0    0  502    0 -0.00000000000E+00  0.00000000000E+00  0.17680654944E+04  0.17680654944E+04  0.00000000000E+00 0.  1.
         21   -1    0    0  501  502  0.00000000000E+00 -0.00000000000E+00 -0.22861472023E+03  0.22861472023E+03  0.00000000000E+00 0.  1.
    9000010    2    1    2  501    0 -0.66158719921E+02 -0.14196532274E+03  0.95602768346E+03  0.13925993897E+04  0.10004064172E+04 0.  0.
        -13    1    3    3    0    0 -0.38852256259E+03  0.19948810942E+03  0.77449156320E+03  0.88914705200E+03  0.10566000000E+00 0.  1.
          4    1    3    3  501    0  0.32236384267E+03 -0.34145343216E+03  0.18153612026E+03  0.50345233772E+03  0.00000000000E+00 0.  1.
         13    1    1    2    0    0  0.66158719921E+02  0.14196532274E+03  0.58342309067E+03  0.60408082486E+03  0.10566000000E+00 0. -1.
<mgrwt>
<rscale>  1 0.63502502E+03</rscale>
<asrwt>0</asrwt>
<pdfrwt beam="2">  1       21 0.35171497E-01 0.10125928E+04</pdfrwt>
<pdfrwt beam="1">  1        4 0.27201007E+00 0.10125928E+04</pdfrwt>
<totfact> 0.14587750E+01</totfact>
</mgrwt>
</event>
<event>
 6    1  0.1375310E-005  0.1044508E+04  0.7818608E-02  0.9627098E-01
          4   -1    0    0  502    0 -0.00000000000E+00  0.00000000000E+00  0.31579139643E+04  0.31579139643E+04  0.00000000000E+00 0.  1.
         21   -1    0    0  501  502  0.00000000000E+00 -0.00000000000E+00 -0.18256587660E+03  0.18256587660E+03  0.00000000000E+00 0.  1.
    9000010    2    1    2  501    0  0.65789329132E+02 -0.27788262365E+03  0.14407527905E+04  0.17795411087E+04  0.10047143703E+04 0.  0.
        -13    1    3    3    0    0  0.30152247625E+03 -0.48865806752E+03  0.13227800402E+04  0.14420296657E+04  0.10566000000E+00 0.  1.
          4    1    3    3  501    0 -0.23573314712E+03  0.21077544387E+03  0.11797275029E+03  0.33751144307E+03  0.00000000000E+00 0.  1.
         13    1    1    2    0    0 -0.65789329132E+02  0.27788262365E+03  0.15345952972E+04  0.15609387322E+04  0.10566000000E+00 0. -1.
<mgrwt>
<rscale>  1 0.75528346E+03</rscale>
<asrwt>0</asrwt>
<pdfrwt beam="2">  1       21 0.28087060E-01 0.10445085E+04</pdfrwt>
<pdfrwt beam="1">  1        4 0.48583288E+00 0.10445085E+04</pdfrwt>
<totfact> 0.80065082E-01</totfact>
</mgrwt>
</event>
<event>
 6    1  0.1375310E-005  0.1215545E+04  0.7818608E-02  0.9248009E-01
         21   -1    0    0  501  502  0.00000000000E+00  0.00000000000E+00  0.15113838175E+04  0.15113838175E+04  0.00000000000E+00 0.  1.
          4   -1    0    0  502    0 -0.00000000000E+00 -0.00000000000E+00 -0.69531657882E+03  0.69531657882E+03  0.00000000000E+00 0.  1.
    9000010    2    1    2  501    0 -0.55836043402E+03 -0.41443247803E+03  0.89127414752E+03  0.15072886840E+04  0.99700998874E+03 0.  0.
        -13    1    3    3    0    0 -0.59148424547E+03 -0.26453404457E+02  0.94403416917E+03  0.11143401271E+04  0.10566000000E+00 0.  1.
          4    1    3    3  501    0  0.33123811455E+02 -0.38797907358E+03 -0.52760021654E+02  0.39294855682E+03  0.00000000000E+00 0.  1.
         13    1    1    2    0    0  0.55836043402E+03  0.41443247803E+03 -0.75206908803E+02  0.69941171238E+03  0.10566000000E+00 0. -1.
<mgrwt>
<rscale>  1 0.10571343E+04</rscale>
<asrwt>0</asrwt>
<pdfrwt beam="1">  1       21 0.23252059E+00 0.12155450E+04</pdfrwt>
<pdfrwt beam="2">  1        4 0.10697178E+00 0.12155450E+04</pdfrwt>
<totfact> 0.18698561E+00</totfact>
</mgrwt>
</event>
<event>
 6    1  0.1375310E-005  0.1112676E+04  0.7818608E-02  0.9530780E-01
         21   -1    0    0  501  502  0.00000000000E+00  0.00000000000E+00  0.41073238315E+03  0.41073238315E+03  0.00000000000E+00 0. -1.
          4   -1    0    0  502    0 -0.00000000000E+00 -0.00000000000E+00 -0.12687173446E+04  0.12687173446E+04  0.00000000000E+00 0.  1.
    9000010    2    1    2  501    0  0.14188244196E+03 -0.29688120989E+03 -0.69890895466E+03  0.13139715927E+04  0.10629104098E+04 0.  0.
        -13    1    3    3    0    0  0.33345336658E+03 -0.59976522943E+03 -0.22990849523E+03  0.72371776644E+03  0.10566000000E+00 0.  1.
          4    1    3    3  501    0 -0.19157092461E+03  0.30288401954E+03 -0.46900045943E+03  0.59025382625E+03  0.00000000000E+00 0.  1.
         13    1    1    2    0    0 -0.14188244196E+03  0.29688120989E+03 -0.15907600682E+03  0.36547813510E+03  0.10566000000E+00 0. -1.
<mgrwt>
<rscale>  1 0.82052085E+03</rscale>
<asrwt>0</asrwt>
<pdfrwt beam="1">  1       21 0.63189598E-01 0.11126759E+04</pdfrwt>
<pdfrwt beam="2">  1        4 0.19518728E+00 0.11126759E+04</pdfrwt>
<totfact> 0.12558029E+01</totfact>
</mgrwt>
</event>
<event>
 6    1  0.1375310E-005  0.1038716E+04  0.7818608E-02  0.9522060E-01
         21   -1    0    0  501  502  0.00000000000E+00  0.00000000000E+00  0.47454472347E+03  0.47454472347E+03  0.00000000000E+00 0. -1.
          4   -1    0    0  502    0 -0.00000000000E+00 -0.00000000000E+00 -0.11725690294E+04  0.11725690294E+04  0.00000000000E+00 0.  1.
    9000010    2    1    2  501    0  0.29184470946E+02  0.41588810827E+03 -0.65500048907E+03  0.12279888169E+04  0.95137597296E+03 0.  0.
        -13    1    3    3    0    0  0.70675553683E+02  0.72062387711E+03 -0.52352762000E+03  0.89351831891E+03  0.10566000000E+00 0.  1.
          4    1    3    3  501    0 -0.41491082738E+02 -0.30473576885E+03 -0.13147286906E+03  0.33447049804E+03  0.00000000000E+00 0.  1.
         13    1    1    2    0    0 -0.29184470946E+02 -0.41588810827E+03 -0.43023816887E+02  0.41912493594E+03  0.10566000000E+00 0. -1.
<mgrwt>
<rscale>  1 0.82676763E+03</rscale>
<asrwt>0</asrwt>
<pdfrwt beam="1">  1       21 0.73006881E-01 0.10387160E+04</pdfrwt>
<pdfrwt beam="2">  1        4 0.18039523E+00 0.10387160E+04</pdfrwt>
<totfact> 0.11486657E+01</totfact>
</mgrwt>
</event>
<event>
 6    1  0.1375310E-005  0.1061783E+04  0.7818608E-02  0.9528576E-01
          4   -1    0    0  502    0 -0.00000000000E+00  0.00000000000E+00  0.92849988810E+03  0.92849988810E+03  0.00000000000E+00 0.  1.
         21   -1    0    0  501  502  0.00000000000E+00 -0.00000000000E+00 -0.71794560433E+03  0.71794560433E+03  0.00000000000E+00 0.  1.
    9000010    2    1    2  501    0  0.32208188754E+03  0.20460127049E+03  0.49403727096E+03  0.11710919005E+04  0.99085064069E+03 0.  0.
        -13    1    3    3    0    0  0.10438937405E+03  0.60073234662E+03  0.28885392933E+03  0.67469481793E+03  0.10566000000E+00 0.  1.
          4    1    3    3  501    0  0.21769251349E+03 -0.39613107613E+03  0.20518334163E+03  0.49639708257E+03  0.00000000000E+00 0.  1.
         13    1    1    2    0    0 -0.32208188754E+03 -0.20460127049E+03 -0.28348298719E+03  0.47535359193E+03  0.10566000000E+00 0. -1.
<mgrwt>
<rscale>  1 0.82209405E+03</rscale>
<asrwt>0</asrwt>
<pdfrwt beam="2">  1       21 0.11045317E+00 0.10617831E+04</pdfrwt>
<pdfrwt beam="1">  1        4 0.14284614E+00 0.10617831E+04</pdfrwt>
<totfact> 0.80137726E+00</totfact>
</mgrwt>
</event>
<event>
 6    1  0.1375310E-005  0.9931845E+03  0.7818608E-02  0.9722030E-01
         21   -1    0    0  501  502  0.00000000000E+00  0.00000000000E+00  0.12432253551E+04  0.12432253551E+04  0.00000000000E+00 0.  1.
          4   -1    0    0  502    0 -0.00000000000E+00 -0.00000000000E+00 -0.34461472008E+03  0.34461472008E+03  0.00000000000E+00 0.  1.
    9000010    2    1    2  501    0 -0.23246901579E+03  0.64239241053E+02  0.90909837580E+03  0.13464306154E+04  0.96345577052E+03 0.  0.
        -13    1    3    3    0    0  0.27527971608E+03 -0.21858392490E+03  0.58087819123E+03  0.67895311953E+03  0.10566000000E+00 0.  1.
          4    1    3    3  501    0 -0.50774873187E+03  0.28282316595E+03  0.32822018458E+03  0.66747749585E+03  0.00000000000E+00 0.  1.
         13    1    1    2    0    0  0.23246901579E+03 -0.64239241053E+02 -0.10487740817E+02  0.24140945977E+03  0.10566000000E+00 0. -1.
<mgrwt>
<rscale>  1 0.69720177E+03</rscale>
<asrwt>0</asrwt>
<pdfrwt beam="1">  1       21 0.19126544E+00 0.99318455E+03</pdfrwt>
<pdfrwt beam="2">  1        4 0.53017650E-01 0.99318455E+03</pdfrwt>
<totfact> 0.18123686E+01</totfact>
</mgrwt>
</event>
<event>
 6    1  0.1375310E-005  0.1049424E+04  0.7818608E-02  0.9575073E-01
         21   -1    0    0  501  502  0.00000000000E+00  0.00000000000E+00  0.98086531763E+03  0.98086531763E+03  0.00000000000E+00 0.  1.
          4   -1    0    0  502    0 -0.00000000000E+00 -0.00000000000E+00 -0.51817448249E+03  0.51817448249E+03  0.00000000000E+00 0.  1.
    9000010    2    1    2  501    0 -0.19863179815E+03  0.27159310893E+03  0.49634533911E+03  0.11608829654E+04  0.99401868980E+03 0.  0.
        -13    1    3    3    0    0 -0.31694754148E+02  0.50830416529E+02 -0.30617299822E+03  0.31197789135E+03  0.10566000000E+00 0.  1.
          4    1    3    3  501    0 -0.16693704401E+03  0.22076269240E+03  0.80251833733E+03  0.84890507407E+03  0.00000000000E+00 0.  1.
         13    1    1    2    0    0  0.19863179815E+03 -0.27159310893E+03 -0.33654503969E+02  0.33815683471E+03  0.10566000000E+00 0. -1.
<mgrwt>
<rscale>  1 0.78968225E+03</rscale>
<asrwt>0</asrwt>
<pdfrwt beam="1">  1       21 0.15090236E+00 0.10494239E+04</pdfrwt>
<pdfrwt beam="2">  1        4 0.79719152E-01 0.10494239E+04</pdfrwt>
<totfact> 0.14652174E+01</totfact>
</mgrwt>
</event>
<event>
 6    1  0.1375310E-005  0.1065443E+04  0.7818608E-02  0.9543697E-01
          4   -1    0    0  502    0 -0.00000000000E+00  0.00000000000E+00  0.10630442213E+04  0.10630442213E+04  0.00000000000E+00 0.  1.
         21   -1    0    0  501  502  0.00000000000E+00 -0.00000000000E+00 -0.48040431086E+03  0.48040431086E+03  0.00000000000E+00 0.  1.
    9000010    2    1    2  501    0 -0.30680798570E+03  0.18513979300E+03  0.37627660753E+03  0.11299346787E+04  0.10033745112E+04 0.  0.
        -13    1    3    3    0    0 -0.63446555790E+03 -0.51955177822E+02  0.11083628162E+03  0.64616606004E+03  0.10566000000E+00 0.  1.
          4    1    3    3  501    0  0.32765757220E+03  0.23709497083E+03  0.26544032591E+03  0.48376861869E+03  0.00000000000E+00 0.  1.
         13    1    1    2    0    0  0.30680798570E+03 -0.18513979300E+03  0.20636330294E+03  0.41351385346E+03  0.10566000000E+00 0. -1.
<mgrwt>
<rscale>  1 0.81137488E+03</rscale>
<asrwt>0</asrwt>
<pdfrwt beam="2">  1       21 0.73908356E-01 0.10654428E+04</pdfrwt>
<pdfrwt beam="1">  1        4 0.16354526E+00 0.10654428E+04</pdfrwt>
<totfact> 0.14703325E+01</totfact>
</mgrwt>
</event>
<event>
 6    1  0.1375310E-005  0.1002866E+04  0.7818608E-02  0.9727193E-01
         21   -1    0    0  501  502  0.00000000000E+00  0.00000000000E+00  0.97309192954E+03  0.97309192954E+03  0.00000000000E+00 0.  1.
          4   -1    0    0  502    0 -0.00000000000E+00 -0.00000000000E+00 -0.40014727547E+03  0.40014727547E+03  0.00000000000E+00 0.  1.
    9000010    2    1    2  501    0  0.93574759115E+02 -0.21039146514E+03  0.54471781769E+03  0.11412530640E+04  0.97607389633E+03 0.  0.
        -13    1    3    3    0    0 -0.39020413727E+03 -0.13952186239E+03  0.69738315207E+01  0.41445658919E+03  0.10566000000E+00 0.  1.
          4    1    3    3  501    0  0.48377889639E+03 -0.70869602756E+02  0.53774398617E+03  0.72679647485E+03  0.00000000000E+00 0.  1.
         13    1    1    2    0    0 -0.93574759115E+02  0.21039146514E+03  0.28226836382E+02  0.23198614098E+03  0.10566000000E+00 0. -1.
<mgrwt>
<rscale>  1 0.69420561E+03</rscale>
<asrwt>0</asrwt>
<pdfrwt beam="1">  1       21 0.14970645E+00 0.10028664E+04</pdfrwt>
<pdfrwt beam="2">  1        4 0.61561119E-01 0.10028664E+04</pdfrwt>
<totfact> 0.26873466E+01</totfact>
</mgrwt>
</event>
<event>
 6    1  0.1375310E-005  0.1161903E+04  0.7818608E-02  0.9324439E-01
          4   -1    0    0  502    0 -0.00000000000E+00  0.00000000000E+00  0.10223370521E+04  0.10223370521E+04  0.00000000000E+00 0.  1.
         21   -1    0    0  501  502  0.00000000000E+00 -0.00000000000E+00 -0.93175664691E+03  0.93175664691E+03  0.00000000000E+00 0.  1.
    9000010    2    1    2  501    0  0.58022777854E+03 -0.15919477720E+03 -0.34415207886E+03  0.12118002288E+04  0.99398787167E+03 0.  0.
        -13    1    3    3    0    0  0.24997105000E+03 -0.34768718132E+03 -0.61181175467E+03  0.74678346005E+03  0.10566000000E+00 0.  1.
          4    1    3    3  501    0  0.33025672855E+03  0.18849240412E+03  0.26765967580E+03  0.46501676874E+03  0.00000000000E+00 0.  1.
         13    1    1    2    0    0 -0.58022777854E+03  0.15919477720E+03  0.43473248409E+03  0.74229347025E+03  0.10566000000E+00 0. -1.
<mgrwt>
<rscale>  1 0.98563731E+03</rscale>
<asrwt>0</asrwt>
<pdfrwt beam="2">  1       21 0.14334718E+00 0.11619032E+04</pdfrwt>
<pdfrwt beam="1">  1        4 0.15728262E+00 0.11619032E+04</pdfrwt>
<totfact> 0.30705406E+00</totfact>
</mgrwt>
</event>
<event>
 6    1  0.1375310E-005  0.1062520E+04  0.7818608E-02  0.9546289E-01
         21   -1    0    0  501  502  0.00000000000E+00  0.00000000000E+00  0.31250312765E+03  0.31250312765E+03  0.00000000000E+00 0.  1.
          4   -1    0    0  502    0 -0.00000000000E+00 -0.00000000000E+00 -0.16212726397E+04  0.16212726397E+04  0.00000000000E+00 0.  1.
    9000010    2    1    2  501    0 -0.16196047065E+03  0.31935263742E+03 -0.10320041765E+04  0.14812093488E+04  0.10003655400E+04 0.  0.
        -13    1    3    3    0    0  0.22465927298E+03  0.43500567319E+03 -0.15127791822E+03  0.51243218512E+03  0.10566000000E+00 0.  1.
          4    1    3    3  501    0 -0.38661974363E+03 -0.11565303576E+03 -0.88072625832E+03  0.96877716372E+03  0.00000000000E+00 0.  1.
         13    1    1    2    0    0  0.16196047065E+03 -0.31935263742E+03 -0.27676533555E+03  0.45256641856E+03  0.10566000000E+00 0. -1.
<mgrwt>
<rscale>  1 0.80955468E+03</rscale>
<asrwt>0</asrwt>
<pdfrwt beam="1">  1       21 0.48077404E-01 0.10625199E+04</pdfrwt>
<pdfrwt beam="2">  1        4 0.24942656E+00 0.10625199E+04</pdfrwt>
<totfact> 0.10358754E+01</totfact>
</mgrwt>
</event>
<event>
 6    1  0.1375310E-005  0.1059530E+04  0.7818608E-02  0.9573306E-01
          4   -1    0    0  502    0 -0.00000000000E+00  0.00000000000E+00  0.74096774059E+03  0.74096774059E+03  0.00000000000E+00 0.  1.
         21   -1    0    0  501  502  0.00000000000E+00 -0.00000000000E+00 -0.98898294417E+03  0.98898294417E+03  0.00000000000E+00 0.  1.
    9000010    2    1    2  501    0 -0.30624618621E+03 -0.12005161207E+03 -0.62460372463E+03  0.12299326436E+04  0.10071769352E+04 0.  0.
        -13    1    3    3    0    0  0.17365866284E+03 -0.60341403186E+02  0.20145068932E+03  0.27272845013E+03  0.10566000000E+00 0.  1.
          4    1    3    3  501    0 -0.47990484905E+03 -0.59710208880E+02 -0.82605441396E+03  0.95720419347E+03  0.00000000000E+00 0.  1.
         13    1    1    2    0    0  0.30624618621E+03  0.12005161207E+03  0.37658852105E+03  0.50001804115E+03  0.10566000000E+00 0. -1.
<mgrwt>
<rscale>  1 0.79088440E+03</rscale>
<asrwt>0</asrwt>
<pdfrwt beam="2">  1       21 0.15215122E+00 0.10595303E+04</pdfrwt>
<pdfrwt beam="1">  1        4 0.11399504E+00 0.10595303E+04</pdfrwt>
<totfact> 0.60880134E+00</totfact>
</mgrwt>
</event>
<event>
 6    1  0.1375310E-005  0.1090018E+04  0.7818608E-02  0.9464751E-01
         21   -1    0    0  501  502  0.00000000000E+00  0.00000000000E+00  0.51205297824E+03  0.51205297824E+03  0.00000000000E+00 0.  1.
          4   -1    0    0  502    0 -0.00000000000E+00 -0.00000000000E+00 -0.14820094938E+04  0.14820094938E+04  0.00000000000E+00 0.  1.
    9000010    2    1    2  501    0 -0.38976234360E+03 -0.20632529148E+03 -0.20212991694E+03  0.11086007241E+04  0.99682207626E+03 0.  0.
        -13    1    3    3    0    0 -0.10006715784E+03  0.17120934304E+03 -0.50634783625E+03  0.54379611774E+03  0.10566000000E+00 0.  1.
          4    1    3    3  501    0 -0.28969518576E+03 -0.37753463453E+03  0.30421791932E+03  0.56480460635E+03  0.00000000000E+00 0.  1.
         13    1    1    2    0    0  0.38976234360E+03  0.20632529148E+03 -0.76782659867E+03  0.88546174801E+03  0.10566000000E+00 0. -1.
<mgrwt>
<rscale>  1 0.86933255E+03</rscale>
<asrwt>0</asrwt>
<pdfrwt beam="1">  1       21 0.78777383E-01 0.10900179E+04</pdfrwt>
<pdfrwt beam="2">  1        4 0.22800146E+00 0.10900179E+04</pdfrwt>
<totfact> 0.46409837E+00</totfact>
</mgrwt>
</event>
<event>
 6    1  0.1375310E-005  0.1159882E+04  0.7818608E-02  0.9336308E-01
         21   -1    0    0  501  502  0.00000000000E+00  0.00000000000E+00  0.10659010453E+04  0.10659010453E+04  0.00000000000E+00 0. -1.
          4   -1    0    0  502    0 -0.00000000000E+00 -0.00000000000E+00 -0.71329434725E+03  0.71329434725E+03  0.00000000000E+00 0.  1.
    9000010    2    1    2  501    0 -0.42306538728E+03  0.39576018686E+03  0.29640764375E+03  0.11971569124E+04  0.10048466223E+04 0.  0.
        -13    1    3    3    0    0  0.17373924030E+02  0.46948171255E+03 -0.21632780308E+03  0.51721626154E+03  0.10566000000E+00 0.  1.
          4    1    3    3  501    0 -0.44043931131E+03 -0.73721525687E+02  0.51273544683E+03  0.67994065089E+03  0.00000000000E+00 0.  1.
         13    1    1    2    0    0  0.42306538728E+03 -0.39576018686E+03  0.56199054265E+02  0.58203848007E+03  0.10566000000E+00 0. -1.
<mgrwt>
<rscale>  1 0.97507923E+03</rscale>
<asrwt>0</asrwt>
<pdfrwt beam="1">  1       21 0.16398478E+00 0.11598824E+04</pdfrwt>
<pdfrwt beam="2">  1        4 0.10973759E+00 0.11598824E+04</pdfrwt>
<totfact> 0.53374197E+00</totfact>
</mgrwt>
</event>
<event>
 6    1  0.1375310E-005  0.1010162E+04  0.7818608E-02  0.9840017E-01
          4   -1    0    0  502    0 -0.00000000000E+00  0.00000000000E+00  0.88485884390E+03  0.88485884390E+03  0.00000000000E+00 0.  1.
         21   -1    0    0  501  502  0.00000000000E+00 -0.00000000000E+00 -0.38966877235E+03  0.38966877235E+03  0.00000000000E+00 0.  1.
    9000010    2    1    2  501    0  0.15280202457E+03 -0.28003203654E+02  0.37279163154E+03  0.10767549503E+04  0.99814577306E+03 0.  0.
        -13    1    3    3    0    0 -0.28024908198E+03  0.21751449582E+03 -0.12173788359E+03  0.37506296445E+03  0.10566000000E+00 0.  1.
          4    1    3    3  501    0  0.43305110655E+03 -0.24551769947E+03  0.49452951513E+03  0.70169198583E+03  0.00000000000E+00 0.  1.
         13    1    1    2    0    0 -0.15280202457E+03  0.28003203654E+02  0.12239844001E+03  0.19777266598E+03  0.10566000000E+00 0. -1.
<mgrwt>
<rscale>  1 0.63258509E+03</rscale>
<asrwt>0</asrwt>
<pdfrwt beam="2">  1       21 0.59949042E-01 0.10101622E+04</pdfrwt>
<pdfrwt beam="1">  1        4 0.13613213E+00 0.10101622E+04</pdfrwt>
<totfact> 0.38942447E+01</totfact>
</mgrwt>
</event>
<event>
 6    1  0.1375310E-005  0.1016085E+04  0.7818608E-02  0.9889285E-01
          4   -1    0    0  502    0 -0.00000000000E+00  0.00000000000E+00  0.19474570863E+03  0.19474570863E+03  0.00000000000E+00 0.  1.
         21   -1    0    0  501  502  0.00000000000E+00 -0.00000000000E+00 -0.16949821076E+04  0.16949821076E+04  0.00000000000E+00 0.  1.
    9000010    2    1    2  501    0 -0.38234958089E+02  0.12437723863E+03 -0.13694875172E+04  0.17052640237E+04  0.10077190686E+04 0.  0.
        -13    1    3    3    0    0 -0.31811394135E+02 -0.49252050553E+02 -0.14916920029E+04  0.14928438539E+04  0.10566000000E+00 0.  1.
          4    1    3    3  501    0 -0.64235639538E+01  0.17362928918E+03  0.12220448570E+03  0.21242016985E+03  0.00000000000E+00 0.  1.
         13    1    1    2    0    0  0.38234958089E+02 -0.12437723863E+03 -0.13074888175E+03  0.18446379252E+03  0.10566000000E+00 0. -1.
<mgrwt>
<rscale>  1 0.60783393E+03</rscale>
<asrwt>0</asrwt>
<pdfrwt beam="2">  1       21 0.26076648E+00 0.10160853E+04</pdfrwt>
<pdfrwt beam="1">  1        4 0.29960878E-01 0.10160853E+04</pdfrwt>
<totfact> 0.20178686E+01</totfact>
</mgrwt>
</event>
<event>
 6    1  0.1375310E-005  0.1013446E+04  0.7818608E-02  0.9851332E-01
          4   -1    0    0  502    0 -0.00000000000E+00  0.00000000000E+00  0.10507197631E+04  0.10507197631E+04  0.00000000000E+00 0.  1.
         21   -1    0    0  501  502  0.00000000000E+00 -0.00000000000E+00 -0.37982516277E+03  0.37982516277E+03  0.00000000000E+00 0.  1.
    9000010    2    1    2  501    0 -0.16040275867E+02  0.14741131001E+03  0.34170893917E+03  0.10695039373E+04  0.10025399184E+04 0.  0.
        -13    1    3    3    0    0  0.13329531441E+03  0.17410498632E+02  0.67151108727E+03  0.68483422651E+03  0.10566000000E+00 0.  1.
          4    1    3    3  501    0 -0.14933559028E+03  0.13000081137E+03 -0.32980214810E+03  0.38466971076E+03  0.00000000000E+00 0.  1.
         13    1    1    2    0    0  0.16040275867E+02 -0.14741131001E+03  0.32918566112E+03  0.36104098855E+03  0.10566000000E+00 0. -1.
<mgrwt>
<rscale>  1 0.62679038E+03</rscale>
<asrwt>0</asrwt>
<pdfrwt beam="2">  1       21 0.58434641E-01 0.10134464E+04</pdfrwt>
<pdfrwt beam="1">  1        4 0.16164919E+00 0.10134464E+04</pdfrwt>
<totfact> 0.26000011E+01</totfact>
</mgrwt>
</event>
<event>
 6    1  0.1375310E-005  0.1015249E+04  0.7818608E-02  0.9921807E-01
         21   -1    0    0  501  502  0.00000000000E+00  0.00000000000E+00  0.26934567286E+03  0.26934567286E+03  0.00000000000E+00 0.  1.
          4   -1    0    0  502    0 -0.00000000000E+00 -0.00000000000E+00 -0.12734252633E+04  0.12734252633E+04  0.00000000000E+00 0.  1.
    9000010    2    1    2  501    0 -0.11749230284E+03 -0.13181319647E+01 -0.74807662119E+03  0.12610907804E+04  0.10084270656E+04 0.  0.
        -13    1    3    3    0    0  0.31698651240E+03 -0.42633402656E+02  0.75848624229E+02  0.32871124262E+03  0.10566000000E+00 0.  1.
          4    1    3    3  501    0 -0.43447881524E+03  0.41315270691E+02 -0.82392524542E+03  0.93237953781E+03  0.00000000000E+00 0.  1.
         13    1    1    2    0    0  0.11749230284E+03  0.13181319647E+01 -0.25600296923E+03  0.28168015570E+03  0.10566000000E+00 0. -1.
<mgrwt>
<rscale>  1 0.59215961E+03</rscale>
<asrwt>0</asrwt>
<pdfrwt beam="1">  1       21 0.41437796E-01 0.10152494E+04</pdfrwt>
<pdfrwt beam="2">  1        4 0.19591158E+00 0.10152494E+04</pdfrwt>
<totfact> 0.31383189E+01</totfact>
</mgrwt>
</event>
<event>
 6    1  0.1375310E-005  0.1027889E+04  0.7818608E-02  0.9667631E-01
          4   -1    0    0  502    0 -0.00000000000E+00  0.00000000000E+00  0.52096419032E+03  0.52096419032E+03  0.00000000000E+00 0.  1.
         21   -1    0    0  501  502  0.00000000000E+00 -0.00000000000E+00 -0.92072909028E+03  0.92072909028E+03  0.00000000000E+00 0.  1.
    9000010    2    1    2  501    0 -0.13312005040E+03 -0.22468715375E+03 -0.52257142569E+03  0.11530988960E+04  0.99415838990E+03 0.  0.
        -13    1    3    3    0    0  0.37060000293E+03  0.10141872539E+03 -0.46320064013E+02  0.38700862978E+03  0.10566000000E+00 0.  1.
          4    1    3    3  501    0 -0.50372005333E+03 -0.32610587914E+03 -0.47625136167E+03  0.76609026624E+03  0.00000000000E+00 0.  1.
         13    1    1    2    0    0  0.13312005040E+03  0.22468715375E+03  0.12280652573E+03  0.28859438457E+03  0.10566000000E+00 0. -1.
<mgrwt>
<rscale>  1 0.72977162E+03</rscale>
<asrwt>0</asrwt>
<pdfrwt beam="2">  1       21 0.14165063E+00 0.10278892E+04</pdfrwt>
<pdfrwt beam="1">  1        4 0.80148337E-01 0.10278892E+04</pdfrwt>
<totfact> 0.17281362E+01</totfact>
</mgrwt>
</event>
<event>
 6    1  0.1375310E-005  0.1030236E+04  0.7818608E-02  0.9675759E-01
          4   -1    0    0  502    0 -0.00000000000E+00  0.00000000000E+00  0.42628256456E+03  0.42628256456E+03  0.00000000000E+00 0.  1.
         21   -1    0    0  501  502  0.00000000000E+00 -0.00000000000E+00 -0.10050504812E+04  0.10050504812E+04  0.00000000000E+00 0.  1.
    9000010    2    1    2  501    0 -0.25179472429E+03  0.16964934624E+02 -0.57308591323E+03  0.11789034744E+04  0.99884810944E+03 0.  0.
        -13    1    3    3    0    0 -0.35004385500E+03 -0.17807088494E+03  0.15239583154E+03  0.42126528592E+03  0.10566000000E+00 0.  1.
          4    1    3    3  501    0  0.98249130708E+02  0.19503581956E+03 -0.72548174477E+03  0.75763818844E+03  0.00000000000E+00 0.  1.
         13    1    1    2    0    0  0.25179472429E+03 -0.16964934624E+02 -0.56820034158E+01  0.25242957139E+03  0.10566000000E+00 0. -1.
<mgrwt>
<rscale>  1 0.72478641E+03</rscale>
<asrwt>0</asrwt>
<pdfrwt beam="2">  1       21 0.15462315E+00 0.10302359E+04</pdfrwt>
<pdfrwt beam="1">  1        4 0.65581933E-01 0.10302359E+04</pdfrwt>
<totfact> 0.21296847E+01</totfact>
</mgrwt>
</event>
<event>
 6    1  0.1375310E-005  0.1019963E+04  0.7818608E-02  0.9859320E-01
          4   -1    0    0  502    0 -0.00000000000E+00  0.00000000000E+00  0.43875989923E+03  0.43875989923E+03  0.00000000000E+00 0.  1.
         21   -1    0    0  501  502  0.00000000000E+00 -0.00000000000E+00 -0.80935962395E+03  0.80935962395E+03  0.00000000000E+00 0.  1.
    9000010    2    1    2  501    0  0.79279073622E+02  0.11748711755E+03 -0.41265734974E+03  0.11002775491E+04  0.10100674247E+04 0.  0.
        -13    1    3    3    0    0  0.48046693837E+03  0.19964533872E+03 -0.45155756392E+03  0.68892015854E+03  0.10566000000E+00 0.  1.
          4    1    3    3  501    0 -0.40118786475E+03 -0.82158221167E+02  0.38900214182E+02  0.41135739059E+03  0.00000000000E+00 0.  1.
         13    1    1    2    0    0 -0.79279073622E+02 -0.11748711755E+03  0.42057625024E+02  0.14784197405E+03  0.10566000000E+00 0. -1.
<mgrwt>
<rscale>  1 0.62273964E+03</rscale>
<asrwt>0</asrwt>
<pdfrwt beam="2">  1       21 0.12451686E+00 0.10199630E+04</pdfrwt>
<pdfrwt beam="1">  1        4 0.67501524E-01 0.10199630E+04</pdfrwt>
<totfact> 0.36016309E+01</totfact>
</mgrwt>
</event>
<event>
 6    1  0.1375310E-005  0.1214335E+04  0.7818608E-02  0.9239272E-01
         21   -1    0    0  501  502  0.00000000000E+00  0.00000000000E+00  0.17530879157E+04  0.17530879157E+04  0.00000000000E+00 0.  1.
          4   -1    0    0  502    0 -0.00000000000E+00 -0.00000000000E+00 -0.53509341829E+03  0.53509341829E+03  0.00000000000E+00 0.  1.
    9000010    2    1    2  501    0  0.40870704274E+03 -0.59317742350E+03  0.70913309454E+03  0.14062284775E+04  0.97760313150E+03 0.  0.
        -13    1    3    3    0    0  0.42600617626E+03 -0.39979525407E+03  0.93864525110E+03  0.11056095269E+04  0.10566000000E+00 0.  1.
          4    1    3    3  501    0 -0.17299133525E+02 -0.19338216943E+03 -0.22951215656E+03  0.30061895064E+03  0.00000000000E+00 0.  1.
         13    1    1    2    0    0 -0.40870704274E+03  0.59317742350E+03  0.50886140290E+03  0.88195285648E+03  0.10566000000E+00 0. -1.
<mgrwt>
<rscale>  1 0.10657109E+04</rscale>
<asrwt>0</asrwt>
<pdfrwt beam="1">  1       21 0.26970583E+00 0.12143347E+04</pdfrwt>
<pdfrwt beam="2">  1        4 0.82322065E-01 0.12143347E+04</pdfrwt>
<totfact> 0.20188648E+00</totfact>
</mgrwt>
</event>
<event>
 6    1  0.1375310E-005  0.1011315E+04  0.7818608E-02  0.1000072E+00
         21   -1    0    0  501  502  0.00000000000E+00  0.00000000000E+00  0.63144129293E+03  0.63144129293E+03  0.00000000000E+00 0.  1.
          4   -1    0    0  502    0 -0.00000000000E+00 -0.00000000000E+00 -0.48292255647E+03  0.48292255647E+03  0.00000000000E+00 0.  1.
    9000010    2    1    2  501    0  0.92167783216E+02  0.80239393456E+01  0.14611913461E+03  0.10218162772E+04  0.10070741874E+04 0.  0.
        -13    1    3    3    0    0 -0.84241454898E+02 -0.48181138841E+03  0.42422559705E+02  0.49095674093E+03  0.10566000000E+00 0.  1.
          4    1    3    3  501    0  0.17640923811E+03  0.48983532776E+03  0.10369657491E+03  0.53085953628E+03  0.00000000000E+00 0.  1.
         13    1    1    2    0    0 -0.92167783216E+02 -0.80239393456E+01  0.23996018471E+01  0.92547572192E+02  0.10566000000E+00 0. -1.
<mgrwt>
<rscale>  1 0.55618534E+03</rscale>
<asrwt>0</asrwt>
<pdfrwt beam="1">  1       21 0.97144814E-01 0.10113148E+04</pdfrwt>
<pdfrwt beam="2">  1        4 0.74295778E-01 0.10113148E+04</pdfrwt>
<totfact> 0.54581058E+01</totfact>
</mgrwt>
</event>
<event>
 6    1  0.1375310E-005  0.1128166E+04  0.7818608E-02  0.9390763E-01
          4   -1    0    0  502    0 -0.00000000000E+00  0.00000000000E+00  0.31289660275E+03  0.31289660275E+03  0.00000000000E+00 0.  1.
         21   -1    0    0  501  502  0.00000000000E+00 -0.00000000000E+00 -0.21766405774E+04  0.21766405774E+04  0.00000000000E+00 0. -1.
    9000010    2    1    2  501    0 -0.46063014304E+03  0.23560806784E+03 -0.11859423167E+04  0.16368318447E+04  0.10025308071E+04 0.  0.
        -13    1    3    3    0    0  0.29931430890E+03  0.10102455822E+03 -0.56073583259E+03  0.64359902267E+03  0.10566000000E+00 0.  1.
          4    1    3    3  501    0 -0.75994445194E+03  0.13458350963E+03 -0.62520648408E+03  0.99323282207E+03  0.00000000000E+00 0.  1.
         13    1    1    2    0    0  0.46063014304E+03 -0.23560806784E+03 -0.67780165798E+03  0.85270533541E+03  0.10566000000E+00 0. -1.
<mgrwt>
<rscale>  1 0.92839799E+03</rscale>
<asrwt>0</asrwt>
<pdfrwt beam="2">  1       21 0.33486776E+00 0.11281663E+04</pdfrwt>
<pdfrwt beam="1">  1        4 0.48137942E-01 0.11281663E+04</pdfrwt>
<totfact> 0.26086473E+00</totfact>
</mgrwt>
</event>
<event>
 6    1  0.1375310E-005  0.9963966E+03  0.7818608E-02  0.9779395E-01
         21   -1    0    0  501  502  0.00000000000E+00  0.00000000000E+00  0.67468126299E+03  0.67468126299E+03  0.00000000000E+00 0.  1.
          4   -1    0    0  502    0 -0.00000000000E+00 -0.00000000000E+00 -0.59463517521E+03  0.59463517521E+03  0.00000000000E+00 0.  1.
    9000010    2    1    2  501    0 -0.13879341921E+03  0.14044745087E+03  0.22852085446E+03  0.10222661049E+04  0.97663560690E+03 0.  0.
        -13    1    3    3    0    0 -0.33450323340E+03 -0.12704971898E+03  0.48532725599E+03  0.60297313441E+03  0.10566000000E+00 0.  1.
          4    1    3    3  501    0  0.19570981419E+03  0.26749716985E+03 -0.25680640153E+03  0.41929297051E+03  0.00000000000E+00 0.  1.
         13    1    1    2    0    0  0.13879341921E+03 -0.14044745087E+03 -0.14847476668E+03  0.24705033329E+03  0.10566000000E+00 0. -1.
<mgrwt>
<rscale>  1 0.66480166E+03</rscale>
<asrwt>0</asrwt>
<pdfrwt beam="1">  1       21 0.10379712E+00 0.99639661E+03</pdfrwt>
<pdfrwt beam="2">  1        4 0.91482334E-01 0.99639661E+03</pdfrwt>
<totfact> 0.28659005E+01</totfact>
</mgrwt>
</event>
<event>
 6    1  0.1375310E-005  0.8878081E+03  0.7818608E-02  0.1051596E+00
          4   -1    0    0  502    0 -0.00000000000E+00  0.00000000000E+00  0.34646936312E+03  0.34646936312E+03  0.00000000000E+00 0.  1.
         21   -1    0    0  501  502  0.00000000000E+00 -0.00000000000E+00 -0.62395878919E+03  0.62395878919E+03  0.00000000000E+00 0.  1.
    9000010    2    1    2  501    0 -0.26139656124E+02 -0.13104085556E+02 -0.29596342163E+03  0.93584060605E+03  0.88732648687E+03 0.  0.
        -13    1    3    3    0    0  0.18974233445E+02  0.17579201705E+03  0.27824912241E+03  0.32967474892E+03  0.10566000000E+00 0.  1.
          4    1    3    3  501    0 -0.45113889569E+02 -0.18889610260E+03 -0.57421254404E+03  0.60616585713E+03  0.00000000000E+00 0.  1.
         13    1    1    2    0    0  0.26139656124E+02  0.13104085556E+02  0.18473995557E+02  0.34587546261E+02  0.10566000000E+00 0. -1.
<mgrwt>
<rscale>  1 0.37821237E+03</rscale>
<asrwt>0</asrwt>
<pdfrwt beam="2">  1       21 0.95993659E-01 0.88780814E+03</pdfrwt>
<pdfrwt beam="1">  1        4 0.53302979E-01 0.88780814E+03</pdfrwt>
<totfact> 0.11764772E+02</totfact>
</mgrwt>
</event>
<event>
 6    1  0.1375310E-005  0.1027249E+04  0.7818608E-02  0.9772259E-01
         21   -1    0    0  501  502  0.00000000000E+00  0.00000000000E+00  0.65304932201E+03  0.65304932201E+03  0.00000000000E+00 0.  1.
          4   -1    0    0  502    0 -0.00000000000E+00 -0.00000000000E+00 -0.58743736000E+03  0.58743736000E+03  0.00000000000E+00 0.  1.
    9000010    2    1    2  501    0 -0.69113044388E+02 -0.17105398091E+03  0.14905118560E+03  0.10380065781E+04  0.10105470414E+04 0.  0.
        -13    1    3    3    0    0  0.71229972432E+02  0.41402855866E+03  0.11401773182E+03  0.43530840871E+03  0.10566000000E+00 0.  1.
          4    1    3    3  501    0 -0.14034301682E+03 -0.58508253957E+03  0.35033453786E+02  0.60269816937E+03  0.00000000000E+00 0.  1.
         13    1    1    2    0    0  0.69113044388E+02  0.17105398091E+03 -0.83439223593E+02  0.20248010393E+03  0.10566000000E+00 0. -1.
<mgrwt>
<rscale>  1 0.66872782E+03</rscale>
<asrwt>0</asrwt>
<pdfrwt beam="1">  1       21 0.10046913E+00 0.10272494E+04</pdfrwt>
<pdfrwt beam="2">  1        4 0.90374978E-01 0.10272494E+04</pdfrwt>
<totfact> 0.31905565E+01</totfact>
</mgrwt>
</event>
<event>
 6    1  0.1375310E-005  0.1008942E+04  0.7818608E-02  0.9784193E-01
         21   -1    0    0  501  502  0.00000000000E+00  0.00000000000E+00  0.52260975768E+03  0.52260975768E+03  0.00000000000E+00 0.  1.
          4   -1    0    0  502    0 -0.00000000000E+00 -0.00000000000E+00 -0.71930774601E+03  0.71930774601E+03  0.00000000000E+00 0.  1.
    9000010    2    1    2  501    0 -0.18570041341E+03 -0.23627220809E+02 -0.61140194763E+02  0.10107923954E+04  0.99142334760E+03 0.  0.
        -13    1    3    3    0    0  0.29765125175E+03 -0.58482656704E+02 -0.33680202318E+03  0.45326824595E+03  0.10566000000E+00 0.  1.
          4    1    3    3  501    0 -0.48335166516E+03  0.34855435895E+02  0.27566182841E+03  0.55752414949E+03  0.00000000000E+00 0.  1.
         13    1    1    2    0    0  0.18570041341E+03  0.23627220809E+02 -0.13555779357E+03  0.23112510825E+03  0.10566000000E+00 0. -1.
<mgrwt>
<rscale>  1 0.66217766E+03</rscale>
<asrwt>0</asrwt>
<pdfrwt beam="1">  1       21 0.80401501E-01 0.10089416E+04</pdfrwt>
<pdfrwt beam="2">  1        4 0.11066273E+00 0.10089416E+04</pdfrwt>
<totfact> 0.33586911E+01</totfact>
</mgrwt>
</event>
<event>
 6    1  0.1375310E-005  0.1063479E+04  0.7818608E-02  0.9560299E-01
         21   -1    0    0  501  502  0.00000000000E+00  0.00000000000E+00  0.94903830089E+03  0.94903830089E+03  0.00000000000E+00 0.  1.
          4   -1    0    0  502    0 -0.00000000000E+00 -0.00000000000E+00 -0.91385554781E+03  0.91385554781E+03  0.00000000000E+00 0.  1.
    9000010    2    1    2  501    0  0.27570242863E+03  0.19933101699E+03  0.58692825744E+03  0.12146903342E+04  0.10075927476E+04 0.  0.
        -13    1    3    3    0    0  0.57681653781E+03  0.36776321310E+03  0.52918292414E+03  0.86487090225E+03  0.10566000000E+00 0.  1.
          4    1    3    3  501    0 -0.30111410918E+03 -0.16843219611E+03  0.57745333307E+02  0.34981943193E+03  0.00000000000E+00 0.  1.
         13    1    1    2    0    0 -0.27570242863E+03 -0.19933101699E+03 -0.55174550436E+03  0.64820351452E+03  0.10566000000E+00 0. -1.
<mgrwt>
<rscale>  1 0.79980545E+03</rscale>
<asrwt>0</asrwt>
<pdfrwt beam="1">  1       21 0.14600589E+00 0.10634791E+04</pdfrwt>
<pdfrwt beam="2">  1        4 0.14059316E+00 0.10634791E+04</pdfrwt>
<totfact> 0.39937634E+00</totfact>
</mgrwt>
</event>
<event>
 6    1  0.1375310E-005  0.1037463E+04  0.7818608E-02  0.9620336E-01
          4   -1    0    0  502    0 -0.00000000000E+00  0.00000000000E+00  0.31226308953E+03  0.31226308953E+03  0.00000000000E+00 0.  1.
         21   -1    0    0  501  502  0.00000000000E+00 -0.00000000000E+00 -0.14444065812E+04  0.14444065812E+04  0.00000000000E+00 0.  1.
    9000010    2    1    2  501    0 -0.43161147900E+02 -0.29507516806E+03 -0.95329336536E+03  0.14089346878E+04  0.99367825511E+03 0.  0.
        -13    1    3    3    0    0  0.14422720273E+03  0.32446858650E+03 -0.17256276530E+03  0.39479015789E+03  0.10566000000E+00 0.  1.
          4    1    3    3  501    0 -0.18738835063E+03 -0.61954375456E+03 -0.78073060006E+03  0.10141445300E+04  0.00000000000E+00 0.  1.
         13    1    1    2    0    0  0.43161147900E+02  0.29507516806E+03 -0.17885012634E+03  0.34773498293E+03  0.10566000000E+00 0. -1.
<mgrwt>
<rscale>  1 0.75964688E+03</rscale>
<asrwt>0</asrwt>
<pdfrwt beam="2">  1       21 0.22221640E+00 0.10374626E+04</pdfrwt>
<pdfrwt beam="1">  1        4 0.48040475E-01 0.10374626E+04</pdfrwt>
<totfact> 0.13681087E+01</totfact>
</mgrwt>
</event>
<event>
 6    1  0.1375310E-005  0.1080552E+04  0.7818608E-02  0.9495575E-01
         21   -1    0    0  501  502  0.00000000000E+00  0.00000000000E+00  0.87599259235E+03  0.87599259235E+03  0.00000000000E+00 0.  1.
          4   -1    0    0  502    0 -0.00000000000E+00 -0.00000000000E+00 -0.13767439852E+04  0.13767439852E+04  0.00000000000E+00 0.  1.
    9000010    2    1    2  501    0 -0.36598116315E+03  0.17628758578E+03  0.48661653307E+03  0.11850685781E+04  0.10012853539E+04 0.  0.
        -13    1    3    3    0    0 -0.34695181852E+03 -0.17898096202E+02 -0.24679285721E+03  0.42614860290E+03  0.10566000000E+00 0.  1.
          4    1    3    3  501    0 -0.19029344629E+02  0.19418568198E+03  0.73340939028E+03  0.75891997523E+03  0.00000000000E+00 0.  1.
         13    1    1    2    0    0  0.36598116315E+03 -0.17628758578E+03 -0.98736792592E+03  0.10676679994E+04  0.10566000000E+00 0. -1.
<mgrwt>
<rscale>  1 0.84610852E+03</rscale>
<asrwt>0</asrwt>
<pdfrwt beam="1">  1       21 0.13476809E+00 0.10805517E+04</pdfrwt>
<pdfrwt beam="2">  1        4 0.21180677E+00 0.10805517E+04</pdfrwt>
<totfact> 0.15361654E+00</totfact>
</mgrwt>
</event>
<event>
 6    1  0.1375310E-005  0.1032228E+04  0.7818608E-02  0.9646596E-01
          4   -1    0    0  502    0 -0.00000000000E+00  0.00000000000E+00  0.72107045401E+03  0.72107045401E+03  0.00000000000E+00 0.  1.
         21   -1    0    0  501  502  0.00000000000E+00 -0.00000000000E+00 -0.74123517686E+03  0.74123517686E+03  0.00000000000E+00 0.  1.
    9000010    2    1    2  501    0  0.22590753470E+03 -0.16013705890E+03 -0.29357524739E+03  0.10731637313E+04  0.99439221464E+03 0.  0.
        -13    1    3    3    0    0  0.24483822034E+01 -0.55172646047E+03 -0.33681391875E+02  0.55275901538E+03  0.10566000000E+00 0.  1.
          4    1    3    3  501    0  0.22345915249E+03  0.39158940158E+03 -0.25989385552E+03  0.52040471596E+03  0.00000000000E+00 0.  1.
         13    1    1    2    0    0 -0.22590753470E+03  0.16013705890E+03  0.27341052454E+03  0.38914189952E+03  0.10566000000E+00 0. -1.
<mgrwt>
<rscale>  1 0.74287466E+03</rscale>
<asrwt>0</asrwt>
<pdfrwt beam="2">  1       21 0.11403618E+00 0.10322277E+04</pdfrwt>
<pdfrwt beam="1">  1        4 0.11093392E+00 0.10322277E+04</pdfrwt>
<totfact> 0.14128106E+01</totfact>
</mgrwt>
</event>
<event>
 6    1  0.1375310E-005  0.9132106E+03  0.7818608E-02  0.1001163E+00
         21   -1    0    0  501  502  0.00000000000E+00  0.00000000000E+00  0.32528822844E+03  0.32528822844E+03  0.00000000000E+00 0.  1.
          4   -1    0    0  502    0 -0.00000000000E+00 -0.00000000000E+00 -0.83457725215E+03  0.83457725215E+03  0.00000000000E+00 0.  1.
    9000010    2    1    2  501    0 -0.11792376559E+03  0.28893341966E+02 -0.40174940021E+03  0.99767540233E+03  0.90510374441E+03 0.  0.
        -13    1    3    3    0    0 -0.16894002010E+03 -0.23896434246E+03  0.18807369873E+03  0.34787413626E+03  0.10566000000E+00 0.  1.
          4    1    3    3  501    0  0.51016254516E+02  0.26785768443E+03 -0.58982309895E+03  0.64980126607E+03  0.00000000000E+00 0.  1.
         13    1    1    2    0    0  0.11792376559E+03 -0.28893341966E+02 -0.10753962349E+03  0.16219007826E+03  0.10566000000E+00 0. -1.
<mgrwt>
<rscale>  1 0.55143399E+03</rscale>
<asrwt>0</asrwt>
<pdfrwt beam="1">  1       21 0.50044343E-01 0.91321062E+03</pdfrwt>
<pdfrwt beam="2">  1        4 0.12839650E+00 0.91321062E+03</pdfrwt>
<totfact> 0.67804693E+01</totfact>
</mgrwt>
</event>
<event>
 6    1  0.1375310E-005  0.1002676E+04  0.7818608E-02  0.9854692E-01
         21   -1    0    0  501  502  0.00000000000E+00  0.00000000000E+00  0.37849077624E+03  0.37849077624E+03  0.00000000000E+00 0.  1.
          4   -1    0    0  502    0 -0.00000000000E+00 -0.00000000000E+00 -0.12303779429E+04  0.12303779429E+04  0.00000000000E+00 0.  1.
    9000010    2    1    2  501    0  0.14113554859E+03  0.54933771440E+02 -0.31494349161E+03  0.10509749267E+04  0.99117199883E+03 0.  0.
        -13    1    3    3    0    0  0.27535853622E+03 -0.38670746690E+03 -0.34737933434E+03  0.58824943818E+03  0.10566000000E+00 0.  1.
          4    1    3    3  501    0 -0.13422298763E+03  0.44164123834E+03  0.32435842734E+02  0.46272548850E+03  0.00000000000E+00 0.  1.
         13    1    1    2    0    0 -0.14113554859E+03 -0.54933771440E+02 -0.53694367509E+03  0.55789379250E+03  0.10566000000E+00 0. -1.
<mgrwt>
<rscale>  1 0.62508264E+03</rscale>
<asrwt>0</asrwt>
<pdfrwt beam="1">  1       21 0.58229352E-01 0.10026759E+04</pdfrwt>
<pdfrwt beam="2">  1        4 0.18928891E+00 0.10026759E+04</pdfrwt>
<totfact> 0.16711061E+01</totfact>
</mgrwt>
</event>
<event>
 6    1  0.1375310E-005  0.9232023E+03  0.7818608E-02  0.9873419E-01
         21   -1    0    0  501  502  0.00000000000E+00  0.00000000000E+00  0.49916894184E+03  0.49916894184E+03  0.00000000000E+00 0.  1.
          4   -1    0    0  502    0 -0.00000000000E+00 -0.00000000000E+00 -0.62641848494E+03  0.62641848494E+03  0.00000000000E+00 0.  1.
    9000010    2    1    2  501    0  0.16749566913E+03  0.72718496617E+02 -0.42237969723E+02  0.92416806898E+03  0.90496397426E+03 0.  0.
        -13    1    3    3    0    0 -0.10633367124E+03 -0.13610547221E+03  0.35720692301E+03  0.39677241111E+03  0.10566000000E+00 0.  1.
          4    1    3    3  501    0  0.27382934037E+03  0.20882396883E+03 -0.39944489274E+03  0.52739565787E+03  0.00000000000E+00 0.  1.
         13    1    1    2    0    0 -0.16749566913E+03 -0.72718496617E+02 -0.85011573373E+02  0.20141935780E+03  0.10566000000E+00 0. -1.
<mgrwt>
<rscale>  1 0.61566989E+03</rscale>
<asrwt>0</asrwt>
<pdfrwt beam="1">  1       21 0.76795222E-01 0.92320235E+03</pdfrwt>
<pdfrwt beam="2">  1        4 0.96372074E-01 0.92320235E+03</pdfrwt>
<totfact> 0.52710269E+01</totfact>
</mgrwt>
</event>
<event>
 6    1  0.1375310E-005  0.9821147E+03  0.7818608E-02  0.9973419E-01
          4   -1    0    0  502    0 -0.00000000000E+00  0.00000000000E+00  0.11547287184E+03  0.11547287184E+03  0.00000000000E+00 0.  1.
         21   -1    0    0  501  502  0.00000000000E+00 -0.00000000000E+00 -0.30655769375E+04  0.30655769375E+04  0.00000000000E+00 0.  1.
    9000010    2    1    2  501    0  0.10397376153E+03  0.36272419746E+02 -0.28967021050E+04  0.30586651204E+04  0.97592161681E+03 0.  0.
        -13    1    3    3    0    0  0.47377846267E+03 -0.21562502206E+03 -0.18123656649E+04  0.18856376896E+04  0.10566000000E+00 0.  1.
          4    1    3    3  501    0 -0.36980470114E+03  0.25189744181E+03 -0.10843364401E+04  0.11730274308E+04  0.00000000000E+00 0.  1.
         13    1    1    2    0    0 -0.10397376153E+03 -0.36272419746E+02 -0.53401960663E+02  0.12238468894E+03  0.10566000000E+00 0. -1.
<mgrwt>
<rscale>  1 0.56831279E+03</rscale>
<asrwt>0</asrwt>
<pdfrwt beam="2">  1       21 0.47162724E+00 0.98211467E+03</pdfrwt>
<pdfrwt beam="1">  1        4 0.17765056E-01 0.98211467E+03</pdfrwt>
<totfact> 0.23620963E+00</totfact>
</mgrwt>
</event>
<event>
 6    1  0.1375310E-005  0.1108665E+04  0.7818608E-02  0.9479852E-01
          4   -1    0    0  502    0 -0.00000000000E+00  0.00000000000E+00  0.63881668072E+03  0.63881668072E+03  0.00000000000E+00 0.  1.
         21   -1    0    0  501  502  0.00000000000E+00 -0.00000000000E+00 -0.95727159993E+03  0.95727159993E+03  0.00000000000E+00 0.  1.
    9000010    2    1    2  501    0  0.39127070227E+03 -0.69687159765E+02 -0.37350939147E+02  0.11092941543E+04  0.10349827851E+04 0.  0.
        -13    1    3    3    0    0  0.39941180900E+03 -0.45045450604E+03  0.22946484992E+03  0.64427725685E+03  0.10566000000E+00 0.  1.
          4    1    3    3  501    0 -0.81411067276E+01  0.38076734627E+03 -0.26681578906E+03  0.46501689743E+03  0.00000000000E+00 0.  1.
         13    1    1    2    0    0 -0.39127070227E+03  0.69687159765E+02 -0.28110398007E+03  0.48679412637E+03  0.10566000000E+00 0. -1.
<mgrwt>
<rscale>  1 0.85785718E+03</rscale>
<asrwt>0</asrwt>
<pdfrwt beam="2">  1       21 0.14727255E+00 0.11086652E+04</pdfrwt>
<pdfrwt beam="1">  1        4 0.98279490E-01 0.11086652E+04</pdfrwt>
<totfact> 0.95305581E+00</totfact>
</mgrwt>
</event>
<event>
 6    1  0.1375310E-005  0.1228643E+04  0.7818608E-02  0.9217534E-01
         21   -1    0    0  501  502  0.00000000000E+00  0.00000000000E+00  0.13974240101E+04  0.13974240101E+04  0.00000000000E+00 0. -1.
          4   -1    0    0  502    0 -0.00000000000E+00 -0.00000000000E+00 -0.72816965389E+03  0.72816965389E+03  0.00000000000E+00 0.  1.
    9000010    2    1    2  501    0  0.20272333445E+03 -0.72614835726E+03  0.60337926036E+03  0.13688058956E+04  0.97014167048E+03 0.  0.
        -13    1    3    3    0    0  0.12903537241E+03 -0.43766202109E+03  0.86141858549E+03  0.97480262753E+03  0.10566000000E+00 0.  1.
          4    1    3    3  501    0  0.73687962042E+02 -0.28848633616E+03 -0.25803932513E+03  0.39400326803E+03  0.00000000000E+00 0.  1.
         13    1    1    2    0    0 -0.20272333445E+03  0.72614835726E+03  0.65875095896E+02  0.75678776847E+03  0.10566000000E+00 0. -1.
<mgrwt>
<rscale>  1 0.10874264E+04</rscale>
<asrwt>0</asrwt>
<pdfrwt beam="1">  1       21 0.21498831E+00 0.12286428E+04</pdfrwt>
<pdfrwt beam="2">  1        4 0.11202610E+00 0.12286428E+04</pdfrwt>
<totfact> 0.21755070E+00</totfact>
</mgrwt>
</event>
<event>
 6    1  0.1375310E-005  0.1016439E+04  0.7818608E-02  0.9757601E-01
         21   -1    0    0  501  502  0.00000000000E+00  0.00000000000E+00  0.71074333182E+03  0.71074333182E+03  0.00000000000E+00 0. -1.
          4   -1    0    0  502    0 -0.00000000000E+00 -0.00000000000E+00 -0.73113317523E+03  0.73113317523E+03  0.00000000000E+00 0.  1.
    9000010    2    1    2  501    0 -0.19762842521E+03  0.30048995261E+02 -0.33405667444E+03  0.10699264719E+04  0.99658860974E+03 0.  0.
        -13    1    3    3    0    0 -0.28148301684E+03 -0.14928633973E+03  0.28035783104E+03  0.42440502423E+03  0.10566000000E+00 0.  1.
          4    1    3    3  501    0  0.83854591631E+02  0.17933533499E+03 -0.61441450548E+03  0.64552144772E+03  0.00000000000E+00 0.  1.
         13    1    1    2    0    0  0.19762842521E+03 -0.30048995261E+02  0.31366683103E+03  0.37195003511E+03  0.10566000000E+00 0. -1.
<mgrwt>
<rscale>  1 0.67688400E+03</rscale>
<asrwt>0</asrwt>
<pdfrwt beam="1">  1       21 0.10934513E+00 0.10164393E+04</pdfrwt>
<pdfrwt beam="2">  1        4 0.11248203E+00 0.10164393E+04</pdfrwt>
<totfact> 0.15216679E+01</totfact>
</mgrwt>
</event>
<event>
 6    1  0.1375310E-005  0.1078842E+04  0.7818608E-02  0.9441297E-01
         21   -1    0    0  501  502  0.00000000000E+00  0.00000000000E+00  0.11659898268E+04  0.11659898268E+04  0.00000000000E+00 0.  1.
          4   -1    0    0  502    0 -0.00000000000E+00 -0.00000000000E+00 -0.53089608090E+03  0.53089608090E+03  0.00000000000E+00 0.  1.
    9000010    2    1    2  501    0 -0.48976359654E+03 -0.65796310273E+02  0.41467215071E+03  0.11557914375E+04  0.95901163674E+03 0.  0.
        -13    1    3    3    0    0 -0.71703374085E+03 -0.15712362965E+03  0.50907117950E+03  0.89329653390E+03  0.10566000000E+00 0.  1.
          4    1    3    3  501    0  0.22727014431E+03  0.91327319379E+02 -0.94399028799E+02  0.26249490357E+03  0.00000000000E+00 0.  1.
         13    1    1    2    0    0  0.48976359654E+03  0.65796310273E+02  0.22042159521E+03  0.54109447025E+03  0.10566000000E+00 0. -1.
<mgrwt>
<rscale>  1 0.88753648E+03</rscale>
<asrwt>0</asrwt>
<pdfrwt beam="1">  1       21 0.17938305E+00 0.10788424E+04</pdfrwt>
<pdfrwt beam="2">  1        4 0.81676320E-01 0.10788424E+04</pdfrwt>
<totfact> 0.83663519E+00</totfact>
</mgrwt>
</event>
<event>
 6    1  0.1375310E-005  0.9907010E+03  0.7818608E-02  0.1011528E+00
          4   -1    0    0  502    0 -0.00000000000E+00  0.00000000000E+00  0.96232968927E+03  0.96232968927E+03  0.00000000000E+00 0.  1.
         21   -1    0    0  501  502  0.00000000000E+00 -0.00000000000E+00 -0.33178135157E+03  0.33178135157E+03  0.00000000000E+00 0.  1.
    9000010    2    1    2  501    0 -0.26349903593E+02 -0.63638190839E+02  0.42623697634E+03  0.10785019494E+04  0.98830377829E+03 0.  0.
        -13    1    3    3    0    0  0.20503572128E+03  0.40931003605E+03  0.25943994754E+03  0.52619715901E+03  0.10566000000E+00 0.  1.
          4    1    3    3  501    0 -0.23138562487E+03 -0.47294822688E+03  0.16679702880E+03  0.55230479043E+03  0.00000000000E+00 0.  1.
         13    1    1    2    0    0  0.26349903593E+02  0.63638190839E+02  0.20431136136E+03  0.21560909141E+03  0.10566000000E+00 0. -1.
<mgrwt>
<rscale>  1 0.50871756E+03</rscale>
<asrwt>0</asrwt>
<pdfrwt beam="2">  1       21 0.51043285E-01 0.99070101E+03</pdfrwt>
<pdfrwt beam="1">  1        4 0.14805072E+00 0.99070101E+03</pdfrwt>
<totfact> 0.44496800E+01</totfact>
</mgrwt>
</event>
<event>
 6    1  0.1375310E-005  0.9996674E+03  0.7818608E-02  0.9938254E-01
          4   -1    0    0  502    0 -0.00000000000E+00  0.00000000000E+00  0.14167570301E+04  0.14167570301E+04  0.00000000000E+00 0.  1.
         21   -1    0    0  501  502  0.00000000000E+00 -0.00000000000E+00 -0.24718773455E+03  0.24718773455E+03  0.00000000000E+00 0.  1.
    9000010    2    1    2  501    0  0.11058788273E+03 -0.37507932678E+02  0.81233440303E+03  0.12881079591E+04  0.99282345211E+03 0.  0.
        -13    1    3    3    0    0  0.21544004845E+03 -0.48973471000E+03  0.45347260569E+03  0.70135006660E+03  0.10566000000E+00 0.  1.
          4    1    3    3  501    0 -0.10485216573E+03  0.45222677732E+03  0.35886179734E+03  0.58675789247E+03  0.00000000000E+00 0.  1.
         13    1    1    2    0    0 -0.11058788273E+03  0.37507932678E+02  0.35723489248E+03  0.37583680553E+03  0.10566000000E+00 0. -1.
<mgrwt>
<rscale>  1 0.58442617E+03</rscale>
<asrwt>0</asrwt>
<pdfrwt beam="2">  1       21 0.38028883E-01 0.99966741E+03</pdfrwt>
<pdfrwt beam="1">  1        4 0.21796261E+00 0.99966741E+03</pdfrwt>
<totfact> 0.26995776E+01</totfact>
</mgrwt>
</event>
<event>
 6    1  0.1375310E-005  0.1029633E+04  0.7818608E-02  0.9795518E-01
         21   -1    0    0  501  502  0.00000000000E+00  0.00000000000E+00  0.17682477747E+04  0.17682477747E+04  0.00000000000E+00 0.  1.
          4   -1    0    0  502    0 -0.00000000000E+00 -0.00000000000E+00 -0.26499704261E+03  0.26499704261E+03  0.00000000000E+00 0.  1.
    9000010    2    1    2  501    0  0.84899803030E+02 -0.14692759177E+03  0.15467068193E+04  0.18580759375E+04  0.10155533028E+04 0.  0.
        -13    1    3    3    0    0 -0.15022990969E+02 -0.15162316554E+02 -0.15091588588E+03  0.15241785288E+03  0.10566000000E+00 0.  1.
          4    1    3    3  501    0  0.99922793999E+02 -0.13176527521E+03  0.16976227052E+04  0.17056580846E+04  0.00000000000E+00 0.  1.
         13    1    1    2    0    0 -0.84899803030E+02  0.14692759177E+03 -0.43456087199E+02  0.17516887981E+03  0.10566000000E+00 0. -1.
<mgrwt>
<rscale>  1 0.65603622E+03</rscale>
<asrwt>0</asrwt>
<pdfrwt beam="1">  1       21 0.27203811E+00 0.10296330E+04</pdfrwt>
<pdfrwt beam="2">  1        4 0.40768777E-01 0.10296330E+04</pdfrwt>
<totfact> 0.92392104E+00</totfact>
</mgrwt>
</event>
<event>
 6    1  0.1375310E-005  0.1041256E+04  0.7818608E-02  0.9622075E-01
         21   -1    0    0  501  502  0.00000000000E+00  0.00000000000E+00  0.14230431041E+04  0.14230431041E+04  0.00000000000E+00 0.  1.
          4   -1    0    0  502    0 -0.00000000000E+00 -0.00000000000E+00 -0.33972122232E+03  0.33972122232E+03  0.00000000000E+00 0.  1.
    9000010    2    1    2  501    0  0.29166096121E+03 -0.30239408514E+02  0.61233982780E+03  0.12079628804E+04  0.99911646854E+03 0.  0.
        -13    1    3    3    0    0  0.64244206214E+03  0.76519680312E+02  0.51946161939E+03  0.82971528242E+03  0.10566000000E+00 0.  1.
          4    1    3    3  501    0 -0.35078110093E+03 -0.10675908883E+03  0.92878208407E+02  0.37824759803E+03  0.00000000000E+00 0.  1.
         13    1    1    2    0    0 -0.29166096121E+03  0.30239408514E+02  0.47098205395E+03  0.55480144595E+03  0.10566000000E+00 0. -1.
<mgrwt>
<rscale>  1 0.75852212E+03</rscale>
<asrwt>0</asrwt>
<pdfrwt beam="1">  1       21 0.21892971E+00 0.10412561E+04</pdfrwt>
<pdfrwt beam="2">  1        4 0.52264804E-01 0.10412561E+04</pdfrwt>
<totfact> 0.12030341E+01</totfact>
</mgrwt>
</event>
<event>
 6    1  0.1375310E-005  0.1082387E+04  0.7818608E-02  0.9507491E-01
         21   -1    0    0  501  502  0.00000000000E+00  0.00000000000E+00  0.15648822377E+04  0.15648822377E+04  0.00000000000E+00 0.  1.
          4   -1    0    0  502    0 -0.00000000000E+00 -0.00000000000E+00 -0.40555832563E+03  0.40555832563E+03  0.00000000000E+00 0.  1.
    9000010    2    1    2  501    0  0.23865435297E+03  0.30549498915E+03  0.11547890874E+04  0.15827503979E+04  0.10105829491E+04 0.  0.
        -13    1    3    3    0    0 -0.13001184958E+03  0.90216147188E+02 -0.14500799754E+03  0.21463775241E+03  0.10566000000E+00 0.  1.
          4    1    3    3  501    0  0.36866620255E+03  0.21527884196E+03  0.12997970849E+04  0.13681126455E+04  0.00000000000E+00 0.  1.
         13    1    1    2    0    0 -0.23865435297E+03 -0.30549498915E+03  0.45348246759E+01  0.38769016545E+03  0.10566000000E+00 0. -1.
<mgrwt>
<rscale>  1 0.83733762E+03</rscale>
<asrwt>0</asrwt>
<pdfrwt beam="1">  1       21 0.24075111E+00 0.10823867E+04</pdfrwt>
<pdfrwt beam="2">  1        4 0.62393589E-01 0.10823867E+04</pdfrwt>
<totfact> 0.58775659E+00</totfact>
</mgrwt>
</event>
<event>
 6    1  0.1375310E-005  0.1007932E+04  0.7818608E-02  0.9909249E-01
         21   -1    0    0  501  502  0.00000000000E+00  0.00000000000E+00  0.50256936676E+03  0.50256936676E+03  0.00000000000E+00 0.  1.
          4   -1    0    0  502    0 -0.00000000000E+00 -0.00000000000E+00 -0.86436384045E+03  0.86436384045E+03  0.00000000000E+00 0.  1.
    9000010    2    1    2  501    0  0.83912686031E+02  0.92663714982E+02 -0.25608743772E+02  0.10082568083E+04  0.10001490293E+04 0.  0.
        -13    1    3    3    0    0 -0.99500577696E+02  0.41262549808E+03  0.29717938453E+03  0.51814647001E+03  0.10566000000E+00 0.  1.
          4    1    3    3  501    0  0.18341326373E+03 -0.31996178310E+03 -0.32278812830E+03  0.49011033832E+03  0.00000000000E+00 0.  1.
         13    1    1    2    0    0 -0.83912686031E+02 -0.92663714982E+02 -0.33618572991E+03  0.35867639888E+03  0.10566000000E+00 0. -1.
<mgrwt>
<rscale>  1 0.59815110E+03</rscale>
<asrwt>0</asrwt>
<pdfrwt beam="1">  1       21 0.77318364E-01 0.10079315E+04</pdfrwt>
<pdfrwt beam="2">  1        4 0.13297905E+00 0.10079315E+04</pdfrwt>
<totfact> 0.23162643E+01</totfact>
</mgrwt>
</event>
<event>
 6    1  0.1375310E-005  0.1088034E+04  0.7818608E-02  0.9433999E-01
         21   -1    0    0  501  502  0.00000000000E+00  0.00000000000E+00  0.83024791913E+03  0.83024791913E+03  0.00000000000E+00 0.  1.
          4   -1    0    0  502    0 -0.00000000000E+00 -0.00000000000E+00 -0.10530507752E+04  0.10530507752E+04  0.00000000000E+00 0.  1.
    9000010    2    1    2  501    0 -0.31939057060E+01 -0.49436484541E+03  0.33452669773E+03  0.11383000070E+04  0.96923268261E+03 0.  0.
        -13    1    3    3    0    0 -0.57342286327E+02  0.20383221862E+03 -0.17300151557E+03  0.27343234392E+03  0.10566000000E+00 0.  1.
          4    1    3    3  501    0  0.54148380621E+02 -0.69819706403E+03  0.50752821330E+03  0.86486766308E+03  0.00000000000E+00 0.  1.
         13    1    1    2    0    0  0.31939057060E+01  0.49436484541E+03 -0.55732955377E+03  0.74499868730E+03  0.10566000000E+00 0. -1.
<mgrwt>
<rscale>  1 0.89329751E+03</rscale>
<asrwt>0</asrwt>
<pdfrwt beam="1">  1       21 0.12773045E+00 0.10880344E+04</pdfrwt>
<pdfrwt beam="2">  1        4 0.16200781E+00 0.10880344E+04</pdfrwt>
<totfact> 0.38988970E+00</totfact>
</mgrwt>
</event>
<event>
 6    1  0.1375310E-005  0.1009334E+04  0.7818608E-02  0.9864307E-01
         21   -1    0    0  501  502  0.00000000000E+00  0.00000000000E+00  0.52446295241E+03  0.52446295241E+03  0.00000000000E+00 0.  1.
          4   -1    0    0  502    0 -0.00000000000E+00 -0.00000000000E+00 -0.64446669718E+03  0.64446669718E+03  0.00000000000E+00 0.  1.
    9000010    2    1    2  501    0 -0.14357768802E+03  0.98196362750E+01 -0.54482044468E+02  0.10108028583E+04  0.99902109456E+03 0.  0.
        -13    1    3    3    0    0 -0.30471721405E+02  0.48522671238E+03 -0.15813643890E+03  0.51125398061E+03  0.10566000000E+00 0.  1.
          4    1    3    3  501    0 -0.11310596662E+03 -0.47540707611E+03  0.10365439443E+03  0.49954887767E+03  0.00000000000E+00 0.  1.
         13    1    1    2    0    0  0.14357768802E+03 -0.98196362750E+01 -0.65521700302E+02  0.15812679131E+03  0.10566000000E+00 0. -1.
<mgrwt>
<rscale>  1 0.62022765E+03</rscale>
<asrwt>0</asrwt>
<pdfrwt beam="1">  1       21 0.80686608E-01 0.10093335E+04</pdfrwt>
<pdfrwt beam="2">  1        4 0.99148722E-01 0.10093335E+04</pdfrwt>
<totfact> 0.43544479E+01</totfact>
</mgrwt>
</event>
<event>
 6    1  0.1375310E-005  0.1041701E+04  0.7818608E-02  0.9768701E-01
         21   -1    0    0  501  502  0.00000000000E+00  0.00000000000E+00  0.11120060745E+04  0.11120060745E+04  0.00000000000E+00 0.  1.
          4   -1    0    0  502    0 -0.00000000000E+00 -0.00000000000E+00 -0.44812181727E+03  0.44812181727E+03  0.00000000000E+00 0.  1.
    9000010    2    1    2  501    0 -0.18860764319E+02  0.17801242069E+03  0.81755074291E+03  0.13242093669E+04  0.10262051841E+04 0.  0.
        -13    1    3    3    0    0 -0.42613815809E+03  0.41076551691E+02  0.78393328617E+03  0.89321465573E+03  0.10566000000E+00 0.  1.
          4    1    3    3  501    0  0.40727739377E+03  0.13693586900E+03  0.33617456744E+02  0.43099471121E+03  0.00000000000E+00 0.  1.
         13    1    1    2    0    0  0.18860764319E+02 -0.17801242069E+03 -0.15366648571E+03  0.23591852480E+03  0.10566000000E+00 0. -1.
<mgrwt>
<rscale>  1 0.67069638E+03</rscale>
<asrwt>0</asrwt>
<pdfrwt beam="1">  1       21 0.17107786E+00 0.10417011E+04</pdfrwt>
<pdfrwt beam="2">  1        4 0.68941818E-01 0.10417011E+04</pdfrwt>
<totfact> 0.14220679E+01</totfact>
</mgrwt>
</event>
<event>
 6    1  0.1375310E-005  0.9403992E+03  0.7818608E-02  0.9912165E-01
          4   -1    0    0  502    0 -0.00000000000E+00  0.00000000000E+00  0.18033849185E+03  0.18033849185E+03  0.00000000000E+00 0.  1.
         21   -1    0    0  501  502  0.00000000000E+00 -0.00000000000E+00 -0.18118401463E+04  0.18118401463E+04  0.00000000000E+00 0.  1.
    9000010    2    1    2  501    0  0.13955941004E+03 -0.61452696712E+02 -0.15650221291E+04  0.18258271989E+04  0.92795335709E+03 0.  0.
        -13    1    3    3    0    0  0.42472403108E+03  0.26540058867E+03 -0.93900850208E+03  0.10642203499E+04  0.10566000000E+00 0.  1.
          4    1    3    3  501    0 -0.28516462104E+03 -0.32685328538E+03 -0.62601362704E+03  0.76160684903E+03  0.00000000000E+00 0.  1.
         13    1    1    2    0    0 -0.13955941004E+03  0.61452696712E+02 -0.66479525314E+02  0.16635143917E+03  0.10566000000E+00 0. -1.
<mgrwt>
<rscale>  1 0.59675314E+03</rscale>
<asrwt>0</asrwt>
<pdfrwt beam="2">  1       21 0.27874464E+00 0.94039922E+03</pdfrwt>
<pdfrwt beam="1">  1        4 0.27744384E-01 0.94039922E+03</pdfrwt>
<totfact> 0.18296701E+01</totfact>
</mgrwt>
</event>
<event>
 6    1  0.1375310E-005  0.1067349E+04  0.7818608E-02  0.9551979E-01
          4   -1    0    0  502    0 -0.00000000000E+00  0.00000000000E+00  0.13236808493E+04  0.13236808493E+04  0.00000000000E+00 0.  1.
         21   -1    0    0  501  502  0.00000000000E+00 -0.00000000000E+00 -0.37769269906E+03  0.37769269906E+03  0.00000000000E+00 0. -1.
    9000010    2    1    2  501    0 -0.23725281512E+03  0.25232169346E+03  0.73235027659E+03  0.12944383109E+04  0.10095932239E+04 0.  0.
        -13    1    3    3    0    0  0.34374979374E+03 -0.20832298330E+02  0.50926137654E+03  0.61477236938E+03  0.10566000000E+00 0.  1.
          4    1    3    3  501    0 -0.58100260886E+03  0.27315399179E+03  0.22308890004E+03  0.67966594151E+03  0.00000000000E+00 0.  1.
         13    1    1    2    0    0  0.23725281512E+03 -0.25232169346E+03  0.21363787365E+03  0.40693523747E+03  0.10566000000E+00 0. -1.
<mgrwt>
<rscale>  1 0.80557728E+03</rscale>
<asrwt>0</asrwt>
<pdfrwt beam="2">  1       21 0.58106570E-01 0.10673489E+04</pdfrwt>
<pdfrwt beam="1">  1        4 0.20364321E+00 0.10673489E+04</pdfrwt>
<totfact> 0.13371585E+01</totfact>
</mgrwt>
</event>
<event>
 6    1  0.1375310E-005  0.1003192E+04  0.7818608E-02  0.1011982E+00
         21   -1    0    0  501  502  0.00000000000E+00  0.00000000000E+00  0.35192819203E+03  0.35192819203E+03  0.00000000000E+00 0.  1.
          4   -1    0    0  502    0 -0.00000000000E+00 -0.00000000000E+00 -0.83536422559E+03  0.83536422559E+03  0.00000000000E+00 0.  1.
    9000010    2    1    2  501    0 -0.47209011649E+02  0.45283473973E+02 -0.39699227686E+03  0.10788866150E+04  0.10010565301E+04 0.  0.
        -13    1    3    3    0    0  0.30630575180E+03  0.59625597836E+02  0.21012013719E+03  0.37620328111E+03  0.10566000000E+00 0.  1.
          4    1    3    3  501    0 -0.35351476345E+03 -0.14342123863E+02 -0.60711241405E+03  0.70268333393E+03  0.00000000000E+00 0.  1.
         13    1    1    2    0    0  0.47209011649E+02 -0.45283473973E+02 -0.86443756696E+02  0.10840580257E+03  0.10566000000E+00 0. -1.
<mgrwt>
<rscale>  1 0.50694338E+03</rscale>
<asrwt>0</asrwt>
<pdfrwt beam="1">  1       21 0.54142799E-01 0.10031916E+04</pdfrwt>
<pdfrwt beam="2">  1        4 0.12851757E+00 0.10031916E+04</pdfrwt>
<totfact> 0.56602043E+01</totfact>
</mgrwt>
</event>
<event>
 6    1  0.1375310E-005  0.9981197E+03  0.7818608E-02  0.1029993E+00
         21   -1    0    0  501  502  0.00000000000E+00  0.00000000000E+00  0.25343692244E+03  0.25343692244E+03  0.00000000000E+00 0.  1.
          4   -1    0    0  502    0 -0.00000000000E+00 -0.00000000000E+00 -0.12216586996E+04  0.12216586996E+04  0.00000000000E+00 0.  1.
    9000010    2    1    2  501    0  0.17285265232E+02 -0.34451355278E+02 -0.73712032682E+03  0.12408018582E+04  0.99737515448E+03 0.  0.
        -13    1    3    3    0    0  0.12584448438E+03 -0.42890653612E+03 -0.61825123631E+02  0.45124273740E+03  0.10566000000E+00 0.  1.
          4    1    3    3  501    0 -0.10855921915E+03  0.39445518084E+03 -0.67529520318E+03  0.78955912078E+03  0.00000000000E+00 0.  1.
         13    1    1    2    0    0 -0.17285265232E+02  0.34451355278E+02 -0.23110145032E+03  0.23429376385E+03  0.10566000000E+00 0. -1.
<mgrwt>
<rscale>  1 0.44246395E+03</rscale>
<asrwt>0</asrwt>
<pdfrwt beam="1">  1       21 0.38990296E-01 0.99811967E+03</pdfrwt>
<pdfrwt beam="2">  1        4 0.18794749E+00 0.99811967E+03</pdfrwt>
<totfact> 0.40412989E+01</totfact>
</mgrwt>
</event>
<event>
 6    1  0.1375310E-005  0.1039765E+04  0.7818608E-02  0.9623518E-01
         21   -1    0    0  501  502  0.00000000000E+00  0.00000000000E+00  0.45264759746E+03  0.45264759746E+03  0.00000000000E+00 0.  1.
          4   -1    0    0  502    0 -0.00000000000E+00 -0.00000000000E+00 -0.10811105856E+04  0.10811105856E+04  0.00000000000E+00 0.  1.
    9000010    2    1    2  501    0 -0.26919044399E+03 -0.11580449752E+03 -0.27675420959E+03  0.10759664697E+04  0.99761554444E+03 0.  0.
        -13    1    3    3    0    0  0.27480443481E+03 -0.30491126163E+03 -0.28545657959E+03  0.49997382417E+03  0.10566000000E+00 0.  1.
          4    1    3    3  501    0 -0.54399487881E+03  0.18910676411E+03  0.87023699998E+01  0.57599264548E+03  0.00000000000E+00 0.  1.
         13    1    1    2    0    0  0.26919044399E+03  0.11580449752E+03 -0.35170877854E+03  0.45779171339E+03  0.10566000000E+00 0. -1.
<mgrwt>
<rscale>  1 0.75758991E+03</rscale>
<asrwt>0</asrwt>
<pdfrwt beam="1">  1       21 0.69638092E-01 0.10397649E+04</pdfrwt>
<pdfrwt beam="2">  1        4 0.16632470E+00 0.10397649E+04</pdfrwt>
<totfact> 0.16131912E+01</totfact>
</mgrwt>
</event>
<event>
 6    1  0.1375310E-005  0.1108575E+04  0.7818608E-02  0.9441698E-01
         21   -1    0    0  501  502  0.00000000000E+00  0.00000000000E+00  0.39098905821E+03  0.39098905821E+03  0.00000000000E+00 0.  1.
          4   -1    0    0  502    0 -0.00000000000E+00 -0.00000000000E+00 -0.15645734841E+04  0.15645734841E+04  0.00000000000E+00 0.  1.
    9000010    2    1    2  501    0  0.22832837389E+03 -0.39334460995E+03 -0.86164820490E+03  0.14040572879E+04  0.10109823986E+04 0.  0.
        -13    1    3    3    0    0  0.12545955962E+03 -0.31280492892E+03 -0.10900319837E+04  0.11409455558E+04  0.10566000000E+00 0.  1.
          4    1    3    3  501    0  0.10286881427E+03 -0.80539681025E+02  0.22838377879E+03  0.26311173213E+03  0.00000000000E+00 0.  1.
         13    1    1    2    0    0 -0.22832837389E+03  0.39334460995E+03 -0.31193622100E+03  0.55150525440E+03  0.10566000000E+00 0. -1.
<mgrwt>
<rscale>  1 0.88722119E+03</rscale>
<asrwt>0</asrwt>
<pdfrwt beam="1">  1       21 0.60152162E-01 0.11085753E+04</pdfrwt>
<pdfrwt beam="2">  1        4 0.24070362E+00 0.11085753E+04</pdfrwt>
<totfact> 0.71459651E+00</totfact>
</mgrwt>
</event>
<event>
 6    1  0.1375310E-005  0.9987284E+03  0.7818608E-02  0.1005634E+00
         21   -1    0    0  501  502  0.00000000000E+00  0.00000000000E+00  0.30928504981E+03  0.30928504981E+03  0.00000000000E+00 0.  1.
          4   -1    0    0  502    0 -0.00000000000E+00 -0.00000000000E+00 -0.10896206467E+04  0.10896206467E+04  0.00000000000E+00 0.  1.
    9000010    2    1    2  501    0  0.13218403432E+02  0.79606399030E+02 -0.51927498422E+03  0.11256575316E+04  0.99546293972E+03 0.  0.
        -13    1    3    3    0    0 -0.14238427145E+03 -0.30828043396E+03  0.12148173927E+03  0.36064931839E+03  0.10566000000E+00 0.  1.
          4    1    3    3  501    0  0.15560267488E+03  0.38788683299E+03 -0.64075672349E+03  0.76500821325E+03  0.00000000000E+00 0.  1.
         13    1    1    2    0    0 -0.13218403432E+02 -0.79606399030E+02 -0.26106061267E+03  0.27324816487E+03  0.10566000000E+00 0. -1.
<mgrwt>
<rscale>  1 0.53247490E+03</rscale>
<asrwt>0</asrwt>
<pdfrwt beam="1">  1       21 0.47582316E-01 0.99872838E+03</pdfrwt>
<pdfrwt beam="2">  1        4 0.16763394E+00 0.99872838E+03</pdfrwt>
<totfact> 0.36831393E+01</totfact>
</mgrwt>
</event>
<event>
 6    1  0.1375310E-005  0.9811097E+03  0.7818608E-02  0.9878285E-01
         21   -1    0    0  501  502  0.00000000000E+00  0.00000000000E+00  0.19373304851E+04  0.19373304851E+04  0.00000000000E+00 0.  1.
          4   -1    0    0  502    0 -0.00000000000E+00 -0.00000000000E+00 -0.21684302576E+03  0.21684302576E+03  0.00000000000E+00 0.  1.
    9000010    2    1    2  501    0 -0.10056057097E+03 -0.11098103162E+03  0.17454999812E+04  0.20023352574E+04  0.96961181974E+03 0.  0.
        -13    1    3    3    0    0 -0.25778307813E+03 -0.46062629576E+03  0.62506656750E+03  0.81813013921E+03  0.10566000000E+00 0.  1.
          4    1    3    3  501    0  0.15722250716E+03  0.34964526414E+03  0.11204334137E+04  0.11842051182E+04  0.00000000000E+00 0.  1.
         13    1    1    2    0    0  0.10056057097E+03  0.11098103162E+03 -0.25012521794E+02  0.15183825349E+03  0.10566000000E+00 0. -1.
<mgrwt>
<rscale>  1 0.61325342E+03</rscale>
<asrwt>0</asrwt>
<pdfrwt beam="1">  1       21 0.29805083E+00 0.98110973E+03</pdfrwt>
<pdfrwt beam="2">  1        4 0.33360467E-01 0.98110973E+03</pdfrwt>
<totfact> 0.96050589E+00</totfact>
</mgrwt>
</event>
<event>
 6    1  0.1375310E-005  0.9902984E+03  0.7818608E-02  0.1005507E+00
         21   -1    0    0  501  502  0.00000000000E+00  0.00000000000E+00  0.60663114561E+03  0.60663114561E+03  0.00000000000E+00 0.  1.
          4   -1    0    0  502    0 -0.00000000000E+00 -0.00000000000E+00 -0.47796545680E+03  0.47796545680E+03  0.00000000000E+00 0.  1.
    9000010    2    1    2  501    0 -0.38998030111E+02  0.73384269178E+02  0.94685045958E+02  0.99481468570E+03  0.98680540313E+03 0.  0.
        -13    1    3    3    0    0 -0.33761402150E+02 -0.31171283709E+03  0.39651621175E+03  0.50549959686E+03  0.10566000000E+00 0.  1.
          4    1    3    3  501    0 -0.52366279607E+01  0.38509710626E+03 -0.30183116579E+03  0.48931508884E+03  0.00000000000E+00 0.  1.
         13    1    1    2    0    0  0.38998030111E+02 -0.73384269178E+02  0.33980642850E+02  0.89781916709E+02  0.10566000000E+00 0. -1.
<mgrwt>
<rscale>  1 0.53300195E+03</rscale>
<asrwt>0</asrwt>
<pdfrwt beam="1">  1       21 0.93327868E-01 0.99029844E+03</pdfrwt>
<pdfrwt beam="2">  1        4 0.73533147E-01 0.99029844E+03</pdfrwt>
<totfact> 0.61728754E+01</totfact>
</mgrwt>
</event>
<event>
 6    1  0.1375310E-005  0.1041400E+04  0.7818608E-02  0.9615611E-01
          4   -1    0    0  502    0 -0.00000000000E+00  0.00000000000E+00  0.93863375556E+03  0.93863375556E+03  0.00000000000E+00 0.  1.
         21   -1    0    0  501  502  0.00000000000E+00 -0.00000000000E+00 -0.48470761772E+03  0.48470761772E+03  0.00000000000E+00 0.  1.
    9000010    2    1    2  501    0 -0.23215459332E+03  0.18943845107E+03  0.41558447437E+03  0.11212606287E+04  0.99736265225E+03 0.  0.
        -13    1    3    3    0    0 -0.13614729107E+03  0.30833289322E+02 -0.32717558719E+03  0.35571147383E+03  0.10566000000E+00 0.  1.
          4    1    3    3  501    0 -0.96007302255E+02  0.15860516174E+03  0.74276006156E+03  0.76554915483E+03  0.00000000000E+00 0.  1.
         13    1    1    2    0    0  0.23215459332E+03 -0.18943845107E+03  0.38341663474E+02  0.30208074461E+03  0.10566000000E+00 0. -1.
<mgrwt>
<rscale>  1 0.76271530E+03</rscale>
<asrwt>0</asrwt>
<pdfrwt beam="2">  1       21 0.74570403E-01 0.10414005E+04</pdfrwt>
<pdfrwt beam="1">  1        4 0.14440519E+00 0.10414005E+04</pdfrwt>
<totfact> 0.20238684E+01</totfact>
</mgrwt>
</event>
<event>
 6    1  0.1375310E-005  0.1035632E+04  0.7818608E-02  0.9661814E-01
          4   -1    0    0  502    0 -0.00000000000E+00  0.00000000000E+00  0.61472946418E+03  0.61472946418E+03  0.00000000000E+00 0.  1.
         21   -1    0    0  501  502  0.00000000000E+00 -0.00000000000E+00 -0.15282618492E+04  0.15282618492E+04  0.00000000000E+00 0.  1.
    9000010    2    1    2  501    0 -0.19656467676E+03 -0.17081732096E+03 -0.13092139726E+04  0.16693034845E+04  0.10023555597E+04 0.  0.
        -13    1    3    3    0    0  0.51813048105E+02 -0.55760264457E+03 -0.86232784225E+03  0.10282094241E+04  0.10566000000E+00 0.  1.
          4    1    3    3  501    0 -0.24837772486E+03  0.38678532361E+03 -0.44688613031E+03  0.64109406036E+03  0.00000000000E+00 0.  1.
         13    1    1    2    0    0  0.19656467676E+03  0.17081732096E+03  0.39568158758E+03  0.47368782885E+03  0.10566000000E+00 0. -1.
<mgrwt>
<rscale>  1 0.73336587E+03</rscale>
<asrwt>0</asrwt>
<pdfrwt beam="2">  1       21 0.23511721E+00 0.10356316E+04</pdfrwt>
<pdfrwt beam="1">  1        4 0.94573765E-01 0.10356316E+04</pdfrwt>
<totfact> 0.24899465E+00</totfact>
</mgrwt>
</event>
<event>
 6    1  0.1375310E-005  0.1035542E+04  0.7818608E-02  0.9666481E-01
          4   -1    0    0  502    0 -0.00000000000E+00  0.00000000000E+00  0.35082814891E+03  0.35082814891E+03  0.00000000000E+00 0.  1.
         21   -1    0    0  501  502  0.00000000000E+00 -0.00000000000E+00 -0.21441489052E+04  0.21441489052E+04  0.00000000000E+00 0.  1.
    9000010    2    1    2  501    0  0.17421408639E+03 -0.18813464102E+03 -0.19403627794E+04  0.21993987079E+04  0.10032954547E+04 0.  0.
        -13    1    3    3    0    0  0.38403293099E+03 -0.14425122979E+03 -0.21955146767E+03  0.46528761804E+03  0.10566000000E+00 0.  1.
          4    1    3    3  501    0 -0.20981884460E+03 -0.43883411239E+02 -0.17208113117E+04  0.17341110899E+04  0.00000000000E+00 0.  1.
         13    1    1    2    0    0 -0.17421408639E+03  0.18813464102E+03  0.14704202309E+03  0.29557834625E+03  0.10566000000E+00 0. -1.
<mgrwt>
<rscale>  1 0.73048072E+03</rscale>
<asrwt>0</asrwt>
<pdfrwt beam="2">  1       21 0.32986906E+00 0.10355419E+04</pdfrwt>
<pdfrwt beam="1">  1        4 0.53973561E-01 0.10355419E+04</pdfrwt>
<totfact> 0.22372129E+00</totfact>
</mgrwt>
</event>
<event>
 6    1  0.1375310E-005  0.9459551E+03  0.7818608E-02  0.9921313E-01
          4   -1    0    0  502    0 -0.00000000000E+00  0.00000000000E+00  0.35726026918E+03  0.35726026918E+03  0.00000000000E+00 0.  1.
         21   -1    0    0  501  502  0.00000000000E+00 -0.00000000000E+00 -0.12939074590E+04  0.12939074590E+04  0.00000000000E+00 0.  1.
    9000010    2    1    2  501    0 -0.12531968646E+03 -0.73906048214E+02 -0.10876619486E+04  0.14414712897E+04  0.93469986459E+03 0.  0.
        -13    1    3    3    0    0  0.17082348119E+03  0.89717943946E+02 -0.10861225238E+04  0.11031283330E+04  0.10566000000E+00 0.  1.
          4    1    3    3  501    0 -0.29614316766E+03 -0.16362399216E+03 -0.15394248501E+01  0.33834295676E+03  0.00000000000E+00 0.  1.
         13    1    1    2    0    0  0.12531968646E+03  0.73906048214E+02  0.15101475877E+03  0.20969643848E+03  0.10566000000E+00 0. -1.
<mgrwt>
<rscale>  1 0.59239399E+03</rscale>
<asrwt>0</asrwt>
<pdfrwt beam="2">  1       21 0.19906269E+00 0.94595505E+03</pdfrwt>
<pdfrwt beam="1">  1        4 0.54963118E-01 0.94595505E+03</pdfrwt>
<totfact> 0.14901276E+01</totfact>
</mgrwt>
</event>
<event>
 6    1  0.1375310E-005  0.1165108E+04  0.7818608E-02  0.9444843E-01
          4   -1    0    0  502    0 -0.00000000000E+00  0.00000000000E+00  0.16102108252E+04  0.16102108252E+04  0.00000000000E+00 0.  1.
         21   -1    0    0  501  502  0.00000000000E+00 -0.00000000000E+00 -0.53177169508E+03  0.53177169508E+03  0.00000000000E+00 0.  1.
    9000010    2    1    2  501    0  0.31408991349E+03 -0.22682332494E+03  0.20033248830E+03  0.11822051606E+04  0.10988060072E+04 0.  0.
        -13    1    3    3    0    0 -0.36151129724E+03 -0.17445069934E+03  0.29479627077E+03  0.49802441401E+03  0.10566000000E+00 0.  1.
          4    1    3    3  501    0  0.67560121073E+03 -0.52372625599E+02 -0.94463782468E+02  0.68418074663E+03  0.00000000000E+00 0.  1.
         13    1    1    2    0    0 -0.31408991349E+03  0.22682332494E+03  0.87810664184E+03  0.95977735966E+03  0.10566000000E+00 0. -1.
<mgrwt>
<rscale>  1 0.88475416E+03</rscale>
<asrwt>0</asrwt>
<pdfrwt beam="2">  1       21 0.81811031E-01 0.11651077E+04</pdfrwt>
<pdfrwt beam="1">  1        4 0.24772474E+00 0.11651077E+04</pdfrwt>
<totfact> 0.31637437E+00</totfact>
</mgrwt>
</event>
<event>
 6    1  0.1375310E-005  0.1028482E+04  0.7818608E-02  0.9590665E-01
         21   -1    0    0  501  502  0.00000000000E+00  0.00000000000E+00  0.21689503467E+04  0.21689503467E+04  0.00000000000E+00 0.  1.
          4   -1    0    0  502    0 -0.00000000000E+00 -0.00000000000E+00 -0.22386456813E+03  0.22386456813E+03  0.00000000000E+00 0.  1.
    9000010    2    1    2  501    0 -0.31963463389E+03  0.11233195086E+03  0.16459438181E+04  0.19408517636E+04  0.97107659310E+03 0.  0.
        -13    1    3    3    0    0 -0.21941880661E+03 -0.33944112230E+03  0.13047288045E+04  0.13658997594E+04  0.10566000000E+00 0.  1.
          4    1    3    3  501    0 -0.10021582728E+03  0.45177307317E+03  0.34121501358E+03  0.57495200423E+03  0.00000000000E+00 0.  1.
         13    1    1    2    0    0  0.31963463389E+03 -0.11233195086E+03  0.29914196043E+03  0.45196315117E+03  0.10566000000E+00 0. -1.
<mgrwt>
<rscale>  1 0.77917130E+03</rscale>
<asrwt>0</asrwt>
<pdfrwt beam="1">  1       21 0.33368465E+00 0.10284817E+04</pdfrwt>
<pdfrwt beam="2">  1        4 0.34440704E-01 0.10284817E+04</pdfrwt>
<totfact> 0.53601755E+00</totfact>
</mgrwt>
</event>
<event>
 6    1  0.1375310E-005  0.1010735E+04  0.7818608E-02  0.1010134E+00
         21   -1    0    0  501  502  0.00000000000E+00  0.00000000000E+00  0.30639308952E+03  0.30639308952E+03  0.00000000000E+00 0.  1.
          4   -1    0    0  502    0 -0.00000000000E+00 -0.00000000000E+00 -0.99995323891E+03  0.99995323891E+03  0.00000000000E+00 0.  1.
    9000010    2    1    2  501    0 -0.66929457083E+02  0.10260758021E+02 -0.71179906517E+03  0.12362214071E+04  0.10084644876E+04 0.  0.
        -13    1    3    3    0    0  0.27037918298E+03 -0.39250390198E+03 -0.42001399196E+03  0.63527630230E+03  0.10566000000E+00 0.  1.
          4    1    3    3  501    0 -0.33730864007E+03  0.40276466000E+03 -0.29178507322E+03  0.60094510478E+03  0.00000000000E+00 0.  1.
         13    1    1    2    0    0  0.66929457083E+02 -0.10260758021E+02  0.18238915788E+02  0.70124921345E+02  0.10566000000E+00 0. -1.
<mgrwt>
<rscale>  1 0.51421373E+03</rscale>
<asrwt>0</asrwt>
<pdfrwt beam="1">  1       21 0.47137399E-01 0.10107351E+04</pdfrwt>
<pdfrwt beam="2">  1        4 0.15383896E+00 0.10107351E+04</pdfrwt>
<totfact> 0.47574959E+01</totfact>
</mgrwt>
</event>
<event>
 6    1  0.1375310E-005  0.1079969E+04  0.7818608E-02  0.9996616E-01
          4   -1    0    0  502    0 -0.00000000000E+00  0.00000000000E+00  0.53400257529E+03  0.53400257529E+03  0.00000000000E+00 0.  1.
         21   -1    0    0  501  502  0.00000000000E+00 -0.00000000000E+00 -0.63307624496E+03  0.63307624496E+03  0.00000000000E+00 0.  1.
    9000010    2    1    2  501    0 -0.60345433592E+02 -0.47763203384E+02 -0.12184263001E+03  0.10868209130E+04  0.10772238280E+04 0.  0.
        -13    1    3    3    0    0 -0.15551059315E+03  0.30031960944E+03 -0.47421458602E+03  0.58245591864E+03  0.10566000000E+00 0.  1.
          4    1    3    3  501    0  0.95165159560E+02 -0.34808281282E+03  0.35237195601E+03  0.50436499439E+03  0.00000000000E+00 0.  1.
         13    1    1    2    0    0  0.60345433592E+02  0.47763203384E+02  0.22768960339E+02  0.80257907223E+02  0.10566000000E+00 0. -1.
<mgrwt>
<rscale>  1 0.55798878E+03</rscale>
<asrwt>0</asrwt>
<pdfrwt beam="2">  1       21 0.97396345E-01 0.10799695E+04</pdfrwt>
<pdfrwt beam="1">  1        4 0.82154242E-01 0.10799695E+04</pdfrwt>
<totfact> 0.42850333E+01</totfact>
</mgrwt>
</event>
<event>
 6    1  0.1375310E-005  0.9991984E+03  0.7818608E-02  0.1003618E+00
         21   -1    0    0  501  502  0.00000000000E+00  0.00000000000E+00  0.67854057935E+03  0.67854057935E+03  0.00000000000E+00 0.  1.
          4   -1    0    0  502    0 -0.00000000000E+00 -0.00000000000E+00 -0.73970595820E+03  0.73970595820E+03  0.00000000000E+00 0.  1.
    9000010    2    1    2  501    0 -0.41861383295E+02 -0.74913695102E+02  0.30298167466E+03  0.10441241981E+04  0.99550640820E+03 0.  0.
        -13    1    3    3    0    0 -0.42494015344E+03  0.20243836589E+03 -0.20490811572E+02  0.47114255859E+03  0.10566000000E+00 0.  1.
          4    1    3    3  501    0  0.38307877015E+03 -0.27735206099E+03  0.32347248623E+03  0.57298163952E+03  0.00000000000E+00 0.  1.
         13    1    1    2    0    0  0.41861383295E+02  0.74913695102E+02 -0.36414705351E+03  0.37412233944E+03  0.10566000000E+00 0. -1.
<mgrwt>
<rscale>  1 0.54091786E+03</rscale>
<asrwt>0</asrwt>
<pdfrwt beam="1">  1       21 0.10439086E+00 0.99919840E+03</pdfrwt>
<pdfrwt beam="2">  1        4 0.11380092E+00 0.99919840E+03</pdfrwt>
<totfact> 0.16647257E+01</totfact>
</mgrwt>
</event>
<event>
 6    1  0.1375310E-005  0.9948361E+03  0.7818608E-02  0.9884671E-01
         21   -1    0    0  501  502  0.00000000000E+00  0.00000000000E+00  0.78568725807E+03  0.78568725807E+03  0.00000000000E+00 0.  1.
          4   -1    0    0  502    0 -0.00000000000E+00 -0.00000000000E+00 -0.51095896843E+03  0.51095896843E+03  0.00000000000E+00 0.  1.
    9000010    2    1    2  501    0  0.28738295023E+02 -0.13775201207E+03  0.43289681795E+03  0.10849417132E+04  0.98483367108E+03 0.  0.
        -13    1    3    3    0    0  0.41420781711E+03 -0.20532715821E+03  0.50754905157E+03  0.68653725942E+03  0.10566000000E+00 0.  1.
          4    1    3    3  501    0 -0.38546952208E+03  0.67575146137E+02 -0.74652233627E+02  0.39840445381E+03  0.00000000000E+00 0.  1.
         13    1    1    2    0    0 -0.28738295023E+02  0.13775201207E+03 -0.15816852830E+03  0.21170451327E+03  0.10566000000E+00 0. -1.
<mgrwt>
<rscale>  1 0.61009991E+03</rscale>
<asrwt>0</asrwt>
<pdfrwt beam="1">  1       21 0.12087496E+00 0.99483610E+03</pdfrwt>
<pdfrwt beam="2">  1        4 0.78609072E-01 0.99483610E+03</pdfrwt>
<totfact> 0.27669212E+01</totfact>
</mgrwt>
</event>
<event>
 6    1  0.1375310E-005  0.1058559E+04  0.7818608E-02  0.9541608E-01
         21   -1    0    0  501  502  0.00000000000E+00  0.00000000000E+00  0.12709057127E+04  0.12709057127E+04  0.00000000000E+00 0.  1.
          4   -1    0    0  502    0 -0.00000000000E+00 -0.00000000000E+00 -0.40308598949E+03  0.40308598949E+03  0.00000000000E+00 0.  1.
    9000010    2    1    2  501    0  0.30357865907E+03 -0.20805705758E+03  0.70305490891E+03  0.12707607551E+04  0.99252151131E+03 0.  0.
        -13    1    3    3    0    0 -0.34338509357E+03 -0.21563773767E+03  0.20561622113E+03  0.45463281662E+03  0.10566000000E+00 0.  1.
          4    1    3    3  501    0  0.64696375264E+03  0.75806800852E+01  0.49743868779E+03  0.81612793853E+03  0.00000000000E+00 0.  1.
         13    1    1    2    0    0 -0.30357865907E+03  0.20805705758E+03  0.16476481429E+03  0.40323094704E+03  0.10566000000E+00 0. -1.
<mgrwt>
<rscale>  1 0.81284495E+03</rscale>
<asrwt>0</asrwt>
<pdfrwt beam="1">  1       21 0.19552395E+00 0.10585588E+04</pdfrwt>
<pdfrwt beam="2">  1        4 0.62013230E-01 0.10585588E+04</pdfrwt>
<totfact> 0.11961557E+01</totfact>
</mgrwt>
</event>
<event>
 6    1  0.1375310E-005  0.1029094E+04  0.7818608E-02  0.9652116E-01
          4   -1    0    0  502    0 -0.00000000000E+00  0.00000000000E+00  0.21570723181E+04  0.21570723181E+04  0.00000000000E+00 0.  1.
         21   -1    0    0  501  502  0.00000000000E+00 -0.00000000000E+00 -0.27289666740E+03  0.27289666740E+03  0.00000000000E+00 0.  1.
    9000010    2    1    2  501    0  0.25084798148E+03 -0.11089060908E+03  0.77741531961E+03  0.12897322212E+04  0.99187357373E+03 0.  0.
        -13    1    3    3    0    0  0.23325953210E+03  0.29717456896E+03  0.79575194019E+03  0.88087677642E+03  0.10566000000E+00 0.  1.
          4    1    3    3  501    0  0.17588449380E+02 -0.40806517804E+03 -0.18336620583E+02  0.40885544479E+03  0.00000000000E+00 0.  1.
         13    1    1    2    0    0 -0.25084798148E+03  0.11089060908E+03  0.11067603311E+04  0.11402367643E+04  0.10566000000E+00 0. -1.
<mgrwt>
<rscale>  1 0.73940779E+03</rscale>
<asrwt>0</asrwt>
<pdfrwt beam="2">  1       21 0.41984104E-01 0.10290941E+04</pdfrwt>
<pdfrwt beam="1">  1        4 0.33185727E+00 0.10290941E+04</pdfrwt>
<totfact> 0.42727764E+00</totfact>
</mgrwt>
</event>
<event>
 6    1  0.1375310E-005  0.1020411E+04  0.7818608E-02  0.9858389E-01
         21   -1    0    0  501  502  0.00000000000E+00  0.00000000000E+00  0.15649112591E+04  0.15649112591E+04  0.00000000000E+00 0.  1.
          4   -1    0    0  502    0 -0.00000000000E+00 -0.00000000000E+00 -0.21833140348E+03  0.21833140348E+03  0.00000000000E+00 0.  1.
    9000010    2    1    2  501    0  0.57061801010E+02 -0.13000343972E+03  0.12390500290E+04  0.16051426394E+04  0.10104855145E+04 0.  0.
        -13    1    3    3    0    0  0.27261595620E+03  0.32941833917E+03  0.89539898142E+03  0.99225765245E+03  0.10566000000E+00 0.  1.
          4    1    3    3  501    0 -0.21555415519E+03 -0.45942177889E+03  0.34365104754E+03  0.61288498693E+03  0.00000000000E+00 0.  1.
         13    1    1    2    0    0 -0.57061801010E+02  0.13000343972E+03  0.10752982662E+03  0.17810002316E+03  0.10566000000E+00 0. -1.
<mgrwt>
<rscale>  1 0.62320992E+03</rscale>
<asrwt>0</asrwt>
<pdfrwt beam="1">  1       21 0.24075557E+00 0.10204107E+04</pdfrwt>
<pdfrwt beam="2">  1        4 0.33589448E-01 0.10204107E+04</pdfrwt>
<totfact> 0.21571425E+01</totfact>
</mgrwt>
</event>
<event>
 6    1  0.1375310E-005  0.1052217E+04  0.7818608E-02  0.9593132E-01
          4   -1    0    0  502    0 -0.00000000000E+00  0.00000000000E+00  0.21390629722E+03  0.21390629722E+03  0.00000000000E+00 0.  1.
         21   -1    0    0  501  502  0.00000000000E+00 -0.00000000000E+00 -0.26333714217E+04  0.26333714217E+04  0.00000000000E+00 0. -1.
    9000010    2    1    2  501    0 -0.21283808721E+03  0.23047564177E+03 -0.22652540762E+04  0.24977063651E+04  0.10043614806E+04 0.  0.
        -13    1    3    3    0    0 -0.15943364222E+03  0.45305770521E+03 -0.22108662380E+04  0.22624345082E+04  0.10566000000E+00 0.  1.
          4    1    3    3  501    0 -0.53404444987E+02 -0.22258206343E+03 -0.54387838234E+02  0.23527185691E+03  0.00000000000E+00 0.  1.
         13    1    1    2    0    0  0.21283808721E+03 -0.23047564177E+03 -0.15421104825E+03  0.34957135378E+03  0.10566000000E+00 0. -1.
<mgrwt>
<rscale>  1 0.77752429E+03</rscale>
<asrwt>0</asrwt>
<pdfrwt beam="2">  1       21 0.40513405E+00 0.10522172E+04</pdfrwt>
<pdfrwt beam="1">  1        4 0.32908662E-01 0.10522172E+04</pdfrwt>
<totfact> 0.20324921E+00</totfact>
</mgrwt>
</event>
<event>
 6    1  0.1375310E-005  0.9930027E+03  0.7818608E-02  0.9938794E-01
          4   -1    0    0  502    0 -0.00000000000E+00  0.00000000000E+00  0.49129705462E+03  0.49129705462E+03  0.00000000000E+00 0.  1.
         21   -1    0    0  501  502  0.00000000000E+00 -0.00000000000E+00 -0.65001364412E+03  0.65001364412E+03  0.00000000000E+00 0.  1.
    9000010    2    1    2  501    0  0.11870571765E+03  0.74245907100E+01 -0.20454261923E+03  0.10138500848E+04  0.98585401522E+03 0.  0.
        -13    1    3    3    0    0 -0.90544152826E+01 -0.48425388798E+03 -0.11827928184E+03  0.49857177030E+03  0.10566000000E+00 0.  1.
          4    1    3    3  501    0  0.12776013293E+03  0.49167847869E+03 -0.86263337388E+02  0.51527831446E+03  0.00000000000E+00 0.  1.
         13    1    1    2    0    0 -0.11870571765E+03 -0.74245907100E+01  0.45826029730E+02  0.12746061397E+03  0.10566000000E+00 0. -1.
<mgrwt>
<rscale>  1 0.58417467E+03</rscale>
<asrwt>0</asrwt>
<pdfrwt beam="2">  1       21 0.10000210E+00 0.99300267E+03</pdfrwt>
<pdfrwt beam="1">  1        4 0.75584163E-01 0.99300267E+03</pdfrwt>
<totfact> 0.48946413E+01</totfact>
</mgrwt>
</event>
<event>
 6    1  0.1375310E-005  0.1010432E+04  0.7818608E-02  0.9860713E-01
         21   -1    0    0  501  502  0.00000000000E+00  0.00000000000E+00  0.87390820469E+03  0.87390820469E+03  0.00000000000E+00 0.  1.
          4   -1    0    0  502    0 -0.00000000000E+00 -0.00000000000E+00 -0.41954270114E+03  0.41954270114E+03  0.00000000000E+00 0.  1.
    9000010    2    1    2  501    0  0.65781360922E+02  0.12935998417E+03  0.51743387186E+03  0.11352143007E+04  0.99995625098E+03 0.  0.
        -13    1    3    3    0    0  0.46480892853E+03  0.27655600347E+03  0.12194434537E+03  0.55443755070E+03  0.10566000000E+00 0.  1.
          4    1    3    3  501    0 -0.39902756761E+03 -0.14719601930E+03  0.39548952649E+03  0.58077675002E+03  0.00000000000E+00 0.  1.
         13    1    1    2    0    0 -0.65781360922E+02 -0.12935998417E+03 -0.63068368303E+02  0.15823660510E+03  0.10566000000E+00 0. -1.
<mgrwt>
<rscale>  1 0.62203648E+03</rscale>
<asrwt>0</asrwt>
<pdfrwt beam="1">  1       21 0.13444742E+00 0.10104324E+04</pdfrwt>
<pdfrwt beam="2">  1        4 0.64545031E-01 0.10104324E+04</pdfrwt>
<totfact> 0.32477240E+01</totfact>
</mgrwt>
</event>
<event>
 6    1  0.1375310E-005  0.1066752E+04  0.7818608E-02  0.9558901E-01
          4   -1    0    0  502    0 -0.00000000000E+00  0.00000000000E+00  0.22712453680E+03  0.22712453680E+03  0.00000000000E+00 0.  1.
         21   -1    0    0  501  502  0.00000000000E+00 -0.00000000000E+00 -0.23228592957E+04  0.23228592957E+04  0.00000000000E+00 0.  1.
    9000010    2    1    2  501    0  0.23482748398E+03 -0.24410805249E+03 -0.18349592260E+04  0.21225068411E+04  0.10115469542E+04 0.  0.
        -13    1    3    3    0    0 -0.78064329789E+02 -0.57576507031E+03 -0.12692637142E+04  0.13959333233E+04  0.10566000000E+00 0.  1.
          4    1    3    3  501    0  0.31289181377E+03  0.33165701782E+03 -0.56569551187E+03  0.72657351779E+03  0.00000000000E+00 0.  1.
         13    1    1    2    0    0 -0.23482748398E+03  0.24410805249E+03 -0.26077553291E+03  0.42747699149E+03  0.10566000000E+00 0. -1.
<mgrwt>
<rscale>  1 0.80077133E+03</rscale>
<asrwt>0</asrwt>
<pdfrwt beam="2">  1       21 0.35736296E+00 0.10667520E+04</pdfrwt>
<pdfrwt beam="1">  1        4 0.34942237E-01 0.10667520E+04</pdfrwt>
<totfact> 0.36653923E+00</totfact>
</mgrwt>
</event>
<event>
 6    1  0.1375310E-005  0.9989701E+03  0.7818608E-02  0.1008231E+00
         21   -1    0    0  501  502  0.00000000000E+00  0.00000000000E+00  0.86934059446E+03  0.86934059446E+03  0.00000000000E+00 0.  1.
          4   -1    0    0  502    0 -0.00000000000E+00 -0.00000000000E+00 -0.38006460560E+03  0.38006460560E+03  0.00000000000E+00 0.  1.
    9000010    2    1    2  501    0  0.48710177198E+02  0.56218687681E+02  0.56130234500E+03  0.11458627964E+04  0.99619676947E+03 0.  0.
        -13    1    3    3    0    0 -0.59295470365E+02  0.28506786905E+03 -0.19361153836E+03  0.34966424141E+03  0.10566000000E+00 0.  1.
          4    1    3    3  501    0  0.10800564756E+03 -0.22884918137E+03  0.75491388336E+03  0.79619855501E+03  0.00000000000E+00 0.  1.
         13    1    1    2    0    0 -0.48710177198E+02 -0.56218687681E+02 -0.72026356144E+02  0.10354240364E+03  0.10566000000E+00 0. -1.
<mgrwt>
<rscale>  1 0.52183924E+03</rscale>
<asrwt>0</asrwt>
<pdfrwt beam="1">  1       21 0.13374471E+00 0.99897008E+03</pdfrwt>
<pdfrwt beam="2">  1        4 0.58471478E-01 0.99897008E+03</pdfrwt>
<totfact> 0.40927485E+01</totfact>
</mgrwt>
</event>
<event>
 6    1  0.1375310E-005  0.1019211E+04  0.7818608E-02  0.9847574E-01
          4   -1    0    0  502    0 -0.00000000000E+00  0.00000000000E+00  0.16034947847E+04  0.16034947847E+04  0.00000000000E+00 0.  1.
         21   -1    0    0  501  502  0.00000000000E+00 -0.00000000000E+00 -0.26791754962E+03  0.26791754962E+03  0.00000000000E+00 0.  1.
    9000010    2    1    2  501    0  0.12852591267E+03  0.72515133908E+02  0.74444122317E+03  0.12621347698E+04  0.10084711635E+04 0.  0.
        -13    1    3    3    0    0  0.68578688984E+02 -0.44195131609E+03  0.14552568170E+03  0.47032088787E+03  0.10566000000E+00 0.  1.
          4    1    3    3  501    0  0.59947223691E+02  0.51446644999E+03  0.59891554147E+03  0.79181388193E+03  0.00000000000E+00 0.  1.
         13    1    1    2    0    0 -0.12852591267E+03 -0.72515133908E+02  0.59113601192E+03  0.60927756452E+03  0.10566000000E+00 0. -1.
<mgrwt>
<rscale>  1 0.62870774E+03</rscale>
<asrwt>0</asrwt>
<pdfrwt beam="2">  1       21 0.41218086E-01 0.10192112E+04</pdfrwt>
<pdfrwt beam="1">  1        4 0.24669150E+00 0.10192112E+04</pdfrwt>
<totfact> 0.15019329E+01</totfact>
</mgrwt>
</event>
<event>
 6    1  0.1375310E-005  0.9101357E+03  0.7818608E-02  0.9731455E-01
          4   -1    0    0  502    0 -0.00000000000E+00  0.00000000000E+00  0.68581387561E+03  0.68581387561E+03  0.00000000000E+00 0.  1.
         21   -1    0    0  501  502  0.00000000000E+00 -0.00000000000E+00 -0.60948262005E+03  0.60948262005E+03  0.00000000000E+00 0.  1.
    9000010    2    1    2  501    0  0.11856656227E+03  0.27961437621E+03 -0.14214012537E+03  0.92116819612E+03  0.85796550119E+03 0.  0.
        -13    1    3    3    0    0  0.49203536275E+03  0.16868946315E+03 -0.94654533805E+02  0.52869123797E+03  0.10566000000E+00 0.  1.
          4    1    3    3  501    0 -0.37346880048E+03  0.11092491306E+03 -0.47485591561E+02  0.39247695815E+03  0.00000000000E+00 0.  1.
         13    1    1    2    0    0 -0.11856656227E+03 -0.27961437621E+03  0.21847138092E+03  0.37412829954E+03  0.10566000000E+00 0. -1.
<mgrwt>
<rscale>  1 0.69174472E+03</rscale>
<asrwt>0</asrwt>
<pdfrwt beam="2">  1       21 0.93766557E-01 0.91013572E+03</pdfrwt>
<pdfrwt beam="1">  1        4 0.10550983E+00 0.91013572E+03</pdfrwt>
<totfact> 0.26374514E+01</totfact>
</mgrwt>
</event>
<event>
 6    1  0.1375310E-005  0.1100446E+04  0.7818608E-02  0.9284339E-01
         21   -1    0    0  501  502  0.00000000000E+00  0.00000000000E+00  0.21899528587E+04  0.21899528587E+04  0.00000000000E+00 0.  1.
          4   -1    0    0  502    0 -0.00000000000E+00 -0.00000000000E+00 -0.48262752515E+03  0.48262752515E+03  0.00000000000E+00 0.  1.
    9000010    2    1    2  501    0 -0.70215343637E+03 -0.42324649452E+03  0.14356518724E+04  0.18088885847E+04  0.73404670803E+03 0.  0.
        -13    1    3    3    0    0 -0.23637499986E+03  0.17946172916E+03  0.20192529247E+03  0.35896167998E+03  0.10566000000E+00 0.  1.
          4    1    3    3  501    0 -0.46577843651E+03 -0.60270822368E+03  0.12337265800E+04  0.14499269047E+04  0.00000000000E+00 0.  1.
         13    1    1    2    0    0  0.70215343637E+03  0.42324649452E+03  0.27167346111E+03  0.86369179918E+03  0.10566000000E+00 0. -1.
<mgrwt>
<rscale>  1 0.10223755E+04</rscale>
<asrwt>0</asrwt>
<pdfrwt beam="1">  1       21 0.33691582E+00 0.11004461E+04</pdfrwt>
<pdfrwt beam="2">  1        4 0.74250390E-01 0.11004461E+04</pdfrwt>
<totfact> 0.98883234E-01</totfact>
</mgrwt>
</event>
<event>
 6    1  0.1375310E-005  0.1042592E+04  0.7818608E-02  0.9656665E-01
          4   -1    0    0  502    0 -0.00000000000E+00  0.00000000000E+00  0.11599890256E+04  0.11599890256E+04  0.00000000000E+00 0.  1.
         21   -1    0    0  501  502  0.00000000000E+00 -0.00000000000E+00 -0.38637527020E+03  0.38637527020E+03  0.00000000000E+00 0.  1.
    9000010    2    1    2  501    0  0.24001553459E+03  0.99229306746E+02  0.46106853744E+03  0.11399920076E+04  0.10097245511E+04 0.  0.
        -13    1    3    3    0    0  0.16403036937E+03  0.55342899985E+03  0.31081520782E+03  0.65558807534E+03  0.10566000000E+00 0.  1.
          4    1    3    3  501    0  0.75985165220E+02 -0.45419969310E+03  0.15025332962E+03  0.48440393228E+03  0.00000000000E+00 0.  1.
         13    1    1    2    0    0 -0.24001553459E+03 -0.99229306746E+02  0.31254521796E+03  0.40637228818E+03  0.10566000000E+00 0. -1.
<mgrwt>
<rscale>  1 0.73656592E+03</rscale>
<asrwt>0</asrwt>
<pdfrwt beam="2">  1       21 0.59442350E-01 0.10425918E+04</pdfrwt>
<pdfrwt beam="1">  1        4 0.17845985E+00 0.10425918E+04</pdfrwt>
<totfact> 0.18883075E+01</totfact>
</mgrwt>
</event>
<event>
 6    1  0.1375310E-005  0.1098509E+04  0.7818608E-02  0.9470181E-01
          4   -1    0    0  502    0 -0.00000000000E+00  0.00000000000E+00  0.43090700705E+03  0.43090700705E+03  0.00000000000E+00 0.  1.
         21   -1    0    0  501  502  0.00000000000E+00 -0.00000000000E+00 -0.15321966925E+04  0.15321966925E+04  0.00000000000E+00 0.  1.
    9000010    2    1    2  501    0  0.41714073447E+03 -0.68274790421E+02 -0.10790499439E+04  0.15398278360E+04  0.10139295557E+04 0.  0.
        -13    1    3    3    0    0  0.38054590083E+03 -0.12439937352E+03  0.54715489116E+02  0.40408437570E+03  0.10566000000E+00 0.  1.
          4    1    3    3  501    0  0.36594833636E+02  0.56124583096E+02 -0.11337654330E+04  0.11357434603E+04  0.00000000000E+00 0.  1.
         13    1    1    2    0    0 -0.41714073447E+03  0.68274790421E+02 -0.22239741593E+02  0.42327586351E+03  0.10566000000E+00 0. -1.
<mgrwt>
<rscale>  1 0.86518379E+03</rscale>
<asrwt>0</asrwt>
<pdfrwt beam="2">  1       21 0.23572256E+00 0.10985085E+04</pdfrwt>
<pdfrwt beam="1">  1        4 0.66293388E-01 0.10985085E+04</pdfrwt>
<totfact> 0.55276787E+00</totfact>
</mgrwt>
</event>
<event>
 6    1  0.1375310E-005  0.1010365E+04  0.7818608E-02  0.1068167E+00
          4   -1    0    0  502    0 -0.00000000000E+00  0.00000000000E+00  0.18344315120E+04  0.18344315120E+04  0.00000000000E+00 0.  1.
         21   -1    0    0  501  502  0.00000000000E+00 -0.00000000000E+00 -0.14483886341E+03  0.14483886341E+03  0.00000000000E+00 0.  1.
    9000010    2    1    2  501    0 -0.72559694994E+01 -0.10147792844E+02  0.16250826237E+04  0.19135651148E+04  0.10102882203E+04 0.  0.
        -13    1    3    3    0    0  0.49052381236E+03 -0.39554823334E+02  0.61984423297E+03  0.79144493103E+03  0.10566000000E+00 0.  1.
          4    1    3    3  501    0 -0.49777978186E+03  0.29407030490E+02  0.10052383907E+04  0.11221201838E+04  0.00000000000E+00 0.  1.
         13    1    1    2    0    0  0.72559694994E+01  0.10147792844E+02  0.64510024919E+02  0.65705260612E+02  0.10566000000E+00 0. -1.
<mgrwt>
<rscale>  1 0.33680090E+03</rscale>
<asrwt>0</asrwt>
<pdfrwt beam="2">  1       21 0.22282903E-01 0.10103652E+04</pdfrwt>
<pdfrwt beam="1">  1        4 0.28222022E+00 0.10103652E+04</pdfrwt>
<totfact> 0.31504683E+01</totfact>
</mgrwt>
</event>
<event>
 6    1  0.1375310E-005  0.9944912E+03  0.7818608E-02  0.9661348E-01
          4   -1    0    0  502    0 -0.00000000000E+00  0.00000000000E+00  0.27572547008E+03  0.27572547008E+03  0.00000000000E+00 0.  1.
         21   -1    0    0  501  502  0.00000000000E+00 -0.00000000000E+00 -0.16724805133E+04  0.16724805133E+04  0.00000000000E+00 0.  1.
    9000010    2    1    2  501    0 -0.29219756040E+03 -0.37183621899E+02 -0.13028744447E+04  0.16390529242E+04  0.94986874556E+03 0.  0.
        -13    1    3    3    0    0  0.26481930539E+03  0.21914926051E+03 -0.26678929437E+03  0.43512320283E+03  0.10566000000E+00 0.  1.
          4    1    3    3  501    0 -0.55701686579E+03 -0.25633288241E+03 -0.10360851503E+04  0.12039297214E+04  0.00000000000E+00 0.  1.
         13    1    1    2    0    0  0.29219756040E+03  0.37183621899E+02 -0.93880598532E+02  0.30915305915E+03  0.10566000000E+00 0. -1.
<mgrwt>
<rscale>  1 0.73365506E+03</rscale>
<asrwt>0</asrwt>
<pdfrwt beam="2">  1       21 0.25730469E+00 0.99449116E+03</pdfrwt>
<pdfrwt beam="1">  1        4 0.42419304E-01 0.99449116E+03</pdfrwt>
<totfact> 0.10599741E+01</totfact>
</mgrwt>
</event>
<event>
 6    1  0.1375310E-005  0.1098441E+04  0.7818608E-02  0.9421440E-01
          4   -1    0    0  502    0 -0.00000000000E+00  0.00000000000E+00  0.87340314867E+03  0.87340314867E+03  0.00000000000E+00 0.  1.
         21   -1    0    0  501  502  0.00000000000E+00 -0.00000000000E+00 -0.73995694104E+03  0.73995694104E+03  0.00000000000E+00 0.  1.
    9000010    2    1    2  501    0 -0.31179463733E+03 -0.39392353365E+03  0.16120970156E+03  0.11102075592E+04  0.97682168809E+03 0.  0.
        -13    1    3    3    0    0  0.72687728966E+02 -0.36510512133E+03  0.48173663498E+03  0.60881479303E+03  0.10566000000E+00 0.  1.
          4    1    3    3  501    0 -0.38448236630E+03 -0.28818412316E+02 -0.32052693342E+03  0.50139276614E+03  0.00000000000E+00 0.  1.
         13    1    1    2    0    0  0.31179463733E+03  0.39392353365E+03 -0.27763493930E+02  0.50315253054E+03  0.10566000000E+00 0. -1.
<mgrwt>
<rscale>  1 0.90332063E+03</rscale>
<asrwt>0</asrwt>
<pdfrwt beam="2">  1       21 0.11383953E+00 0.10984408E+04</pdfrwt>
<pdfrwt beam="1">  1        4 0.13436971E+00 0.10984408E+04</pdfrwt>
<totfact> 0.86781852E+00</totfact>
</mgrwt>
</event>
<event>
 6    1  0.1375310E-005  0.1047721E+04  0.7818608E-02  0.9775993E-01
          4   -1    0    0  502    0 -0.00000000000E+00  0.00000000000E+00  0.60800581772E+03  0.60800581772E+03  0.00000000000E+00 0.  1.
         21   -1    0    0  501  502  0.00000000000E+00 -0.00000000000E+00 -0.62476586050E+03  0.62476586050E+03  0.00000000000E+00 0.  1.
    9000010    2    1    2  501    0  0.14916374933E+03 -0.85143828800E+02  0.48983120137E+02  0.10488655328E+04  0.10335474174E+04 0.  0.
        -13    1    3    3    0    0  0.53984267823E+03 -0.21982244051E+03 -0.13214136044E+03  0.59767329946E+03  0.10566000000E+00 0.  1.
          4    1    3    3  501    0 -0.39067892890E+03  0.13467861171E+03  0.18112448058E+03  0.45119223331E+03  0.00000000000E+00 0.  1.
         13    1    1    2    0    0 -0.14916374933E+03  0.85143828800E+02 -0.65743162926E+02  0.18390614545E+03  0.10566000000E+00 0. -1.
<mgrwt>
<rscale>  1 0.66666984E+03</rscale>
<asrwt>0</asrwt>
<pdfrwt beam="2">  1       21 0.96117825E-01 0.10477211E+04</pdfrwt>
<pdfrwt beam="1">  1        4 0.93539356E-01 0.10477211E+04</pdfrwt>
<totfact> 0.32747784E+01</totfact>
</mgrwt>
</event>
<event>
 6    1  0.1375310E-005  0.1070220E+04  0.7818608E-02  0.9543256E-01
         21   -1    0    0  501  502  0.00000000000E+00  0.00000000000E+00  0.15407555081E+04  0.15407555081E+04  0.00000000000E+00 0.  1.
          4   -1    0    0  502    0 -0.00000000000E+00 -0.00000000000E+00 -0.33099481956E+03  0.33099481956E+03  0.00000000000E+00 0.  1.
    9000010    2    1    2  501    0  0.15008236517E+03 -0.32072549245E+03  0.84724636540E+03  0.13649898285E+04  0.10099412213E+04 0.  0.
        -13    1    3    3    0    0  0.39864083685E+03  0.56905867398E+02  0.81825147468E+03  0.91196945208E+03  0.10566000000E+00 0.  1.
          4    1    3    3  501    0 -0.24855847169E+03 -0.37763135985E+03  0.28994890721E+02  0.45302037645E+03  0.00000000000E+00 0.  1.
         13    1    1    2    0    0 -0.15008236517E+03  0.32072549245E+03  0.36251432316E+03  0.50676049916E+03  0.10566000000E+00 0. -1.
<mgrwt>
<rscale>  1 0.81168501E+03</rscale>
<asrwt>0</asrwt>
<pdfrwt beam="1">  1       21 0.23703931E+00 0.10702200E+04</pdfrwt>
<pdfrwt beam="2">  1        4 0.50922281E-01 0.10702200E+04</pdfrwt>
<totfact> 0.96418971E+00</totfact>
</mgrwt>
</event>
<event>
 6    1  0.1375310E-005  0.1051340E+04  0.7818608E-02  0.9576113E-01
         21   -1    0    0  501  502  0.00000000000E+00  0.00000000000E+00  0.11601891737E+04  0.11601891737E+04  0.00000000000E+00 0.  1.
          4   -1    0    0  502    0 -0.00000000000E+00 -0.00000000000E+00 -0.10322283719E+04  0.10322283719E+04  0.00000000000E+00 0.  1.
    9000010    2    1    2  501    0 -0.32443539346E+03 -0.76990681558E+02  0.87919202735E+03  0.13705086364E+04  0.99706038529E+03 0.  0.
        -13    1    3    3    0    0  0.13920189220E+03 -0.34212691809E+03  0.72652138845E+03  0.81502229044E+03  0.10566000000E+00 0.  1.
          4    1    3    3  501    0 -0.46363728565E+03  0.26513623653E+03  0.15267063889E+03  0.55548634596E+03  0.00000000000E+00 0.  1.
         13    1    1    2    0    0  0.32443539346E+03  0.76990681558E+02 -0.75123122559E+03  0.82190890921E+03  0.10566000000E+00 0. -1.
<mgrwt>
<rscale>  1 0.78897553E+03</rscale>
<asrwt>0</asrwt>
<pdfrwt beam="1">  1       21 0.17849064E+00 0.10513398E+04</pdfrwt>
<pdfrwt beam="2">  1        4 0.15880437E+00 0.10513398E+04</pdfrwt>
<totfact> 0.16180579E+00</totfact>
</mgrwt>
</event>
<event>
 6    1  0.1375310E-005  0.9048720E+03  0.7818608E-02  0.1040217E+00
          4   -1    0    0  502    0 -0.00000000000E+00  0.00000000000E+00  0.66502284665E+03  0.66502284665E+03  0.00000000000E+00 0.  1.
         21   -1    0    0  501  502  0.00000000000E+00 -0.00000000000E+00 -0.33456907242E+03  0.33456907242E+03  0.00000000000E+00 0.  1.
    9000010    2    1    2  501    0  0.86312631710E+01 -0.37325494471E+02  0.32110482934E+03  0.96015709719E+03  0.90406064433E+03 0.  0.
        -13    1    3    3    0    0  0.24010175408E+03 -0.39024123961E+03  0.27795024419E+03  0.53590430752E+03  0.10566000000E+00 0.  1.
          4    1    3    3  501    0 -0.23147049091E+03  0.35291574514E+03  0.43154585155E+02  0.42425278968E+03  0.00000000000E+00 0.  1.
         13    1    1    2    0    0 -0.86312631710E+01  0.37325494471E+02  0.93489448847E+01  0.39434821870E+02  0.10566000000E+00 0. -1.
<mgrwt>
<rscale>  1 0.41045936E+03</rscale>
<asrwt>0</asrwt>
<pdfrwt beam="2">  1       21 0.51472165E-01 0.90487200E+03</pdfrwt>
<pdfrwt beam="1">  1        4 0.10231121E+00 0.90487200E+03</pdfrwt>
<totfact> 0.11223293E+02</totfact>
</mgrwt>
</event>
<event>
 6    1  0.1375310E-005  0.1027879E+04  0.7818608E-02  0.9831598E-01
          4   -1    0    0  502    0 -0.00000000000E+00  0.00000000000E+00  0.54626296497E+03  0.54626296497E+03  0.00000000000E+00 0.  1.
         21   -1    0    0  501  502  0.00000000000E+00 -0.00000000000E+00 -0.71410330528E+03  0.71410330528E+03  0.00000000000E+00 0.  1.
    9000010    2    1    2  501    0 -0.10271574680E+03  0.11143724192E+03 -0.28743010654E+03  0.10673105610E+04  0.10166449645E+04 0.  0.
        -13    1    3    3    0    0  0.25558719792E+03 -0.27861245734E+03 -0.37264083762E+03  0.53085866495E+03  0.10566000000E+00 0.  1.
          4    1    3    3  501    0 -0.35830294471E+03  0.39004969925E+03  0.85210731076E+02  0.53645189604E+03  0.00000000000E+00 0.  1.
         13    1    1    2    0    0  0.10271574680E+03 -0.11143724192E+03  0.11958976623E+03  0.19305570926E+03  0.10566000000E+00 0. -1.
<mgrwt>
<rscale>  1 0.63694048E+03</rscale>
<asrwt>0</asrwt>
<pdfrwt beam="2">  1       21 0.10986205E+00 0.10278793E+04</pdfrwt>
<pdfrwt beam="1">  1        4 0.84040456E-01 0.10278793E+04</pdfrwt>
<totfact> 0.30203976E+01</totfact>
</mgrwt>
</event>
<event>
 6    1  0.1375310E-005  0.1063008E+04  0.7818608E-02  0.9528013E-01
          4   -1    0    0  502    0 -0.00000000000E+00  0.00000000000E+00  0.14288016571E+04  0.14288016571E+04  0.00000000000E+00 0.  1.
         21   -1    0    0  501  502  0.00000000000E+00 -0.00000000000E+00 -0.42618840632E+03  0.42618840632E+03  0.00000000000E+00 0.  1.
    9000010    2    1    2  501    0  0.38008183556E+03  0.26456335512E+02  0.38748982592E+03  0.11314301292E+04  0.99238280552E+03 0.  0.
        -13    1    3    3    0    0 -0.25607455499E+02  0.14969206891E+03 -0.29279263417E+03  0.32983479965E+03  0.10566000000E+00 0.  1.
          4    1    3    3  501    0  0.40568929106E+03 -0.12323573340E+03  0.68028246010E+03  0.80159532956E+03  0.00000000000E+00 0.  1.
         13    1    1    2    0    0 -0.38008183556E+03 -0.26456335512E+02  0.61512342488E+03  0.72355993422E+03  0.10566000000E+00 0. -1.
<mgrwt>
<rscale>  1 0.82249646E+03</rscale>
<asrwt>0</asrwt>
<pdfrwt beam="2">  1       21 0.65567448E-01 0.10630079E+04</pdfrwt>
<pdfrwt beam="1">  1        4 0.21981564E+00 0.10630079E+04</pdfrwt>
<totfact> 0.80151188E+00</totfact>
</mgrwt>
</event>
<event>
 6    1  0.1375310E-005  0.1027726E+04  0.7818608E-02  0.9700719E-01
          4   -1    0    0  502    0 -0.00000000000E+00  0.00000000000E+00  0.34165582160E+03  0.34165582160E+03  0.00000000000E+00 0.  1.
         21   -1    0    0  501  502  0.00000000000E+00 -0.00000000000E+00 -0.11652288494E+04  0.11652288494E+04  0.00000000000E+00 0.  1.
    9000010    2    1    2  501    0  0.23277824582E+03 -0.21372377869E+02 -0.68609867332E+03  0.12356989421E+04  0.10007886868E+04 0.  0.
        -13    1    3    3    0    0  0.55273359758E+03  0.14699978427E+03 -0.15387564027E+03  0.59228463622E+03  0.10566000000E+00 0.  1.
          4    1    3    3  501    0 -0.31995535176E+03 -0.16837216214E+03 -0.53222303305E+03  0.64341430588E+03  0.00000000000E+00 0.  1.
         13    1    1    2    0    0 -0.23277824582E+03  0.21372377869E+02 -0.13747435451E+03  0.27118572893E+03  0.10566000000E+00 0. -1.
<mgrwt>
<rscale>  1 0.70974002E+03</rscale>
<asrwt>0</asrwt>
<pdfrwt beam="2">  1       21 0.17926598E+00 0.10277259E+04</pdfrwt>
<pdfrwt beam="1">  1        4 0.52562434E-01 0.10277259E+04</pdfrwt>
<totfact> 0.22395401E+01</totfact>
</mgrwt>
</event>
<event>
 6    1  0.1375310E-005  0.1229871E+04  0.7818608E-02  0.9233766E-01
         21   -1    0    0  501  502  0.00000000000E+00  0.00000000000E+00  0.87163485903E+03  0.87163485903E+03  0.00000000000E+00 0. -1.
          4   -1    0    0  502    0 -0.00000000000E+00 -0.00000000000E+00 -0.11743306077E+04  0.11743306077E+04  0.00000000000E+00 0.  1.
    9000010    2    1    2  501    0  0.81399220513E+02 -0.70298674666E+03  0.96154855781E+02  0.12336243962E+04  0.10058663905E+04 0.  0.
        -13    1    3    3    0    0  0.38385634873E+03 -0.55590348009E+03 -0.27800806368E+03  0.73052232702E+03  0.10566000000E+00 0.  1.
          4    1    3    3  501    0 -0.30245712822E+03 -0.14708326657E+03  0.37416291946E+03  0.50310206918E+03  0.00000000000E+00 0.  1.
         13    1    1    2    0    0 -0.81399220513E+02  0.70298674666E+03 -0.39885060450E+03  0.81234107058E+03  0.10566000000E+00 0. -1.
<mgrwt>
<rscale>  1 0.10711605E+04</rscale>
<asrwt>0</asrwt>
<pdfrwt beam="1">  1       21 0.13409767E+00 0.12298713E+04</pdfrwt>
<pdfrwt beam="2">  1        4 0.18066625E+00 0.12298713E+04</pdfrwt>
<totfact> 0.24699361E+00</totfact>
</mgrwt>
</event>
<event>
 6    1  0.1375310E-005  0.1185571E+04  0.7818608E-02  0.9294955E-01
         21   -1    0    0  501  502  0.00000000000E+00  0.00000000000E+00  0.15155466585E+04  0.15155466585E+04  0.00000000000E+00 0. -1.
          4   -1    0    0  502    0 -0.00000000000E+00 -0.00000000000E+00 -0.56175870863E+03  0.56175870863E+03  0.00000000000E+00 0.  1.
    9000010    2    1    2  501    0  0.60811114376E+03 -0.16701354256E+03  0.79354408471E+03  0.14266358703E+04  0.10039347616E+04 0.  0.
        -13    1    3    3    0    0  0.78654209586E+03  0.13731622547E+03  0.69956159079E+03  0.10615510561E+04  0.10566000000E+00 0.  1.
          4    1    3    3  501    0 -0.17843095210E+03 -0.30432976803E+03  0.93982493918E+02  0.36508481417E+03  0.00000000000E+00 0.  1.
         13    1    1    2    0    0 -0.60811114376E+03  0.16701354256E+03  0.16024386514E+03  0.65066949678E+03  0.10566000000E+00 0. -1.
<mgrwt>
<rscale>  1 0.10124860E+04</rscale>
<asrwt>0</asrwt>
<pdfrwt beam="1">  1       21 0.23316102E+00 0.11855706E+04</pdfrwt>
<pdfrwt beam="2">  1        4 0.86424418E-01 0.11855706E+04</pdfrwt>
<totfact> 0.31013377E+00</totfact>
</mgrwt>
</event>
<event>
 6    1  0.1375310E-005  0.1026262E+04  0.7818608E-02  0.9668163E-01
          4   -1    0    0  502    0 -0.00000000000E+00  0.00000000000E+00  0.66808343942E+03  0.66808343942E+03  0.00000000000E+00 0.  1.
         21   -1    0    0  501  502  0.00000000000E+00 -0.00000000000E+00 -0.63491349380E+03  0.63491349380E+03  0.00000000000E+00 0.  1.
    9000010    2    1    2  501    0  0.24807716207E+03 -0.84068071630E+02  0.10437596663E+03  0.10315562811E+04  0.99227229113E+03 0.  0.
        -13    1    3    3    0    0 -0.10109645934E+03  0.19674559117E+03 -0.33666503240E+03  0.40283082919E+03  0.10566000000E+00 0.  1.
          4    1    3    3  501    0  0.34917362141E+03 -0.28081366280E+03  0.44104099903E+03  0.62872545195E+03  0.00000000000E+00 0.  1.
         13    1    1    2    0    0 -0.24807716207E+03  0.84068071630E+02 -0.71206021014E+02  0.27144065208E+03  0.10566000000E+00 0. -1.
<mgrwt>
<rscale>  1 0.72944408E+03</rscale>
<asrwt>0</asrwt>
<pdfrwt beam="2">  1       21 0.97678999E-01 0.10262622E+04</pdfrwt>
<pdfrwt beam="1">  1        4 0.10278207E+00 0.10262622E+04</pdfrwt>
<totfact> 0.25150437E+01</totfact>
</mgrwt>
</event>
<event>
 6    1  0.1375310E-005  0.1180295E+04  0.7818608E-02  0.9252087E-01
          4   -1    0    0  502    0 -0.00000000000E+00  0.00000000000E+00  0.20274351153E+04  0.20274351153E+04  0.00000000000E+00 0.  1.
         21   -1    0    0  501  502  0.00000000000E+00 -0.00000000000E+00 -0.48104792305E+03  0.48104792305E+03  0.00000000000E+00 0. -1.
    9000010    2    1    2  501    0  0.54217791322E+02 -0.74621439872E+03  0.67389867745E+03  0.13591302999E+04  0.91286376144E+03 0.  0.
        -13    1    3    3    0    0  0.25320480505E+03 -0.27723873831E+03 -0.13851345061E+03  0.40019992314E+03  0.10566000000E+00 0.  1.
          4    1    3    3  501    0 -0.19898701372E+03 -0.46897566041E+03  0.81241212806E+03  0.95893037678E+03  0.00000000000E+00 0.  1.
         13    1    1    2    0    0 -0.54217791322E+02  0.74621439872E+03  0.87248851485E+03  0.11493527385E+04  0.10566000000E+00 0. -1.
<mgrwt>
<rscale>  1 0.10531606E+04</rscale>
<asrwt>0</asrwt>
<pdfrwt beam="2">  1       21 0.74007374E-01 0.11802948E+04</pdfrwt>
<pdfrwt beam="1">  1        4 0.31191309E+00 0.11802948E+04</pdfrwt>
<totfact> 0.15972957E+00</totfact>
</mgrwt>
</event>
<event>
 6    1  0.1375310E-005  0.1022619E+04  0.7818608E-02  0.9794339E-01
         21   -1    0    0  501  502  0.00000000000E+00  0.00000000000E+00  0.16633283201E+04  0.16633283201E+04  0.00000000000E+00 0.  1.
          4   -1    0    0  502    0 -0.00000000000E+00 -0.00000000000E+00 -0.57106491553E+03  0.57106491553E+03  0.00000000000E+00 0.  1.
    9000010    2    1    2  501    0 -0.15597563154E+02 -0.17318049460E+03  0.14860582957E+04  0.18039176903E+04  0.10077276456E+04 0.  0.
        -13    1    3    3    0    0  0.38852697125E+02 -0.40106250956E+03  0.12361476542E+03  0.42147513574E+03  0.10566000000E+00 0.  1.
          4    1    3    3  501    0 -0.54450260280E+02  0.22788201496E+03  0.13624435302E+04  0.13824425546E+04  0.00000000000E+00 0.  1.
         13    1    1    2    0    0  0.15597563154E+02  0.17318049460E+03 -0.39379489110E+03  0.43047554531E+03  0.10566000000E+00 0. -1.
<mgrwt>
<rscale>  1 0.65667241E+03</rscale>
<asrwt>0</asrwt>
<pdfrwt beam="1">  1       21 0.25589666E+00 0.10226191E+04</pdfrwt>
<pdfrwt beam="2">  1        4 0.87856141E-01 0.10226191E+04</pdfrwt>
<totfact> 0.21869830E+00</totfact>
</mgrwt>
</event>
<event>
 6    1  0.1375310E-005  0.8000646E+03  0.7818608E-02  0.9780179E-01
         21   -1    0    0  501  502  0.00000000000E+00  0.00000000000E+00  0.32467428727E+03  0.32467428727E+03  0.00000000000E+00 0.  1.
          4   -1    0    0  502    0 -0.00000000000E+00 -0.00000000000E+00 -0.14082608751E+04  0.14082608751E+04  0.00000000000E+00 0.  1.
    9000010    2    1    2  501    0  0.13704534373E+03  0.35488344925E+03 -0.28666980231E+03  0.84987227503E+03  0.70383209612E+03 0.  0.
        -13    1    3    3    0    0  0.17119566701E+03 -0.16713606216E+03  0.25607664253E+02  0.24062041333E+03  0.10566000000E+00 0.  1.
          4    1    3    3  501    0 -0.34150323282E+02  0.52201951141E+03 -0.31227746656E+03  0.60925186170E+03  0.00000000000E+00 0.  1.
         13    1    1    2    0    0 -0.13704534373E+03 -0.35488344925E+03 -0.79691678547E+03  0.88306288730E+03  0.10566000000E+00 0. -1.
<mgrwt>
<rscale>  1 0.66437187E+03</rscale>
<asrwt>0</asrwt>
<pdfrwt beam="1">  1       21 0.49949891E-01 0.80006457E+03</pdfrwt>
<pdfrwt beam="2">  1        4 0.21665552E+00 0.80006457E+03</pdfrwt>
<totfact> 0.15821019E+01</totfact>
</mgrwt>
</event>
<event>
 6    1  0.1375310E-005  0.9165693E+03  0.7818608E-02  0.9981097E-01
          4   -1    0    0  502    0 -0.00000000000E+00  0.00000000000E+00  0.12317977218E+04  0.12317977218E+04  0.00000000000E+00 0.  1.
         21   -1    0    0  501  502  0.00000000000E+00 -0.00000000000E+00 -0.22641985212E+03  0.22641985212E+03  0.00000000000E+00 0.  1.
    9000010    2    1    2  501    0 -0.96921977945E+02 -0.89933878552E+02  0.81550823641E+03  0.12268467436E+04  0.90698251157E+03 0.  0.
        -13    1    3    3    0    0  0.32850372275E+03  0.21516077123E+03  0.36654989559E+03  0.53718496857E+03  0.10566000000E+00 0.  1.
          4    1    3    3  501    0 -0.42542570070E+03 -0.30509464978E+03  0.44895834083E+03  0.68966177503E+03  0.00000000000E+00 0.  1.
         13    1    1    2    0    0  0.96921977945E+02  0.89933878552E+02  0.18986963329E+03  0.23137083033E+03  0.10566000000E+00 0. -1.
<mgrwt>
<rscale>  1 0.56486909E+03</rscale>
<asrwt>0</asrwt>
<pdfrwt beam="2">  1       21 0.34833824E-01 0.91656928E+03</pdfrwt>
<pdfrwt beam="1">  1        4 0.18950734E+00 0.91656928E+03</pdfrwt>
<totfact> 0.50156579E+01</totfact>
</mgrwt>
</event>
<event>
 6    1  0.1375310E-005  0.1055684E+04  0.7818608E-02  0.9758292E-01
         21   -1    0    0  501  502  0.00000000000E+00  0.00000000000E+00  0.47842063921E+03  0.47842063921E+03  0.00000000000E+00 0.  1.
          4   -1    0    0  502    0 -0.00000000000E+00 -0.00000000000E+00 -0.90816842705E+03  0.90816842705E+03  0.00000000000E+00 0.  1.
    9000010    2    1    2  501    0 -0.13479966078E+03 -0.11627139275E+03 -0.53109002907E+03  0.11817470629E+04  0.10405669207E+04 0.  0.
        -13    1    3    3    0    0 -0.40686797707E+03  0.33439587065E+03 -0.22408973539E+03  0.57234462498E+03  0.10566000000E+00 0.  1.
          4    1    3    3  501    0  0.27206831630E+03 -0.45066726340E+03 -0.30700029368E+03  0.60940243793E+03  0.00000000000E+00 0.  1.
         13    1    1    2    0    0  0.13479966078E+03  0.11627139275E+03  0.10134224123E+03  0.20484200335E+03  0.10566000000E+00 0. -1.
<mgrwt>
<rscale>  1 0.67649704E+03</rscale>
<asrwt>0</asrwt>
<pdfrwt beam="1">  1       21 0.73603176E-01 0.10556844E+04</pdfrwt>
<pdfrwt beam="2">  1        4 0.13971822E+00 0.10556844E+04</pdfrwt>
<totfact> 0.22733961E+01</totfact>
</mgrwt>
</event>
<event>
 6    1  0.1375310E-005  0.9553814E+03  0.7818608E-02  0.9846447E-01
          4   -1    0    0  502    0 -0.00000000000E+00  0.00000000000E+00  0.37162258408E+03  0.37162258408E+03  0.00000000000E+00 0.  1.
         21   -1    0    0  501  502  0.00000000000E+00 -0.00000000000E+00 -0.16633100293E+04  0.16633100293E+04  0.00000000000E+00 0.  1.
    9000010    2    1    2  501    0 -0.17960611251E+03 -0.89246699757E+01 -0.14882548025E+04  0.17685180070E+04  0.93830462984E+03 0.  0.
        -13    1    3    3    0    0  0.38216580419E+03 -0.13450800287E+02 -0.73857651993E+03  0.83170121611E+03  0.10566000000E+00 0.  1.
          4    1    3    3  501    0 -0.56177191670E+03  0.45261303109E+01 -0.74967828258E+03  0.93681679085E+03  0.00000000000E+00 0.  1.
         13    1    1    2    0    0  0.17960611251E+03  0.89246699757E+01  0.19656735730E+03  0.26641460640E+03  0.10566000000E+00 0. -1.
<mgrwt>
<rscale>  1 0.62928409E+03</rscale>
<asrwt>0</asrwt>
<pdfrwt beam="2">  1       21 0.25589385E+00 0.95538138E+03</pdfrwt>
<pdfrwt beam="1">  1        4 0.57172705E-01 0.95538138E+03</pdfrwt>
<totfact> 0.58076282E+00</totfact>
</mgrwt>
</event>
<event>
 6    1  0.1375310E-005  0.1002177E+04  0.7818608E-02  0.9995091E-01
          4   -1    0    0  502    0 -0.00000000000E+00  0.00000000000E+00  0.84798456768E+03  0.84798456768E+03  0.00000000000E+00 0.  1.
         21   -1    0    0  501  502  0.00000000000E+00 -0.00000000000E+00 -0.35606208496E+03  0.35606208496E+03  0.00000000000E+00 0.  1.
    9000010    2    1    2  501    0 -0.93585095626E+02  0.24636447196E+02  0.44644794562E+03  0.10971211209E+04  0.99749379000E+03 0.  0.
        -13    1    3    3    0    0 -0.33097133060E+03 -0.36476954466E+03  0.54076676982E+02  0.49550291679E+03  0.10566000000E+00 0.  1.
          4    1    3    3  501    0  0.23738623497E+03  0.38940599185E+03  0.39237126864E+03  0.60161820410E+03  0.00000000000E+00 0.  1.
         13    1    1    2    0    0  0.93585095626E+02 -0.24636447196E+02  0.45474537094E+02  0.10692553176E+03  0.10566000000E+00 0. -1.
<mgrwt>
<rscale>  1 0.55866006E+03</rscale>
<asrwt>0</asrwt>
<pdfrwt beam="2">  1       21 0.54778782E-01 0.10021771E+04</pdfrwt>
<pdfrwt beam="1">  1        4 0.13045916E+00 0.10021771E+04</pdfrwt>
<totfact> 0.53094106E+01</totfact>
</mgrwt>
</event>
<event>
 6    1  0.1375310E-005  0.1052376E+04  0.7818608E-02  0.9716665E-01
          4   -1    0    0  502    0 -0.00000000000E+00  0.00000000000E+00  0.86697026745E+03  0.86697026745E+03  0.00000000000E+00 0.  1.
         21   -1    0    0  501  502  0.00000000000E+00 -0.00000000000E+00 -0.54234851527E+03  0.54234851527E+03  0.00000000000E+00 0.  1.
    9000010    2    1    2  501    0 -0.35591888344E+02 -0.20330404202E+03  0.34079137115E+02  0.10529280725E+04  0.10319383810E+04 0.  0.
        -13    1    3    3    0    0  0.84325472596E+02 -0.61110204859E+03 -0.52548121290E+02  0.61912665533E+03  0.10566000000E+00 0.  1.
          4    1    3    3  501    0 -0.11991736094E+03  0.40779800657E+03  0.86627258405E+02  0.43380141715E+03  0.00000000000E+00 0.  1.
         13    1    1    2    0    0  0.35591888344E+02  0.20330404202E+03  0.29054261506E+03  0.35639071024E+03  0.10566000000E+00 0. -1.
<mgrwt>
<rscale>  1 0.70033152E+03</rscale>
<asrwt>0</asrwt>
<pdfrwt beam="2">  1       21 0.83438233E-01 0.10523764E+04</pdfrwt>
<pdfrwt beam="1">  1        4 0.13338004E+00 0.10523764E+04</pdfrwt>
<totfact> 0.19126855E+01</totfact>
</mgrwt>
</event>
<event>
 6    1  0.1375310E-005  0.1045801E+04  0.7818608E-02  0.9615485E-01
          4   -1    0    0  502    0 -0.00000000000E+00  0.00000000000E+00  0.90453395698E+03  0.90453395698E+03  0.00000000000E+00 0.  1.
         21   -1    0    0  501  502  0.00000000000E+00 -0.00000000000E+00 -0.56140841241E+03  0.56140841241E+03  0.00000000000E+00 0.  1.
    9000010    2    1    2  501    0  0.21235402110E+03 -0.20620498527E+03  0.46410108185E+02  0.10468304660E+04  0.10030380851E+04 0.  0.
        -13    1    3    3    0    0 -0.25373968457E+03 -0.37649181797E+03  0.24075986530E+03  0.51390197551E+03  0.10566000000E+00 0.  1.
          4    1    3    3  501    0  0.46609370568E+03  0.17028683269E+03 -0.19434975712E+03  0.53292849047E+03  0.00000000000E+00 0.  1.
         13    1    1    2    0    0 -0.21235402110E+03  0.20620498527E+03  0.29671543639E+03  0.41911190342E+03  0.10566000000E+00 0. -1.
<mgrwt>
<rscale>  1 0.76279703E+03</rscale>
<asrwt>0</asrwt>
<pdfrwt beam="2">  1       21 0.86370525E-01 0.10458012E+04</pdfrwt>
<pdfrwt beam="1">  1        4 0.13915907E+00 0.10458012E+04</pdfrwt>
<totfact> 0.15780686E+01</totfact>
</mgrwt>
</event>
<event>
 6    1  0.1375310E-005  0.1043722E+04  0.7818608E-02  0.9581304E-01
         21   -1    0    0  501  502  0.00000000000E+00  0.00000000000E+00  0.13296291055E+04  0.13296291055E+04  0.00000000000E+00 0.  1.
          4   -1    0    0  502    0 -0.00000000000E+00 -0.00000000000E+00 -0.49905554424E+03  0.49905554424E+03  0.00000000000E+00 0.  1.
    9000010    2    1    2  501    0 -0.26736854666E+03  0.20145131411E+03  0.10069668022E+04  0.14502891447E+04  0.98857872260E+03 0.  0.
        -13    1    3    3    0    0  0.27168094680E+03  0.33855852552E+03  0.22013868898E+03  0.48671702827E+03  0.10566000000E+00 0.  1.
          4    1    3    3  501    0 -0.53904949345E+03 -0.13710721141E+03  0.78682811318E+03  0.96357211640E+03  0.00000000000E+00 0.  1.
         13    1    1    2    0    0  0.26736854666E+03 -0.20145131411E+03 -0.17639324087E+03  0.37839550511E+03  0.10566000000E+00 0. -1.
<mgrwt>
<rscale>  1 0.78546030E+03</rscale>
<asrwt>0</asrwt>
<pdfrwt beam="1">  1       21 0.20455832E+00 0.10437224E+04</pdfrwt>
<pdfrwt beam="2">  1        4 0.76777776E-01 0.10437224E+04</pdfrwt>
<totfact> 0.64414673E+00</totfact>
</mgrwt>
</event>
<event>
 6    1  0.1375310E-005  0.9358728E+03  0.7818608E-02  0.1021346E+00
          4   -1    0    0  502    0 -0.00000000000E+00  0.00000000000E+00  0.23341150068E+03  0.23341150068E+03  0.00000000000E+00 0.  1.
         21   -1    0    0  501  502  0.00000000000E+00 -0.00000000000E+00 -0.10652808194E+04  0.10652808194E+04  0.00000000000E+00 0.  1.
    9000010    2    1    2  501    0 -0.56198931430E+02 -0.22595148807E+02 -0.79352454715E+03  0.12270041529E+04  0.93391066147E+03 0.  0.
        -13    1    3    3    0    0  0.41768156242E+03 -0.95855487253E+02 -0.22753387693E+03  0.48519876168E+03  0.10566000000E+00 0.  1.
          4    1    3    3  501    0 -0.47388049385E+03  0.73260338446E+02 -0.56599067022E+03  0.74180539120E+03  0.00000000000E+00 0.  1.
         13    1    1    2    0    0  0.56198931430E+02  0.22595148807E+02 -0.38344771535E+02  0.71688167166E+02  0.10566000000E+00 0. -1.
<mgrwt>
<rscale>  1 0.47204044E+03</rscale>
<asrwt>0</asrwt>
<pdfrwt beam="2">  1       21 0.16388935E+00 0.93587285E+03</pdfrwt>
<pdfrwt beam="1">  1        4 0.35909463E-01 0.93587285E+03</pdfrwt>
<totfact> 0.64655109E+01</totfact>
</mgrwt>
</event>
<event>
 6    1  0.1375310E-005  0.1136203E+04  0.7818608E-02  0.9429243E-01
          4   -1    0    0  502    0 -0.00000000000E+00  0.00000000000E+00  0.33430180601E+03  0.33430180601E+03  0.00000000000E+00 0.  1.
         21   -1    0    0  501  502  0.00000000000E+00 -0.00000000000E+00 -0.18780809908E+04  0.18780809908E+04  0.00000000000E+00 0. -1.
    9000010    2    1    2  501    0  0.29038106963E+03  0.33259319262E+03 -0.12021825814E+04  0.16541466031E+04  0.10469090830E+04 0.  0.
        -13    1    3    3    0    0  0.33494509194E+03  0.68280781075E+03 -0.96569548841E+03  0.12292202848E+04  0.10566000000E+00 0.  1.
          4    1    3    3  501    0 -0.44564022308E+02 -0.35021461814E+03 -0.23648709300E+03  0.42492631831E+03  0.00000000000E+00 0.  1.
         13    1    1    2    0    0 -0.29038106963E+03 -0.33259319262E+03 -0.34159660342E+03  0.55823619375E+03  0.10566000000E+00 0. -1.
<mgrwt>
<rscale>  1 0.89707654E+03</rscale>
<asrwt>0</asrwt>
<pdfrwt beam="2">  1       21 0.28893555E+00 0.11362033E+04</pdfrwt>
<pdfrwt beam="1">  1        4 0.51431045E-01 0.11362033E+04</pdfrwt>
<totfact> 0.43903793E+00</totfact>
</mgrwt>
</event>
<event>
 6    1  0.1375310E-005  0.9629935E+03  0.7818608E-02  0.9731843E-01
          4   -1    0    0  502    0 -0.00000000000E+00  0.00000000000E+00  0.18238250367E+04  0.18238250367E+04  0.00000000000E+00 0.  1.
         21   -1    0    0  501  502  0.00000000000E+00 -0.00000000000E+00 -0.21703739497E+03  0.21703739497E+03  0.00000000000E+00 0.  1.
    9000010    2    1    2  501    0  0.27527398938E+01  0.25605101676E+03  0.10314557490E+04  0.14111192311E+04  0.92832473918E+03 0.  0.
        -13    1    3    3    0    0  0.24082696678E+03  0.54068139623E+03  0.63959713332E+03  0.87144621422E+03  0.10566000000E+00 0.  1.
          4    1    3    3  501    0 -0.23807422689E+03 -0.28463037948E+03  0.39185861572E+03  0.53967301688E+03  0.00000000000E+00 0.  1.
         13    1    1    2    0    0 -0.27527398938E+01 -0.25605101676E+03  0.57533189265E+03  0.62974320054E+03  0.10566000000E+00 0. -1.
<mgrwt>
<rscale>  1 0.69152110E+03</rscale>
<asrwt>0</asrwt>
<pdfrwt beam="2">  1       21 0.33390370E-01 0.96299352E+03</pdfrwt>
<pdfrwt beam="1">  1        4 0.28058846E+00 0.96299352E+03</pdfrwt>
<totfact> 0.14458263E+01</totfact>
</mgrwt>
</event>
<event>
 6    1  0.1375310E-005  0.1024090E+04  0.7818608E-02  0.9747255E-01
         21   -1    0    0  501  502  0.00000000000E+00  0.00000000000E+00  0.78729546191E+03  0.78729546191E+03  0.00000000000E+00 0.  1.
          4   -1    0    0  502    0 -0.00000000000E+00 -0.00000000000E+00 -0.56787230344E+03  0.56787230344E+03  0.00000000000E+00 0.  1.
    9000010    2    1    2  501    0 -0.12778063747E+03 -0.15680565722E+03  0.38469184391E+03  0.10939596969E+04  0.10039143879E+04 0.  0.
        -13    1    3    3    0    0  0.18555074807E+03 -0.51522786189E+03  0.19056171345E+03  0.57982980915E+03  0.10566000000E+00 0.  1.
          4    1    3    3  501    0 -0.31333138554E+03  0.35842220468E+03  0.19413013046E+03  0.51412988779E+03  0.00000000000E+00 0.  1.
         13    1    1    2    0    0  0.12778063747E+03  0.15680565722E+03 -0.16526868545E+03  0.26120806841E+03  0.10566000000E+00 0. -1.
<mgrwt>
<rscale>  1 0.68271600E+03</rscale>
<asrwt>0</asrwt>
<pdfrwt beam="1">  1       21 0.12112238E+00 0.10240898E+04</pdfrwt>
<pdfrwt beam="2">  1        4 0.87364970E-01 0.10240898E+04</pdfrwt>
<totfact> 0.21492978E+01</totfact>
</mgrwt>
</event>
<event>
 6    1  0.1375310E-005  0.1061614E+04  0.7818608E-02  0.9531381E-01
         21   -1    0    0  501  502  0.00000000000E+00  0.00000000000E+00  0.30557848793E+03  0.30557848793E+03  0.00000000000E+00 0.  1.
          4   -1    0    0  502    0 -0.00000000000E+00 -0.00000000000E+00 -0.18829715393E+04  0.18829715393E+04  0.00000000000E+00 0.  1.
    9000010    2    1    2  501    0  0.36858463628E+03 -0.84075309385E+02 -0.81781649052E+03  0.13400926891E+04  0.99201880594E+03 0.  0.
        -13    1    3    3    0    0 -0.11179010519E+03 -0.67532015857E+02 -0.84846389909E+03  0.85845710435E+03  0.10566000000E+00 0.  1.
          4    1    3    3  501    0  0.48037474147E+03 -0.16543293528E+02  0.30647408575E+02  0.48163558470E+03  0.00000000000E+00 0.  1.
         13    1    1    2    0    0 -0.36858463628E+03  0.84075309385E+02 -0.75957656086E+03  0.84845733819E+03  0.10566000000E+00 0. -1.
<mgrwt>
<rscale>  1 0.82009262E+03</rscale>
<asrwt>0</asrwt>
<pdfrwt beam="1">  1       21 0.47012074E-01 0.10616141E+04</pdfrwt>
<pdfrwt beam="2">  1        4 0.28968793E+00 0.10616141E+04</pdfrwt>
<totfact> 0.61345058E+00</totfact>
</mgrwt>
</event>
<event>
 6    1  0.1375310E-005  0.9900640E+03  0.7818608E-02  0.1023791E+00
         21   -1    0    0  501  502  0.00000000000E+00  0.00000000000E+00  0.59614722050E+03  0.59614722050E+03  0.00000000000E+00 0.  1.
          4   -1    0    0  502    0 -0.00000000000E+00 -0.00000000000E+00 -0.49139211111E+03  0.49139211111E+03  0.00000000000E+00 0.  1.
    9000010    2    1    2  501    0  0.39552062459E+01  0.47362838532E+02  0.17230404936E+03  0.10049454300E+04  0.98892251957E+03 0.  0.
        -13    1    3    3    0    0 -0.89759076403E+02 -0.16227822717E+03  0.54026641607E+03  0.57120812871E+03  0.10566000000E+00 0.  1.
          4    1    3    3  501    0  0.93714282649E+02  0.20964106570E+03 -0.36796236671E+03  0.43373730128E+03  0.00000000000E+00 0.  1.
         13    1    1    2    0    0 -0.39552062459E+01 -0.47362838532E+02 -0.67548939968E+02  0.82593901621E+02  0.10566000000E+00 0. -1.
<mgrwt>
<rscale>  1 0.46343027E+03</rscale>
<asrwt>0</asrwt>
<pdfrwt beam="1">  1       21 0.91714956E-01 0.99006395E+03</pdfrwt>
<pdfrwt beam="2">  1        4 0.75598787E-01 0.99006395E+03</pdfrwt>
<totfact> 0.60481288E+01</totfact>
</mgrwt>
</event>
<event>
 6    1  0.1375310E-005  0.1003259E+04  0.7818608E-02  0.9829350E-01
         21   -1    0    0  501  502  0.00000000000E+00  0.00000000000E+00  0.33618406613E+03  0.33618406613E+03  0.00000000000E+00 0.  1.
          4   -1    0    0  502    0 -0.00000000000E+00 -0.00000000000E+00 -0.13270800006E+04  0.13270800006E+04  0.00000000000E+00 0.  1.
    9000010    2    1    2  501    0  0.11149904762E+03  0.12052275146E+03 -0.45285676240E+03  0.11007305717E+04  0.98973267749E+03 0.  0.
        -13    1    3    3    0    0 -0.22232954129E+03 -0.66312697491E+02  0.22447815625E+03  0.32282851884E+03  0.10566000000E+00 0.  1.
          4    1    3    3  501    0  0.33382858891E+03  0.18683544895E+03 -0.67733491865E+03  0.77790205282E+03  0.00000000000E+00 0.  1.
         13    1    1    2    0    0 -0.11149904762E+03 -0.12052275146E+03 -0.53803917207E+03  0.56253349508E+03  0.10566000000E+00 0. -1.
<mgrwt>
<rscale>  1 0.63810964E+03</rscale>
<asrwt>0</asrwt>
<pdfrwt beam="1">  1       21 0.51720627E-01 0.10032590E+04</pdfrwt>
<pdfrwt beam="2">  1        4 0.20416615E+00 0.10032590E+04</pdfrwt>
<totfact> 0.17245109E+01</totfact>
</mgrwt>
</event>
<event>
 6    1  0.1375310E-005  0.1145559E+04  0.7818608E-02  0.9344163E-01
          4   -1    0    0  502    0 -0.00000000000E+00  0.00000000000E+00  0.32990672136E+04  0.32990672136E+04  0.00000000000E+00 0.  1.
         21   -1    0    0  501  502  0.00000000000E+00 -0.00000000000E+00 -0.24931931000E+03  0.24931931000E+03  0.00000000000E+00 0. -1.
    9000010    2    1    2  501    0  0.18534893579E+03 -0.55428498648E+03  0.24818114733E+04  0.27334399767E+04  0.98525115741E+03 0.  0.
        -13    1    3    3    0    0 -0.36238059041E+03 -0.12204321736E+03  0.13565370894E+04  0.14093995620E+04  0.10566000000E+00 0.  1.
          4    1    3    3  501    0  0.54772952620E+03 -0.43224176912E+03  0.11252743838E+04  0.13240404147E+04  0.00000000000E+00 0.  1.
         13    1    1    2    0    0 -0.18534893579E+03  0.55428498648E+03  0.56793643034E+03  0.81494654690E+03  0.10566000000E+00 0. -1.
<mgrwt>
<rscale>  1 0.96816802E+03</rscale>
<asrwt>0</asrwt>
<pdfrwt beam="2">  1       21 0.38356819E-01 0.11455592E+04</pdfrwt>
<pdfrwt beam="1">  1        4 0.50754877E+00 0.11455592E+04</pdfrwt>
<totfact> 0.27914298E-01</totfact>
</mgrwt>
</event>
<event>
 6    1  0.1375310E-005  0.1005304E+04  0.7818608E-02  0.9866248E-01
         21   -1    0    0  501  502  0.00000000000E+00  0.00000000000E+00  0.69681390594E+03  0.69681390594E+03  0.00000000000E+00 0.  1.
          4   -1    0    0  502    0 -0.00000000000E+00 -0.00000000000E+00 -0.65289453237E+03  0.65289453237E+03  0.00000000000E+00 0.  1.
    9000010    2    1    2  501    0 -0.17471833214E+02 -0.14367890006E+03  0.30554834642E+03  0.10507124151E+04  0.99483058661E+03 0.  0.
        -13    1    3    3    0    0  0.42965557915E+03  0.15222673889E+03  0.22564006851E+03  0.50861611104E+03  0.10566000000E+00 0.  1.
          4    1    3    3  501    0 -0.44712741236E+03 -0.29590563895E+03  0.79908277906E+02  0.54209630410E+03  0.00000000000E+00 0.  1.
         13    1    1    2    0    0  0.17471833214E+02  0.14367890006E+03 -0.26162897285E+03  0.29899602318E+03  0.10566000000E+00 0. -1.
<mgrwt>
<rscale>  1 0.61925329E+03</rscale>
<asrwt>0</asrwt>
<pdfrwt beam="1">  1       21 0.10720214E+00 0.10053043E+04</pdfrwt>
<pdfrwt beam="2">  1        4 0.10044531E+00 0.10053043E+04</pdfrwt>
<totfact> 0.21125645E+01</totfact>
</mgrwt>
</event>
<event>
 6    1  0.1375310E-005  0.7405054E+03  0.7818608E-02  0.1019388E+00
         21   -1    0    0  501  502  0.00000000000E+00  0.00000000000E+00  0.45609975842E+03  0.45609975842E+03  0.00000000000E+00 0.  1.
          4   -1    0    0  502    0 -0.00000000000E+00 -0.00000000000E+00 -0.46069037220E+03  0.46069037220E+03  0.00000000000E+00 0.  1.
    9000010    2    1    2  501    0  0.14544613741E+02  0.12891429529E+03  0.10378963360E+03  0.74774359707E+03  0.72905264391E+03 0.  0.
        -13    1    3    3    0    0 -0.11502716169E+03  0.38226731838E+03  0.20111362822E+03  0.44699692755E+03  0.10566000000E+00 0.  1.
          4    1    3    3  501    0  0.12957177543E+03 -0.25335302309E+03 -0.97323994613E+02  0.30074666951E+03  0.00000000000E+00 0.  1.
         13    1    1    2    0    0 -0.14544613741E+02 -0.12891429529E+03 -0.10838024738E+03  0.16904653355E+03  0.10566000000E+00 0. -1.
<mgrwt>
<rscale>  1 0.47908010E+03</rscale>
<asrwt>0</asrwt>
<pdfrwt beam="1">  1       21 0.70169194E-01 0.74050537E+03</pdfrwt>
<pdfrwt beam="2">  1        4 0.70875442E-01 0.74050537E+03</pdfrwt>
<totfact> 0.13384517E+02</totfact>
</mgrwt>
</event>
<event>
 6    1  0.1375310E-005  0.1038380E+04  0.7818608E-02  0.9722449E-01
         21   -1    0    0  501  502  0.00000000000E+00  0.00000000000E+00  0.26300134545E+03  0.26300134545E+03  0.00000000000E+00 0.  1.
          4   -1    0    0  502    0 -0.00000000000E+00 -0.00000000000E+00 -0.14929485508E+04  0.14929485508E+04  0.00000000000E+00 0.  1.
    9000010    2    1    2  501    0 -0.15066466848E+03  0.14735490434E+03 -0.96644024962E+03  0.14185343705E+04  0.10167692432E+04 0.  0.
        -13    1    3    3    0    0 -0.43928826367E+01 -0.43085034039E+03 -0.30495522114E+03  0.52787215431E+03  0.10566000000E+00 0.  1.
          4    1    3    3  501    0 -0.14627178585E+03  0.57820524473E+03 -0.66148502848E+03  0.89066221615E+03  0.00000000000E+00 0.  1.
         13    1    1    2    0    0  0.15066466848E+03 -0.14735490434E+03 -0.26350695571E+03  0.33741552577E+03  0.10566000000E+00 0. -1.
<mgrwt>
<rscale>  1 0.69695765E+03</rscale>
<asrwt>0</asrwt>
<pdfrwt beam="1">  1       21 0.40461745E-01 0.10383800E+04</pdfrwt>
<pdfrwt beam="2">  1        4 0.22968440E+00 0.10383800E+04</pdfrwt>
<totfact> 0.19905276E+01</totfact>
</mgrwt>
</event>
<event>
 6    1  0.1375310E-005  0.1028100E+04  0.7818608E-02  0.9643355E-01
         21   -1    0    0  501  502  0.00000000000E+00  0.00000000000E+00  0.22801244888E+04  0.22801244888E+04  0.00000000000E+00 0.  1.
          4   -1    0    0  502    0 -0.00000000000E+00 -0.00000000000E+00 -0.25002290801E+03  0.25002290801E+03  0.00000000000E+00 0.  1.
    9000010    2    1    2  501    0  0.24301019034E+03 -0.14572743617E+03  0.19953868012E+04  0.22446731154E+04  0.98828056263E+03 0.  0.
        -13    1    3    3    0    0 -0.26493765660E+03 -0.24681654788E+02  0.15049753826E+04  0.15283167405E+04  0.10566000000E+00 0.  1.
          4    1    3    3  501    0  0.50794784693E+03 -0.12104578138E+03  0.49041141863E+03  0.71635637494E+03  0.00000000000E+00 0.  1.
         13    1    1    2    0    0 -0.24301019034E+03  0.14572743617E+03  0.34714779615E+02  0.28547428141E+03  0.10566000000E+00 0. -1.
<mgrwt>
<rscale>  1 0.74491959E+03</rscale>
<asrwt>0</asrwt>
<pdfrwt beam="1">  1       21 0.35078837E+00 0.10280997E+04</pdfrwt>
<pdfrwt beam="2">  1        4 0.38465064E-01 0.10280997E+04</pdfrwt>
<totfact> 0.33496377E+00</totfact>
</mgrwt>
</event>
<event>
 6    1  0.1375310E-005  0.1339845E+04  0.7818608E-02  0.9104864E-01
          4   -1    0    0  502    0 -0.00000000000E+00  0.00000000000E+00  0.13239155992E+04  0.13239155992E+04  0.00000000000E+00 0.  1.
         21   -1    0    0  501  502  0.00000000000E+00 -0.00000000000E+00 -0.93789130873E+03  0.93789130873E+03  0.00000000000E+00 0. -1.
    9000010    2    1    2  501    0 -0.61206923166E+03  0.64443026452E+03  0.23391857257E+03  0.13601111329E+04  0.10026291862E+04 0.  0.
        -13    1    3    3    0    0 -0.71910777364E+03  0.35844794095E+03  0.50731482659E+03  0.95024694734E+03  0.10566000000E+00 0.  1.
          4    1    3    3  501    0  0.10703854198E+03  0.28598232357E+03 -0.27339625401E+03  0.40986418552E+03  0.00000000000E+00 0.  1.
         13    1    1    2    0    0  0.61206923166E+03 -0.64443026452E+03  0.15210571787E+03  0.90169577505E+03  0.10566000000E+00 0. -1.
<mgrwt>
<rscale>  1 0.12091739E+04</rscale>
<asrwt>0</asrwt>
<pdfrwt beam="2">  1       21 0.14429097E+00 0.13398449E+04</pdfrwt>
<pdfrwt beam="1">  1        4 0.20367932E+00 0.13398449E+04</pdfrwt>
<totfact> 0.13917876E+00</totfact>
</mgrwt>
</event>
<event>
 6    1  0.1375310E-005  0.1009838E+04  0.7818608E-02  0.9787222E-01
         21   -1    0    0  501  502  0.00000000000E+00  0.00000000000E+00  0.25052760825E+03  0.25052760825E+03  0.00000000000E+00 0. -1.
          4   -1    0    0  502    0 -0.00000000000E+00 -0.00000000000E+00 -0.14327320356E+04  0.14327320356E+04  0.00000000000E+00 0.  1.
    9000010    2    1    2  501    0 -0.17734363846E+03 -0.52127127332E+02 -0.10438045613E+04  0.14523429108E+04  0.99277588855E+03 0.  0.
        -13    1    3    3    0    0  0.59666861532E+02 -0.22521596768E+03 -0.11241648186E+04  0.11480544051E+04  0.10566000000E+00 0.  1.
          4    1    3    3  501    0 -0.23701049999E+03  0.17308884035E+03  0.80360257331E+02  0.30428850572E+03  0.00000000000E+00 0.  1.
         13    1    1    2    0    0  0.17734363846E+03  0.52127127332E+02 -0.13839986607E+03  0.23091673304E+03  0.10566000000E+00 0. -1.
<mgrwt>
<rscale>  1 0.66052791E+03</rscale>
<asrwt>0</asrwt>
<pdfrwt beam="1">  1       21 0.38542708E-01 0.10098376E+04</pdfrwt>
<pdfrwt beam="2">  1        4 0.22042032E+00 0.10098376E+04</pdfrwt>
<totfact> 0.25294992E+01</totfact>
</mgrwt>
</event>
<event>
 6    1  0.1375310E-005  0.1003917E+04  0.7818608E-02  0.9699021E-01
          4   -1    0    0  502    0 -0.00000000000E+00  0.00000000000E+00  0.30157527432E+03  0.30157527432E+03  0.00000000000E+00 0.  1.
         21   -1    0    0  501  502  0.00000000000E+00 -0.00000000000E+00 -0.13880364971E+04  0.13880364971E+04  0.00000000000E+00 0.  1.
    9000010    2    1    2  501    0  0.21342732418E+03 -0.13439759092E+03 -0.68448181252E+03  0.12150578834E+04  0.97171825820E+03 0.  0.
        -13    1    3    3    0    0 -0.35485608366E+03 -0.23158598765E+03 -0.23922665153E+03  0.48660488258E+03  0.10566000000E+00 0.  1.
          4    1    3    3  501    0  0.56828340784E+03  0.97188396731E+02 -0.44525516098E+03  0.72845300086E+03  0.00000000000E+00 0.  1.
         13    1    1    2    0    0 -0.21342732418E+03  0.13439759092E+03 -0.40197941030E+03  0.47455388800E+03  0.10566000000E+00 0. -1.
<mgrwt>
<rscale>  1 0.71075121E+03</rscale>
<asrwt>0</asrwt>
<pdfrwt beam="2">  1       21 0.21354408E+00 0.10039175E+04</pdfrwt>
<pdfrwt beam="1">  1        4 0.46396196E-01 0.10039175E+04</pdfrwt>
<totfact> 0.16876607E+01</totfact>
</mgrwt>
</event>
<event>
 6    1  0.1375310E-005  0.9988341E+03  0.7818608E-02  0.9734868E-01
         21   -1    0    0  501  502  0.00000000000E+00  0.00000000000E+00  0.57285888306E+03  0.57285888306E+03  0.00000000000E+00 0.  1.
          4   -1    0    0  502    0 -0.00000000000E+00 -0.00000000000E+00 -0.65799283828E+03  0.65799283828E+03  0.00000000000E+00 0.  1.
    9000010    2    1    2  501    0 -0.22522614716E+03  0.29718842674E+02 -0.95837119601E+02  0.10034213015E+04  0.97265591440E+03 0.  0.
        -13    1    3    3    0    0  0.16740697692E+02  0.27688431691E+03  0.34525564203E+03  0.44288446058E+03  0.10566000000E+00 0.  1.
          4    1    3    3  501    0 -0.24196684486E+03 -0.24716547423E+03 -0.44109276163E+03  0.56053684091E+03  0.00000000000E+00 0.  1.
         13    1    1    2    0    0  0.22522614716E+03 -0.29718842674E+02  0.10703164380E+02  0.22743041984E+03  0.10566000000E+00 0. -1.
<mgrwt>
<rscale>  1 0.68978198E+03</rscale>
<asrwt>0</asrwt>
<pdfrwt beam="1">  1       21 0.88132136E-01 0.99883410E+03</pdfrwt>
<pdfrwt beam="2">  1        4 0.10122967E+00 0.99883410E+03</pdfrwt>
<totfact> 0.33597468E+01</totfact>
</mgrwt>
</event>
<event>
 6    1  0.1375310E-005  0.1037086E+04  0.7818608E-02  0.9651230E-01
         21   -1    0    0  501  502  0.00000000000E+00  0.00000000000E+00  0.57812019936E+03  0.57812019936E+03  0.00000000000E+00 0.  1.
          4   -1    0    0  502    0 -0.00000000000E+00 -0.00000000000E+00 -0.88422613788E+03  0.88422613788E+03  0.00000000000E+00 0.  1.
    9000010    2    1    2  501    0 -0.21561807362E+03  0.16047095379E+03 -0.47941655610E+03  0.11425359840E+04  0.10016517159E+04 0.  0.
        -13    1    3    3    0    0 -0.17595614042E+03  0.54232568106E+03 -0.58990596578E+02  0.57319944988E+03  0.10566000000E+00 0.  1.
          4    1    3    3  501    0 -0.39661933204E+02 -0.38185472728E+03 -0.42042595952E+03  0.56933653416E+03  0.00000000000E+00 0.  1.
         13    1    1    2    0    0  0.21561807362E+03 -0.16047095379E+03  0.17331061759E+03  0.31981035320E+03  0.10566000000E+00 0. -1.
<mgrwt>
<rscale>  1 0.73996308E+03</rscale>
<asrwt>0</asrwt>
<pdfrwt beam="1">  1       21 0.88941569E-01 0.10370864E+04</pdfrwt>
<pdfrwt beam="2">  1        4 0.13603479E+00 0.10370864E+04</pdfrwt>
<totfact> 0.15621384E+01</totfact>
</mgrwt>
</event>
<event>
 6    1  0.1375310E-005  0.1023690E+04  0.7818608E-02  0.1014672E+00
         21   -1    0    0  501  502  0.00000000000E+00  0.00000000000E+00  0.50144646311E+03  0.50144646311E+03  0.00000000000E+00 0.  1.
          4   -1    0    0  502    0 -0.00000000000E+00 -0.00000000000E+00 -0.61005122298E+03  0.61005122298E+03  0.00000000000E+00 0.  1.
    9000010    2    1    2  501    0  0.30739974500E+02 -0.47630491599E+02 -0.15861087847E+03  0.10359051413E+04  0.10221195827E+04 0.  0.
        -13    1    3    3    0    0  0.25575340438E+03 -0.21365353133E+03  0.33250322392E+03  0.47076112879E+03  0.10566000000E+00 0.  1.
          4    1    3    3  501    0 -0.22501342988E+03  0.16602303973E+03 -0.49111410239E+03  0.56514401254E+03  0.00000000000E+00 0.  1.
         13    1    1    2    0    0 -0.30739974500E+02  0.47630491599E+02  0.50006118602E+02  0.75592544764E+02  0.10566000000E+00 0. -1.
<mgrwt>
<rscale>  1 0.49659331E+03</rscale>
<asrwt>0</asrwt>
<pdfrwt beam="1">  1       21 0.77145609E-01 0.10236904E+04</pdfrwt>
<pdfrwt beam="2">  1        4 0.93854035E-01 0.10236904E+04</pdfrwt>
<totfact> 0.55093997E+01</totfact>
</mgrwt>
</event>
<event>
 6    1  0.1375310E-005  0.1118464E+04  0.7818608E-02  0.9402054E-01
          4   -1    0    0  502    0 -0.00000000000E+00  0.00000000000E+00  0.15499718194E+04  0.15499718194E+04  0.00000000000E+00 0.  1.
         21   -1    0    0  501  502  0.00000000000E+00 -0.00000000000E+00 -0.54934698931E+03  0.54934698931E+03  0.00000000000E+00 0.  1.
    9000010    2    1    2  501    0 -0.36261872446E+03 -0.35854386095E+03  0.17956568103E+03  0.11327867725E+04  0.99544763731E+03 0.  0.
        -13    1    3    3    0    0 -0.62558518942E+03 -0.82175621780E+02 -0.12672316862E+03  0.64355919282E+03  0.10566000000E+00 0.  1.
          4    1    3    3  501    0  0.26296646495E+03 -0.27636823917E+03  0.30628884965E+03  0.48922757970E+03  0.00000000000E+00 0.  1.
         13    1    1    2    0    0  0.36261872446E+03  0.35854386095E+03  0.82105914904E+03  0.96653203617E+03  0.10566000000E+00 0. -1.
<mgrwt>
<rscale>  1 0.91906840E+03</rscale>
<asrwt>0</asrwt>
<pdfrwt beam="2">  1       21 0.84514922E-01 0.11184641E+04</pdfrwt>
<pdfrwt beam="1">  1        4 0.23845720E+00 0.11184641E+04</pdfrwt>
<totfact> 0.33648835E+00</totfact>
</mgrwt>
</event>
<event>
 6    1  0.1375310E-005  0.1003394E+04  0.7818608E-02  0.1031072E+00
          4   -1    0    0  502    0 -0.00000000000E+00  0.00000000000E+00  0.14880625573E+03  0.14880625573E+03  0.00000000000E+00 0.  1.
         21   -1    0    0  501  502  0.00000000000E+00 -0.00000000000E+00 -0.19760572389E+04  0.19760572389E+04  0.00000000000E+00 0.  1.
    9000010    2    1    2  501    0  0.14928909137E+02 -0.33576906632E+02 -0.18310185408E+04  0.20879245363E+04  0.10027211434E+04 0.  0.
        -13    1    3    3    0    0  0.28309580601E+02 -0.51526577432E+03 -0.83765257045E+03  0.98385064440E+03  0.10566000000E+00 0.  1.
          4    1    3    3  501    0 -0.13380671464E+02  0.48168886768E+03 -0.99336597038E+03  0.11040738919E+04  0.00000000000E+00 0.  1.
         13    1    1    2    0    0 -0.14928909137E+02  0.33576906632E+02  0.37675576813E+01  0.36938958322E+02  0.10566000000E+00 0. -1.
<mgrwt>
<rscale>  1 0.43894203E+03</rscale>
<asrwt>0</asrwt>
<pdfrwt beam="2">  1       21 0.30400880E+00 0.10033942E+04</pdfrwt>
<pdfrwt beam="1">  1        4 0.22893270E-01 0.10033942E+04</pdfrwt>
<totfact> 0.18222741E+01</totfact>
</mgrwt>
</event>
<event>
 6    1  0.1375310E-005  0.1081270E+04  0.7818608E-02  0.9697819E-01
         21   -1    0    0  501  502  0.00000000000E+00  0.00000000000E+00  0.12667192235E+04  0.12667192235E+04  0.00000000000E+00 0.  1.
          4   -1    0    0  502    0 -0.00000000000E+00 -0.00000000000E+00 -0.44237570148E+03  0.44237570148E+03  0.00000000000E+00 0.  1.
    9000010    2    1    2  501    0 -0.19327936247E+03  0.61023115612E+02  0.97548052953E+03  0.14562646681E+04  0.10621034730E+04 0.  0.
        -13    1    3    3    0    0 -0.36047036872E+03  0.45085616166E+03  0.27983239497E+03  0.64149539801E+03  0.10566000000E+00 0.  1.
          4    1    3    3  501    0  0.16719100625E+03 -0.38983304605E+03  0.69564813456E+03  0.81476927009E+03  0.00000000000E+00 0.  1.
         13    1    1    2    0    0  0.19327936247E+03 -0.61023115612E+02 -0.15113700750E+03  0.25283025688E+03  0.10566000000E+00 0. -1.
<mgrwt>
<rscale>  1 0.71146798E+03</rscale>
<asrwt>0</asrwt>
<pdfrwt beam="1">  1       21 0.19487988E+00 0.10812699E+04</pdfrwt>
<pdfrwt beam="2">  1        4 0.68057801E-01 0.10812699E+04</pdfrwt>
<totfact> 0.98121202E+00</totfact>
</mgrwt>
</event>
<event>
 6    1  0.1375310E-005  0.1190622E+04  0.7818608E-02  0.9287841E-01
         21   -1    0    0  501  502  0.00000000000E+00  0.00000000000E+00  0.65628011002E+03  0.65628011002E+03  0.00000000000E+00 0. -1.
          4   -1    0    0  502    0 -0.00000000000E+00 -0.00000000000E+00 -0.15953037586E+04  0.15953037586E+04  0.00000000000E+00 0.  1.
    9000010    2    1    2  501    0 -0.17213895157E+03  0.61544420900E+03 -0.97081064492E+02  0.11945735947E+04  0.10045784923E+04 0.  0.
        -13    1    3    3    0    0  0.23377243164E+03  0.72744583252E+03 -0.77646407716E+01  0.76412517944E+03  0.10566000000E+00 0.  1.
          4    1    3    3  501    0 -0.40591138320E+03 -0.11200162352E+03 -0.89316423720E+02  0.43044841530E+03  0.00000000000E+00 0.  1.
         13    1    1    2    0    0  0.17213895157E+03 -0.61544420900E+03 -0.84194258410E+03  0.10570102739E+04  0.10566000000E+00 0. -1.
<mgrwt>
<rscale>  1 0.10190997E+04</rscale>
<asrwt>0</asrwt>
<pdfrwt beam="1">  1       21 0.10096617E+00 0.11906222E+04</pdfrwt>
<pdfrwt beam="2">  1        4 0.24543135E+00 0.11906222E+04</pdfrwt>
<totfact> 0.19547130E+00</totfact>
</mgrwt>
</event>
<event>
 6    1  0.1375310E-005  0.1029755E+04  0.7818608E-02  0.9670703E-01
         21   -1    0    0  501  502  0.00000000000E+00  0.00000000000E+00  0.38386419530E+03  0.38386419530E+03  0.00000000000E+00 0.  1.
          4   -1    0    0  502    0 -0.00000000000E+00 -0.00000000000E+00 -0.11540815610E+04  0.11540815610E+04  0.00000000000E+00 0.  1.
    9000010    2    1    2  501    0  0.84626945542E+02  0.24273527689E+03 -0.76150028332E+03  0.12807335225E+04  0.99715271624E+03 0.  0.
        -13    1    3    3    0    0 -0.39339791562E+02  0.56838239401E+03 -0.73683891972E+03  0.93141707618E+03  0.10566000000E+00 0.  1.
          4    1    3    3  501    0  0.12396673710E+03 -0.32564711711E+03 -0.24661363599E+02  0.34931644629E+03  0.00000000000E+00 0.  1.
         13    1    1    2    0    0 -0.84626945542E+02 -0.24273527689E+03 -0.87170824092E+01  0.25721223386E+03  0.10566000000E+00 0. -1.
<mgrwt>
<rscale>  1 0.72788212E+03</rscale>
<asrwt>0</asrwt>
<pdfrwt beam="1">  1       21 0.59056030E-01 0.10297552E+04</pdfrwt>
<pdfrwt beam="2">  1        4 0.17755101E+00 0.10297552E+04</pdfrwt>
<totfact> 0.19467499E+01</totfact>
</mgrwt>
</event>
<event>
 6    1  0.1375310E-005  0.1013274E+04  0.7818608E-02  0.9830980E-01
         21   -1    0    0  501  502  0.00000000000E+00  0.00000000000E+00  0.39093230608E+03  0.39093230608E+03  0.00000000000E+00 0.  1.
          4   -1    0    0  502    0 -0.00000000000E+00 -0.00000000000E+00 -0.91044437930E+03  0.91044437930E+03  0.00000000000E+00 0.  1.
    9000010    2    1    2  501    0 -0.13934253773E+03 -0.75583480761E+02 -0.35692382678E+03  0.10742992659E+04  0.10007972268E+04 0.  0.
        -13    1    3    3    0    0  0.20558386333E+03 -0.41921208082E+03 -0.35644684620E+03  0.58741625692E+03  0.10566000000E+00 0.  1.
          4    1    3    3  501    0 -0.34492640107E+03  0.34362860006E+03 -0.47698058083E+00  0.48688300899E+03  0.00000000000E+00 0.  1.
         13    1    1    2    0    0  0.13934253773E+03  0.75583480761E+02 -0.16258824644E+03  0.22707741946E+03  0.10566000000E+00 0. -1.
<mgrwt>
<rscale>  1 0.63726132E+03</rscale>
<asrwt>0</asrwt>
<pdfrwt beam="1">  1       21 0.60143432E-01 0.10132740E+04</pdfrwt>
<pdfrwt beam="2">  1        4 0.14006836E+00 0.10132740E+04</pdfrwt>
<totfact> 0.35870105E+01</totfact>
</mgrwt>
</event>
<event>
 6    1  0.1375310E-005  0.1033144E+04  0.7818608E-02  0.9845770E-01
          4   -1    0    0  502    0 -0.00000000000E+00  0.00000000000E+00  0.62696953835E+03  0.62696953835E+03  0.00000000000E+00 0.  1.
         21   -1    0    0  501  502  0.00000000000E+00 -0.00000000000E+00 -0.61218419837E+03  0.61218419837E+03  0.00000000000E+00 0.  1.
    9000010    2    1    2  501    0  0.88409007938E+02  0.11177848674E+03 -0.12359334363E+03  0.10405102017E+04  0.10232671119E+04 0.  0.
        -13    1    3    3    0    0 -0.45918569965E+03  0.68646432728E+02 -0.15723430829E+03  0.49019024711E+03  0.10566000000E+00 0.  1.
          4    1    3    3  501    0  0.54759470759E+03  0.43132054014E+02  0.33640964667E+02  0.55031995454E+03  0.00000000000E+00 0.  1.
         13    1    1    2    0    0 -0.88409007938E+02 -0.11177848674E+03  0.13837868360E+03  0.19864353506E+03  0.10566000000E+00 0. -1.
<mgrwt>
<rscale>  1 0.62963073E+03</rscale>
<asrwt>0</asrwt>
<pdfrwt beam="2">  1       21 0.94182185E-01 0.10331438E+04</pdfrwt>
<pdfrwt beam="1">  1        4 0.96456852E-01 0.10331438E+04</pdfrwt>
<totfact> 0.32032306E+01</totfact>
</mgrwt>
</event>
<event>
 6    1  0.1375310E-005  0.1199873E+04  0.7818608E-02  0.9300869E-01
         21   -1    0    0  501  502  0.00000000000E+00  0.00000000000E+00  0.51134080786E+03  0.51134080786E+03  0.00000000000E+00 0. -1.
          4   -1    0    0  502    0 -0.00000000000E+00 -0.00000000000E+00 -0.20975897815E+04  0.20975897815E+04  0.00000000000E+00 0.  1.
    9000010    2    1    2  501    0  0.57848836039E+03  0.14062199521E+03 -0.16161241784E+04  0.20128468136E+04  0.10417637000E+04 0.  0.
        -13    1    3    3    0    0  0.61191375289E+03  0.26701164763E+03 -0.17205394082E+04  0.18455323154E+04  0.10566000000E+00 0.  1.
          4    1    3    3  501    0 -0.33425392493E+02 -0.12638965242E+03  0.10441522981E+03  0.16731449823E+03  0.00000000000E+00 0.  1.
         13    1    1    2    0    0 -0.57848836039E+03 -0.14062199521E+03  0.29875204745E+02  0.59608377572E+03  0.10566000000E+00 0. -1.
<mgrwt>
<rscale>  1 0.10070285E+04</rscale>
<asrwt>0</asrwt>
<pdfrwt beam="1">  1       21 0.78667816E-01 0.11998729E+04</pdfrwt>
<pdfrwt beam="2">  1        4 0.32270612E+00 0.11998729E+04</pdfrwt>
<totfact> 0.11810009E+00</totfact>
</mgrwt>
</event>
<event>
 6    1  0.1375310E-005  0.7219629E+03  0.7818608E-02  0.1037705E+00
         21   -1    0    0  501  502  0.00000000000E+00  0.00000000000E+00  0.86886920638E+02  0.86886920638E+02  0.00000000000E+00 0.  1.
          4   -1    0    0  502    0 -0.00000000000E+00 -0.00000000000E+00 -0.18939008594E+04  0.18939008594E+04  0.00000000000E+00 0.  1.
    9000010    2    1    2  501    0 -0.75811895938E+02 -0.28970030472E+02 -0.15238600774E+04  0.16862324769E+04  0.71738673285E+03 0.  0.
        -13    1    3    3    0    0 -0.38955941606E+03  0.63163472467E+02 -0.80828760864E+03  0.89948598230E+03  0.10566000000E+00 0.  1.
          4    1    3    3  501    0  0.31374752012E+03 -0.92133502939E+02 -0.71557246871E+03  0.78674649457E+03  0.00000000000E+00 0.  1.
         13    1    1    2    0    0  0.75811895938E+02  0.28970030472E+02 -0.28315386145E+03  0.29455530321E+03  0.10566000000E+00 0. -1.
<mgrwt>
<rscale>  1 0.41804188E+03</rscale>
<asrwt>0</asrwt>
<pdfrwt beam="1">  1       21 0.13367219E-01 0.72196290E+03</pdfrwt>
<pdfrwt beam="2">  1        4 0.29136936E+00 0.72196290E+03</pdfrwt>
<totfact> 0.75627077E+01</totfact>
</mgrwt>
</event>
<event>
 6    1  0.1375310E-005  0.8564008E+03  0.7818608E-02  0.9914084E-01
          4   -1    0    0  502    0 -0.00000000000E+00  0.00000000000E+00  0.31339146155E+03  0.31339146155E+03  0.00000000000E+00 0.  1.
         21   -1    0    0  501  502  0.00000000000E+00 -0.00000000000E+00 -0.13793239153E+04  0.13793239153E+04  0.00000000000E+00 0.  1.
    9000010    2    1    2  501    0  0.92977607667E+02 -0.17782563537E+03 -0.11829607458E+04  0.14604172399E+04  0.83255966532E+03 0.  0.
        -13    1    3    3    0    0  0.26560879023E+03 -0.45135305215E+03 -0.83234498989E+03  0.98339503786E+03  0.10566000000E+00 0.  1.
          4    1    3    3  501    0 -0.17263118256E+03  0.27352741678E+03 -0.35061575589E+03  0.47702220200E+03  0.00000000000E+00 0.  1.
         13    1    1    2    0    0 -0.92977607667E+02  0.17782563537E+03  0.11702829207E+03  0.23229813695E+03  0.10566000000E+00 0. -1.
<mgrwt>
<rscale>  1 0.59583527E+03</rscale>
<asrwt>0</asrwt>
<pdfrwt beam="2">  1       21 0.21220368E+00 0.85640083E+03</pdfrwt>
<pdfrwt beam="1">  1        4 0.48214072E-01 0.85640083E+03</pdfrwt>
<totfact> 0.16233089E+01</totfact>
</mgrwt>
</event>
<event>
 6    1  0.1375310E-005  0.1056952E+04  0.7818608E-02  0.9578920E-01
         21   -1    0    0  501  502  0.00000000000E+00  0.00000000000E+00  0.11847430266E+04  0.11847430266E+04  0.00000000000E+00 0.  1.
          4   -1    0    0  502    0 -0.00000000000E+00 -0.00000000000E+00 -0.77477655698E+03  0.77477655698E+03  0.00000000000E+00 0.  1.
    9000010    2    1    2  501    0  0.28079489884E+03 -0.16365880451E+03  0.88867870763E+03  0.13809045150E+04  0.10057422407E+04 0.  0.
        -13    1    3    3    0    0  0.43387471879E+03  0.26394933278E+03  0.17928182351E+03  0.53857079877E+03  0.10566000000E+00 0.  1.
          4    1    3    3  501    0 -0.15307981995E+03 -0.42760813729E+03  0.70939688412E+03  0.84233371626E+03  0.00000000000E+00 0.  1.
         13    1    1    2    0    0 -0.28079489884E+03  0.16365880451E+03 -0.47871223803E+03  0.57861506852E+03  0.10566000000E+00 0. -1.
<mgrwt>
<rscale>  1 0.78707268E+03</rscale>
<asrwt>0</asrwt>
<pdfrwt beam="1">  1       21 0.18226816E+00 0.10569520E+04</pdfrwt>
<pdfrwt beam="2">  1        4 0.11919639E+00 0.10569520E+04</pdfrwt>
<totfact> 0.32197722E+00</totfact>
</mgrwt>
</event>
<event>
 6    1  0.1375310E-005  0.1020092E+04  0.7818608E-02  0.9879744E-01
          4   -1    0    0  502    0 -0.00000000000E+00  0.00000000000E+00  0.12699683586E+04  0.12699683586E+04  0.00000000000E+00 0.  1.
         21   -1    0    0  501  502  0.00000000000E+00 -0.00000000000E+00 -0.29045049998E+03  0.29045049998E+03  0.00000000000E+00 0.  1.
    9000010    2    1    2  501    0  0.95859120512E+02  0.91640221179E+02  0.66134739966E+03  0.12157170262E+04  0.10114349231E+04 0.  0.
        -13    1    3    3    0    0  0.93858981378E+02  0.34961970068E+03 -0.12902442812E+03  0.38430555253E+03  0.10566000000E+00 0.  1.
          4    1    3    3  501    0  0.20001391342E+01 -0.25797947950E+03  0.79037182777E+03  0.83141147366E+03  0.00000000000E+00 0.  1.
         13    1    1    2    0    0 -0.95859120512E+02 -0.91640221179E+02  0.31817045893E+03  0.34470183235E+03  0.10566000000E+00 0. -1.
<mgrwt>
<rscale>  1 0.61253115E+03</rscale>
<asrwt>0</asrwt>
<pdfrwt beam="2">  1       21 0.44684693E-01 0.10200919E+04</pdfrwt>
<pdfrwt beam="1">  1        4 0.19537974E+00 0.10200919E+04</pdfrwt>
<totfact> 0.26960366E+01</totfact>
</mgrwt>
</event>
<event>
 6    1  0.1375310E-005  0.9040006E+03  0.7818608E-02  0.9633280E-01
          4   -1    0    0  502    0 -0.00000000000E+00  0.00000000000E+00  0.68647091829E+03  0.68647091829E+03  0.00000000000E+00 0.  1.
         21   -1    0    0  501  502  0.00000000000E+00 -0.00000000000E+00 -0.69361879151E+03  0.69361879151E+03  0.00000000000E+00 0.  1.
    9000010    2    1    2  501    0  0.37386323688E+03 -0.21508328544E+03 -0.16851860989E+03  0.91957362389E+03  0.79447000467E+03 0.  0.
        -13    1    3    3    0    0 -0.14614248561E+03  0.88546842342E+02  0.15960204887E+03  0.23381829389E+03  0.10566000000E+00 0.  1.
          4    1    3    3  501    0  0.52000572249E+03 -0.30363012778E+03 -0.32812065876E+03  0.68575533000E+03  0.00000000000E+00 0.  1.
         13    1    1    2    0    0 -0.37386323688E+03  0.21508328544E+03  0.16137073667E+03  0.46051608591E+03  0.10566000000E+00 0. -1.
<mgrwt>
<rscale>  1 0.75132138E+03</rscale>
<asrwt>0</asrwt>
<pdfrwt beam="2">  1       21 0.10671058E+00 0.90400062E+03</pdfrwt>
<pdfrwt beam="1">  1        4 0.10561091E+00 0.90400062E+03</pdfrwt>
<totfact> 0.19121750E+01</totfact>
</mgrwt>
</event>
<event>
 6    1  0.1375310E-005  0.1101691E+04  0.7818608E-02  0.9422196E-01
          4   -1    0    0  502    0 -0.00000000000E+00  0.00000000000E+00  0.58840977942E+03  0.58840977942E+03  0.00000000000E+00 0.  1.
         21   -1    0    0  501  502  0.00000000000E+00 -0.00000000000E+00 -0.12836646427E+04  0.12836646427E+04  0.00000000000E+00 0.  1.
    9000010    2    1    2  501    0 -0.22047338057E+02  0.49612561406E+03 -0.80377991124E+03  0.13637394860E+04  0.98341066195E+03 0.  0.
        -13    1    3    3    0    0 -0.10483389017E+03  0.78803704146E+03 -0.62778150586E+03  0.10129670051E+04  0.10566000000E+00 0.  1.
          4    1    3    3  501    0  0.82786552113E+02 -0.29191142740E+03 -0.17599840537E+03  0.35077248089E+03  0.00000000000E+00 0.  1.
         13    1    1    2    0    0  0.22047338057E+02 -0.49612561406E+03  0.10852504796E+03  0.50833493608E+03  0.10566000000E+00 0. -1.
<mgrwt>
<rscale>  1 0.90271340E+03</rscale>
<asrwt>0</asrwt>
<pdfrwt beam="2">  1       21 0.19748687E+00 0.11016911E+04</pdfrwt>
<pdfrwt beam="1">  1        4 0.90524583E-01 0.11016911E+04</pdfrwt>
<totfact> 0.48797647E+00</totfact>
</mgrwt>
</event>
<event>
 6    1  0.1375310E-005  0.1006081E+04  0.7818608E-02  0.9834711E-01
          4   -1    0    0  502    0 -0.00000000000E+00  0.00000000000E+00  0.46703141849E+03  0.46703141849E+03  0.00000000000E+00 0.  1.
         21   -1    0    0  501  502  0.00000000000E+00 -0.00000000000E+00 -0.76387451577E+03  0.76387451577E+03  0.00000000000E+00 0.  1.
    9000010    2    1    2  501    0  0.37002783013E+02 -0.15564976877E+03 -0.34538745244E+03  0.10637155576E+04  0.99327853027E+03 0.  0.
        -13    1    3    3    0    0 -0.46037072308E+03 -0.52873397750E+02 -0.26779058024E+02  0.46417014981E+03  0.10566000000E+00 0.  1.
          4    1    3    3  501    0  0.49737350609E+03 -0.10277637102E+03 -0.31860839441E+03  0.59954540778E+03  0.00000000000E+00 0.  1.
         13    1    1    2    0    0 -0.37002783013E+02  0.15564976877E+03  0.48544355158E+02  0.16719037667E+03  0.10566000000E+00 0. -1.
<mgrwt>
<rscale>  1 0.63532546E+03</rscale>
<asrwt>0</asrwt>
<pdfrwt beam="2">  1       21 0.11751916E+00 0.10060807E+04</pdfrwt>
<pdfrwt beam="1">  1        4 0.71850988E-01 0.10060807E+04</pdfrwt>
<totfact> 0.36463512E+01</totfact>
</mgrwt>
</event>
<event>
 6    1  0.1375310E-005  0.1218155E+04  0.7818608E-02  0.9246005E-01
          4   -1    0    0  502    0 -0.00000000000E+00  0.00000000000E+00  0.51846174960E+03  0.51846174960E+03  0.00000000000E+00 0.  1.
         21   -1    0    0  501  502  0.00000000000E+00 -0.00000000000E+00 -0.18840728499E+04  0.18840728499E+04  0.00000000000E+00 0. -1.
    9000010    2    1    2  501    0 -0.31125834398E+03 -0.62256062802E+03 -0.56842857616E+03  0.13442513292E+04  0.99971850918E+03 0.  0.
        -13    1    3    3    0    0 -0.12850616920E+03 -0.66718579914E+03 -0.79759277058E+03  0.10477618837E+04  0.10566000000E+00 0.  1.
          4    1    3    3  501    0 -0.18275217477E+03  0.44625171124E+02  0.22916419442E+03  0.29648944549E+03  0.00000000000E+00 0.  1.
         13    1    1    2    0    0  0.31125834398E+03  0.62256062802E+03 -0.79718252413E+03  0.10582832703E+04  0.10566000000E+00 0. -1.
<mgrwt>
<rscale>  1 0.10590940E+04</rscale>
<asrwt>0</asrwt>
<pdfrwt beam="2">  1       21 0.28985737E+00 0.12181546E+04</pdfrwt>
<pdfrwt beam="1">  1        4 0.79763345E-01 0.12181546E+04</pdfrwt>
<totfact> 0.16213723E+00</totfact>
</mgrwt>
</event>
<event>
 6    1  0.1375310E-005  0.1002098E+04  0.7818608E-02  0.1010468E+00
          4   -1    0    0  502    0 -0.00000000000E+00  0.00000000000E+00  0.38142637886E+03  0.38142637886E+03  0.00000000000E+00 0.  1.
         21   -1    0    0  501  502  0.00000000000E+00 -0.00000000000E+00 -0.85179350073E+03  0.85179350073E+03  0.00000000000E+00 0.  1.
    9000010    2    1    2  501    0  0.46806737457E+02  0.50376766134E+02 -0.53747392941E+03  0.11371364574E+04  0.99973616956E+03 0.  0.
        -13    1    3    3    0    0 -0.15199620362E+03 -0.44248594501E+03 -0.20944285337E+03  0.51260411375E+03  0.10566000000E+00 0.  1.
          4    1    3    3  501    0  0.19880294107E+03  0.49286271114E+03 -0.32803107604E+03  0.62453234365E+03  0.00000000000E+00 0.  1.
         13    1    1    2    0    0 -0.46806737457E+02 -0.50376766134E+02  0.67106807534E+02  0.96083422186E+02  0.10566000000E+00 0. -1.
<mgrwt>
<rscale>  1 0.51289148E+03</rscale>
<asrwt>0</asrwt>
<pdfrwt beam="2">  1       21 0.13104515E+00 0.10020983E+04</pdfrwt>
<pdfrwt beam="1">  1        4 0.58680981E-01 0.10020983E+04</pdfrwt>
<totfact> 0.42867965E+01</totfact>
</mgrwt>
</event>
<event>
 6    1  0.1375310E-005  0.1041258E+04  0.7818608E-02  0.9625485E-01
         21   -1    0    0  501  502  0.00000000000E+00  0.00000000000E+00  0.18612048158E+04  0.18612048158E+04  0.00000000000E+00 0.  1.
          4   -1    0    0  502    0 -0.00000000000E+00 -0.00000000000E+00 -0.24215197387E+03  0.24215197387E+03  0.00000000000E+00 0.  1.
    9000010    2    1    2  501    0 -0.28308236893E+03  0.62196433924E+02  0.11444300925E+04  0.15472355894E+04  0.10001068485E+04 0.  0.
        -13    1    3    3    0    0 -0.23624023309E+03 -0.41480049295E+03  0.87670633134E+03  0.99823990066E+03  0.10566000000E+00 0.  1.
          4    1    3    3  501    0 -0.46842135838E+02  0.47699692688E+03  0.26772376119E+03  0.54899568873E+03  0.00000000000E+00 0.  1.
         13    1    1    2    0    0  0.28308236893E+03 -0.62196433924E+02  0.47462274944E+03  0.55612120031E+03  0.10566000000E+00 0. -1.
<mgrwt>
<rscale>  1 0.75632118E+03</rscale>
<asrwt>0</asrwt>
<pdfrwt beam="1">  1       21 0.28633919E+00 0.10412578E+04</pdfrwt>
<pdfrwt beam="2">  1        4 0.37254151E-01 0.10412578E+04</pdfrwt>
<totfact> 0.90163206E+00</totfact>
</mgrwt>
</event>
<event>
 6    1  0.1375310E-005  0.1044917E+04  0.7818608E-02  0.9614815E-01
          4   -1    0    0  502    0 -0.00000000000E+00  0.00000000000E+00  0.70009832019E+03  0.70009832019E+03  0.00000000000E+00 0.  1.
         21   -1    0    0  501  502  0.00000000000E+00 -0.00000000000E+00 -0.77853786628E+03  0.77853786628E+03  0.00000000000E+00 0.  1.
    9000010    2    1    2  501    0 -0.11784166680E+03  0.27308977722E+03 -0.32286206442E+03  0.10936594814E+04  0.10016918007E+04 0.  0.
        -13    1    3    3    0    0  0.34357414916E+03 -0.14670232421E+03 -0.28283692698E+03  0.46857390700E+03  0.10566000000E+00 0.  1.
          4    1    3    3  501    0 -0.46141581595E+03  0.41979210143E+03 -0.40025137443E+02  0.62508557435E+03  0.00000000000E+00 0.  1.
         13    1    1    2    0    0  0.11784166680E+03 -0.27308977722E+03  0.24442251833E+03  0.38497670512E+03  0.10566000000E+00 0. -1.
<mgrwt>
<rscale>  1 0.76323370E+03</rscale>
<asrwt>0</asrwt>
<pdfrwt beam="2">  1       21 0.11977506E+00 0.10449168E+04</pdfrwt>
<pdfrwt beam="1">  1        4 0.10770743E+00 0.10449168E+04</pdfrwt>
<totfact> 0.13372338E+01</totfact>
</mgrwt>
</event>
<event>
 6    1  0.1375310E-005  0.1020332E+04  0.7818608E-02  0.9725395E-01
         21   -1    0    0  501  502  0.00000000000E+00  0.00000000000E+00  0.16841331975E+04  0.16841331975E+04  0.00000000000E+00 0.  1.
          4   -1    0    0  502    0 -0.00000000000E+00 -0.00000000000E+00 -0.24731395446E+03  0.24731395446E+03  0.00000000000E+00 0.  1.
    9000010    2    1    2  501    0  0.17570711971E+02  0.21925139234E+03  0.13562498732E+04  0.16972008340E+04  0.99634183360E+03 0.  0.
        -13    1    3    3    0    0 -0.32559412861E+03 -0.24340970098E+03  0.34404951467E+03  0.53256914934E+03  0.10566000000E+00 0.  1.
          4    1    3    3  501    0  0.34316484058E+03  0.46266109332E+03  0.10122003585E+04  0.11646316847E+04  0.00000000000E+00 0.  1.
         13    1    1    2    0    0 -0.17570711971E+02 -0.21925139234E+03  0.80569369841E+02  0.23424631797E+03  0.10566000000E+00 0. -1.
<mgrwt>
<rscale>  1 0.69524712E+03</rscale>
<asrwt>0</asrwt>
<pdfrwt beam="1">  1       21 0.25909741E+00 0.10203318E+04</pdfrwt>
<pdfrwt beam="2">  1        4 0.38048302E-01 0.10203318E+04</pdfrwt>
<totfact> 0.12841641E+01</totfact>
</mgrwt>
</event>
<event>
 6    1  0.1375310E-005  0.1008316E+04  0.7818608E-02  0.9930974E-01
         21   -1    0    0  501  502  0.00000000000E+00  0.00000000000E+00  0.60278927931E+03  0.60278927931E+03  0.00000000000E+00 0.  1.
          4   -1    0    0  502    0 -0.00000000000E+00 -0.00000000000E+00 -0.87943826513E+03  0.87943826513E+03  0.00000000000E+00 0.  1.
    9000010    2    1    2  501    0  0.10062434128E+03  0.58658629927E+02  0.16831855443E+03  0.10222686159E+04  0.10015667199E+04 0.  0.
        -13    1    3    3    0    0 -0.23285437285E+03  0.25545882875E+03  0.43239381725E+03  0.55357456273E+03  0.10566000000E+00 0.  1.
          4    1    3    3  501    0  0.33347871413E+03 -0.19680019882E+03 -0.26407526282E+03  0.46869405316E+03  0.00000000000E+00 0.  1.
         13    1    1    2    0    0 -0.10062434128E+03 -0.58658629927E+02 -0.44496754025E+03  0.45995892856E+03  0.10566000000E+00 0. -1.
<mgrwt>
<rscale>  1 0.58783375E+03</rscale>
<asrwt>0</asrwt>
<pdfrwt beam="1">  1       21 0.92736812E-01 0.10083164E+04</pdfrwt>
<pdfrwt beam="2">  1        4 0.13529819E+00 0.10083164E+04</pdfrwt>
<totfact> 0.14361300E+01</totfact>
</mgrwt>
</event>
<event>
 6    1  0.1375310E-005  0.1049780E+04  0.7818608E-02  0.9608744E-01
         21   -1    0    0  501  502  0.00000000000E+00  0.00000000000E+00  0.51134717182E+03  0.51134717182E+03  0.00000000000E+00 0.  1.
          4   -1    0    0  502    0 -0.00000000000E+00 -0.00000000000E+00 -0.95886993656E+03  0.95886993656E+03  0.00000000000E+00 0.  1.
    9000010    2    1    2  501    0 -0.18702160132E+03 -0.23388200176E+03 -0.17294999064E+03  0.10639313844E+04  0.10061612302E+04 0.  0.
        -13    1    3    3    0    0  0.24293024914E+03 -0.27589602908E+03  0.26160008415E+03  0.45118548293E+03  0.10566000000E+00 0.  1.
          4    1    3    3  501    0 -0.42995185046E+03  0.42014027323E+02 -0.43455007479E+03  0.61274590142E+03  0.00000000000E+00 0.  1.
         13    1    1    2    0    0  0.18702160132E+03  0.23388200176E+03 -0.27457277410E+03  0.40628572402E+03  0.10566000000E+00 0. -1.
<mgrwt>
<rscale>  1 0.76720147E+03</rscale>
<asrwt>0</asrwt>
<pdfrwt beam="1">  1       21 0.78668796E-01 0.10497801E+04</pdfrwt>
<pdfrwt beam="2">  1        4 0.14751845E+00 0.10497801E+04</pdfrwt>
<totfact> 0.16861931E+01</totfact>
</mgrwt>
</event>
<event>
 6    1  0.1375310E-005  0.1031434E+04  0.7818608E-02  0.9691576E-01
          4   -1    0    0  502    0 -0.00000000000E+00  0.00000000000E+00  0.54602902807E+03  0.54602902807E+03  0.00000000000E+00 0.  1.
         21   -1    0    0  501  502  0.00000000000E+00 -0.00000000000E+00 -0.19778140568E+04  0.19778140568E+04  0.00000000000E+00 0.  1.
    9000010    2    1    2  501    0  0.21496475660E+03 -0.10319588016E+03 -0.18061938502E+04  0.20799498398E+04  0.10034918411E+04 0.  0.
        -13    1    3    3    0    0  0.41912283878E+03 -0.41183942015E+03 -0.14575093312E+04  0.15714990053E+04  0.10566000000E+00 0.  1.
          4    1    3    3  501    0 -0.20415808218E+03  0.30864353999E+03 -0.34868451904E+03  0.50845083452E+03  0.00000000000E+00 0.  1.
         13    1    1    2    0    0 -0.21496475660E+03  0.10319588016E+03  0.37440882148E+03  0.44389324508E+03  0.10566000000E+00 0. -1.
<mgrwt>
<rscale>  1 0.71520587E+03</rscale>
<asrwt>0</asrwt>
<pdfrwt beam="2">  1       21 0.30427909E+00 0.10314335E+04</pdfrwt>
<pdfrwt beam="1">  1        4 0.84004465E-01 0.10314335E+04</pdfrwt>
<totfact> 0.12076893E+00</totfact>
</mgrwt>
</event>
<event>
 6    1  0.1375310E-005  0.1021960E+04  0.7818608E-02  0.9749531E-01
          4   -1    0    0  502    0 -0.00000000000E+00  0.00000000000E+00  0.18771610814E+04  0.18771610814E+04  0.00000000000E+00 0.  1.
         21   -1    0    0  501  502  0.00000000000E+00 -0.00000000000E+00 -0.21209668974E+03  0.21209668974E+03  0.00000000000E+00 0.  1.
    9000010    2    1    2  501    0  0.16438641089E+03  0.11741390515E+03  0.11637912198E+04  0.15488100667E+04  0.10017952397E+04 0.  0.
        -13    1    3    3    0    0 -0.10372507832E+03  0.33871918514E+03  0.21621753479E+02  0.35490433872E+03  0.10566000000E+00 0.  1.
          4    1    3    3  501    0  0.26811148921E+03 -0.22130527999E+03  0.11421694663E+04  0.11939057280E+04  0.00000000000E+00 0.  1.
         13    1    1    2    0    0 -0.16438641089E+03 -0.11741390515E+03  0.50127317187E+03  0.54044770442E+03  0.10566000000E+00 0. -1.
<mgrwt>
<rscale>  1 0.68142785E+03</rscale>
<asrwt>0</asrwt>
<pdfrwt beam="2">  1       21 0.32630261E-01 0.10219602E+04</pdfrwt>
<pdfrwt beam="1">  1        4 0.28879400E+00 0.10219602E+04</pdfrwt>
<totfact> 0.13392883E+01</totfact>
</mgrwt>
</event>
<event>
 6    1  0.1375310E-005  0.1037591E+04  0.7818608E-02  0.9648038E-01
          4   -1    0    0  502    0 -0.00000000000E+00  0.00000000000E+00  0.76391869447E+03  0.76391869447E+03  0.00000000000E+00 0.  1.
         21   -1    0    0  501  502  0.00000000000E+00 -0.00000000000E+00 -0.57540785759E+03  0.57540785759E+03  0.00000000000E+00 0.  1.
    9000010    2    1    2  501    0 -0.73394932720E+02  0.26119028840E+03  0.60544063042E+02  0.10393554046E+04  0.10014923318E+04 0.  0.
        -13    1    3    3    0    0 -0.48419735618E+03 -0.77856859359E+02 -0.57529080392E+02  0.49377968421E+03  0.10566000000E+00 0.  1.
          4    1    3    3  501    0  0.41080242346E+03  0.33904714776E+03  0.11807314343E+03  0.54557572044E+03  0.00000000000E+00 0.  1.
         13    1    1    2    0    0  0.73394932720E+02 -0.26119028840E+03  0.12796677384E+03  0.29997114741E+03  0.10566000000E+00 0. -1.
<mgrwt>
<rscale>  1 0.74196689E+03</rscale>
<asrwt>0</asrwt>
<pdfrwt beam="2">  1       21 0.88524286E-01 0.10375905E+04</pdfrwt>
<pdfrwt beam="1">  1        4 0.11752595E+00 0.10375905E+04</pdfrwt>
<totfact> 0.22950439E+01</totfact>
</mgrwt>
</event>
<event>
 6    1  0.1375310E-005  0.1476227E+04  0.7818608E-02  0.8973796E-01
          4   -1    0    0  502    0 -0.00000000000E+00  0.00000000000E+00  0.99872559894E+03  0.99872559894E+03  0.00000000000E+00 0.  1.
         21   -1    0    0  501  502  0.00000000000E+00 -0.00000000000E+00 -0.27289771444E+04  0.27289771444E+04  0.00000000000E+00 0. -1.
    9000010    2    1    2  501    0  0.95157569526E+03  0.55932315103E+03 -0.20970759356E+04  0.25645609482E+04  0.98025847944E+03 0.  0.
        -13    1    3    3    0    0  0.83715212026E+03  0.27571070387E+03 -0.20791020822E+04  0.22582084811E+04  0.10566000000E+00 0.  1.
          4    1    3    3  501    0  0.11442357501E+03  0.28361244716E+03 -0.17973853345E+02  0.30635246711E+03  0.00000000000E+00 0.  1.
         13    1    1    2    0    0 -0.95157569526E+03 -0.55932315103E+03  0.36682439015E+03  0.11631417951E+04  0.10566000000E+00 0. -1.
<mgrwt>
<rscale>  1 0.13727321E+04</rscale>
<asrwt>0</asrwt>
<pdfrwt beam="2">  1       21 0.41984263E+00 0.14762267E+04</pdfrwt>
<pdfrwt beam="1">  1        4 0.15365010E+00 0.14762267E+04</pdfrwt>
<totfact> 0.44219481E-02</totfact>
</mgrwt>
</event>
<event>
 6    1  0.1375310E-005  0.1097880E+04  0.7818608E-02  0.9443057E-01
         21   -1    0    0  501  502  0.00000000000E+00  0.00000000000E+00  0.90164745957E+03  0.90164745957E+03  0.00000000000E+00 0.  1.
          4   -1    0    0  502    0 -0.00000000000E+00 -0.00000000000E+00 -0.11521428196E+04  0.11521428196E+04  0.00000000000E+00 0.  1.
    9000010    2    1    2  501    0  0.31094664182E+03  0.34706589515E+03  0.47120253689E+03  0.11947265940E+04  0.99408111036E+03 0.  0.
        -13    1    3    3    0    0  0.31341836251E+03 -0.73855356047E+02  0.65926251332E+03  0.73369800068E+03  0.10566000000E+00 0.  1.
          4    1    3    3  501    0 -0.24717206931E+01  0.42092125119E+03 -0.18805997643E+03  0.46102859330E+03  0.00000000000E+00 0.  1.
         13    1    1    2    0    0 -0.31094664182E+03 -0.34706589515E+03 -0.72169789692E+03  0.85906368519E+03  0.10566000000E+00 0. -1.
<mgrwt>
<rscale>  1 0.88615396E+03</rscale>
<asrwt>0</asrwt>
<pdfrwt beam="1">  1       21 0.13871499E+00 0.10978797E+04</pdfrwt>
<pdfrwt beam="2">  1        4 0.17725274E+00 0.10978797E+04</pdfrwt>
<totfact> 0.24218606E+00</totfact>
</mgrwt>
</event>
<event>
 6    1  0.1375310E-005  0.9706320E+03  0.7818608E-02  0.9661413E-01
          4   -1    0    0  502    0 -0.00000000000E+00  0.00000000000E+00  0.54585079465E+03  0.54585079465E+03  0.00000000000E+00 0.  1.
         21   -1    0    0  501  502  0.00000000000E+00 -0.00000000000E+00 -0.99478188968E+03  0.99478188968E+03  0.00000000000E+00 0.  1.
    9000010    2    1    2  501    0 -0.30596181061E+02  0.31526251736E+03 -0.64750905274E+03  0.11667880674E+04  0.91749650666E+03 0.  0.
        -13    1    3    3    0    0  0.26392242938E+03  0.12736000867E+03 -0.74792757539E+03  0.80328780006E+03  0.10566000000E+00 0.  1.
          4    1    3    3  501    0 -0.29451861045E+03  0.18790250869E+03  0.10041852265E+03  0.36350026735E+03  0.00000000000E+00 0.  1.
         13    1    1    2    0    0  0.30596181061E+02 -0.31526251736E+03  0.19857795771E+03  0.37384461692E+03  0.10566000000E+00 0. -1.
<mgrwt>
<rscale>  1 0.73361458E+03</rscale>
<asrwt>0</asrwt>
<pdfrwt beam="2">  1       21 0.15304337E+00 0.97063197E+03</pdfrwt>
<pdfrwt beam="1">  1        4 0.83977046E-01 0.97063197E+03</pdfrwt>
<totfact> 0.12606427E+01</totfact>
</mgrwt>
</event>
<event>
 6    1  0.1375310E-005  0.9770592E+03  0.7818608E-02  0.9939843E-01
          4   -1    0    0  502    0 -0.00000000000E+00  0.00000000000E+00  0.57325226417E+03  0.57325226417E+03  0.00000000000E+00 0.  1.
         21   -1    0    0  501  502  0.00000000000E+00 -0.00000000000E+00 -0.58100840549E+03  0.58100840549E+03  0.00000000000E+00 0.  1.
    9000010    2    1    2  501    0  0.54221770940E+02 -0.11200383589E+03  0.10963243237E+03  0.98319066032E+03  0.96910254597E+03 0.  0.
        -13    1    3    3    0    0 -0.32111379950E+03 -0.13163362906E+03  0.38419843538E+03  0.51773538940E+03  0.10566000000E+00 0.  1.
          4    1    3    3  501    0  0.37533557044E+03  0.19629793169E+02 -0.27456600301E+03  0.46545527092E+03  0.00000000000E+00 0.  1.
         13    1    1    2    0    0 -0.54221770940E+02  0.11200383589E+03 -0.11738857369E+03  0.17107000934E+03  0.10566000000E+00 0. -1.
<mgrwt>
<rscale>  1 0.58368583E+03</rscale>
<asrwt>0</asrwt>
<pdfrwt beam="2">  1       21 0.89385908E-01 0.97705916E+03</pdfrwt>
<pdfrwt beam="1">  1        4 0.88192656E-01 0.97705916E+03</pdfrwt>
<totfact> 0.45160128E+01</totfact>
</mgrwt>
</event>
<event>
 6    1  0.1375310E-005  0.9876379E+03  0.7818608E-02  0.9804417E-01
          4   -1    0    0  502    0 -0.00000000000E+00  0.00000000000E+00  0.14640332720E+04  0.14640332720E+04  0.00000000000E+00 0.  1.
         21   -1    0    0  501  502  0.00000000000E+00 -0.00000000000E+00 -0.28189324479E+03  0.28189324479E+03  0.00000000000E+00 0.  1.
    9000010    2    1    2  501    0 -0.15318466537E+03  0.10679072277E+03  0.65093184526E+03  0.11828528592E+04  0.96982411761E+03 0.  0.
        -13    1    3    3    0    0 -0.34914517984E+03 -0.21308242840E+03 -0.25011127372E+02  0.40979512632E+03  0.10566000000E+00 0.  1.
          4    1    3    3  501    0  0.19596051447E+03  0.31987315117E+03  0.67594297263E+03  0.77305773285E+03  0.00000000000E+00 0.  1.
         13    1    1    2    0    0  0.15318466537E+03 -0.10679072277E+03  0.53120818199E+03  0.56307365766E+03  0.10566000000E+00 0. -1.
<mgrwt>
<rscale>  1 0.65126016E+03</rscale>
<asrwt>0</asrwt>
<pdfrwt beam="2">  1       21 0.43368193E-01 0.98763790E+03</pdfrwt>
<pdfrwt beam="1">  1        4 0.22523588E+00 0.98763790E+03</pdfrwt>
<totfact> 0.18444636E+01</totfact>
</mgrwt>
</event>
<event>
 6    1  0.1375310E-005  0.1120103E+04  0.7818608E-02  0.9406998E-01
          4   -1    0    0  502    0 -0.00000000000E+00  0.00000000000E+00  0.15812986372E+04  0.15812986372E+04  0.00000000000E+00 0.  1.
         21   -1    0    0  501  502  0.00000000000E+00 -0.00000000000E+00 -0.42220329520E+03  0.42220329520E+03  0.00000000000E+00 0. -1.
    9000010    2    1    2  501    0 -0.34518291926E+03  0.36010349111E+03  0.67156468636E+03  0.13059978655E+04  0.10028985615E+04 0.  0.
        -13    1    3    3    0    0 -0.66059739956E+03  0.18678946384E+03  0.65009379826E+03  0.94546347672E+03  0.10566000000E+00 0.  1.
          4    1    3    3  501    0  0.31541448030E+03  0.17331402726E+03  0.21470888103E+02  0.36053438874E+03  0.00000000000E+00 0.  1.
         13    1    1    2    0    0  0.34518291926E+03 -0.36010349111E+03  0.48753065568E+03  0.69750406698E+03  0.10566000000E+00 0. -1.
<mgrwt>
<rscale>  1 0.91501975E+03</rscale>
<asrwt>0</asrwt>
<pdfrwt beam="2">  1       21 0.64954354E-01 0.11201033E+04</pdfrwt>
<pdfrwt beam="1">  1        4 0.24327671E+00 0.11201033E+04</pdfrwt>
<totfact> 0.57859071E+00</totfact>
</mgrwt>
</event>
<event>
 6    1  0.1375310E-005  0.1061374E+04  0.7818608E-02  0.9612752E-01
          4   -1    0    0  502    0 -0.00000000000E+00  0.00000000000E+00  0.25535616358E+04  0.25535616358E+04  0.00000000000E+00 0.  1.
         21   -1    0    0  501  502  0.00000000000E+00 -0.00000000000E+00 -0.23695626926E+03  0.23695626926E+03  0.00000000000E+00 0.  1.
    9000010    2    1    2  501    0  0.27506533122E+03  0.77647544546E+02  0.10533997482E+04  0.14953814169E+04  0.10221665592E+04 0.  0.
        -13    1    3    3    0    0  0.23186276087E+03  0.19238305257E+03 -0.11357848974E+03  0.32198084305E+03  0.10566000000E+00 0.  1.
          4    1    3    3  501    0  0.43202570349E+02 -0.11473550803E+03  0.11669782379E+04  0.11734005738E+04  0.00000000000E+00 0.  1.
         13    1    1    2    0    0 -0.27506533122E+03 -0.77647544546E+02  0.12632056184E+04  0.12951364882E+04  0.10566000000E+00 0. -1.
<mgrwt>
<rscale>  1 0.76457919E+03</rscale>
<asrwt>0</asrwt>
<pdfrwt beam="2">  1       21 0.36454813E-01 0.10613739E+04</pdfrwt>
<pdfrwt beam="1">  1        4 0.39285562E+00 0.10613739E+04</pdfrwt>
<totfact> 0.22643955E+00</totfact>
</mgrwt>
</event>
<event>
 6    1  0.1375310E-005  0.8080713E+03  0.7818608E-02  0.9819230E-01
         21   -1    0    0  501  502  0.00000000000E+00  0.00000000000E+00  0.19975550996E+03  0.19975550996E+03  0.00000000000E+00 0.  1.
          4   -1    0    0  502    0 -0.00000000000E+00 -0.00000000000E+00 -0.16066688603E+04  0.16066688603E+04  0.00000000000E+00 0.  1.
    9000010    2    1    2  501    0 -0.27415796525E+03 -0.17413083521E+03 -0.98896596361E+03  0.12771190076E+04  0.73992914848E+03 0.  0.
        -13    1    3    3    0    0 -0.46302181920E+03 -0.29225596985E+03 -0.50727182382E+03  0.74640972084E+03  0.10566000000E+00 0.  1.
          4    1    3    3  501    0  0.18886385396E+03  0.11812513464E+03 -0.48169413979E+03  0.53070928678E+03  0.00000000000E+00 0.  1.
         13    1    1    2    0    0  0.27415796525E+03  0.17413083521E+03 -0.41794738671E+03  0.52930536263E+03  0.10566000000E+00 0. -1.
<mgrwt>
<rscale>  1 0.64340684E+03</rscale>
<asrwt>0</asrwt>
<pdfrwt beam="1">  1       21 0.30731618E-01 0.80807134E+03</pdfrwt>
<pdfrwt beam="2">  1        4 0.24717982E+00 0.80807134E+03</pdfrwt>
<totfact> 0.27982750E+01</totfact>
</mgrwt>
</event>
<event>
 6    1  0.1375310E-005  0.1154619E+04  0.7818608E-02  0.9323661E-01
         21   -1    0    0  501  502  0.00000000000E+00  0.00000000000E+00  0.43100116480E+03  0.43100116480E+03  0.00000000000E+00 0. -1.
          4   -1    0    0  502    0 -0.00000000000E+00 -0.00000000000E+00 -0.22678098721E+04  0.22678098721E+04  0.00000000000E+00 0.  1.
    9000010    2    1    2  501    0  0.34104639944E+03  0.51161369660E+03 -0.56343247034E+03  0.12847571931E+04  0.97728382545E+03 0.  0.
        -13    1    3    3    0    0 -0.38007973488E+02  0.48227854046E+03  0.12380704153E+03  0.49936498810E+03  0.10566000000E+00 0.  1.
          4    1    3    3  501    0  0.37905437293E+03  0.29335156137E+02 -0.68723951187E+03  0.78539220501E+03  0.00000000000E+00 0.  1.
         13    1    1    2    0    0 -0.34104639944E+03 -0.51161369660E+03 -0.12733762369E+04  0.14140538438E+04  0.10566000000E+00 0. -1.
<mgrwt>
<rscale>  1 0.98633462E+03</rscale>
<asrwt>0</asrwt>
<pdfrwt beam="1">  1       21 0.66307872E-01 0.11546189E+04</pdfrwt>
<pdfrwt beam="2">  1        4 0.34889383E+00 0.11546189E+04</pdfrwt>
<totfact> 0.12002428E+00</totfact>
</mgrwt>
</event>
<event>
 6    1  0.1375310E-005  0.1020774E+04  0.7818608E-02  0.9637372E-01
         21   -1    0    0  501  502  0.00000000000E+00  0.00000000000E+00  0.32546417660E+03  0.32546417660E+03  0.00000000000E+00 0.  1.
          4   -1    0    0  502    0 -0.00000000000E+00 -0.00000000000E+00 -0.16609170712E+04  0.16609170712E+04  0.00000000000E+00 0.  1.
    9000010    2    1    2  501    0  0.23671888419E+03 -0.17677593098E+03 -0.57733491625E+03  0.11727299465E+04  0.97708462371E+03 0.  0.
        -13    1    3    3    0    0  0.42095232385E+03 -0.37647042946E+03 -0.34615168608E+02  0.56579949122E+03  0.10566000000E+00 0.  1.
          4    1    3    3  501    0 -0.18423343965E+03  0.19969449847E+03 -0.54271974764E+03  0.60693045523E+03  0.00000000000E+00 0.  1.
         13    1    1    2    0    0 -0.23671888419E+03  0.17677593098E+03 -0.75811797832E+03  0.81365130131E+03  0.10566000000E+00 0. -1.
<mgrwt>
<rscale>  1 0.74871247E+03</rscale>
<asrwt>0</asrwt>
<pdfrwt beam="1">  1       21 0.50071413E-01 0.10207742E+04</pdfrwt>
<pdfrwt beam="2">  1        4 0.25552570E+00 0.10207742E+04</pdfrwt>
<totfact> 0.87419378E+00</totfact>
</mgrwt>
</event>
<event>
 6    1  0.1375310E-005  0.9711945E+03  0.7818608E-02  0.9739363E-01
          4   -1    0    0  502    0 -0.00000000000E+00  0.00000000000E+00  0.21859496706E+03  0.21859496706E+03  0.00000000000E+00 0.  1.
         21   -1    0    0  501  502  0.00000000000E+00 -0.00000000000E+00 -0.16873928773E+04  0.16873928773E+04  0.00000000000E+00 0.  1.
    9000010    2    1    2  501    0  0.11387648527E+03 -0.21518887274E+03 -0.11778346152E+04  0.15266018205E+04  0.94018329745E+03 0.  0.
        -13    1    3    3    0    0 -0.28312406670E+02 -0.17811543136E+03 -0.13139700847E+04  0.13262895965E+04  0.10566000000E+00 0.  1.
          4    1    3    3  501    0  0.14218889194E+03 -0.37073441383E+02  0.13613546945E+03  0.20031222402E+03  0.00000000000E+00 0.  1.
         13    1    1    2    0    0 -0.11387648527E+03  0.21518887274E+03 -0.29096329499E+03  0.37938602379E+03  0.10566000000E+00 0. -1.
<mgrwt>
<rscale>  1 0.68720735E+03</rscale>
<asrwt>0</asrwt>
<pdfrwt beam="2">  1       21 0.25959889E+00 0.97119449E+03</pdfrwt>
<pdfrwt beam="1">  1        4 0.33629997E-01 0.97119449E+03</pdfrwt>
<totfact> 0.16450969E+01</totfact>
</mgrwt>
</event>
<event>
 6    1  0.1375310E-005  0.1031309E+04  0.7818608E-02  0.9705632E-01
         21   -1    0    0  501  502  0.00000000000E+00  0.00000000000E+00  0.21656861565E+04  0.21656861565E+04  0.00000000000E+00 0.  1.
          4   -1    0    0  502    0 -0.00000000000E+00 -0.00000000000E+00 -0.24343525703E+03  0.24343525703E+03  0.00000000000E+00 0.  1.
    9000010    2    1    2  501    0 -0.13213126936E+03 -0.18525935037E+03  0.19224070365E+04  0.21815698045E+04  0.10058917928E+04 0.  0.
        -13    1    3    3    0    0  0.38249122204E+03  0.15222236376E+03  0.86883167979E+03  0.96142585879E+03  0.10566000000E+00 0.  1.
          4    1    3    3  501    0 -0.51462249141E+03 -0.33748171413E+03  0.10535753567E+04  0.12201439457E+04  0.00000000000E+00 0.  1.
         13    1    1    2    0    0  0.13213126936E+03  0.18525935037E+03 -0.15613697963E+00  0.22755160906E+03  0.10566000000E+00 0. -1.
<mgrwt>
<rscale>  1 0.70682438E+03</rscale>
<asrwt>0</asrwt>
<pdfrwt beam="1">  1       21 0.33318247E+00 0.10313089E+04</pdfrwt>
<pdfrwt beam="2">  1        4 0.37451579E-01 0.10313089E+04</pdfrwt>
<totfact> 0.45607139E+00</totfact>
</mgrwt>
</event>
<event>
 6    1  0.1375310E-005  0.1026569E+04  0.7818608E-02  0.9455451E-01
         21   -1    0    0  501  502  0.00000000000E+00  0.00000000000E+00  0.20550014362E+04  0.20550014362E+04  0.00000000000E+00 0. -1.
          4   -1    0    0  502    0 -0.00000000000E+00 -0.00000000000E+00 -0.30148822914E+03  0.30148822914E+03  0.00000000000E+00 0.  1.
    9000010    2    1    2  501    0  0.37355459464E+03  0.39759187829E+03  0.12025565458E+04  0.15811345269E+04  0.86961014808E+03 0.  0.
        -13    1    3    3    0    0  0.29671783763E+03  0.44241175195E+03  0.19135324337E+03  0.56602624351E+03  0.10566000000E+00 0.  1.
          4    1    3    3  501    0  0.76836757004E+02 -0.44819873656E+02  0.10112033024E+04  0.10151082834E+04  0.00000000000E+00 0.  1.
         13    1    1    2    0    0 -0.37355459464E+03 -0.39759187829E+03  0.55095666130E+03  0.77535513841E+03  0.10566000000E+00 0. -1.
<mgrwt>
<rscale>  1 0.87649479E+03</rscale>
<asrwt>0</asrwt>
<pdfrwt beam="1">  1       21 0.31615406E+00 0.10265691E+04</pdfrwt>
<pdfrwt beam="2">  1        4 0.46382806E-01 0.10265691E+04</pdfrwt>
<totfact> 0.37599094E+00</totfact>
</mgrwt>
</event>
<event>
 6    1  0.1375310E-005  0.1026139E+04  0.7818608E-02  0.9754611E-01
          4   -1    0    0  502    0 -0.00000000000E+00  0.00000000000E+00  0.19976197865E+04  0.19976197865E+04  0.00000000000E+00 0.  1.
         21   -1    0    0  501  502  0.00000000000E+00 -0.00000000000E+00 -0.23161728392E+03  0.23161728392E+03  0.00000000000E+00 0.  1.
    9000010    2    1    2  501    0  0.19421867184E+03 -0.27953542595E+02  0.97934631962E+03  0.14184780098E+04  0.10072032354E+04 0.  0.
        -13    1    3    3    0    0 -0.28634529459E+03  0.32077583269E+03  0.45943001635E+03  0.62925886061E+03  0.10566000000E+00 0.  1.
          4    1    3    3  501    0  0.48056396644E+03 -0.34872937529E+03  0.51991630327E+03  0.78921914918E+03  0.00000000000E+00 0.  1.
         13    1    1    2    0    0 -0.19421867184E+03  0.27953542595E+02  0.78665618299E+03  0.81075906065E+03  0.10566000000E+00 0. -1.
<mgrwt>
<rscale>  1 0.67856334E+03</rscale>
<asrwt>0</asrwt>
<pdfrwt beam="2">  1       21 0.35633430E-01 0.10261387E+04</pdfrwt>
<pdfrwt beam="1">  1        4 0.30732611E+00 0.10261387E+04</pdfrwt>
<totfact> 0.85797700E+00</totfact>
</mgrwt>
</event>
<event>
 6    1  0.1375310E-005  0.9836630E+03  0.7818608E-02  0.9873990E-01
         21   -1    0    0  501  502  0.00000000000E+00  0.00000000000E+00  0.85068698740E+03  0.85068698740E+03  0.00000000000E+00 0.  1.
          4   -1    0    0  502    0 -0.00000000000E+00 -0.00000000000E+00 -0.42895079528E+03  0.42895079528E+03  0.00000000000E+00 0.  1.
    9000010    2    1    2  501    0 -0.11196774094E+03 -0.10083196478E+03  0.50686635563E+03  0.11065741642E+04  0.97205402026E+03 0.  0.
        -13    1    3    3    0    0  0.32202912960E+02 -0.33438123011E+02 -0.29014188029E+03  0.29383236298E+03  0.10566000000E+00 0.  1.
          4    1    3    3  501    0 -0.14417065390E+03 -0.67393841770E+02  0.79700823592E+03  0.81274180123E+03  0.00000000000E+00 0.  1.
         13    1    1    2    0    0  0.11196774094E+03  0.10083196478E+03 -0.85130163510E+02  0.17306361846E+03  0.10566000000E+00 0. -1.
<mgrwt>
<rscale>  1 0.61538547E+03</rscale>
<asrwt>0</asrwt>
<pdfrwt beam="1">  1       21 0.13087492E+00 0.98366299E+03</pdfrwt>
<pdfrwt beam="2">  1        4 0.65992430E-01 0.98366299E+03</pdfrwt>
<totfact> 0.33313824E+01</totfact>
</mgrwt>
</event>
<event>
 6    1  0.1375310E-005  0.9671294E+03  0.7818608E-02  0.9907184E-01
         21   -1    0    0  501  502  0.00000000000E+00  0.00000000000E+00  0.46470337104E+03  0.46470337104E+03  0.00000000000E+00 0.  1.
          4   -1    0    0  502    0 -0.00000000000E+00 -0.00000000000E+00 -0.11810596685E+04  0.11810596685E+04  0.00000000000E+00 0.  1.
    9000010    2    1    2  501    0  0.94929604700E+02 -0.10621242010E+03 -0.54406316434E+02  0.96865854495E+03  0.95658069258E+03 0.  0.
        -13    1    3    3    0    0 -0.32625448072E+02  0.30164572582E+03 -0.33921631959E+03  0.45510689558E+03  0.10566000000E+00 0.  1.
          4    1    3    3  501    0  0.12755505277E+03 -0.40785814592E+03  0.28481000315E+03  0.51355164937E+03  0.00000000000E+00 0.  1.
         13    1    1    2    0    0 -0.94929604700E+02  0.10621242010E+03 -0.66194998102E+03  0.67710449457E+03  0.10566000000E+00 0. -1.
<mgrwt>
<rscale>  1 0.59914368E+03</rscale>
<asrwt>0</asrwt>
<pdfrwt beam="1">  1       21 0.71492826E-01 0.96712943E+03</pdfrwt>
<pdfrwt beam="2">  1        4 0.18170149E+00 0.96712943E+03</pdfrwt>
<totfact> 0.11900026E+01</totfact>
</mgrwt>
</event>
<event>
 6    1  0.1375310E-005  0.1288291E+04  0.7818608E-02  0.9153777E-01
         21   -1    0    0  501  502  0.00000000000E+00  0.00000000000E+00  0.11910857582E+04  0.11910857582E+04  0.00000000000E+00 0. -1.
          4   -1    0    0  502    0 -0.00000000000E+00 -0.00000000000E+00 -0.94297624833E+03  0.94297624833E+03  0.00000000000E+00 0.  1.
    9000010    2    1    2  501    0  0.79958593525E+03 -0.22429197349E+03  0.18036074453E+03  0.13008546712E+04  0.98491031080E+03 0.  0.
        -13    1    3    3    0    0  0.54391099216E+03 -0.61517719683E+03  0.10859496830E+03  0.82829646215E+03  0.10566000000E+00 0.  1.
          4    1    3    3  501    0  0.25567494308E+03  0.39088522334E+03  0.71765776232E+02  0.47255820910E+03  0.00000000000E+00 0.  1.
         13    1    1    2    0    0 -0.79958593525E+03  0.22429197349E+03  0.67748765345E+02  0.83320733529E+03  0.10566000000E+00 0. -1.
<mgrwt>
<rscale>  1 0.11543528E+04</rscale>
<asrwt>0</asrwt>
<pdfrwt beam="1">  1       21 0.18324396E+00 0.12882907E+04</pdfrwt>
<pdfrwt beam="2">  1        4 0.14507327E+00 0.12882907E+04</pdfrwt>
<totfact> 0.18474129E+00</totfact>
</mgrwt>
</event>
<event>
 6    1  0.1375310E-005  0.8510748E+03  0.7818608E-02  0.9895215E-01
          4   -1    0    0  502    0 -0.00000000000E+00  0.00000000000E+00  0.52027702009E+03  0.52027702009E+03  0.00000000000E+00 0.  1.
         21   -1    0    0  501  502  0.00000000000E+00 -0.00000000000E+00 -0.11158775150E+04  0.11158775150E+04  0.00000000000E+00 0.  1.
    9000010    2    1    2  501    0  0.18667704417E+03 -0.11110670666E+03 -0.91516506441E+03  0.12497421332E+04  0.82288230338E+03 0.  0.
        -13    1    3    3    0    0 -0.30855792488E+02  0.24565930667E+03 -0.76768786963E+03  0.80662584339E+03  0.10566000000E+00 0.  1.
          4    1    3    3  501    0  0.21753283666E+03 -0.35676601332E+03 -0.14747719478E+03  0.44311628978E+03  0.00000000000E+00 0.  1.
         13    1    1    2    0    0 -0.18667704417E+03  0.11110670666E+03  0.31956456952E+03  0.38641240190E+03  0.10566000000E+00 0. -1.
<mgrwt>
<rscale>  1 0.60493753E+03</rscale>
<asrwt>0</asrwt>
<pdfrwt beam="2">  1       21 0.17167346E+00 0.85107479E+03</pdfrwt>
<pdfrwt beam="1">  1        4 0.80042619E-01 0.85107479E+03</pdfrwt>
<totfact> 0.10294642E+01</totfact>
</mgrwt>
</event>
<event>
 6    1  0.1375310E-005  0.1049962E+04  0.7818608E-02  0.9557959E-01
          4   -1    0    0  502    0 -0.00000000000E+00  0.00000000000E+00  0.10815936192E+04  0.10815936192E+04  0.00000000000E+00 0.  1.
         21   -1    0    0  501  502  0.00000000000E+00 -0.00000000000E+00 -0.72648464853E+03  0.72648464853E+03  0.00000000000E+00 0.  1.
    9000010    2    1    2  501    0 -0.35476202004E+03 -0.34043864792E+02 -0.27391858385E+03  0.10851047197E+04  0.98762633956E+03 0.  0.
        -13    1    3    3    0    0 -0.47929271542E+03  0.14612304601E+03 -0.54253061456E+03  0.73852077190E+03  0.10566000000E+00 0.  1.
          4    1    3    3  501    0  0.12453069538E+03 -0.18016691080E+03  0.26861203071E+03  0.34658394782E+03  0.00000000000E+00 0.  1.
         13    1    1    2    0    0  0.35476202004E+03  0.34043864792E+02  0.62902755448E+03  0.72297354796E+03  0.10566000000E+00 0. -1.
<mgrwt>
<rscale>  1 0.80142373E+03</rscale>
<asrwt>0</asrwt>
<pdfrwt beam="2">  1       21 0.11176687E+00 0.10499623E+04</pdfrwt>
<pdfrwt beam="1">  1        4 0.16639902E+00 0.10499623E+04</pdfrwt>
<totfact> 0.51424452E+00</totfact>
</mgrwt>
</event>
<event>
 6    1  0.1375310E-005  0.1174651E+04  0.7818608E-02  0.9335965E-01
         21   -1    0    0  501  502  0.00000000000E+00  0.00000000000E+00  0.49723325801E+03  0.49723325801E+03  0.00000000000E+00 0.  1.
          4   -1    0    0  502    0 -0.00000000000E+00 -0.00000000000E+00 -0.15409906844E+04  0.15409906844E+04  0.00000000000E+00 0.  1.
    9000010    2    1    2  501    0 -0.20503907873E+03  0.51943117231E+03 -0.56877879566E+03  0.13051110743E+04  0.10334194847E+04 0.  0.
        -13    1    3    3    0    0  0.25486733375E+03  0.13844341809E+03  0.18454735265E+03  0.34377561630E+03  0.10566000000E+00 0.  1.
          4    1    3    3  501    0 -0.45990641248E+03  0.38098775422E+03 -0.75332614831E+03  0.96133545801E+03  0.00000000000E+00 0.  1.
         13    1    1    2    0    0  0.20503907873E+03 -0.51943117231E+03 -0.47497863075E+03  0.73311286812E+03  0.10566000000E+00 0. -1.
<mgrwt>
<rscale>  1 0.97538235E+03</rscale>
<asrwt>0</asrwt>
<pdfrwt beam="1">  1       21 0.76497424E-01 0.11746513E+04</pdfrwt>
<pdfrwt beam="2">  1        4 0.23707549E+00 0.11746513E+04</pdfrwt>
<totfact> 0.43143771E+00</totfact>
</mgrwt>
</event>
<event>
 6    1  0.1375310E-005  0.1034360E+04  0.7818608E-02  0.9611600E-01
          4   -1    0    0  502    0 -0.00000000000E+00  0.00000000000E+00  0.58359868491E+03  0.58359868491E+03  0.00000000000E+00 0.  1.
         21   -1    0    0  501  502  0.00000000000E+00 -0.00000000000E+00 -0.78113075006E+03  0.78113075006E+03  0.00000000000E+00 0. -1.
    9000010    2    1    2  501    0 -0.59857474088E+02 -0.30418173323E+03 -0.20566136185E+03  0.10546076191E+04  0.98680858859E+03 0.  0.
        -13    1    3    3    0    0 -0.20787784975E+03 -0.13438200169E+03 -0.57272996943E+03  0.62393216926E+03  0.10566000000E+00 0.  1.
          4    1    3    3  501    0  0.14802037566E+03 -0.16979973154E+03  0.36706860758E+03  0.43067544986E+03  0.00000000000E+00 0.  1.
         13    1    1    2    0    0  0.59857474088E+02  0.30418173323E+03  0.81292967033E+01  0.31012181585E+03  0.10566000000E+00 0. -1.
<mgrwt>
<rscale>  1 0.76533144E+03</rscale>
<asrwt>0</asrwt>
<pdfrwt beam="2">  1       21 0.12017396E+00 0.10343600E+04</pdfrwt>
<pdfrwt beam="1">  1        4 0.89784413E-01 0.10343600E+04</pdfrwt>
<totfact> 0.20555702E+01</totfact>
</mgrwt>
</event>
<event>
 6    1  0.1375310E-005  0.1028094E+04  0.7818608E-02  0.9670833E-01
          4   -1    0    0  502    0 -0.00000000000E+00  0.00000000000E+00  0.11648427740E+04  0.11648427740E+04  0.00000000000E+00 0.  1.
         21   -1    0    0  501  502  0.00000000000E+00 -0.00000000000E+00 -0.36407763262E+03  0.36407763262E+03  0.00000000000E+00 0.  1.
    9000010    2    1    2  501    0  0.23810732758E+03  0.99860387773E+02  0.53730189094E+03  0.11600300544E+04  0.99514280810E+03 0.  0.
        -13    1    3    3    0    0 -0.29518419286E+03  0.29314037071E+03  0.39845405207E+03  0.57604741769E+03  0.10566000000E+00 0.  1.
          4    1    3    3  501    0  0.53329152043E+03 -0.19327998294E+03  0.13884783887E+03  0.58398263667E+03  0.00000000000E+00 0.  1.
         13    1    1    2    0    0 -0.23810732758E+03 -0.99860387773E+02  0.26346325041E+03  0.36889035224E+03  0.10566000000E+00 0. -1.
<mgrwt>
<rscale>  1 0.72780246E+03</rscale>
<asrwt>0</asrwt>
<pdfrwt beam="2">  1       21 0.56011944E-01 0.10280936E+04</pdfrwt>
<pdfrwt beam="1">  1        4 0.17920658E+00 0.10280936E+04</pdfrwt>
<totfact> 0.21312473E+01</totfact>
</mgrwt>
</event>
<event>
 6    1  0.1375310E-005  0.1317456E+04  0.7818608E-02  0.9138366E-01
          4   -1    0    0  502    0 -0.00000000000E+00  0.00000000000E+00  0.88183361012E+03  0.88183361012E+03  0.00000000000E+00 0.  1.
         21   -1    0    0  501  502  0.00000000000E+00 -0.00000000000E+00 -0.14698167319E+04  0.14698167319E+04  0.00000000000E+00 0. -1.
    9000010    2    1    2  501    0  0.81848884191E+03  0.86891741198E+02  0.37309974440E+02  0.13179842323E+04  0.10286963806E+04 0.  0.
        -13    1    3    3    0    0  0.58966701914E+03  0.47224960472E+03 -0.23792238037E+03  0.79204416093E+03  0.10566000000E+00 0.  1.
          4    1    3    3  501    0  0.22882182278E+03 -0.38535786352E+03  0.27523235481E+03  0.52594007139E+03  0.00000000000E+00 0.  1.
         13    1    1    2    0    0 -0.81848884191E+03 -0.86891741198E+02 -0.62529309626E+03  0.10336661097E+04  0.10566000000E+00 0. -1.
<mgrwt>
<rscale>  1 0.11712881E+04</rscale>
<asrwt>0</asrwt>
<pdfrwt beam="2">  1       21 0.22612565E+00 0.13174560E+04</pdfrwt>
<pdfrwt beam="1">  1        4 0.13566671E+00 0.13174560E+04</pdfrwt>
<totfact> 0.11133643E+00</totfact>
</mgrwt>
</event>
<event>
 6    1  0.1375310E-005  0.9930294E+03  0.7818608E-02  0.9994986E-01
         21   -1    0    0  501  502  0.00000000000E+00  0.00000000000E+00  0.48057303167E+03  0.48057303167E+03  0.00000000000E+00 0.  1.
          4   -1    0    0  502    0 -0.00000000000E+00 -0.00000000000E+00 -0.82978246507E+03  0.82978246507E+03  0.00000000000E+00 0.  1.
    9000010    2    1    2  501    0  0.14896897258E+02  0.98384158549E+02 -0.49169667839E+02  0.99424597096E+03  0.98803139340E+03 0.  0.
        -13    1    3    3    0    0 -0.44690205201E+03 -0.71987710275E+02  0.12913434834E+03  0.47072217454E+03  0.10566000000E+00 0.  1.
          4    1    3    3  501    0  0.46179894927E+03  0.17037186882E+03 -0.17830401618E+03  0.52352379642E+03  0.00000000000E+00 0.  1.
         13    1    1    2    0    0 -0.14896897258E+02 -0.98384158549E+02 -0.30003976556E+03  0.31610952577E+03  0.10566000000E+00 0. -1.
<mgrwt>
<rscale>  1 0.55870621E+03</rscale>
<asrwt>0</asrwt>
<pdfrwt beam="1">  1       21 0.73934313E-01 0.99302940E+03</pdfrwt>
<pdfrwt beam="2">  1        4 0.12765884E+00 0.99302940E+03</pdfrwt>
<totfact> 0.28585453E+01</totfact>
</mgrwt>
</event>
<event>
 6    1  0.1375310E-005  0.1052914E+04  0.7818608E-02  0.9917007E-01
         21   -1    0    0  501  502  0.00000000000E+00  0.00000000000E+00  0.43756454288E+03  0.43756454288E+03  0.00000000000E+00 0.  1.
          4   -1    0    0  502    0 -0.00000000000E+00 -0.00000000000E+00 -0.78731485971E+03  0.78731485971E+03  0.00000000000E+00 0.  1.
    9000010    2    1    2  501    0 -0.63372728656E+02  0.86174951007E+02 -0.25826747848E+03  0.10841266200E+04  0.10474665689E+04 0.  0.
        -13    1    3    3    0    0  0.43777683598E+03 -0.18069673355E+03 -0.38018410014E+02  0.47512659187E+03  0.10566000000E+00 0.  1.
          4    1    3    3  501    0 -0.50114956464E+03  0.26687168456E+03 -0.22024906847E+03  0.60900002817E+03  0.00000000000E+00 0.  1.
         13    1    1    2    0    0  0.63372728656E+02 -0.86174951007E+02 -0.91482838352E+02  0.14075278255E+03  0.10566000000E+00 0. -1.
<mgrwt>
<rscale>  1 0.59444081E+03</rscale>
<asrwt>0</asrwt>
<pdfrwt beam="1">  1       21 0.67317623E-01 0.10529143E+04</pdfrwt>
<pdfrwt beam="2">  1        4 0.12112536E+00 0.10529143E+04</pdfrwt>
<totfact> 0.40315052E+01</totfact>
</mgrwt>
</event>
<event>
 6    1  0.1375310E-005  0.1043371E+04  0.7818608E-02  0.9802235E-01
          4   -1    0    0  502    0 -0.00000000000E+00  0.00000000000E+00  0.10566497936E+04  0.10566497936E+04  0.00000000000E+00 0.  1.
         21   -1    0    0  501  502  0.00000000000E+00 -0.00000000000E+00 -0.35594058838E+03  0.35594058838E+03  0.00000000000E+00 0.  1.
    9000010    2    1    2  501    0  0.59316493115E+02  0.14808039754E+03  0.69366856199E+03  0.12529162379E+04  0.10311046381E+04 0.  0.
        -13    1    3    3    0    0  0.48773211449E+02  0.56846712199E+03  0.58801871467E+03  0.81932881977E+03  0.10566000000E+00 0.  1.
          4    1    3    3  501    0  0.10543281667E+02 -0.42038672445E+03  0.10564984733E+03  0.43358741808E+03  0.00000000000E+00 0.  1.
         13    1    1    2    0    0 -0.59316493115E+02 -0.14808039754E+03  0.70406432707E+01  0.15967414416E+03  0.10566000000E+00 0. -1.
<mgrwt>
<rscale>  1 0.65242729E+03</rscale>
<asrwt>0</asrwt>
<pdfrwt beam="2">  1       21 0.54760091E-01 0.10433710E+04</pdfrwt>
<pdfrwt beam="1">  1        4 0.16256151E+00 0.10433710E+04</pdfrwt>
<totfact> 0.29463115E+01</totfact>
</mgrwt>
</event>
<event>
 6    1  0.1375310E-005  0.1073909E+04  0.7818608E-02  0.9510041E-01
          4   -1    0    0  502    0 -0.00000000000E+00  0.00000000000E+00  0.84474377362E+03  0.84474377362E+03  0.00000000000E+00 0.  1.
         21   -1    0    0  501  502  0.00000000000E+00 -0.00000000000E+00 -0.67303189706E+03  0.67303189706E+03  0.00000000000E+00 0.  1.
    9000010    2    1    2  501    0 -0.20249724370E+03  0.33727992217E+03  0.27987248544E+03  0.11097786020E+04  0.99925825375E+03 0.  0.
        -13    1    3    3    0    0 -0.97120343672E+02  0.64041902161E+03  0.40654318281E+03  0.76475241421E+03  0.10566000000E+00 0.  1.
          4    1    3    3  501    0 -0.10537690002E+03 -0.30313909944E+03 -0.12667069737E+03  0.34502618776E+03  0.00000000000E+00 0.  1.
         13    1    1    2    0    0  0.20249724370E+03 -0.33727992217E+03 -0.10816060888E+03  0.40799706872E+03  0.10566000000E+00 0. -1.
<mgrwt>
<rscale>  1 0.83547592E+03</rscale>
<asrwt>0</asrwt>
<pdfrwt beam="2">  1       21 0.10354337E+00 0.10739087E+04</pdfrwt>
<pdfrwt beam="1">  1        4 0.12996058E+00 0.10739087E+04</pdfrwt>
<totfact> 0.12056056E+01</totfact>
</mgrwt>
</event>
<event>
 6    1  0.1375310E-005  0.1036570E+04  0.7818608E-02  0.9624474E-01
          4   -1    0    0  502    0 -0.00000000000E+00  0.00000000000E+00  0.14352822492E+04  0.14352822492E+04  0.00000000000E+00 0.  1.
         21   -1    0    0  501  502  0.00000000000E+00 -0.00000000000E+00 -0.51851380409E+03  0.51851380409E+03  0.00000000000E+00 0.  1.
    9000010    2    1    2  501    0  0.22098057106E+03  0.19512582953E+03  0.49452768962E+02  0.10377485679E+04  0.99376557185E+03 0.  0.
        -13    1    3    3    0    0  0.10145857599E+03 -0.37915640788E+03 -0.14702509134E+03  0.41912982825E+03  0.10566000000E+00 0.  1.
          4    1    3    3  501    0  0.11952199507E+03  0.57428223742E+03  0.19647786030E+03  0.61861873970E+03  0.00000000000E+00 0.  1.
         13    1    1    2    0    0 -0.22098057106E+03 -0.19512582953E+03  0.86731567620E+03  0.91604748539E+03  0.10566000000E+00 0. -1.
<mgrwt>
<rscale>  1 0.75697300E+03</rscale>
<asrwt>0</asrwt>
<pdfrwt beam="2">  1       21 0.79771355E-01 0.10365696E+04</pdfrwt>
<pdfrwt beam="1">  1        4 0.22081265E+00 0.10365696E+04</pdfrwt>
<totfact> 0.50388886E+00</totfact>
</mgrwt>
</event>
<event>
 6    1  0.1375310E-005  0.9883614E+03  0.7818608E-02  0.9845674E-01
          4   -1    0    0  502    0 -0.00000000000E+00  0.00000000000E+00  0.64374234636E+03  0.64374234636E+03  0.00000000000E+00 0.  1.
         21   -1    0    0  501  502  0.00000000000E+00 -0.00000000000E+00 -0.51608134854E+03  0.51608134854E+03  0.00000000000E+00 0.  1.
    9000010    2    1    2  501    0 -0.64023516531E+02  0.14971398469E+03  0.88253151089E+02  0.99229376496E+03  0.97485640451E+03 0.  0.
        -13    1    3    3    0    0  0.29453204698E+03  0.42788247261E+03  0.13322140828E+03  0.53626531853E+03  0.10566000000E+00 0.  1.
          4    1    3    3  501    0 -0.35855556351E+03 -0.27816848792E+03 -0.44968257194E+02  0.45602844643E+03  0.00000000000E+00 0.  1.
         13    1    1    2    0    0  0.64023516531E+02 -0.14971398469E+03  0.39407846734E+02  0.16752992995E+03  0.10566000000E+00 0. -1.
<mgrwt>
<rscale>  1 0.62967987E+03</rscale>
<asrwt>0</asrwt>
<pdfrwt beam="2">  1       21 0.79397130E-01 0.98836142E+03</pdfrwt>
<pdfrwt beam="1">  1        4 0.99037284E-01 0.98836142E+03</pdfrwt>
<totfact> 0.45427695E+01</totfact>
</mgrwt>
</event>
<event>
 6    1  0.1375310E-005  0.1219609E+04  0.7818608E-02  0.9246238E-01
         21   -1    0    0  501  502  0.00000000000E+00  0.00000000000E+00  0.11036900334E+04  0.11036900334E+04  0.00000000000E+00 0. -1.
          4   -1    0    0  502    0 -0.00000000000E+00 -0.00000000000E+00 -0.83929793182E+03  0.83929793182E+03  0.00000000000E+00 0.  1.
    9000010    2    1    2  501    0 -0.60773971184E+03  0.33291554845E+03  0.62429160325E+02  0.12212058924E+04  0.10036264803E+04 0.  0.
        -13    1    3    3    0    0  0.73153828453E+02 -0.60260074912E+02  0.36623025379E+03  0.37829534653E+03  0.10566000000E+00 0.  1.
          4    1    3    3  501    0 -0.68089354029E+03  0.39317562337E+03 -0.30380109347E+03  0.84291054591E+03  0.00000000000E+00 0.  1.
         13    1    1    2    0    0  0.60773971184E+03 -0.33291554845E+03  0.20196294121E+03  0.72178207274E+03  0.10566000000E+00 0. -1.
<mgrwt>
<rscale>  1 0.10588662E+04</rscale>
<asrwt>0</asrwt>
<pdfrwt beam="1">  1       21 0.16979847E+00 0.12196091E+04</pdfrwt>
<pdfrwt beam="2">  1        4 0.12912276E+00 0.12196091E+04</pdfrwt>
<totfact> 0.31778514E+00</totfact>
</mgrwt>
</event>
<event>
 6    1  0.1375310E-005  0.1178829E+04  0.7818608E-02  0.9300125E-01
          4   -1    0    0  502    0 -0.00000000000E+00  0.00000000000E+00  0.57006699074E+03  0.57006699074E+03  0.00000000000E+00 0.  1.
         21   -1    0    0  501  502  0.00000000000E+00 -0.00000000000E+00 -0.14637164688E+04  0.14637164688E+04  0.00000000000E+00 0. -1.
    9000010    2    1    2  501    0  0.17558059453E+03 -0.60451618553E+03 -0.44177140377E+03  0.12588885190E+04  0.99667947015E+03 0.  0.
        -13    1    3    3    0    0  0.25916814520E+03  0.21637539385E+03 -0.36463761679E+02  0.33958217802E+03  0.10566000000E+00 0.  1.
          4    1    3    3  501    0 -0.83587550677E+02 -0.82089157938E+03 -0.40530764209E+03  0.91930634093E+03  0.00000000000E+00 0.  1.
         13    1    1    2    0    0 -0.17558059453E+03  0.60451618553E+03 -0.45187807424E+03  0.77489494055E+03  0.10566000000E+00 0. -1.
<mgrwt>
<rscale>  1 0.10077131E+04</rscale>
<asrwt>0</asrwt>
<pdfrwt beam="2">  1       21 0.22518715E+00 0.11788292E+04</pdfrwt>
<pdfrwt beam="1">  1        4 0.87702614E-01 0.11788292E+04</pdfrwt>
<totfact> 0.33827622E+00</totfact>
</mgrwt>
</event>
<event>
 6    1  0.1375310E-005  0.9946239E+03  0.7818608E-02  0.1054648E+00
         21   -1    0    0  501  502  0.00000000000E+00  0.00000000000E+00  0.81985671010E+03  0.81985671010E+03  0.00000000000E+00 0.  1.
          4   -1    0    0  502    0 -0.00000000000E+00 -0.00000000000E+00 -0.35010697153E+03  0.35010697153E+03  0.00000000000E+00 0.  1.
    9000010    2    1    2  501    0  0.49569937345E+01  0.18415395846E+02  0.51558832194E+03  0.11203160686E+04  0.99444108786E+03 0.  0.
        -13    1    3    3    0    0  0.43775000213E+03  0.15184833567E+03  0.47824499983E+03  0.66588382803E+03  0.10566000000E+00 0.  1.
          4    1    3    3  501    0 -0.43279300840E+03 -0.13343293982E+03  0.37343322107E+02  0.45443224055E+03  0.00000000000E+00 0.  1.
         13    1    1    2    0    0 -0.49569937345E+01 -0.18415395846E+02 -0.45838583367E+02  0.49647613037E+02  0.10566000000E+00 0. -1.
<mgrwt>
<rscale>  1 0.37011659E+03</rscale>
<asrwt>0</asrwt>
<pdfrwt beam="1">  1       21 0.12613180E+00 0.99462394E+03</pdfrwt>
<pdfrwt beam="2">  1        4 0.53862611E-01 0.99462394E+03</pdfrwt>
<totfact> 0.57079807E+01</totfact>
</mgrwt>
</event>
<event>
 6    1  0.1375310E-005  0.1023305E+04  0.7818608E-02  0.9859559E-01
          4   -1    0    0  502    0 -0.00000000000E+00  0.00000000000E+00  0.14549422195E+04  0.14549422195E+04  0.00000000000E+00 0.  1.
         21   -1    0    0  501  502  0.00000000000E+00 -0.00000000000E+00 -0.35286863147E+03  0.35286863147E+03  0.00000000000E+00 0.  1.
    9000010    2    1    2  501    0 -0.93046604492E+02 -0.10492748206E+03  0.41117524276E+03  0.11028229208E+04  0.10136497754E+04 0.  0.
        -13    1    3    3    0    0 -0.54279115037E+03  0.37182362515E+02  0.15320439645E+03  0.56522239805E+03  0.10566000000E+00 0.  1.
          4    1    3    3  501    0  0.44974454587E+03 -0.14210984457E+03  0.25797084631E+03  0.53760052271E+03  0.00000000000E+00 0.  1.
         13    1    1    2    0    0  0.93046604492E+02  0.10492748206E+03  0.69089834529E+03  0.70498793024E+03  0.10566000000E+00 0. -1.
<mgrwt>
<rscale>  1 0.62261902E+03</rscale>
<asrwt>0</asrwt>
<pdfrwt beam="2">  1       21 0.54287483E-01 0.10233051E+04</pdfrwt>
<pdfrwt beam="1">  1        4 0.22383726E+00 0.10233051E+04</pdfrwt>
<totfact> 0.11561089E+01</totfact>
</mgrwt>
</event>
<event>
 6    1  0.1375310E-005  0.9819763E+03  0.7818608E-02  0.9857385E-01
          4   -1    0    0  502    0 -0.00000000000E+00  0.00000000000E+00  0.87619850210E+03  0.87619850210E+03  0.00000000000E+00 0.  1.
         21   -1    0    0  501  502  0.00000000000E+00 -0.00000000000E+00 -0.47226417039E+03  0.47226417039E+03  0.00000000000E+00 0.  1.
    9000010    2    1    2  501    0  0.15982392017E+03  0.98449962812E+00  0.77534508444E+02  0.98503247219E+03  0.96888219953E+03 0.  0.
        -13    1    3    3    0    0 -0.12207287187E+03  0.43422011993E+03 -0.46620870222E+02  0.45345607870E+03  0.10566000000E+00 0.  1.
          4    1    3    3  501    0  0.28189679204E+03 -0.43323562030E+03  0.12415537867E+03  0.53157639349E+03  0.00000000000E+00 0.  1.
         13    1    1    2    0    0 -0.15982392017E+03 -0.98449962812E+00  0.32639982327E+03  0.36343020030E+03  0.10566000000E+00 0. -1.
<mgrwt>
<rscale>  1 0.62371799E+03</rscale>
<asrwt>0</asrwt>
<pdfrwt beam="2">  1       21 0.72656026E-01 0.98197626E+03</pdfrwt>
<pdfrwt beam="1">  1        4 0.13479977E+00 0.98197626E+03</pdfrwt>
<totfact> 0.25899893E+01</totfact>
</mgrwt>
</event>
<event>
 6    1  0.1375310E-005  0.1550645E+04  0.7818608E-02  0.8916843E-01
          4   -1    0    0  502    0 -0.00000000000E+00  0.00000000000E+00  0.14237066464E+04  0.14237066464E+04  0.00000000000E+00 0.  1.
         21   -1    0    0  501  502  0.00000000000E+00 -0.00000000000E+00 -0.14259368550E+04  0.14259368550E+04  0.00000000000E+00 0. -1.
    9000010    2    1    2  501    0  0.38655702382E+03  0.11285989984E+04 -0.38326085748E+03  0.15973071255E+04  0.99062562883E+03 0.  0.
        -13    1    3    3    0    0  0.46314391436E+03  0.65965524545E+03 -0.66497877213E+03  0.10449134446E+04  0.10566000000E+00 0.  1.
          4    1    3    3  501    0 -0.76586890545E+02  0.46894375295E+03  0.28171791465E+03  0.55239368087E+03  0.00000000000E+00 0.  1.
         13    1    1    2    0    0 -0.38655702382E+03 -0.11285989984E+04  0.38103064880E+03  0.12523363759E+04  0.10566000000E+00 0. -1.
<mgrwt>
<rscale>  1 0.14522493E+04</rscale>
<asrwt>0</asrwt>
<pdfrwt beam="2">  1       21 0.21937490E+00 0.15506454E+04</pdfrwt>
<pdfrwt beam="1">  1        4 0.21903179E+00 0.15506454E+04</pdfrwt>
<totfact> 0.30045820E-01</totfact>
</mgrwt>
</event>
<event>
 6    1  0.1375310E-005  0.1205328E+04  0.7818608E-02  0.9282549E-01
         21   -1    0    0  501  502  0.00000000000E+00  0.00000000000E+00  0.13606597626E+04  0.13606597626E+04  0.00000000000E+00 0. -1.
          4   -1    0    0  502    0 -0.00000000000E+00 -0.00000000000E+00 -0.63978964629E+03  0.63978964629E+03  0.00000000000E+00 0.  1.
    9000010    2    1    2  501    0  0.36680394313E+03 -0.50977444779E+03  0.64726679115E+03  0.13681262471E+04  0.10287856962E+04 0.  0.
        -13    1    3    3    0    0  0.98183070721E+02 -0.77825852880E+03  0.26172147023E+03  0.82693675222E+03  0.10566000000E+00 0.  1.
          4    1    3    3  501    0  0.26862087240E+03  0.26848408101E+03  0.38554532093E+03  0.54118949485E+03  0.00000000000E+00 0.  1.
         13    1    1    2    0    0 -0.36680394313E+03  0.50977444779E+03  0.73603325138E+02  0.63232316180E+03  0.10566000000E+00 0. -1.
<mgrwt>
<rscale>  1 0.10240545E+04</rscale>
<asrwt>0</asrwt>
<pdfrwt beam="1">  1       21 0.20933227E+00 0.12053278E+04</pdfrwt>
<pdfrwt beam="2">  1        4 0.98429177E-01 0.12053278E+04</pdfrwt>
<totfact> 0.32709673E+00</totfact>
</mgrwt>
</event>
<event>
 6    1  0.1375310E-005  0.1002428E+04  0.7818608E-02  0.9944694E-01
          4   -1    0    0  502    0 -0.00000000000E+00  0.00000000000E+00  0.33900598511E+03  0.33900598511E+03  0.00000000000E+00 0.  1.
         21   -1    0    0  501  502  0.00000000000E+00 -0.00000000000E+00 -0.97270962040E+03  0.97270962040E+03  0.00000000000E+00 0.  1.
    9000010    2    1    2  501    0 -0.34774774787E+02 -0.10799822136E+03 -0.65337825425E+03  0.11965635210E+04  0.99598605201E+03 0.  0.
        -13    1    3    3    0    0 -0.32319983864E+03  0.15933704441E+03  0.75678349828E+02  0.36820327703E+03  0.10566000000E+00 0.  1.
          4    1    3    3  501    0  0.28842506386E+03 -0.26733526577E+03 -0.72905660407E+03  0.82836024393E+03  0.00000000000E+00 0.  1.
         13    1    1    2    0    0  0.34774774787E+02  0.10799822136E+03  0.19674618957E+02  0.11515208454E+03  0.10566000000E+00 0. -1.
<mgrwt>
<rscale>  1 0.58143258E+03</rscale>
<asrwt>0</asrwt>
<pdfrwt beam="2">  1       21 0.14964763E+00 0.10024276E+04</pdfrwt>
<pdfrwt beam="1">  1        4 0.52154767E-01 0.10024276E+04</pdfrwt>
<totfact> 0.38467952E+01</totfact>
</mgrwt>
</event>
<event>
 6    1  0.1375310E-005  0.1032126E+04  0.7818608E-02  0.9652856E-01
          4   -1    0    0  502    0 -0.00000000000E+00  0.00000000000E+00  0.94730995345E+03  0.94730995345E+03  0.00000000000E+00 0.  1.
         21   -1    0    0  501  502  0.00000000000E+00 -0.00000000000E+00 -0.45805068434E+03  0.45805068434E+03  0.00000000000E+00 0.  1.
    9000010    2    1    2  501    0  0.56157505485E+02  0.26529677898E+03  0.30057979394E+03  0.10750032527E+04  0.99586531944E+03 0.  0.
        -13    1    3    3    0    0 -0.17743095432E+03  0.24637121899E+03 -0.30213508502E+03  0.42832947816E+03  0.10566000000E+00 0.  1.
          4    1    3    3  501    0  0.23358845980E+03  0.18925559993E+02  0.60271487896E+03  0.64667377455E+03  0.00000000000E+00 0.  1.
         13    1    1    2    0    0 -0.56157505485E+02 -0.26529677898E+03  0.18867947517E+03  0.33035738508E+03  0.10566000000E+00 0. -1.
<mgrwt>
<rscale>  1 0.73894487E+03</rscale>
<asrwt>0</asrwt>
<pdfrwt beam="2">  1       21 0.70469336E-01 0.10321259E+04</pdfrwt>
<pdfrwt beam="1">  1        4 0.14573999E+00 0.10321259E+04</pdfrwt>
<totfact> 0.22523669E+01</totfact>
</mgrwt>
</event>
<event>
 6    1  0.1375310E-005  0.1077382E+04  0.7818608E-02  0.9485608E-01
          4   -1    0    0  502    0 -0.00000000000E+00  0.00000000000E+00  0.31640978232E+03  0.31640978232E+03  0.00000000000E+00 0.  1.
         21   -1    0    0  501  502  0.00000000000E+00 -0.00000000000E+00 -0.17854046445E+04  0.17854046445E+04  0.00000000000E+00 0. -1.
    9000010    2    1    2  501    0 -0.95029632555E+02 -0.41361951527E+03 -0.10947426025E+04  0.15359730184E+04  0.99027269626E+03 0.  0.
        -13    1    3    3    0    0 -0.38740181367E+03  0.13622959589E+03 -0.65694492670E+03  0.77473564260E+03  0.10566000000E+00 0.  1.
          4    1    3    3  501    0  0.29237218112E+03 -0.54984911116E+03 -0.43779767581E+03  0.76123737578E+03  0.00000000000E+00 0.  1.
         13    1    1    2    0    0  0.95029632555E+02  0.41361951527E+03 -0.37425225968E+03  0.56584140845E+03  0.10566000000E+00 0. -1.
<mgrwt>
<rscale>  1 0.85353240E+03</rscale>
<asrwt>0</asrwt>
<pdfrwt beam="2">  1       21 0.27467763E+00 0.10773819E+04</pdfrwt>
<pdfrwt beam="1">  1        4 0.48678429E-01 0.10773819E+04</pdfrwt>
<totfact> 0.61113723E+00</totfact>
</mgrwt>
</event>
<event>
 6    1  0.1375310E-005  0.9895486E+03  0.7818608E-02  0.9693808E-01
         21   -1    0    0  501  502  0.00000000000E+00  0.00000000000E+00  0.41822928963E+03  0.41822928963E+03  0.00000000000E+00 0.  1.
          4   -1    0    0  502    0 -0.00000000000E+00 -0.00000000000E+00 -0.98134416397E+03  0.98134416397E+03  0.00000000000E+00 0.  1.
    9000010    2    1    2  501    0 -0.18297523723E+03  0.19583447345E+03 -0.54795292559E+03  0.11311317015E+04  0.95256256435E+03 0.  0.
        -13    1    3    3    0    0  0.29181043908E+02  0.54858323663E+03 -0.44458415191E+03  0.70671789289E+03  0.10566000000E+00 0.  1.
          4    1    3    3  501    0 -0.21215628113E+03 -0.35274876318E+03 -0.10336877369E+03  0.42441380859E+03  0.00000000000E+00 0.  1.
         13    1    1    2    0    0  0.18297523723E+03 -0.19583447345E+03 -0.15161948747E+02  0.26844175213E+03  0.10566000000E+00 0. -1.
<mgrwt>
<rscale>  1 0.71386645E+03</rscale>
<asrwt>0</asrwt>
<pdfrwt beam="1">  1       21 0.64342967E-01 0.98954864E+03</pdfrwt>
<pdfrwt beam="2">  1        4 0.15097603E+00 0.98954864E+03</pdfrwt>
<totfact> 0.25307268E+01</totfact>
</mgrwt>
</event>
<event>
 6    1  0.1375310E-005  0.1305497E+04  0.7818608E-02  0.9139339E-01
         21   -1    0    0  501  502  0.00000000000E+00  0.00000000000E+00  0.19701509492E+04  0.19701509492E+04  0.00000000000E+00 0. -1.
          4   -1    0    0  502    0 -0.00000000000E+00 -0.00000000000E+00 -0.61364923833E+03  0.61364923833E+03  0.00000000000E+00 0.  1.
    9000010    2    1    2  501    0  0.33201799524E+03  0.77465122614E+03  0.10874870812E+04  0.16991028644E+04  0.99699644976E+03 0.  0.
        -13    1    3    3    0    0  0.75343318943E+02  0.82443733753E+03  0.31874461940E+03  0.88711424449E+03  0.10566000000E+00 0.  1.
          4    1    3    3  501    0  0.25667467630E+03 -0.49786111390E+02  0.76874246179E+03  0.81198861994E+03  0.00000000000E+00 0.  1.
         13    1    1    2    0    0 -0.33201799524E+03 -0.77465122614E+03  0.26901462966E+03  0.88469732308E+03  0.10566000000E+00 0. -1.
<mgrwt>
<rscale>  1 0.11702097E+04</rscale>
<asrwt>0</asrwt>
<pdfrwt beam="1">  1       21 0.30310014E+00 0.13054970E+04</pdfrwt>
<pdfrwt beam="2">  1        4 0.94407576E-01 0.13054970E+04</pdfrwt>
<totfact> 0.88984216E-01</totfact>
</mgrwt>
</event>
<event>
 6    1  0.1375310E-005  0.1115430E+04  0.7818608E-02  0.9420194E-01
          4   -1    0    0  502    0 -0.00000000000E+00  0.00000000000E+00  0.91972845398E+03  0.91972845398E+03  0.00000000000E+00 0.  1.
         21   -1    0    0  501  502  0.00000000000E+00 -0.00000000000E+00 -0.70336108576E+03  0.70336108576E+03  0.00000000000E+00 0. -1.
    9000010    2    1    2  501    0 -0.60706179791E+02 -0.47807225141E+03  0.23860702470E+03  0.11406655236E+04  0.10059553701E+04 0.  0.
        -13    1    3    3    0    0 -0.98269023559E+02  0.75067117068E+02 -0.32642454588E+03  0.34906284302E+03  0.10566000000E+00 0.  1.
          4    1    3    3  501    0  0.37562843768E+02 -0.55313936848E+03  0.56503157058E+03  0.79160268061E+03  0.00000000000E+00 0.  1.
         13    1    1    2    0    0  0.60706179791E+02  0.47807225141E+03 -0.22239656485E+02  0.48242401611E+03  0.10566000000E+00 0. -1.
<mgrwt>
<rscale>  1 0.90432303E+03</rscale>
<asrwt>0</asrwt>
<pdfrwt beam="2">  1       21 0.10820940E+00 0.11154302E+04</pdfrwt>
<pdfrwt beam="1">  1        4 0.14149669E+00 0.11154302E+04</pdfrwt>
<totfact> 0.86069309E+00</totfact>
</mgrwt>
</event>
<event>
 6    1  0.1375310E-005  0.9210765E+03  0.7818608E-02  0.9761772E-01
         21   -1    0    0  501  502  0.00000000000E+00  0.00000000000E+00  0.82110283628E+03  0.82110283628E+03  0.00000000000E+00 0.  1.
          4   -1    0    0  502    0 -0.00000000000E+00 -0.00000000000E+00 -0.42845887175E+03  0.42845887175E+03  0.00000000000E+00 0.  1.
    9000010    2    1    2  501    0 -0.25514607240E+03 -0.71423704455E+02  0.31532239848E+03  0.97355536833E+03  0.88214566621E+03 0.  0.
        -13    1    3    3    0    0 -0.52949108905E+03 -0.24382124955E+03  0.11979108653E+03  0.59511304027E+03  0.10566000000E+00 0.  1.
          4    1    3    3  501    0  0.27434501666E+03  0.17239754510E+03  0.19553131194E+03  0.37844232806E+03  0.00000000000E+00 0.  1.
         13    1    1    2    0    0  0.25514607240E+03  0.71423704455E+02  0.77321566054E+02  0.27600633971E+03  0.10566000000E+00 0. -1.
<mgrwt>
<rscale>  1 0.67455067E+03</rscale>
<asrwt>0</asrwt>
<pdfrwt beam="1">  1       21 0.12632351E+00 0.92107646E+03</pdfrwt>
<pdfrwt beam="2">  1        4 0.65916749E-01 0.92107646E+03</pdfrwt>
<totfact> 0.36905482E+01</totfact>
</mgrwt>
</event>
<event>
 6    1  0.1375310E-005  0.1027191E+04  0.7818608E-02  0.1002560E+00
         21   -1    0    0  501  502  0.00000000000E+00  0.00000000000E+00  0.31314772840E+04  0.31314772840E+04  0.00000000000E+00 0.  1.
          4   -1    0    0  502    0 -0.00000000000E+00 -0.00000000000E+00 -0.99052133272E+02  0.99052133272E+02  0.00000000000E+00 0.  1.
    9000010    2    1    2  501    0  0.19485054194E+02  0.79291284131E+02  0.27163901901E+04  0.29041172812E+04  0.10239407908E+04 0.  0.
        -13    1    3    3    0    0  0.39895461100E+03 -0.20602034649E+03  0.19623476305E+04  0.20130616978E+04  0.10566000000E+00 0.  1.
          4    1    3    3  501    0 -0.37946955681E+03  0.28531163062E+03  0.75404255957E+03  0.89105558342E+03  0.00000000000E+00 0.  1.
         13    1    1    2    0    0 -0.19485054194E+02 -0.79291284131E+02  0.31603496060E+03  0.32641213605E+03  0.10566000000E+00 0. -1.
<mgrwt>
<rscale>  1 0.54541622E+03</rscale>
<asrwt>0</asrwt>
<pdfrwt beam="1">  1       21 0.48176566E+00 0.10271911E+04</pdfrwt>
<pdfrwt beam="2">  1        4 0.15238792E-01 0.10271911E+04</pdfrwt>
<totfact> 0.26250632E+00</totfact>
</mgrwt>
</event>
<event>
 6    1  0.1375310E-005  0.1050885E+04  0.7818608E-02  0.9593360E-01
         21   -1    0    0  501  502  0.00000000000E+00  0.00000000000E+00  0.18207607190E+04  0.18207607190E+04  0.00000000000E+00 0.  1.
          4   -1    0    0  502    0 -0.00000000000E+00 -0.00000000000E+00 -0.27033671118E+03  0.27033671118E+03  0.00000000000E+00 0.  1.
    9000010    2    1    2  501    0 -0.28886600025E+03  0.12478492935E+03  0.13757574813E+04  0.17312040413E+04  0.10026684101E+04 0.  0.
        -13    1    3    3    0    0  0.25835805604E+03 -0.27103509438E+03  0.52847657614E+03  0.64768542534E+03  0.10566000000E+00 0.  1.
          4    1    3    3  501    0 -0.54722405628E+03  0.39582002372E+03  0.84728090512E+03  0.10835186160E+04  0.00000000000E+00 0.  1.
         13    1    1    2    0    0  0.28886600025E+03 -0.12478492935E+03  0.17466652654E+03  0.35989338887E+03  0.10566000000E+00 0. -1.
<mgrwt>
<rscale>  1 0.77737195E+03</rscale>
<asrwt>0</asrwt>
<pdfrwt beam="1">  1       21 0.28011703E+00 0.10508848E+04</pdfrwt>
<pdfrwt beam="2">  1        4 0.41590264E-01 0.10508848E+04</pdfrwt>
<totfact> 0.78683317E+00</totfact>
</mgrwt>
</event>
<event>
 6    1  0.1375310E-005  0.1051447E+04  0.7818608E-02  0.9707306E-01
         21   -1    0    0  501  502  0.00000000000E+00  0.00000000000E+00  0.17080208528E+04  0.17080208528E+04  0.00000000000E+00 0.  1.
          4   -1    0    0  502    0 -0.00000000000E+00 -0.00000000000E+00 -0.23443027171E+03  0.23443027171E+03  0.00000000000E+00 0.  1.
    9000010    2    1    2  501    0 -0.20502129901E+03 -0.59661674080E+02  0.12466074393E+04  0.16308189595E+04  0.10295373343E+04 0.  0.
        -13    1    3    3    0    0 -0.35302809319E+03 -0.47310801915E+03  0.54682728906E+03  0.80466149877E+03  0.10566000000E+00 0.  1.
          4    1    3    3  501    0  0.14800679418E+03  0.41344634507E+03  0.69978015020E+03  0.82615746077E+03  0.00000000000E+00 0.  1.
         13    1    1    2    0    0  0.20502129901E+03  0.59661674080E+02  0.22698314179E+03  0.31163216494E+03  0.10566000000E+00 0. -1.
<mgrwt>
<rscale>  1 0.70583479E+03</rscale>
<asrwt>0</asrwt>
<pdfrwt beam="1">  1       21 0.26277243E+00 0.10514468E+04</pdfrwt>
<pdfrwt beam="2">  1        4 0.36066197E-01 0.10514468E+04</pdfrwt>
<totfact> 0.13498996E+01</totfact>
</mgrwt>
</event>
<event>
 6    1  0.1375310E-005  0.9970045E+03  0.7818608E-02  0.1001161E+00
          4   -1    0    0  502    0 -0.00000000000E+00  0.00000000000E+00  0.23631398077E+03  0.23631398077E+03  0.00000000000E+00 0.  1.
         21   -1    0    0  501  502  0.00000000000E+00 -0.00000000000E+00 -0.13383062741E+04  0.13383062741E+04  0.00000000000E+00 0.  1.
    9000010    2    1    2  501    0 -0.92010613888E+02  0.15489126146E+02 -0.10952412968E+04  0.14810710528E+04  0.99262888289E+03 0.  0.
        -13    1    3    3    0    0  0.29280774435E+02  0.40448297873E+03 -0.97540138445E+03  0.10563482928E+04  0.10566000000E+00 0.  1.
          4    1    3    3  501    0 -0.12129138832E+03 -0.38899385258E+03 -0.11983991231E+03  0.42472275994E+03  0.00000000000E+00 0.  1.
         13    1    1    2    0    0  0.92010613888E+02 -0.15489126146E+02 -0.67509965886E+01  0.93549202112E+02  0.10566000000E+00 0. -1.
<mgrwt>
<rscale>  1 0.55144145E+03</rscale>
<asrwt>0</asrwt>
<pdfrwt beam="2">  1       21 0.20589327E+00 0.99700450E+03</pdfrwt>
<pdfrwt beam="1">  1        4 0.36355997E-01 0.99700450E+03</pdfrwt>
<totfact> 0.31332213E+01</totfact>
</mgrwt>
</event>
<event>
 6    1  0.1375310E-005  0.1003042E+04  0.7818608E-02  0.9812327E-01
          4   -1    0    0  502    0 -0.00000000000E+00  0.00000000000E+00  0.10366974749E+04  0.10366974749E+04  0.00000000000E+00 0.  1.
         21   -1    0    0  501  502  0.00000000000E+00 -0.00000000000E+00 -0.38710572619E+03  0.38710572619E+03  0.00000000000E+00 0.  1.
    9000010    2    1    2  501    0  0.36949757137E+02 -0.16972403008E+03  0.32277977076E+03  0.10536983362E+04  0.98788758080E+03 0.  0.
        -13    1    3    3    0    0  0.23044759036E+03 -0.53872678943E+03  0.20395144764E+03  0.62042634511E+03  0.10566000000E+00 0.  1.
          4    1    3    3  501    0 -0.19349783322E+03  0.36900275935E+03  0.11882832312E+03  0.43327199107E+03  0.00000000000E+00 0.  1.
         13    1    1    2    0    0 -0.36949757137E+02  0.16972403008E+03  0.32681197795E+03  0.37010486492E+03  0.10566000000E+00 0. -1.
<mgrwt>
<rscale>  1 0.64705180E+03</rscale>
<asrwt>0</asrwt>
<pdfrwt beam="2">  1       21 0.59554728E-01 0.10030421E+04</pdfrwt>
<pdfrwt beam="1">  1        4 0.15949192E+00 0.10030421E+04</pdfrwt>
<totfact> 0.25891612E+01</totfact>
</mgrwt>
</event>
<event>
 6    1  0.1375310E-005  0.1049223E+04  0.7818608E-02  0.9762086E-01
         21   -1    0    0  501  502  0.00000000000E+00  0.00000000000E+00  0.22464106846E+03  0.22464106846E+03  0.00000000000E+00 0.  1.
          4   -1    0    0  502    0 -0.00000000000E+00 -0.00000000000E+00 -0.17926227856E+04  0.17926227856E+04  0.00000000000E+00 0.  1.
    9000010    2    1    2  501    0 -0.13213589194E+03  0.12084341601E+03 -0.11193334431E+04  0.15342024603E+04  0.10338311310E+04 0.  0.
        -13    1    3    3    0    0  0.31129231200E+03  0.18368922217E+03 -0.37570482118E+02  0.36339535790E+03  0.10566000000E+00 0.  1.
          4    1    3    3  501    0 -0.44342820394E+03 -0.62845806157E+02 -0.10817629610E+04  0.11708071024E+04  0.00000000000E+00 0.  1.
         13    1    1    2    0    0  0.13213589194E+03 -0.12084341601E+03 -0.44864827406E+03  0.48306139373E+03  0.10566000000E+00 0. -1.
<mgrwt>
<rscale>  1 0.67437517E+03</rscale>
<asrwt>0</asrwt>
<pdfrwt beam="1">  1       21 0.34560165E-01 0.10492234E+04</pdfrwt>
<pdfrwt beam="2">  1        4 0.27578812E+00 0.10492234E+04</pdfrwt>
<totfact> 0.14274100E+01</totfact>
</mgrwt>
</event>
<event>
 6    1  0.1375310E-005  0.1028743E+04  0.7818608E-02  0.9653134E-01
         21   -1    0    0  501  502  0.00000000000E+00  0.00000000000E+00  0.28089773552E+03  0.28089773552E+03  0.00000000000E+00 0.  1.
          4   -1    0    0  502    0 -0.00000000000E+00 -0.00000000000E+00 -0.15242384416E+04  0.15242384416E+04  0.00000000000E+00 0.  1.
    9000010    2    1    2  501    0 -0.20001587955E+03 -0.18668461496E+03 -0.90626155769E+03  0.13709935036E+04  0.99169333891E+03 0.  0.
        -13    1    3    3    0    0 -0.11897577916E+03  0.33628901701E+03 -0.73120544045E+03  0.81357663824E+03  0.10566000000E+00 0.  1.
          4    1    3    3  501    0 -0.81040100393E+02 -0.52297363196E+03 -0.17505611724E+03  0.55741686536E+03  0.00000000000E+00 0.  1.
         13    1    1    2    0    0  0.20001587955E+03  0.18668461496E+03 -0.33707914842E+03  0.43414267355E+03  0.10566000000E+00 0. -1.
<mgrwt>
<rscale>  1 0.73877084E+03</rscale>
<asrwt>0</asrwt>
<pdfrwt beam="1">  1       21 0.43215036E-01 0.10287435E+04</pdfrwt>
<pdfrwt beam="2">  1        4 0.23449822E+00 0.10287435E+04</pdfrwt>
<totfact> 0.16174913E+01</totfact>
</mgrwt>
</event>
<event>
 6    1  0.1375310E-005  0.1029302E+04  0.7818608E-02  0.9870250E-01
         21   -1    0    0  501  502  0.00000000000E+00  0.00000000000E+00  0.21873125151E+03  0.21873125151E+03  0.00000000000E+00 0.  1.
          4   -1    0    0  502    0 -0.00000000000E+00 -0.00000000000E+00 -0.17388667306E+04  0.17388667306E+04  0.00000000000E+00 0.  1.
    9000010    2    1    2  501    0  0.38295456285E+02 -0.12748381325E+03 -0.10555935294E+04  0.14743610849E+04  0.10206587308E+04 0.  0.
        -13    1    3    3    0    0 -0.35459109654E+03  0.12211639231E+03 -0.91381818723E+03  0.98778082057E+03  0.10566000000E+00 0.  1.
          4    1    3    3  501    0  0.39288655282E+03 -0.24960020556E+03 -0.14177534216E+03  0.48658026434E+03  0.00000000000E+00 0.  1.
         13    1    1    2    0    0 -0.38295456285E+02  0.12748381325E+03 -0.46454194972E+03  0.48323689722E+03  0.10566000000E+00 0. -1.
<mgrwt>
<rscale>  1 0.61724995E+03</rscale>
<asrwt>0</asrwt>
<pdfrwt beam="1">  1       21 0.33650962E-01 0.10293021E+04</pdfrwt>
<pdfrwt beam="2">  1        4 0.26751795E+00 0.10293021E+04</pdfrwt>
<totfact> 0.16990624E+01</totfact>
</mgrwt>
</event>
<event>
 6    1  0.1375310E-005  0.1028918E+04  0.7818608E-02  0.9720867E-01
         21   -1    0    0  501  502  0.00000000000E+00  0.00000000000E+00  0.45695571560E+03  0.45695571560E+03  0.00000000000E+00 0.  1.
          4   -1    0    0  502    0 -0.00000000000E+00 -0.00000000000E+00 -0.10515957790E+04  0.10515957790E+04  0.00000000000E+00 0.  1.
    9000010    2    1    2  501    0 -0.21327719362E+02  0.21671255195E+03 -0.18611749000E+03  0.10456153155E+04  0.10056104942E+04 0.  0.
        -13    1    3    3    0    0 -0.38999613821E+03 -0.18718595352E+03  0.75949484514E+02  0.43920826993E+03  0.10566000000E+00 0.  1.
          4    1    3    3  501    0  0.36866841885E+03  0.40389850546E+03 -0.26206697451E+03  0.60640704556E+03  0.00000000000E+00 0.  1.
         13    1    1    2    0    0  0.21327719362E+02 -0.21671255195E+03 -0.40852257338E+03  0.46293617909E+03  0.10566000000E+00 0. -1.
<mgrwt>
<rscale>  1 0.69787843E+03</rscale>
<asrwt>0</asrwt>
<pdfrwt beam="1">  1       21 0.70300880E-01 0.10289177E+04</pdfrwt>
<pdfrwt beam="2">  1        4 0.16178397E+00 0.10289177E+04</pdfrwt>
<totfact> 0.17066997E+01</totfact>
</mgrwt>
</event>
<event>
 6    1  0.1375310E-005  0.1007402E+04  0.7818608E-02  0.9951308E-01
         21   -1    0    0  501  502  0.00000000000E+00  0.00000000000E+00  0.95991746802E+03  0.95991746802E+03  0.00000000000E+00 0.  1.
          4   -1    0    0  502    0 -0.00000000000E+00 -0.00000000000E+00 -0.59526986782E+03  0.59526986782E+03  0.00000000000E+00 0.  1.
    9000010    2    1    2  501    0 -0.42903974109E+02  0.10069706866E+03  0.68395373885E+03  0.12176416767E+04  0.10014379089E+04 0.  0.
        -13    1    3    3    0    0  0.46045303425E+03  0.41722132270E+02  0.49349331268E+03  0.67623471805E+03  0.10566000000E+00 0.  1.
          4    1    3    3  501    0 -0.50335700836E+03  0.58974936387E+02  0.19046042616E+03  0.54140695870E+03  0.00000000000E+00 0.  1.
         13    1    1    2    0    0  0.42903974109E+02 -0.10069706866E+03 -0.31930613864E+03  0.33754565909E+03  0.10566000000E+00 0. -1.
<mgrwt>
<rscale>  1 0.57837854E+03</rscale>
<asrwt>0</asrwt>
<pdfrwt beam="1">  1       21 0.14767961E+00 0.10074019E+04</pdfrwt>
<pdfrwt beam="2">  1        4 0.91579980E-01 0.10074019E+04</pdfrwt>
<totfact> 0.11318376E+01</totfact>
</mgrwt>
</event>
<event>
 6    1  0.1375310E-005  0.1086312E+04  0.7818608E-02  0.9526476E-01
          4   -1    0    0  502    0 -0.00000000000E+00  0.00000000000E+00  0.46518619012E+03  0.46518619012E+03  0.00000000000E+00 0.  1.
         21   -1    0    0  501  502  0.00000000000E+00 -0.00000000000E+00 -0.12679546457E+04  0.12679546457E+04  0.00000000000E+00 0.  1.
    9000010    2    1    2  501    0 -0.30764582374E+03  0.18486767914E+03 -0.83873613101E+03  0.13724253018E+04  0.10253052716E+04 0.  0.
        -13    1    3    3    0    0 -0.45754303847E+02  0.58938548790E+03 -0.56737829697E+03  0.81938199437E+03  0.10566000000E+00 0.  1.
          4    1    3    3  501    0 -0.26189151990E+03 -0.40451780876E+03 -0.27135783404E+03  0.55304330743E+03  0.00000000000E+00 0.  1.
         13    1    1    2    0    0  0.30764582374E+03 -0.18486767914E+03  0.35967675413E+02  0.36071553404E+03  0.10566000000E+00 0. -1.
<mgrwt>
<rscale>  1 0.82359667E+03</rscale>
<asrwt>0</asrwt>
<pdfrwt beam="2">  1       21 0.19506994E+00 0.10863116E+04</pdfrwt>
<pdfrwt beam="1">  1        4 0.71567108E-01 0.10863116E+04</pdfrwt>
<totfact> 0.87343688E+00</totfact>
</mgrwt>
</event>
<event>
 6    1  0.1375310E-005  0.1017585E+04  0.7818608E-02  0.9795039E-01
         21   -1    0    0  501  502  0.00000000000E+00  0.00000000000E+00  0.50239845450E+03  0.50239845450E+03  0.00000000000E+00 0.  1.
          4   -1    0    0  502    0 -0.00000000000E+00 -0.00000000000E+00 -0.71335663373E+03  0.71335663373E+03  0.00000000000E+00 0.  1.
    9000010    2    1    2  501    0  0.45641982345E+02  0.17005050156E+03 -0.21316510306E+03  0.10396720246E+04  0.10022365958E+04 0.  0.
        -13    1    3    3    0    0 -0.42354606209E+03 -0.14204360780E+03 -0.15638470146E+03  0.47331156678E+03  0.10566000000E+00 0.  1.
          4    1    3    3  501    0  0.46918804443E+03  0.31209410937E+03 -0.56780401601E+02  0.56636045779E+03  0.00000000000E+00 0.  1.
         13    1    1    2    0    0 -0.45641982345E+02 -0.17005050156E+03  0.22069238336E+01  0.17608306367E+03  0.10566000000E+00 0. -1.
<mgrwt>
<rscale>  1 0.65629461E+03</rscale>
<asrwt>0</asrwt>
<pdfrwt beam="1">  1       21 0.77292070E-01 0.10175847E+04</pdfrwt>
<pdfrwt beam="2">  1        4 0.10974717E+00 0.10175847E+04</pdfrwt>
<totfact> 0.37576494E+01</totfact>
</mgrwt>
</event>
<event>
 6    1  0.1375310E-005  0.9945337E+03  0.7818608E-02  0.9662867E-01
         21   -1    0    0  501  502  0.00000000000E+00  0.00000000000E+00  0.40224051258E+03  0.40224051258E+03  0.00000000000E+00 0.  1.
          4   -1    0    0  502    0 -0.00000000000E+00 -0.00000000000E+00 -0.10385440450E+04  0.10385440450E+04  0.00000000000E+00 0.  1.
    9000010    2    1    2  501    0  0.29220256229E+03 -0.21702608223E+02 -0.54393942091E+03  0.11335639839E+04  0.95039143064E+03 0.  0.
        -13    1    3    3    0    0  0.20916169705E+03 -0.37975594408E+03 -0.62163283973E+03  0.75788560560E+03  0.10566000000E+00 0.  1.
          4    1    3    3  501    0  0.83040865241E+02  0.35805333586E+03  0.77693418818E+02  0.37567837833E+03  0.00000000000E+00 0.  1.
         13    1    1    2    0    0 -0.29220256229E+03  0.21702608223E+02 -0.92364111490E+02  0.30722057364E+03  0.10566000000E+00 0. -1.
<mgrwt>
<rscale>  1 0.73271373E+03</rscale>
<asrwt>0</asrwt>
<pdfrwt beam="1">  1       21 0.61883155E-01 0.99453367E+03</pdfrwt>
<pdfrwt beam="2">  1        4 0.15977601E+00 0.99453367E+03</pdfrwt>
<totfact> 0.23668827E+01</totfact>
</mgrwt>
</event>
<event>
 6    1  0.1375310E-005  0.1013404E+04  0.7818608E-02  0.9797042E-01
          4   -1    0    0  502    0 -0.00000000000E+00  0.00000000000E+00  0.16559554148E+04  0.16559554148E+04  0.00000000000E+00 0.  1.
         21   -1    0    0  501  502  0.00000000000E+00 -0.00000000000E+00 -0.21573706943E+03  0.21573706943E+03  0.00000000000E+00 0.  1.
    9000010    2    1    2  501    0 -0.44924378192E+02  0.17129398292E+03  0.11612370624E+04  0.15412527836E+04  0.99781200610E+03 0.  0.
        -13    1    3    3    0    0  0.27923550942E+03 -0.22091220909E+03  0.10886589953E+03  0.37232575668E+03  0.10566000000E+00 0.  1.
          4    1    3    3  501    0 -0.32415988762E+03  0.39220619201E+03  0.10523711629E+04  0.11689270269E+04  0.00000000000E+00 0.  1.
         13    1    1    2    0    0  0.44924378192E+02 -0.17129398292E+03  0.27898128296E+03  0.33043970063E+03  0.10566000000E+00 0. -1.
<mgrwt>
<rscale>  1 0.65521502E+03</rscale>
<asrwt>0</asrwt>
<pdfrwt beam="2">  1       21 0.33190320E-01 0.10134045E+04</pdfrwt>
<pdfrwt beam="1">  1        4 0.25476236E+00 0.10134045E+04</pdfrwt>
<totfact> 0.20982231E+01</totfact>
</mgrwt>
</event>
<event>
 6    1  0.1375310E-005  0.9535463E+03  0.7818608E-02  0.9955177E-01
         21   -1    0    0  501  502  0.00000000000E+00  0.00000000000E+00  0.45698890073E+03  0.45698890073E+03  0.00000000000E+00 0.  1.
          4   -1    0    0  502    0 -0.00000000000E+00 -0.00000000000E+00 -0.84200989854E+03  0.84200989854E+03  0.00000000000E+00 0.  1.
    9000010    2    1    2  501    0  0.96145201312E+02 -0.83724730303E+02 -0.66443534020E+02  0.95585838807E+03  0.94498507112E+03 0.  0.
        -13    1    3    3    0    0  0.14544493443E+03  0.48586718338E+02  0.42116759420E+03  0.44821540772E+03  0.10566000000E+00 0.  1.
          4    1    3    3  501    0 -0.49299733116E+02 -0.13231144864E+03 -0.48761112822E+03  0.50764298035E+03  0.00000000000E+00 0.  1.
         13    1    1    2    0    0 -0.96145201312E+02  0.83724730303E+02 -0.31857746379E+03  0.34314041120E+03  0.10566000000E+00 0. -1.
<mgrwt>
<rscale>  1 0.57660115E+03</rscale>
<asrwt>0</asrwt>
<pdfrwt beam="1">  1       21 0.70305986E-01 0.95354628E+03</pdfrwt>
<pdfrwt beam="2">  1        4 0.12953998E+00 0.95354628E+03</pdfrwt>
<totfact> 0.31030892E+01</totfact>
</mgrwt>
</event>
<event>
 6    1  0.1375310E-005  0.1006705E+04  0.7818608E-02  0.9766499E-01
         21   -1    0    0  501  502  0.00000000000E+00  0.00000000000E+00  0.16523739990E+04  0.16523739990E+04  0.00000000000E+00 0.  1.
          4   -1    0    0  502    0 -0.00000000000E+00 -0.00000000000E+00 -0.22023400760E+03  0.22023400760E+03  0.00000000000E+00 0.  1.
    9000010    2    1    2  501    0 -0.37821544667E+02 -0.19616999429E+03  0.11977486786E+04  0.15646267822E+04  0.98668228657E+03 0.  0.
        -13    1    3    3    0    0  0.19867905677E+03 -0.26291054445E+03 -0.12408541433E+02  0.32977159527E+03  0.10566000000E+00 0.  1.
          4    1    3    3  501    0 -0.23650060144E+03  0.66740550164E+02  0.12101572200E+04  0.12348551869E+04  0.00000000000E+00 0.  1.
         13    1    1    2    0    0  0.37821544667E+02  0.19616999429E+03  0.23439131279E+03  0.30798122439E+03  0.10566000000E+00 0. -1.
<mgrwt>
<rscale>  1 0.67191786E+03</rscale>
<asrwt>0</asrwt>
<pdfrwt beam="1">  1       21 0.25421138E+00 0.10067051E+04</pdfrwt>
<pdfrwt beam="2">  1        4 0.33882156E-01 0.10067051E+04</pdfrwt>
<totfact> 0.17436312E+01</totfact>
</mgrwt>
</event>
<event>
 6    1  0.1375310E-005  0.1053342E+04  0.7818608E-02  0.9530333E-01
          4   -1    0    0  502    0 -0.00000000000E+00  0.00000000000E+00  0.16384563350E+04  0.16384563350E+04  0.00000000000E+00 0.  1.
         21   -1    0    0  501  502  0.00000000000E+00 -0.00000000000E+00 -0.31784559276E+03  0.31784559276E+03  0.00000000000E+00 0. -1.
    9000010    2    1    2  501    0 -0.84800805558E+02 -0.37907191826E+03  0.92442964768E+03  0.14014630623E+04  0.97910257150E+03 0.  0.
        -13    1    3    3    0    0 -0.43955648447E+03 -0.49764149449E+03  0.70208134933E+03  0.96632043977E+03  0.10566000000E+00 0.  1.
          4    1    3    3  501    0  0.35475567891E+03  0.11856957623E+03  0.22234829835E+03  0.43514262249E+03  0.00000000000E+00 0.  1.
         13    1    1    2    0    0  0.84800805558E+02  0.37907191826E+03  0.39618109459E+03  0.55483886554E+03  0.10566000000E+00 0. -1.
<mgrwt>
<rscale>  1 0.82083960E+03</rscale>
<asrwt>0</asrwt>
<pdfrwt beam="2">  1       21 0.48899323E-01 0.10533416E+04</pdfrwt>
<pdfrwt beam="1">  1        4 0.25207020E+00 0.10533416E+04</pdfrwt>
<totfact> 0.96273989E+00</totfact>
</mgrwt>
</event>
<event>
 6    1  0.1375310E-005  0.1033376E+04  0.7818608E-02  0.9603095E-01
         21   -1    0    0  501  502  0.00000000000E+00  0.00000000000E+00  0.10425302825E+04  0.10425302825E+04  0.00000000000E+00 0.  1.
          4   -1    0    0  502    0 -0.00000000000E+00 -0.00000000000E+00 -0.66513786381E+03  0.66513786381E+03  0.00000000000E+00 0.  1.
    9000010    2    1    2  501    0 -0.22865682023E+03  0.22397654933E+03  0.70398181640E+03  0.12503825879E+04  0.98255624884E+03 0.  0.
        -13    1    3    3    0    0 -0.33744881050E+03  0.16983832311E+03  0.92443974318E+03  0.99865189413E+03  0.10566000000E+00 0.  1.
          4    1    3    3  501    0  0.10879199027E+03  0.54138226225E+02 -0.22045792679E+03  0.25173069374E+03  0.00000000000E+00 0.  1.
         13    1    1    2    0    0  0.22865682023E+03 -0.22397654933E+03 -0.32658939772E+03  0.45728555844E+03  0.10566000000E+00 0. -1.
<mgrwt>
<rscale>  1 0.77091682E+03</rscale>
<asrwt>0</asrwt>
<pdfrwt beam="1">  1       21 0.16038927E+00 0.10333761E+04</pdfrwt>
<pdfrwt beam="2">  1        4 0.10232890E+00 0.10333761E+04</pdfrwt>
<totfact> 0.68559360E+00</totfact>
</mgrwt>
</event>
<event>
 6    1  0.1375310E-005  0.1135329E+04  0.7818608E-02  0.9391221E-01
          4   -1    0    0  502    0 -0.00000000000E+00  0.00000000000E+00  0.20546532487E+04  0.20546532487E+04  0.00000000000E+00 0.  1.
         21   -1    0    0  501  502  0.00000000000E+00 -0.00000000000E+00 -0.33816886079E+03  0.33816886079E+03  0.00000000000E+00 0.  1.
    9000010    2    1    2  501    0 -0.23285473522E+03  0.45016773702E+03  0.98591123482E+03  0.15036598845E+04  0.10159231103E+04 0.  0.
        -13    1    3    3    0    0 -0.47884196827E+03  0.51868556370E+03  0.10257843542E+04  0.12452139965E+04  0.10566000000E+00 0.  1.
          4    1    3    3  501    0  0.24598723305E+03 -0.68517826676E+02 -0.39873119333E+02  0.25844588804E+03  0.00000000000E+00 0.  1.
         13    1    1    2    0    0  0.23285473522E+03 -0.45016773702E+03  0.73057315306E+03  0.88916222497E+03  0.10566000000E+00 0. -1.
<mgrwt>
<rscale>  1 0.92801711E+03</rscale>
<asrwt>0</asrwt>
<pdfrwt beam="2">  1       21 0.52025980E-01 0.11353291E+04</pdfrwt>
<pdfrwt beam="1">  1        4 0.31610049E+00 0.11353291E+04</pdfrwt>
<totfact> 0.33426531E+00</totfact>
</mgrwt>
</event>
<event>
 6    1  0.1375310E-005  0.1046463E+04  0.7818608E-02  0.9638376E-01
          4   -1    0    0  502    0 -0.00000000000E+00  0.00000000000E+00  0.21238922252E+04  0.21238922252E+04  0.00000000000E+00 0.  1.
         21   -1    0    0  501  502  0.00000000000E+00 -0.00000000000E+00 -0.28838786770E+03  0.28838786770E+03  0.00000000000E+00 0.  1.
    9000010    2    1    2  501    0 -0.27287611045E+03  0.14845254652E+02  0.73611186718E+03  0.12794316422E+04  0.10101499359E+04 0.  0.
        -13    1    3    3    0    0 -0.17644956513E+03  0.43227250134E+03  0.71058754942E+03  0.85025210438E+03  0.10566000000E+00 0.  1.
          4    1    3    3  501    0 -0.96426545321E+02 -0.41742724669E+03  0.25524317761E+02  0.42917953786E+03  0.00000000000E+00 0.  1.
         13    1    1    2    0    0  0.27287611045E+03 -0.14845254652E+02  0.10993924904E+04  0.11328484507E+04  0.10566000000E+00 0. -1.
<mgrwt>
<rscale>  1 0.74807425E+03</rscale>
<asrwt>0</asrwt>
<pdfrwt beam="2">  1       21 0.44367365E-01 0.10464629E+04</pdfrwt>
<pdfrwt beam="1">  1        4 0.32675264E+00 0.10464629E+04</pdfrwt>
<totfact> 0.40848144E+00</totfact>
</mgrwt>
</event>
<event>
 6    1  0.1375310E-005  0.1121509E+04  0.7818608E-02  0.9369739E-01
         21   -1    0    0  501  502  0.00000000000E+00  0.00000000000E+00  0.63321176848E+03  0.63321176848E+03  0.00000000000E+00 0.  1.
          4   -1    0    0  502    0 -0.00000000000E+00 -0.00000000000E+00 -0.14349047624E+04  0.14349047624E+04  0.00000000000E+00 0.  1.
    9000010    2    1    2  501    0  0.53854732549E+03  0.18037450322E+03 -0.45553201397E+02  0.11224339307E+04  0.96706496757E+03 0.  0.
        -13    1    3    3    0    0  0.62434461068E+03  0.46153471891E+03  0.11910851591E+03  0.78549814727E+03  0.10566000000E+00 0.  1.
          4    1    3    3  501    0 -0.85797285192E+02 -0.28116021569E+03 -0.16466171730E+03  0.33693578346E+03  0.00000000000E+00 0.  1.
         13    1    1    2    0    0 -0.53854732549E+03 -0.18037450322E+03 -0.75613979247E+03  0.94568260010E+03  0.10566000000E+00 0. -1.
<mgrwt>
<rscale>  1 0.94608426E+03</rscale>
<asrwt>0</asrwt>
<pdfrwt beam="1">  1       21 0.97417196E-01 0.11215092E+04</pdfrwt>
<pdfrwt beam="2">  1        4 0.22075458E+00 0.11215092E+04</pdfrwt>
<totfact> 0.30836224E+00</totfact>
</mgrwt>
</event>
<event>
 6    1  0.1375310E-005  0.9857962E+03  0.7818608E-02  0.1003583E+00
          4   -1    0    0  502    0 -0.00000000000E+00  0.00000000000E+00  0.71135594741E+03  0.71135594741E+03  0.00000000000E+00 0.  1.
         21   -1    0    0  501  502  0.00000000000E+00 -0.00000000000E+00 -0.47685181964E+03  0.47685181964E+03  0.00000000000E+00 0.  1.
    9000010    2    1    2  501    0  0.89442572311E+02  0.19573258922E+01  0.54624352393E+02  0.98730841508E+03  0.98172821175E+03 0.  0.
        -13    1    3    3    0    0 -0.40431196493E+03 -0.18845400386E+03 -0.46648456796E+02  0.44850771035E+03  0.10566000000E+00 0.  1.
          4    1    3    3  501    0  0.49375453724E+03  0.19041132975E+03  0.10127280919E+03  0.53880070474E+03  0.00000000000E+00 0.  1.
         13    1    1    2    0    0 -0.89442572311E+02 -0.19573258922E+01  0.17987977538E+03  0.20089935197E+03  0.10566000000E+00 0. -1.
<mgrwt>
<rscale>  1 0.54106879E+03</rscale>
<asrwt>0</asrwt>
<pdfrwt beam="2">  1       21 0.73361818E-01 0.98579617E+03</pdfrwt>
<pdfrwt beam="1">  1        4 0.10943938E+00 0.98579617E+03</pdfrwt>
<totfact> 0.42830133E+01</totfact>
</mgrwt>
</event>
<event>
 6    1  0.1375310E-005  0.1033486E+04  0.7818608E-02  0.9680029E-01
         21   -1    0    0  501  502  0.00000000000E+00  0.00000000000E+00  0.81818942612E+03  0.81818942612E+03  0.00000000000E+00 0.  1.
          4   -1    0    0  502    0 -0.00000000000E+00 -0.00000000000E+00 -0.50057519272E+03  0.50057519272E+03  0.00000000000E+00 0.  1.
    9000010    2    1    2  501    0 -0.22059207234E+03 -0.10982968983E+03  0.25240641541E+03  0.10638617082E+04  0.10036778928E+04 0.  0.
        -13    1    3    3    0    0  0.19046342488E+03 -0.14739043199E+03  0.51922870946E+03  0.57236240228E+03  0.10566000000E+00 0.  1.
          4    1    3    3  501    0 -0.41105549722E+03  0.37560742154E+02 -0.26682229404E+03  0.49149930594E+03  0.00000000000E+00 0.  1.
         13    1    1    2    0    0  0.22059207234E+03  0.10982968983E+03  0.65207817990E+02  0.25490291061E+03  0.10566000000E+00 0. -1.
<mgrwt>
<rscale>  1 0.72218415E+03</rscale>
<asrwt>0</asrwt>
<pdfrwt beam="1">  1       21 0.12587530E+00 0.10334857E+04</pdfrwt>
<pdfrwt beam="2">  1        4 0.77011568E-01 0.10334857E+04</pdfrwt>
<totfact> 0.25975459E+01</totfact>
</mgrwt>
</event>
<event>
 6    1  0.1375310E-005  0.1120704E+04  0.7818608E-02  0.9416896E-01
          4   -1    0    0  502    0 -0.00000000000E+00  0.00000000000E+00  0.74821732943E+03  0.74821732943E+03  0.00000000000E+00 0.  1.
         21   -1    0    0  501  502  0.00000000000E+00 -0.00000000000E+00 -0.86237843081E+03  0.86237843081E+03  0.00000000000E+00 0. -1.
    9000010    2    1    2  501    0 -0.26058794543E+03 -0.40399919226E+03 -0.20997084325E+02  0.11209009881E+04  0.10123520746E+04 0.  0.
        -13    1    3    3    0    0 -0.18221692946E+03 -0.29872649189E+03 -0.50781747142E+03  0.61670018793E+03  0.10566000000E+00 0.  1.
          4    1    3    3  501    0 -0.78371015967E+02 -0.10527270036E+03  0.48682038710E+03  0.50420080016E+03  0.00000000000E+00 0.  1.
         13    1    1    2    0    0  0.26058794543E+03  0.40399919226E+03 -0.93164017056E+02  0.48969477216E+03  0.10566000000E+00 0. -1.
<mgrwt>
<rscale>  1 0.90698136E+03</rscale>
<asrwt>0</asrwt>
<pdfrwt beam="2">  1       21 0.13267360E+00 0.11207043E+04</pdfrwt>
<pdfrwt beam="1">  1        4 0.11511036E+00 0.11207043E+04</pdfrwt>
<totfact> 0.85926799E+00</totfact>
</mgrwt>
</event>
<event>
 6    1  0.1375310E-005  0.1022298E+04  0.7818608E-02  0.9751004E-01
         21   -1    0    0  501  502  0.00000000000E+00  0.00000000000E+00  0.20018093806E+03  0.20018093806E+03  0.00000000000E+00 0.  1.
          4   -1    0    0  502    0 -0.00000000000E+00 -0.00000000000E+00 -0.22117420075E+04  0.22117420075E+04  0.00000000000E+00 0.  1.
    9000010    2    1    2  501    0 -0.16843708909E+03 -0.10936568481E+03 -0.12025596684E+04  0.15783671982E+04  0.10023778480E+04 0.  0.
        -13    1    3    3    0    0  0.30603272100E+03 -0.34415865021E+03 -0.36550575267E+03  0.58795890097E+03  0.10566000000E+00 0.  1.
          4    1    3    3  501    0 -0.47446981009E+03  0.23479296540E+03 -0.83705391574E+03  0.99040829719E+03  0.00000000000E+00 0.  1.
         13    1    1    2    0    0  0.16843708909E+03  0.10936568481E+03 -0.80900140104E+03  0.83355574741E+03  0.10566000000E+00 0. -1.
<mgrwt>
<rscale>  1 0.68059578E+03</rscale>
<asrwt>0</asrwt>
<pdfrwt beam="1">  1       21 0.30797070E-01 0.10222980E+04</pdfrwt>
<pdfrwt beam="2">  1        4 0.34026798E+00 0.10222980E+04</pdfrwt>
<totfact> 0.71684795E+00</totfact>
</mgrwt>
</event>
<event>
 6    1  0.1375310E-005  0.1057608E+04  0.7818608E-02  0.9544067E-01
          4   -1    0    0  502    0 -0.00000000000E+00  0.00000000000E+00  0.16882432983E+04  0.16882432983E+04  0.00000000000E+00 0.  1.
         21   -1    0    0  501  502  0.00000000000E+00 -0.00000000000E+00 -0.59059232017E+03  0.59059232017E+03  0.00000000000E+00 0.  1.
    9000010    2    1    2  501    0 -0.27820083704E+03  0.23766113533E+03 -0.65360088018E+02  0.10596255168E+04  0.99229822820E+03 0.  0.
        -13    1    3    3    0    0  0.30038810847E+03 -0.57048687113E+02  0.19213130088E+03  0.36111219358E+03  0.10566000000E+00 0.  1.
          4    1    3    3  501    0 -0.57858894551E+03  0.29470982244E+03 -0.25749138890E+03  0.69851332318E+03  0.00000000000E+00 0.  1.
         13    1    1    2    0    0  0.27820083704E+03 -0.23766113533E+03  0.11630110662E+04  0.12192101017E+04  0.10566000000E+00 0. -1.
<mgrwt>
<rscale>  1 0.81111486E+03</rscale>
<asrwt>0</asrwt>
<pdfrwt beam="2">  1       21 0.90860358E-01 0.10576078E+04</pdfrwt>
<pdfrwt beam="1">  1        4 0.25972974E+00 0.10576078E+04</pdfrwt>
<totfact> 0.21028958E+00</totfact>
</mgrwt>
</event>
<event>
 6    1  0.1375310E-005  0.1065892E+04  0.7818608E-02  0.9561543E-01
          4   -1    0    0  502    0 -0.00000000000E+00  0.00000000000E+00  0.12504052676E+04  0.12504052676E+04  0.00000000000E+00 0.  1.
         21   -1    0    0  501  502  0.00000000000E+00 -0.00000000000E+00 -0.46377252942E+03  0.46377252942E+03  0.00000000000E+00 0.  1.
    9000010    2    1    2  501    0 -0.63167152680E+02  0.33047587479E+03  0.27324152895E+03  0.11003578414E+04  0.10113960911E+04 0.  0.
        -13    1    3    3    0    0 -0.27584332670E+03 -0.14036285118E+03  0.45705658792E+03  0.55198913630E+03  0.10566000000E+00 0.  1.
          4    1    3    3  501    0  0.21267617402E+03  0.47083872597E+03 -0.18381505897E+03  0.54836870513E+03  0.00000000000E+00 0.  1.
         13    1    1    2    0    0  0.63167152680E+02 -0.33047587479E+03  0.51339120921E+03  0.61381995557E+03  0.10566000000E+00 0. -1.
<mgrwt>
<rscale>  1 0.79894690E+03</rscale>
<asrwt>0</asrwt>
<pdfrwt beam="2">  1       21 0.71349620E-01 0.10658923E+04</pdfrwt>
<pdfrwt beam="1">  1        4 0.19237004E+00 0.10658923E+04</pdfrwt>
<totfact> 0.99964573E+00</totfact>
</mgrwt>
</event>
<event>
 6    1  0.1375310E-005  0.1015158E+04  0.7818608E-02  0.9734412E-01
          4   -1    0    0  502    0 -0.00000000000E+00  0.00000000000E+00  0.10947595013E+04  0.10947595013E+04  0.00000000000E+00 0.  1.
         21   -1    0    0  501  502  0.00000000000E+00 -0.00000000000E+00 -0.40382262264E+03  0.40382262264E+03  0.00000000000E+00 0.  1.
    9000010    2    1    2  501    0  0.23607700211E+02 -0.21543290366E+03  0.31195424260E+03  0.10620085229E+04  0.99175500696E+03 0.  0.
        -13    1    3    3    0    0 -0.48078723855E+03 -0.15021778449E+03  0.19503847321E+03  0.54014976509E+03  0.10566000000E+00 0.  1.
          4    1    3    3  501    0  0.50439493876E+03 -0.65215119177E+02  0.11691576939E+03  0.52185875786E+03  0.00000000000E+00 0.  1.
         13    1    1    2    0    0 -0.23607700211E+02  0.21543290366E+03  0.37898263610E+03  0.43657360104E+03  0.10566000000E+00 0. -1.
<mgrwt>
<rscale>  1 0.69004340E+03</rscale>
<asrwt>0</asrwt>
<pdfrwt beam="2">  1       21 0.62126558E-01 0.10151584E+04</pdfrwt>
<pdfrwt beam="1">  1        4 0.16842454E+00 0.10151584E+04</pdfrwt>
<totfact> 0.20223380E+01</totfact>
</mgrwt>
</event>
<event>
 6    1  0.1375310E-005  0.1006411E+04  0.7818608E-02  0.9875062E-01
          4   -1    0    0  502    0 -0.00000000000E+00  0.00000000000E+00  0.40960957364E+03  0.40960957364E+03  0.00000000000E+00 0.  1.
         21   -1    0    0  501  502  0.00000000000E+00 -0.00000000000E+00 -0.11405160023E+04  0.11405160023E+04  0.00000000000E+00 0.  1.
    9000010    2    1    2  501    0  0.48070210748E+02 -0.13170455577E+03 -0.88615061060E+03  0.13409423970E+04  0.99659759789E+03 0.  0.
        -13    1    3    3    0    0  0.19727830031E+03  0.23292534434E+03 -0.89628313187E+03  0.94683494203E+03  0.10566000000E+00 0.  1.
          4    1    3    3  501    0 -0.14920808956E+03 -0.36462990010E+03  0.10132521277E+02  0.39410745492E+03  0.00000000000E+00 0.  1.
         13    1    1    2    0    0 -0.48070210748E+02  0.13170455577E+03  0.15524418196E+03  0.20918317898E+03  0.10566000000E+00 0. -1.
<mgrwt>
<rscale>  1 0.61485236E+03</rscale>
<asrwt>0</asrwt>
<pdfrwt beam="2">  1       21 0.17546400E+00 0.10064113E+04</pdfrwt>
<pdfrwt beam="1">  1        4 0.63016858E-01 0.10064113E+04</pdfrwt>
<totfact> 0.16169861E+01</totfact>
</mgrwt>
</event>
<event>
 6    1  0.1375310E-005  0.1051189E+04  0.7818608E-02  0.9577943E-01
         21   -1    0    0  501  502  0.00000000000E+00  0.00000000000E+00  0.39472246833E+03  0.39472246833E+03  0.00000000000E+00 0.  1.
          4   -1    0    0  502    0 -0.00000000000E+00 -0.00000000000E+00 -0.15466551947E+04  0.15466551947E+04  0.00000000000E+00 0.  1.
    9000010    2    1    2  501    0 -0.30730539703E+03  0.12430437086E+03 -0.40919975428E+03  0.11280262859E+04  0.99755234408E+03 0.  0.
        -13    1    3    3    0    0  0.29206533623E+03 -0.21254208907E+03 -0.10476398038E+03  0.37610078836E+03  0.10566000000E+00 0.  1.
          4    1    3    3  501    0 -0.59937073326E+03  0.33684645994E+03 -0.30443577390E+03  0.75192549757E+03  0.00000000000E+00 0.  1.
         13    1    1    2    0    0  0.30730539703E+03 -0.12430437086E+03 -0.74273297213E+03  0.81335137715E+03  0.10566000000E+00 0. -1.
<mgrwt>
<rscale>  1 0.78773396E+03</rscale>
<asrwt>0</asrwt>
<pdfrwt beam="1">  1       21 0.60726534E-01 0.10511893E+04</pdfrwt>
<pdfrwt beam="2">  1        4 0.23794695E+00 0.10511893E+04</pdfrwt>
<totfact> 0.73278365E+00</totfact>
</mgrwt>
</event>
<event>
 6    1  0.1375310E-005  0.1547818E+04  0.7818608E-02  0.8916220E-01
          4   -1    0    0  502    0 -0.00000000000E+00  0.00000000000E+00  0.10897576779E+04  0.10897576779E+04  0.00000000000E+00 0.  1.
         21   -1    0    0  501  502  0.00000000000E+00 -0.00000000000E+00 -0.20162172256E+04  0.20162172256E+04  0.00000000000E+00 0. -1.
    9000010    2    1    2  501    0  0.68811154517E+03 -0.98614731141E+03  0.62451517362E+02  0.15490776288E+04  0.97455491876E+03 0.  0.
        -13    1    3    3    0    0  0.69504399728E+03 -0.10254664113E+04  0.32722931710E+03  0.12813065816E+04  0.10566000000E+00 0.  1.
          4    1    3    3  501    0 -0.69324521120E+01  0.39319099880E+02 -0.26477779974E+03  0.26777104725E+03  0.00000000000E+00 0.  1.
         13    1    1    2    0    0 -0.68811154517E+03  0.98614731141E+03 -0.98891106503E+03  0.15568972747E+04  0.10566000000E+00 0. -1.
<mgrwt>
<rscale>  1 0.14531501E+04</rscale>
<asrwt>0</asrwt>
<pdfrwt beam="2">  1       21 0.31018726E+00 0.15478182E+04</pdfrwt>
<pdfrwt beam="1">  1        4 0.16765503E+00 0.15478182E+04</pdfrwt>
<totfact> 0.17586637E-01</totfact>
</mgrwt>
</event>
<event>
 6    1  0.1375310E-005  0.1052109E+04  0.7818608E-02  0.9611128E-01
         21   -1    0    0  501  502  0.00000000000E+00  0.00000000000E+00  0.18117738211E+04  0.18117738211E+04  0.00000000000E+00 0.  1.
          4   -1    0    0  502    0 -0.00000000000E+00 -0.00000000000E+00 -0.52440492250E+03  0.52440492250E+03  0.00000000000E+00 0.  1.
    9000010    2    1    2  501    0  0.29319276326E+03 -0.33174591541E+02  0.15944655447E+04  0.19103021052E+04  0.10098867311E+04 0.  0.
        -13    1    3    3    0    0 -0.19930226864E+03 -0.35371627455E+03  0.35794828299E+03  0.54126110301E+03  0.10566000000E+00 0.  1.
          4    1    3    3  501    0  0.49249503190E+03  0.32054168301E+03  0.12365172618E+04  0.13690410022E+04  0.00000000000E+00 0.  1.
         13    1    1    2    0    0 -0.29319276326E+03  0.33174591541E+02 -0.30709664613E+03  0.42587663845E+03  0.10566000000E+00 0. -1.
<mgrwt>
<rscale>  1 0.76563987E+03</rscale>
<asrwt>0</asrwt>
<pdfrwt beam="1">  1       21 0.27873443E+00 0.10521092E+04</pdfrwt>
<pdfrwt beam="2">  1        4 0.80677681E-01 0.10521092E+04</pdfrwt>
<totfact> 0.19055536E+00</totfact>
</mgrwt>
</event>
<event>
 6    1  0.1375310E-005  0.1046982E+04  0.7818608E-02  0.9602866E-01
         21   -1    0    0  501  502  0.00000000000E+00  0.00000000000E+00  0.78111890614E+03  0.78111890614E+03  0.00000000000E+00 0.  1.
          4   -1    0    0  502    0 -0.00000000000E+00 -0.00000000000E+00 -0.76882498230E+03  0.76882498230E+03  0.00000000000E+00 0.  1.
    9000010    2    1    2  501    0  0.20550995132E+03  0.22941297320E+03  0.33943138011E+03  0.11006293229E+04  0.10006530829E+04 0.  0.
        -13    1    3    3    0    0  0.13818983207E+03  0.12832566097E+03 -0.35161307359E+03  0.39899332029E+03  0.10566000000E+00 0.  1.
          4    1    3    3  501    0  0.67320119249E+02  0.10108731224E+03  0.69104445370E+03  0.70163600260E+03  0.00000000000E+00 0.  1.
         13    1    1    2    0    0 -0.20550995132E+03 -0.22941297320E+03 -0.32713745626E+03  0.44931456555E+03  0.10566000000E+00 0. -1.
<mgrwt>
<rscale>  1 0.77106761E+03</rscale>
<asrwt>0</asrwt>
<pdfrwt beam="1">  1       21 0.12017214E+00 0.10469820E+04</pdfrwt>
<pdfrwt beam="2">  1        4 0.11828077E+00 0.10469820E+04</pdfrwt>
<totfact> 0.10513781E+01</totfact>
</mgrwt>
</event>
<event>
 6    1  0.1375310E-005  0.1006306E+04  0.7818608E-02  0.9909648E-01
          4   -1    0    0  502    0 -0.00000000000E+00  0.00000000000E+00  0.67400666614E+03  0.67400666614E+03  0.00000000000E+00 0.  1.
         21   -1    0    0  501  502  0.00000000000E+00 -0.00000000000E+00 -0.62671635228E+03  0.62671635228E+03  0.00000000000E+00 0.  1.
    9000010    2    1    2  501    0  0.12067694492E+03 -0.34302538317E+02 -0.19764014778E+03  0.10255312101E+04  0.99845532983E+03 0.  0.
        -13    1    3    3    0    0  0.11596223068E+03 -0.46492802043E+03 -0.32196583542E+03  0.57729309147E+03  0.10566000000E+00 0.  1.
          4    1    3    3  501    0  0.47147142422E+01  0.43062548211E+03  0.12432568763E+03  0.44823811861E+03  0.00000000000E+00 0.  1.
         13    1    1    2    0    0 -0.12067694492E+03  0.34302538317E+02  0.24493046164E+03  0.27519180833E+03  0.10566000000E+00 0. -1.
<mgrwt>
<rscale>  1 0.59795968E+03</rscale>
<asrwt>0</asrwt>
<pdfrwt beam="2">  1       21 0.96417901E-01 0.10063064E+04</pdfrwt>
<pdfrwt beam="1">  1        4 0.10369333E+00 0.10063064E+04</pdfrwt>
<totfact> 0.25461960E+01</totfact>
</mgrwt>
</event>
<event>
 6    1  0.1375310E-005  0.9788570E+03  0.7818608E-02  0.1001815E+00
          4   -1    0    0  502    0 -0.00000000000E+00  0.00000000000E+00  0.25974570593E+03  0.25974570593E+03  0.00000000000E+00 0.  1.
         21   -1    0    0  501  502  0.00000000000E+00 -0.00000000000E+00 -0.12548502634E+04  0.12548502634E+04  0.00000000000E+00 0.  1.
    9000010    2    1    2  501    0 -0.96528233956E+02  0.33623380197E+01 -0.10211748163E+04  0.14145526046E+04  0.97408010986E+03 0.  0.
        -13    1    3    3    0    0 -0.29415076863E+03  0.40187062046E+03 -0.34750352744E+03  0.60727537660E+03  0.10566000000E+00 0.  1.
          4    1    3    3  501    0  0.19762253468E+03 -0.39850828244E+03 -0.67367128886E+03  0.80727722799E+03  0.00000000000E+00 0.  1.
         13    1    1    2    0    0  0.96528233956E+02 -0.33623380197E+01  0.26070258839E+02  0.10004336474E+03  0.10566000000E+00 0. -1.
<mgrwt>
<rscale>  1 0.54861658E+03</rscale>
<asrwt>0</asrwt>
<pdfrwt beam="2">  1       21 0.19305388E+00 0.97885702E+03</pdfrwt>
<pdfrwt beam="1">  1        4 0.39960879E-01 0.97885702E+03</pdfrwt>
<totfact> 0.31789126E+01</totfact>
</mgrwt>
</event>
<event>
 6    1  0.1375310E-005  0.1119601E+04  0.7818608E-02  0.9404696E-01
         21   -1    0    0  501  502  0.00000000000E+00  0.00000000000E+00  0.31092632458E+03  0.31092632458E+03  0.00000000000E+00 0.  1.
          4   -1    0    0  502    0 -0.00000000000E+00 -0.00000000000E+00 -0.21533221099E+04  0.21533221099E+04  0.00000000000E+00 0.  1.
    9000010    2    1    2  501    0 -0.50339850841E+03 -0.14873660337E+02 -0.11200552180E+04  0.15836763532E+04  0.99993790614E+03 0.  0.
        -13    1    3    3    0    0 -0.33906946077E+03 -0.41613881177E+03 -0.21149386831E+03  0.57694824498E+03  0.10566000000E+00 0.  1.
          4    1    3    3  501    0 -0.16432904764E+03  0.40126515143E+03 -0.90856134970E+03  0.10067281082E+04  0.00000000000E+00 0.  1.
         13    1    1    2    0    0  0.50339850841E+03  0.14873660337E+02 -0.72234056731E+03  0.88057208131E+03  0.10566000000E+00 0. -1.
<mgrwt>
<rscale>  1 0.91690197E+03</rscale>
<asrwt>0</asrwt>
<pdfrwt beam="1">  1       21 0.47834817E-01 0.11196013E+04</pdfrwt>
<pdfrwt beam="2">  1        4 0.33128034E+00 0.11196013E+04</pdfrwt>
<totfact> 0.32220986E+00</totfact>
</mgrwt>
</event>
<event>
 6    1  0.1375310E-005  0.1466806E+04  0.7818608E-02  0.8990736E-01
          4   -1    0    0  502    0 -0.00000000000E+00  0.00000000000E+00  0.15263832567E+04  0.15263832567E+04  0.00000000000E+00 0.  1.
         21   -1    0    0  501  502  0.00000000000E+00 -0.00000000000E+00 -0.11470856758E+04  0.11470856758E+04  0.00000000000E+00 0. -1.
    9000010    2    1    2  501    0  0.86251192549E+03 -0.60382620471E+03  0.62159695037E+03  0.15930792330E+04  0.10212667462E+04 0.  0.
        -13    1    3    3    0    0  0.79775903988E+03 -0.87440670298E+03  0.55340770184E+03  0.13066241478E+04  0.10566000000E+00 0.  1.
          4    1    3    3  501    0  0.64752885614E+02  0.27058049827E+03  0.68189248522E+02  0.28645508523E+03  0.00000000000E+00 0.  1.
         13    1    1    2    0    0 -0.86251192549E+03  0.60382620471E+03 -0.24229936952E+03  0.10803896995E+04  0.10566000000E+00 0. -1.
<mgrwt>
<rscale>  1 0.13501221E+04</rscale>
<asrwt>0</asrwt>
<pdfrwt beam="2">  1       21 0.17647472E+00 0.14668056E+04</pdfrwt>
<pdfrwt beam="1">  1        4 0.23482820E+00 0.14668056E+04</pdfrwt>
<totfact> 0.48216710E-01</totfact>
</mgrwt>
</event>
<event>
 6    1  0.1375310E-005  0.1012709E+04  0.7818608E-02  0.9817208E-01
          4   -1    0    0  502    0 -0.00000000000E+00  0.00000000000E+00  0.82685980065E+03  0.82685980065E+03  0.00000000000E+00 0.  1.
         21   -1    0    0  501  502  0.00000000000E+00 -0.00000000000E+00 -0.43567122389E+03  0.43567122389E+03  0.00000000000E+00 0.  1.
    9000010    2    1    2  501    0 -0.10707853377E+03  0.12697389208E+03  0.24656034729E+03  0.10422913424E+04  0.99899502297E+03 0.  0.
        -13    1    3    3    0    0  0.44041505045E+02  0.52478859243E+03 -0.41727393086E+02  0.52828392689E+03  0.10566000000E+00 0.  1.
          4    1    3    3  501    0 -0.15112003881E+03 -0.39781470035E+03  0.28828774037E+03  0.51400741551E+03  0.00000000000E+00 0.  1.
         13    1    1    2    0    0  0.10707853377E+03 -0.12697389208E+03  0.14462822947E+03  0.22023968214E+03  0.10566000000E+00 0. -1.
<mgrwt>
<rscale>  1 0.64447172E+03</rscale>
<asrwt>0</asrwt>
<pdfrwt beam="2">  1       21 0.67026342E-01 0.10127089E+04</pdfrwt>
<pdfrwt beam="1">  1        4 0.12720920E+00 0.10127089E+04</pdfrwt>
<totfact> 0.36061510E+01</totfact>
</mgrwt>
</event>
<event>
 6    1  0.1375310E-005  0.1097918E+04  0.7818608E-02  0.9447862E-01
          4   -1    0    0  502    0 -0.00000000000E+00  0.00000000000E+00  0.13289305616E+04  0.13289305616E+04  0.00000000000E+00 0.  1.
         21   -1    0    0  501  502  0.00000000000E+00 -0.00000000000E+00 -0.59506187387E+03  0.59506187387E+03  0.00000000000E+00 0.  1.
    9000010    2    1    2  501    0  0.28736627987E+03 -0.35672950662E+03  0.47679411265E+02  0.10989524037E+04  0.99779143095E+03 0.  0.
        -13    1    3    3    0    0 -0.36654450600E+02 -0.40938101653E+03 -0.38003289745E+03  0.55978690566E+03  0.10566000000E+00 0.  1.
          4    1    3    3  501    0  0.32402073047E+03  0.52651509906E+02  0.42771230871E+03  0.53916549806E+03  0.00000000000E+00 0.  1.
         13    1    1    2    0    0 -0.28736627987E+03  0.35672950662E+03  0.68618927647E+03  0.82504003176E+03  0.10566000000E+00 0. -1.
<mgrwt>
<rscale>  1 0.88239317E+03</rscale>
<asrwt>0</asrwt>
<pdfrwt beam="2">  1       21 0.91547981E-01 0.10979176E+04</pdfrwt>
<pdfrwt beam="1">  1        4 0.20445085E+00 0.10979176E+04</pdfrwt>
<totfact> 0.45915118E+00</totfact>
</mgrwt>
</event>
<event>
 6    1  0.1375310E-005  0.1117668E+04  0.7818608E-02  0.9387297E-01
          4   -1    0    0  502    0 -0.00000000000E+00  0.00000000000E+00  0.56655020839E+03  0.56655020839E+03  0.00000000000E+00 0.  1.
         21   -1    0    0  501  502  0.00000000000E+00 -0.00000000000E+00 -0.12910100471E+04  0.12910100471E+04  0.00000000000E+00 0. -1.
    9000010    2    1    2  501    0  0.42347450935E+03  0.33305666714E+03 -0.69890369538E+03  0.13181990303E+04  0.97924711105E+03 0.  0.
        -13    1    3    3    0    0  0.19498051920E+03 -0.25536283171E+03 -0.59815574629E+03  0.67898297966E+03  0.10566000000E+00 0.  1.
          4    1    3    3  501    0  0.22849399015E+03  0.58841949885E+03 -0.10074794909E+03  0.63921605065E+03  0.00000000000E+00 0.  1.
         13    1    1    2    0    0 -0.42347450935E+03 -0.33305666714E+03 -0.25556143319E+02  0.53936122518E+03  0.10566000000E+00 0. -1.
<mgrwt>
<rscale>  1 0.93128498E+03</rscale>
<asrwt>0</asrwt>
<pdfrwt beam="2">  1       21 0.19861693E+00 0.11176682E+04</pdfrwt>
<pdfrwt beam="1">  1        4 0.87161572E-01 0.11176682E+04</pdfrwt>
<totfact> 0.52276010E+00</totfact>
</mgrwt>
</event>
<event>
 6    1  0.1375310E-005  0.1017311E+04  0.7818608E-02  0.9871491E-01
         21   -1    0    0  501  502  0.00000000000E+00  0.00000000000E+00  0.13898758737E+04  0.13898758737E+04  0.00000000000E+00 0.  1.
          4   -1    0    0  502    0 -0.00000000000E+00 -0.00000000000E+00 -0.25992112729E+03  0.25992112729E+03  0.00000000000E+00 0.  1.
    9000010    2    1    2  501    0  0.13224125606E+03  0.37006489483E+02  0.11185884386E+04  0.15120057307E+04  0.10080000023E+04 0.  0.
        -13    1    3    3    0    0 -0.16255739262E+03 -0.21925499299E+03  0.10862984019E+04  0.11200633406E+04  0.10566000000E+00 0.  1.
          4    1    3    3  501    0  0.29479864868E+03  0.25626148248E+03  0.32290036691E+02  0.39194239007E+03  0.00000000000E+00 0.  1.
         13    1    1    2    0    0 -0.13224125606E+03 -0.37006489483E+02  0.11366307870E+02  0.13779127036E+03  0.10566000000E+00 0. -1.
<mgrwt>
<rscale>  1 0.61663051E+03</rscale>
<asrwt>0</asrwt>
<pdfrwt beam="1">  1       21 0.21382705E+00 0.10173108E+04</pdfrwt>
<pdfrwt beam="2">  1        4 0.39987867E-01 0.10173108E+04</pdfrwt>
<totfact> 0.22791568E+01</totfact>
</mgrwt>
</event>
<event>
 6    1  0.1375310E-005  0.1013671E+04  0.7818608E-02  0.1008212E+00
          4   -1    0    0  502    0 -0.00000000000E+00  0.00000000000E+00  0.31212810589E+03  0.31212810589E+03  0.00000000000E+00 0.  1.
         21   -1    0    0  501  502  0.00000000000E+00 -0.00000000000E+00 -0.11193148520E+04  0.11193148520E+04  0.00000000000E+00 0.  1.
    9000010    2    1    2  501    0  0.67311546065E+02  0.23318455864E+02 -0.87048960209E+03  0.13361441785E+04  0.10111649341E+04 0.  0.
        -13    1    3    3    0    0  0.47275272570E+03 -0.21534289149E+03 -0.31230893515E+03  0.60613907869E+03  0.10566000000E+00 0.  1.
          4    1    3    3  501    0 -0.40544117964E+03  0.23866134735E+03 -0.55818066694E+03  0.73000509986E+03  0.00000000000E+00 0.  1.
         13    1    1    2    0    0 -0.67311546065E+02 -0.23318455864E+02  0.63302855948E+02  0.95298779387E+02  0.10566000000E+00 0. -1.
<mgrwt>
<rscale>  1 0.52191297E+03</rscale>
<asrwt>0</asrwt>
<pdfrwt beam="2">  1       21 0.17220229E+00 0.10136711E+04</pdfrwt>
<pdfrwt beam="1">  1        4 0.48019708E-01 0.10136711E+04</pdfrwt>
<totfact> 0.30604400E+01</totfact>
</mgrwt>
</event>
<event>
 6    1  0.1375310E-005  0.1020741E+04  0.7818608E-02  0.9666970E-01
         21   -1    0    0  501  502  0.00000000000E+00  0.00000000000E+00  0.65502794615E+03  0.65502794615E+03  0.00000000000E+00 0.  1.
          4   -1    0    0  502    0 -0.00000000000E+00 -0.00000000000E+00 -0.63351842867E+03  0.63351842867E+03  0.00000000000E+00 0.  1.
    9000010    2    1    2  501    0  0.20611920488E+03 -0.17016054328E+03  0.29110189907E+02  0.10211561759E+04  0.98512577636E+03 0.  0.
        -13    1    3    3    0    0  0.17231005583E+03 -0.57398910384E+03 -0.71686901988E+02  0.60356712116E+03  0.10566000000E+00 0.  1.
          4    1    3    3  501    0  0.33809149052E+02  0.40382856055E+03  0.10079709190E+03  0.41758905471E+03  0.00000000000E+00 0.  1.
         13    1    1    2    0    0 -0.20611920488E+03  0.17016054328E+03 -0.76006724238E+01  0.26739019896E+03  0.10566000000E+00 0. -1.
<mgrwt>
<rscale>  1 0.73017879E+03</rscale>
<asrwt>0</asrwt>
<pdfrwt beam="1">  1       21 0.10077353E+00 0.10207412E+04</pdfrwt>
<pdfrwt beam="2">  1        4 0.97464374E-01 0.10207412E+04</pdfrwt>
<totfact> 0.26482678E+01</totfact>
</mgrwt>
</event>
<event>
 6    1  0.1375310E-005  0.1013861E+04  0.7818608E-02  0.9741697E-01
          4   -1    0    0  502    0 -0.00000000000E+00  0.00000000000E+00  0.46578937781E+03  0.46578937781E+03  0.00000000000E+00 0.  1.
         21   -1    0    0  501  502  0.00000000000E+00 -0.00000000000E+00 -0.80906480834E+03  0.80906480834E+03  0.00000000000E+00 0.  1.
    9000010    2    1    2  501    0  0.39268646317E+02 -0.20868378043E+03 -0.25920637111E+03  0.10464716896E+04  0.99137485725E+03 0.  0.
        -13    1    3    3    0    0  0.16878107438E+03  0.12404432612E+03  0.31025059948E+03  0.37433873905E+03  0.10566000000E+00 0.  1.
          4    1    3    3  501    0 -0.12951242806E+03 -0.33272810655E+03 -0.56945697059E+03  0.67213295059E+03  0.00000000000E+00 0.  1.
         13    1    1    2    0    0 -0.39268646317E+02  0.20868378043E+03 -0.84069059416E+02  0.22838249651E+03  0.10566000000E+00 0. -1.
<mgrwt>
<rscale>  1 0.68587535E+03</rscale>
<asrwt>0</asrwt>
<pdfrwt beam="2">  1       21 0.12447151E+00 0.10138615E+04</pdfrwt>
<pdfrwt beam="1">  1        4 0.71659906E-01 0.10138615E+04</pdfrwt>
<totfact> 0.31555475E+01</totfact>
</mgrwt>
</event>
<event>
 6    1  0.1375310E-005  0.1044410E+04  0.7818608E-02  0.9586216E-01
         21   -1    0    0  501  502  0.00000000000E+00  0.00000000000E+00  0.42356909353E+03  0.42356909353E+03  0.00000000000E+00 0. -1.
          4   -1    0    0  502    0 -0.00000000000E+00 -0.00000000000E+00 -0.11138970181E+04  0.11138970181E+04  0.00000000000E+00 0.  1.
    9000010    2    1    2  501    0 -0.32528232423E+03  0.45959177913E+02 -0.50186750675E+03  0.11587337830E+04  0.99139908668E+03 0.  0.
        -13    1    3    3    0    0 -0.33440646020E+03  0.19508873740E+03  0.20373428891E+03  0.43748710578E+03  0.10566000000E+00 0.  1.
          4    1    3    3  501    0  0.91241359724E+01 -0.14912955948E+03 -0.70560179566E+03  0.72124667723E+03  0.00000000000E+00 0.  1.
         13    1    1    2    0    0  0.32528232423E+03 -0.45959177913E+02 -0.18846041782E+03  0.37873232861E+03  0.10566000000E+00 0. -1.
<mgrwt>
<rscale>  1 0.78215269E+03</rscale>
<asrwt>0</asrwt>
<pdfrwt beam="1">  1       21 0.65164476E-01 0.10444104E+04</pdfrwt>
<pdfrwt beam="2">  1        4 0.17136877E+00 0.10444104E+04</pdfrwt>
<totfact> 0.17245856E+01</totfact>
</mgrwt>
</event>
<event>
 6    1  0.1375310E-005  0.1073228E+04  0.7818608E-02  0.9500242E-01
         21   -1    0    0  501  502  0.00000000000E+00  0.00000000000E+00  0.67434666195E+03  0.67434666195E+03  0.00000000000E+00 0.  1.
          4   -1    0    0  502    0 -0.00000000000E+00 -0.00000000000E+00 -0.95702243585E+03  0.95702243585E+03  0.00000000000E+00 0.  1.
    9000010    2    1    2  501    0  0.40784935163E+03  0.50591697473E+01  0.92467658418E+02  0.10772036940E+04  0.99269876682E+03 0.  0.
        -13    1    3    3    0    0  0.42554938428E+03  0.30126106811E+03  0.39448317950E+03  0.65380998745E+03  0.10566000000E+00 0.  1.
          4    1    3    3  501    0 -0.17700032641E+02 -0.29620189837E+03 -0.30201552108E+03  0.42339370653E+03  0.00000000000E+00 0.  1.
         13    1    1    2    0    0 -0.40784935163E+03 -0.50591697473E+01 -0.37514343232E+03  0.55416540383E+03  0.10566000000E+00 0. -1.
<mgrwt>
<rscale>  1 0.84265962E+03</rscale>
<asrwt>0</asrwt>
<pdfrwt beam="1">  1       21 0.10374564E+00 0.10732276E+04</pdfrwt>
<pdfrwt beam="2">  1        4 0.14723422E+00 0.10732276E+04</pdfrwt>
<totfact> 0.86499053E+00</totfact>
</mgrwt>
</event>
<event>
 6    1  0.1375310E-005  0.1144598E+04  0.7818608E-02  0.9371162E-01
         21   -1    0    0  501  502  0.00000000000E+00  0.00000000000E+00  0.61535459912E+03  0.61535459912E+03  0.00000000000E+00 0. -1.
          4   -1    0    0  502    0 -0.00000000000E+00 -0.00000000000E+00 -0.12659996256E+04  0.12659996256E+04  0.00000000000E+00 0.  1.
    9000010    2    1    2  501    0 -0.31520116571E+03  0.42800075738E+03 -0.15585063675E+03  0.11551600892E+04  0.10136907751E+04 0.  0.
        -13    1    3    3    0    0 -0.13799276819E+03  0.17393445273E+03 -0.58510259173E+03  0.62581167449E+03  0.10566000000E+00 0.  1.
          4    1    3    3  501    0 -0.17720839751E+03  0.25406630465E+03  0.42925195498E+03  0.52934841472E+03  0.00000000000E+00 0.  1.
         13    1    1    2    0    0  0.31520116571E+03 -0.42800075738E+03 -0.49479438973E+03  0.72619413551E+03  0.10566000000E+00 0. -1.
<mgrwt>
<rscale>  1 0.94487454E+03</rscale>
<asrwt>0</asrwt>
<pdfrwt beam="1">  1       21 0.94669939E-01 0.11445984E+04</pdfrwt>
<pdfrwt beam="2">  1        4 0.19476917E+00 0.11445984E+04</pdfrwt>
<totfact> 0.48800981E+00</totfact>
</mgrwt>
</event>
<event>
 6    1  0.1375310E-005  0.1169573E+04  0.7818608E-02  0.9313766E-01
         21   -1    0    0  501  502  0.00000000000E+00  0.00000000000E+00  0.35358691768E+03  0.35358691768E+03  0.00000000000E+00 0.  1.
          4   -1    0    0  502    0 -0.00000000000E+00 -0.00000000000E+00 -0.22524522085E+04  0.22524522085E+04  0.00000000000E+00 0.  1.
    9000010    2    1    2  501    0 -0.53648699793E+03 -0.29712362315E+03 -0.11860799913E+04  0.16657393651E+04  0.99589213280E+03 0.  0.
        -13    1    3    3    0    0  0.17958332427E+03  0.11171544391E+03  0.11426152697E+02  0.21180434106E+03  0.10566000000E+00 0.  1.
          4    1    3    3  501    0 -0.71607032220E+03 -0.40883906706E+03 -0.11975061440E+04  0.14539350240E+04  0.00000000000E+00 0.  1.
         13    1    1    2    0    0  0.53648699793E+03  0.29712362315E+03 -0.71278529950E+03  0.94029976110E+03  0.10566000000E+00 0. -1.
<mgrwt>
<rscale>  1 0.99525331E+03</rscale>
<asrwt>0</asrwt>
<pdfrwt beam="1">  1       21 0.54397988E-01 0.11695734E+04</pdfrwt>
<pdfrwt beam="2">  1        4 0.34653110E+00 0.11695734E+04</pdfrwt>
<totfact> 0.19314727E+00</totfact>
</mgrwt>
</event>
<event>
 6    1  0.1375310E-005  0.1138856E+04  0.7818608E-02  0.9374576E-01
         21   -1    0    0  501  502  0.00000000000E+00  0.00000000000E+00  0.86899800177E+03  0.86899800177E+03  0.00000000000E+00 0. -1.
          4   -1    0    0  502    0 -0.00000000000E+00 -0.00000000000E+00 -0.85966488906E+03  0.85966488906E+03  0.00000000000E+00 0.  1.
    9000010    2    1    2  501    0 -0.12083467956E+03 -0.51916089388E+03 -0.19946182639E+03  0.11561907157E+04  0.10064108989E+04 0.  0.
        -13    1    3    3    0    0  0.36458809876E+03 -0.71374682640E+02 -0.31337020384E+03  0.48602440566E+03  0.10566000000E+00 0.  1.
          4    1    3    3  501    0 -0.48542277832E+03 -0.44778621124E+03  0.11390837745E+03  0.67016631006E+03  0.00000000000E+00 0.  1.
         13    1    1    2    0    0  0.12083467956E+03  0.51916089388E+03  0.20879493909E+03  0.57247217511E+03  0.10566000000E+00 0. -1.
<mgrwt>
<rscale>  1 0.94197850E+03</rscale>
<asrwt>0</asrwt>
<pdfrwt beam="1">  1       21 0.13369200E+00 0.11388555E+04</pdfrwt>
<pdfrwt beam="2">  1        4 0.13225614E+00 0.11388555E+04</pdfrwt>
<totfact> 0.59044003E+00</totfact>
</mgrwt>
</event>
<event>
 6    1  0.1375310E-005  0.1008860E+04  0.7818608E-02  0.9799761E-01
         21   -1    0    0  501  502  0.00000000000E+00  0.00000000000E+00  0.25571576276E+03  0.25571576276E+03  0.00000000000E+00 0.  1.
          4   -1    0    0  502    0 -0.00000000000E+00 -0.00000000000E+00 -0.15390919595E+04  0.15390919595E+04  0.00000000000E+00 0.  1.
    9000010    2    1    2  501    0  0.12733162927E+03  0.12423058303E+03 -0.82538245849E+03  0.13034780397E+04  0.99305197020E+03 0.  0.
        -13    1    3    3    0    0  0.25562495353E+03 -0.27826208462E+03 -0.17855511887E+01  0.37785857666E+03  0.10566000000E+00 0.  1.
          4    1    3    3  501    0 -0.12829332425E+03  0.40249266764E+03 -0.82359690730E+03  0.92561946299E+03  0.00000000000E+00 0.  1.
         13    1    1    2    0    0 -0.12733162927E+03 -0.12423058303E+03 -0.45799373828E+03  0.49132968264E+03  0.10566000000E+00 0. -1.
<mgrwt>
<rscale>  1 0.65375360E+03</rscale>
<asrwt>0</asrwt>
<pdfrwt beam="1">  1       21 0.39340887E-01 0.10088601E+04</pdfrwt>
<pdfrwt beam="2">  1        4 0.23678338E+00 0.10088601E+04</pdfrwt>
<totfact> 0.19110564E+01</totfact>
</mgrwt>
</event>
<event>
 6    1  0.1375310E-005  0.9675571E+03  0.7818608E-02  0.9635599E-01
         21   -1    0    0  501  502  0.00000000000E+00  0.00000000000E+00  0.65509396019E+03  0.65509396019E+03  0.00000000000E+00 0.  1.
          4   -1    0    0  502    0 -0.00000000000E+00 -0.00000000000E+00 -0.69227985451E+03  0.69227985451E+03  0.00000000000E+00 0.  1.
    9000010    2    1    2  501    0  0.29909045454E+03 -0.17988491702E+03 -0.15313315306E+03  0.97960015967E+03  0.90241510786E+03 0.  0.
        -13    1    3    3    0    0 -0.82735616510E+02  0.28291622748E+03  0.12266021345E+03  0.31926840298E+03  0.10566000000E+00 0.  1.
          4    1    3    3  501    0  0.38182607105E+03 -0.46280114450E+03 -0.27579336651E+03  0.66033175669E+03  0.00000000000E+00 0.  1.
         13    1    1    2    0    0 -0.29909045454E+03  0.17988491702E+03  0.11594725873E+03  0.36777365504E+03  0.10566000000E+00 0. -1.
<mgrwt>
<rscale>  1 0.74984158E+03</rscale>
<asrwt>0</asrwt>
<pdfrwt beam="1">  1       21 0.10078369E+00 0.96755708E+03</pdfrwt>
<pdfrwt beam="2">  1        4 0.10650459E+00 0.96755708E+03</pdfrwt>
<totfact> 0.21465011E+01</totfact>
</mgrwt>
</event>
<event>
 6    1  0.1375310E-005  0.9940888E+03  0.7818608E-02  0.1034446E+00
         21   -1    0    0  501  502  0.00000000000E+00  0.00000000000E+00  0.27902512514E+04  0.27902512514E+04  0.00000000000E+00 0.  1.
          4   -1    0    0  502    0 -0.00000000000E+00 -0.00000000000E+00 -0.97581682612E+02  0.97581682612E+02  0.00000000000E+00 0.  1.
    9000010    2    1    2  501    0 -0.29175301854E+02  0.17857621749E+02  0.26631982350E+04  0.28426813718E+04  0.99350010048E+03 0.  0.
        -13    1    3    3    0    0 -0.34958161594E+03  0.21584617309E+03  0.50097327681E+03  0.64789745476E+03  0.10566000000E+00 0.  1.
          4    1    3    3  501    0  0.32040631409E+03 -0.19798855134E+03  0.21622249582E+04  0.21947839170E+04  0.00000000000E+00 0.  1.
         13    1    1    2    0    0  0.29175301854E+02 -0.17857621749E+02  0.29471333784E+02  0.45151562231E+02  0.10566000000E+00 0. -1.
<mgrwt>
<rscale>  1 0.42815098E+03</rscale>
<asrwt>0</asrwt>
<pdfrwt beam="1">  1       21 0.42926936E+00 0.99408880E+03</pdfrwt>
<pdfrwt beam="2">  1        4 0.15012569E-01 0.99408880E+03</pdfrwt>
<totfact> 0.62590779E+00</totfact>
</mgrwt>
</event>
<event>
 6    1  0.1375310E-005  0.1066372E+04  0.7818608E-02  0.9496841E-01
         21   -1    0    0  501  502  0.00000000000E+00  0.00000000000E+00  0.91545248004E+03  0.91545248004E+03  0.00000000000E+00 0.  1.
          4   -1    0    0  502    0 -0.00000000000E+00 -0.00000000000E+00 -0.79084110737E+03  0.79084110737E+03  0.00000000000E+00 0.  1.
    9000010    2    1    2  501    0  0.94777619141E+02  0.40996482980E+03  0.46667764896E+03  0.11640175440E+04  0.97984430184E+03 0.  0.
        -13    1    3    3    0    0  0.44570536067E+03  0.26232473019E+03  0.56987236660E+03  0.76955965199E+03  0.10566000000E+00 0.  1.
          4    1    3    3  501    0 -0.35092774153E+03  0.14764009961E+03 -0.10319471764E+03  0.39445789197E+03  0.00000000000E+00 0.  1.
         13    1    1    2    0    0 -0.94777619141E+02 -0.40996482980E+03 -0.34206627629E+03  0.54227604346E+03  0.10566000000E+00 0. -1.
<mgrwt>
<rscale>  1 0.84517121E+03</rscale>
<asrwt>0</asrwt>
<pdfrwt beam="1">  1       21 0.14083884E+00 0.10663718E+04</pdfrwt>
<pdfrwt beam="2">  1        4 0.12166786E+00 0.10663718E+04</pdfrwt>
<totfact> 0.64006503E+00</totfact>
</mgrwt>
</event>
<event>
 6    1  0.1375310E-005  0.1002495E+04  0.7818608E-02  0.1017411E+00
         21   -1    0    0  501  502  0.00000000000E+00  0.00000000000E+00  0.25034448166E+03  0.25034448166E+03  0.00000000000E+00 0.  1.
          4   -1    0    0  502    0 -0.00000000000E+00 -0.00000000000E+00 -0.13119912261E+04  0.13119912261E+04  0.00000000000E+00 0.  1.
    9000010    2    1    2  501    0 -0.34022792170E+02  0.43874985109E+02 -0.76633497910E+03  0.12618500765E+04  0.10009564179E+04 0.  0.
        -13    1    3    3    0    0 -0.32454824213E+03  0.25974904727E+03 -0.15019241241E+01  0.41569627851E+03  0.10566000000E+00 0.  1.
          4    1    3    3  501    0  0.29052544996E+03 -0.21587406216E+03 -0.76483305498E+03  0.84615379794E+03  0.00000000000E+00 0.  1.
         13    1    1    2    0    0  0.34022792170E+02 -0.43874985109E+02 -0.29531176539E+03  0.30048563135E+03  0.10566000000E+00 0. -1.
<mgrwt>
<rscale>  1 0.48632422E+03</rscale>
<asrwt>0</asrwt>
<pdfrwt beam="1">  1       21 0.38514536E-01 0.10024950E+04</pdfrwt>
<pdfrwt beam="2">  1        4 0.20184480E+00 0.10024950E+04</pdfrwt>
<totfact> 0.33444275E+01</totfact>
</mgrwt>
</event>
<event>
 6    1  0.1375310E-005  0.1066844E+04  0.7818608E-02  0.1019374E+00
          4   -1    0    0  502    0 -0.00000000000E+00  0.00000000000E+00  0.41906965267E+03  0.41906965267E+03  0.00000000000E+00 0.  1.
         21   -1    0    0  501  502  0.00000000000E+00 -0.00000000000E+00 -0.80130471530E+03  0.80130471530E+03  0.00000000000E+00 0.  1.
    9000010    2    1    2  501    0  0.42984204944E+02  0.60115495312E+01 -0.43494098463E+03  0.11520976810E+04  0.10659604242E+04 0.  0.
        -13    1    3    3    0    0  0.23135807745E+03 -0.52324293737E+02 -0.74655286204E+03  0.78332980200E+03  0.10566000000E+00 0.  1.
          4    1    3    3  501    0 -0.18837387251E+03  0.58335843268E+02  0.31161187741E+03  0.36876787902E+03  0.00000000000E+00 0.  1.
         13    1    1    2    0    0 -0.42984204944E+02 -0.60115495312E+01  0.52705922005E+02  0.68276686950E+02  0.10566000000E+00 0. -1.
<mgrwt>
<rscale>  1 0.47913147E+03</rscale>
<asrwt>0</asrwt>
<pdfrwt beam="2">  1       21 0.12327765E+00 0.10668437E+04</pdfrwt>
<pdfrwt beam="1">  1        4 0.64472254E-01 0.10668437E+04</pdfrwt>
<totfact> 0.40766482E+01</totfact>
</mgrwt>
</event>
<event>
 6    1  0.1375310E-005  0.1044624E+04  0.7818608E-02  0.9574839E-01
          4   -1    0    0  502    0 -0.00000000000E+00  0.00000000000E+00  0.48522849599E+03  0.48522849599E+03  0.00000000000E+00 0.  1.
         21   -1    0    0  501  502  0.00000000000E+00 -0.00000000000E+00 -0.12816008853E+04  0.12816008853E+04  0.00000000000E+00 0.  1.
    9000010    2    1    2  501    0 -0.33371256090E+03  0.72100283626E+02 -0.93152923760E+03  0.13996374573E+04  0.98725668762E+03 0.  0.
        -13    1    3    3    0    0 -0.86190374613E+02 -0.16174385132E+02 -0.10894974421E+04  0.10930210789E+04  0.10566000000E+00 0.  1.
          4    1    3    3  501    0 -0.24752218629E+03  0.88274668759E+02  0.15796820454E+03  0.30661637839E+03  0.00000000000E+00 0.  1.
         13    1    1    2    0    0  0.33371256090E+03 -0.72100283626E+02  0.13515684830E+03  0.36719192395E+03  0.10566000000E+00 0. -1.
<mgrwt>
<rscale>  1 0.78984109E+03</rscale>
<asrwt>0</asrwt>
<pdfrwt beam="2">  1       21 0.19716937E+00 0.10446235E+04</pdfrwt>
<pdfrwt beam="1">  1        4 0.74650538E-01 0.10446235E+04</pdfrwt>
<totfact> 0.77178735E+00</totfact>
</mgrwt>
</event>
<event>
 6    1  0.1375310E-005  0.1065256E+04  0.7818608E-02  0.9525535E-01
          4   -1    0    0  502    0 -0.00000000000E+00  0.00000000000E+00  0.11558341048E+04  0.11558341048E+04  0.00000000000E+00 0.  1.
         21   -1    0    0  501  502  0.00000000000E+00 -0.00000000000E+00 -0.46343228323E+03  0.46343228323E+03  0.00000000000E+00 0.  1.
    9000010    2    1    2  501    0 -0.20640424423E+03 -0.32128602615E+03  0.39836149947E+03  0.11373046211E+04  0.99445587845E+03 0.  0.
        -13    1    3    3    0    0 -0.52545773601E+03  0.76354534551E+02  0.32418797171E+03  0.62212032554E+03  0.10566000000E+00 0.  1.
          4    1    3    3  501    0  0.31905349178E+03 -0.39764056071E+03  0.74173527765E+02  0.51518429553E+03  0.00000000000E+00 0.  1.
         13    1    1    2    0    0  0.20640424423E+03  0.32128602615E+03  0.29404032210E+03  0.48196176697E+03  0.10566000000E+00 0. -1.
<mgrwt>
<rscale>  1 0.82427160E+03</rscale>
<asrwt>0</asrwt>
<pdfrwt beam="2">  1       21 0.71297274E-01 0.10652558E+04</pdfrwt>
<pdfrwt beam="1">  1        4 0.17782063E+00 0.10652558E+04</pdfrwt>
<totfact> 0.12611574E+01</totfact>
</mgrwt>
</event>
<event>
 6    1  0.1375310E-005  0.1042304E+04  0.7818608E-02  0.9673242E-01
          4   -1    0    0  502    0 -0.00000000000E+00  0.00000000000E+00  0.49904720435E+03  0.49904720435E+03  0.00000000000E+00 0.  1.
         21   -1    0    0  501  502  0.00000000000E+00 -0.00000000000E+00 -0.92246129762E+03  0.92246129762E+03  0.00000000000E+00 0.  1.
    9000010    2    1    2  501    0 -0.66667888911E+02  0.23656253055E+03 -0.51069656312E+03  0.11606930903E+04  0.10129121541E+04 0.  0.
        -13    1    3    3    0    0  0.74521736361E+02 -0.33818128305E+03 -0.44699629886E+03  0.56544298719E+03  0.10566000000E+00 0.  1.
          4    1    3    3  501    0 -0.14118962527E+03  0.57474381361E+03 -0.63700264253E+02  0.59525010309E+03  0.00000000000E+00 0.  1.
         13    1    1    2    0    0  0.66667888911E+02 -0.23656253055E+03  0.87282469847E+02  0.26081541170E+03  0.10566000000E+00 0. -1.
<mgrwt>
<rscale>  1 0.72632534E+03</rscale>
<asrwt>0</asrwt>
<pdfrwt beam="2">  1       21 0.14191712E+00 0.10423039E+04</pdfrwt>
<pdfrwt beam="1">  1        4 0.76776495E-01 0.10423039E+04</pdfrwt>
<totfact> 0.18941824E+01</totfact>
</mgrwt>
</event>
