<event>
 5    1  0.7625606E-005  0.5048971E+03  0.7818608E-02  0.9467303E-01
         21   -1    0    0  501  502  0.00000000000E+00  0.00000000000E+00  0.12436051760E+03  0.12436051760E+03  0.00000000000E+00 0.  1.
          4   -1    0    0  502    0 -0.00000000000E+00 -0.00000000000E+00 -0.43438383359E+04  0.43438383359E+04  0.00000000000E+00 0.  1.
        -13    1    1    2    0    0  0.37288751042E+03  0.58949681152E+03 -0.21527528963E+04  0.22629398202E+04  0.10566000000E+00 0.  1.
         13    1    1    2    0    0 -0.63236652615E+02 -0.37326977801E+03 -0.83246807424E+03  0.91451205963E+03  0.10566000000E+00 0. -1.
          4    1    1    2  501    0 -0.30965085781E+03 -0.21622703351E+03 -0.12342568477E+04  0.12907469736E+04  0.00000000000E+00 0.  1.
</event>
<event>
 5    1  0.7625606E-005  0.4916353E+03  0.7818608E-02  0.9760880E-01
         21   -1    0    0  501  502  0.00000000000E+00  0.00000000000E+00  0.13294794399E+04  0.13294794399E+04  0.00000000000E+00 0.  1.
          4   -1    0    0  502    0 -0.00000000000E+00 -0.00000000000E+00 -0.49570755777E+03  0.49570755777E+03  0.00000000000E+00 0.  1.
        -13    1    1    2    0    0  0.34671424221E+03  0.30873062705E+03  0.50584412496E+03  0.68658841801E+03  0.10566000000E+00 0.  1.
         13    1    1    2    0    0  0.15659912484E+03 -0.11283341752E+03 -0.27061857509E+03  0.33239899271E+03  0.10566000000E+00 0. -1.
          4    1    1    2  501    0 -0.50331336705E+03 -0.19589720952E+03  0.59854633227E+03  0.80619958696E+03  0.00000000000E+00 0.  1.
</event>
<event>
 5    1  0.7625606E-005  0.5765496E+02  0.7818608E-02  0.1263418E+00
         21   -1    0    0  501  502  0.00000000000E+00  0.00000000000E+00  0.36555243924E+03  0.36555243924E+03  0.00000000000E+00 0.  1.
          4   -1    0    0  502    0 -0.00000000000E+00 -0.00000000000E+00 -0.21989567073E+02  0.21989567073E+02  0.00000000000E+00 0.  1.
        -13    1    1    2    0    0  0.54994809990E+02  0.22135008439E+02  0.14036692962E+03  0.15237215566E+03  0.10566000000E+00 0.  1.
         13    1    1    2    0    0 -0.58564589032E+02  0.28519984197E+02  0.89947559310E+02  0.11105753093E+03  0.10566000000E+00 0. -1.
          4    1    1    2  501    0  0.35697790418E+01 -0.50654992636E+02  0.11324838324E+03  0.12411231972E+03  0.00000000000E+00 0.  1.
</event>
<event>
 5    1  0.7625606E-005  0.5001611E+03  0.7818608E-02  0.9477619E-01
         21   -1    0    0  501  502  0.00000000000E+00  0.00000000000E+00  0.57081431327E+03  0.57081431327E+03  0.00000000000E+00 0. -1.
         -4   -1    0    0    0  501 -0.00000000000E+00 -0.00000000000E+00 -0.93443790336E+03  0.93443790336E+03  0.00000000000E+00 0. -1.
        -13    1    1    2    0    0  0.39930877886E+02  0.36668729197E+03 -0.11970430678E+01  0.36885700370E+03  0.10566000000E+00 0.  1.
         13    1    1    2    0    0 -0.21116365587E+03 -0.67728884476E+03 -0.15729378589E+03  0.72667160055E+03  0.10566000000E+00 0. -1.
         -4    1    1    2    0  502  0.17123277798E+03  0.31060155279E+03 -0.20513276113E+03  0.40972361238E+03  0.00000000000E+00 0. -1.
</event>
<event>
 5    1  0.7625606E-005  0.5183836E+03  0.7818608E-02  0.9776114E-01
          4   -1    0    0  502    0 -0.00000000000E+00  0.00000000000E+00  0.48409254938E+03  0.48409254938E+03  0.00000000000E+00 0.  1.
         21   -1    0    0  501  502  0.00000000000E+00 -0.00000000000E+00 -0.13885414616E+04  0.13885414616E+04  0.00000000000E+00 0.  1.
        -13    1    1    2    0    0 -0.73538196011E+02  0.59876148347E+03 -0.69401938851E+03  0.91955755837E+03  0.10566000000E+00 0.  1.
         13    1    1    2    0    0  0.47419278681E+02 -0.14888664338E+03  0.25892027443E+03  0.30241617060E+03  0.10566000000E+00 0. -1.
          4    1    1    2  501    0  0.26118917330E+02 -0.44987484008E+03 -0.46934979815E+03  0.65066028202E+03  0.00000000000E+00 0.  1.
</event>
<event>
 5    1  0.7625606E-005  0.1874716E+03  0.7818608E-02  0.1069081E+00
         21   -1    0    0  501  502  0.00000000000E+00  0.00000000000E+00  0.15867892826E+03  0.15867892826E+03  0.00000000000E+00 0. -1.
         -4   -1    0    0    0  501 -0.00000000000E+00 -0.00000000000E+00 -0.10116290593E+04  0.10116290593E+04  0.00000000000E+00 0. -1.
        -13    1    1    2    0    0  0.12453366953E+03 -0.42272605502E+01 -0.35709060655E+02  0.12962118945E+03  0.10566000000E+00 0.  1.
         13    1    1    2    0    0 -0.20250984639E+03 -0.55695075366E+00 -0.90256234245E+03  0.92500234662E+03  0.10566000000E+00 0. -1.
         -4    1    1    2    0  502  0.77976176867E+02  0.47842113039E+01  0.85321272102E+02  0.11568445146E+03  0.00000000000E+00 0. -1.
</event>
<event>
 5    1  0.7625606E-005  0.2181617E+03  0.7818608E-02  0.1048351E+00
         -4   -1    0    0    0  501 -0.00000000000E+00  0.00000000000E+00  0.17577025402E+03  0.17577025402E+03  0.00000000000E+00 0. -1.
         21   -1    0    0  501  502  0.00000000000E+00 -0.00000000000E+00 -0.28974493705E+04  0.28974493705E+04  0.00000000000E+00 0. -1.
        -13    1    1    2    0    0 -0.19776717115E+03  0.58506548835E+02 -0.53673731897E+02  0.21310971564E+03  0.10566000000E+00 0.  1.
         13    1    1    2    0    0  0.23740692394E+03  0.93702382376E+01 -0.52371700601E+02  0.24329540704E+03  0.10566000000E+00 0. -1.
         -4    1    1    2    0  502 -0.39639752795E+02 -0.67876787072E+02 -0.26156336840E+04  0.26168145019E+04  0.00000000000E+00 0. -1.
</event>
<event>
 5    1  0.7625606E-005  0.2574345E+03  0.7818608E-02  0.1026611E+00
         21   -1    0    0  501  502  0.00000000000E+00  0.00000000000E+00  0.69836655338E+03  0.69836655338E+03  0.00000000000E+00 0.  1.
         -4   -1    0    0    0  501 -0.00000000000E+00 -0.00000000000E+00 -0.15283944987E+03  0.15283944987E+03  0.00000000000E+00 0. -1.
        -13    1    1    2    0    0 -0.18666237465E+03  0.19529862866E+03  0.11089928055E+03  0.29203263184E+03  0.10566000000E+00 0.  1.
         13    1    1    2    0    0  0.21963239803E+03 -0.11385827487E+03  0.23565612863E+03  0.34166638574E+03  0.10566000000E+00 0. -1.
         -4    1    1    2    0  502 -0.32970023387E+02 -0.81440353795E+02  0.19897169433E+03  0.21750698566E+03  0.00000000000E+00 0. -1.
</event>
<event>
 5    1  0.7625606E-005  0.3436256E+03  0.7818608E-02  0.9907695E-01
          4   -1    0    0  502    0 -0.00000000000E+00  0.00000000000E+00  0.26062904269E+04  0.26062904269E+04  0.00000000000E+00 0.  1.
         21   -1    0    0  501  502  0.00000000000E+00 -0.00000000000E+00 -0.29368368992E+03  0.29368368992E+03  0.00000000000E+00 0.  1.
        -13    1    1    2    0    0  0.25916652210E+03  0.18466915306E+03 -0.13844070134E+03  0.34703864514E+03  0.10566000000E+00 0.  1.
         13    1    1    2    0    0  0.29619545879E+02 -0.35681902245E+03  0.15602373224E+04  0.16007928179E+04  0.10566000000E+00 0. -1.
          4    1    1    2  501    0 -0.28878606798E+03  0.17214986940E+03  0.89081011586E+03  0.95214265376E+03  0.00000000000E+00 0.  1.
</event>
<event>
 5    1  0.7625606E-005  0.7377041E+03  0.7818608E-02  0.9070007E-01
         21   -1    0    0  501  502  0.00000000000E+00  0.00000000000E+00  0.64114882979E+03  0.64114882979E+03  0.00000000000E+00 0. -1.
          4   -1    0    0  502    0 -0.00000000000E+00 -0.00000000000E+00 -0.17323881291E+04  0.17323881291E+04  0.00000000000E+00 0.  1.
        -13    1    1    2    0    0  0.67063757073E+03 -0.26736274432E+03 -0.83926266007E+03  0.11070679347E+04  0.10566000000E+00 0.  1.
         13    1    1    2    0    0 -0.58515456564E+03  0.54274327032E+03 -0.45042244742E+03  0.91643685843E+03  0.10566000000E+00 0. -1.
          4    1    1    2  501    0 -0.85483005092E+02 -0.27538052600E+03  0.19844580820E+03  0.35003216574E+03  0.00000000000E+00 0.  1.
</event>
<event>
 5    1  0.7625606E-005  0.4654926E+03  0.7818608E-02  0.9556992E-01
         -4   -1    0    0    0  501 -0.00000000000E+00  0.00000000000E+00  0.23012944495E+04  0.23012944495E+04  0.00000000000E+00 0. -1.
         21   -1    0    0  501  502  0.00000000000E+00 -0.00000000000E+00 -0.14145431645E+03  0.14145431645E+03  0.00000000000E+00 0.  1.
        -13    1    1    2    0    0  0.10640929778E+02  0.45083903471E+03  0.13046874736E+04  0.13804269193E+04  0.10566000000E+00 0.  1.
         13    1    1    2    0    0 -0.20335628389E+02 -0.48936237212E+03  0.88577183558E+03  0.10121664018E+04  0.10566000000E+00 0. -1.
         -4    1    1    2    0  502  0.96946986109E+01  0.38523337413E+02 -0.30619176112E+02  0.50155444892E+02  0.00000000000E+00 0. -1.
</event>
<event>
 5    1  0.7625606E-005  0.6557790E+03  0.7818608E-02  0.9189720E-01
         -4   -1    0    0    0  501 -0.00000000000E+00  0.00000000000E+00  0.35353834732E+04  0.35353834732E+04  0.00000000000E+00 0. -1.
         21   -1    0    0  501  502  0.00000000000E+00 -0.00000000000E+00 -0.26136929123E+03  0.26136929123E+03  0.00000000000E+00 0.  1.
        -13    1    1    2    0    0  0.67976795619E+03  0.12515614867E+03  0.12936856808E+04  0.14667553264E+04  0.10566000000E+00 0.  1.
         13    1    1    2    0    0 -0.63563199945E+03  0.18096072431E+03  0.18982534443E+04  0.20100101921E+04  0.10566000000E+00 0. -1.
         -4    1    1    2    0  502 -0.44135956736E+02 -0.30611687298E+03  0.82075056964E+02  0.31998724596E+03  0.00000000000E+00 0. -1.
</event>
<event>
 5    1  0.7625606E-005  0.3636797E+03  0.7818608E-02  0.9840235E-01
          4   -1    0    0  502    0 -0.00000000000E+00  0.00000000000E+00  0.10441157951E+04  0.10441157951E+04  0.00000000000E+00 0.  1.
         21   -1    0    0  501  502  0.00000000000E+00 -0.00000000000E+00 -0.11075779240E+04  0.11075779240E+04  0.00000000000E+00 0.  1.
        -13    1    1    2    0    0  0.22560187194E+03  0.57723501636E+03 -0.21962887740E+03  0.65752058803E+03  0.10566000000E+00 0.  1.
         13    1    1    2    0    0 -0.11824185639E+03 -0.32110223025E+03  0.75783222283E+03  0.83150313770E+03  0.10566000000E+00 0. -1.
          4    1    1    2  501    0 -0.10736001555E+03 -0.25613278611E+03 -0.60166547433E+03  0.66266999333E+03  0.00000000000E+00 0.  1.
</event>
<event>
 5    1  0.7625606E-005  0.2394317E+02  0.7818608E-02  0.1465675E+00
         21   -1    0    0  501  502  0.00000000000E+00  0.00000000000E+00  0.52674196279E+03  0.52674196279E+03  0.00000000000E+00 0.  1.
          4   -1    0    0  502    0 -0.00000000000E+00 -0.00000000000E+00 -0.13904203590E+02  0.13904203590E+02  0.00000000000E+00 0.  1.
        -13    1    1    2    0    0 -0.35426476716E+02  0.15604099423E+02  0.38784749579E+02  0.54797729289E+02  0.10566000000E+00 0.  1.
         13    1    1    2    0    0  0.22094196820E+02  0.38580900983E+01  0.16889769046E+02  0.28076927446E+02  0.10566000000E+00 0. -1.
          4    1    1    2  501    0  0.13332279896E+02 -0.19462189522E+02  0.45716324058E+03  0.45777150964E+03  0.00000000000E+00 0.  1.
</event>
<event>
 5    1  0.7625606E-005  0.1025930E+03  0.7818608E-02  0.1160335E+00
         -4   -1    0    0    0  501 -0.00000000000E+00  0.00000000000E+00  0.41780494874E+03  0.41780494874E+03  0.00000000000E+00 0. -1.
         21   -1    0    0  501  502  0.00000000000E+00 -0.00000000000E+00 -0.19152033787E+03  0.19152033787E+03  0.00000000000E+00 0.  1.
        -13    1    1    2    0    0  0.11700680101E+03  0.43720096877E+02 -0.80452778866E+02  0.14857556712E+03  0.10566000000E+00 0.  1.
         13    1    1    2    0    0 -0.93124595537E+02 -0.39845026994E+02  0.37494091986E+03  0.38838192675E+03  0.10566000000E+00 0. -1.
         -4    1    1    2    0  502 -0.23882205470E+02 -0.38750698825E+01 -0.68203530135E+02  0.72367792750E+02  0.00000000000E+00 0. -1.
</event>
<event>
 5    1  0.7625606E-005  0.3790666E+03  0.7818608E-02  0.1012002E+00
          4   -1    0    0  502    0 -0.00000000000E+00  0.00000000000E+00  0.11580020872E+04  0.11580020872E+04  0.00000000000E+00 0.  1.
         21   -1    0    0  501  502  0.00000000000E+00 -0.00000000000E+00 -0.31997098548E+03  0.31997098548E+03  0.00000000000E+00 0.  1.
        -13    1    1    2    0    0 -0.30160565040E+03 -0.29472121844E+03  0.85912943410E+03  0.95704229826E+03  0.10566000000E+00 0.  1.
         13    1    1    2    0    0 -0.29751502425E+02  0.12435314102E+03 -0.68970856203E+02  0.14527851097E+03  0.10566000000E+00 0. -1.
          4    1    1    2  501    0  0.33135715283E+03  0.17036807741E+03  0.47872523876E+02  0.37565226350E+03  0.00000000000E+00 0.  1.
</event>
<event>
 5    1  0.7625606E-005  0.5341079E+02  0.7818608E-02  0.1292185E+00
          4   -1    0    0  502    0 -0.00000000000E+00  0.00000000000E+00  0.53965855513E+03  0.53965855513E+03  0.00000000000E+00 0.  1.
         21   -1    0    0  501  502  0.00000000000E+00 -0.00000000000E+00 -0.19046558759E+02  0.19046558759E+02  0.00000000000E+00 0. -1.
        -13    1    1    2    0    0 -0.59451309191E+02  0.88876526719E+01  0.31732400872E+03  0.32296746928E+03  0.10566000000E+00 0.  1.
         13    1    1    2    0    0  0.13667687541E+02 -0.38337996769E+02  0.16302263417E+03  0.16802677791E+03  0.10566000000E+00 0. -1.
          4    1    1    2  501    0  0.45783621650E+02  0.29450344097E+02  0.40265353476E+02  0.67710866701E+02  0.00000000000E+00 0.  1.
</event>
<event>
 5    1  0.7625606E-005  0.4317511E+03  0.7818608E-02  0.9786941E-01
         -4   -1    0    0    0  501 -0.00000000000E+00  0.00000000000E+00  0.18397806075E+04  0.18397806075E+04  0.00000000000E+00 0. -1.
         21   -1    0    0  501  502  0.00000000000E+00 -0.00000000000E+00 -0.28262871463E+03  0.28262871463E+03  0.00000000000E+00 0. -1.
        -13    1    1    2    0    0 -0.21894850435E+03 -0.14133111945E+03  0.83639589306E+03  0.87605424146E+03  0.10566000000E+00 0.  1.
         13    1    1    2    0    0  0.20176315188E+02  0.51229256108E+03  0.63622870402E+03  0.81709101501E+03  0.10566000000E+00 0. -1.
         -4    1    1    2    0  502  0.19877218916E+03 -0.37096144162E+03  0.84527295826E+02  0.42926406569E+03  0.00000000000E+00 0. -1.
</event>
<event>
 5    1  0.7625606E-005  0.3960235E+03  0.7818608E-02  0.9869564E-01
         -4   -1    0    0    0  501 -0.00000000000E+00  0.00000000000E+00  0.42948883985E+04  0.42948883985E+04  0.00000000000E+00 0. -1.
         21   -1    0    0  501  502  0.00000000000E+00 -0.00000000000E+00 -0.95674443922E+02  0.95674443922E+02  0.00000000000E+00 0. -1.
        -13    1    1    2    0    0  0.18928655095E+02 -0.25439487987E+03  0.76000682073E+03  0.80167663531E+03  0.10566000000E+00 0.  1.
         13    1    1    2    0    0 -0.35364186951E+03 -0.13508098717E+03  0.64505736317E+03  0.74793613224E+03  0.10566000000E+00 0. -1.
         -4    1    1    2    0  502  0.33471321442E+03  0.38947586704E+03  0.27941497707E+04  0.28409500749E+04  0.00000000000E+00 0. -1.
</event>
<event>
 5    1  0.7625606E-005  0.2532041E+03  0.7818608E-02  0.1028746E+00
         21   -1    0    0  501  502  0.00000000000E+00  0.00000000000E+00  0.42012150947E+03  0.42012150947E+03  0.00000000000E+00 0.  1.
          4   -1    0    0  502    0 -0.00000000000E+00 -0.00000000000E+00 -0.10426919866E+04  0.10426919866E+04  0.00000000000E+00 0.  1.
        -13    1    1    2    0    0 -0.21985177790E+03 -0.12331378512E+03 -0.80835104742E+03  0.84674229898E+03  0.10566000000E+00 0.  1.
         13    1    1    2    0    0  0.21726454689E+03  0.13937915638E+03 -0.13744198084E+03  0.29243929598E+03  0.10566000000E+00 0. -1.
          4    1    1    2  501    0  0.25872310035E+01 -0.16065371262E+02  0.32322255108E+03  0.32363190116E+03  0.00000000000E+00 0.  1.
</event>
<event>
 5    1  0.7625606E-005  0.1398296E+03  0.7818608E-02  0.1111599E+00
         21   -1    0    0  501  502  0.00000000000E+00  0.00000000000E+00  0.82995934326E+03  0.82995934326E+03  0.00000000000E+00 0.  1.
         -4   -1    0    0    0  501 -0.00000000000E+00 -0.00000000000E+00 -0.40795612114E+02  0.40795612114E+02  0.00000000000E+00 0. -1.
        -13    1    1    2    0    0 -0.11009266446E+03 -0.77166990236E+02  0.13485541317E+03  0.19042356150E+03  0.10566000000E+00 0.  1.
         13    1    1    2    0    0  0.13061478211E+03  0.85968607876E+02  0.48568489924E+03  0.51023588208E+03  0.10566000000E+00 0. -1.
         -4    1    1    2    0  502 -0.20522117653E+02 -0.88016176397E+01  0.16862341874E+03  0.17009551179E+03  0.00000000000E+00 0. -1.
</event>
<event>
 5    1  0.7625606E-005  0.2819567E+03  0.7818608E-02  0.1015682E+00
         -4   -1    0    0    0  501 -0.00000000000E+00  0.00000000000E+00  0.24678338672E+04  0.24678338672E+04  0.00000000000E+00 0. -1.
         21   -1    0    0  501  502  0.00000000000E+00 -0.00000000000E+00 -0.23273956287E+03  0.23273956287E+03  0.00000000000E+00 0. -1.
        -13    1    1    2    0    0  0.13879870750E+03 -0.28316846434E+03  0.11366521828E+04  0.11795879180E+04  0.10566000000E+00 0.  1.
         13    1    1    2    0    0  0.14591934802E+03  0.27507317718E+03  0.11834573064E+04  0.12237356399E+04  0.10566000000E+00 0. -1.
         -4    1    1    2    0  502 -0.28471805553E+03  0.80952871519E+01 -0.85015184997E+02  0.29724987216E+03  0.00000000000E+00 0. -1.
</event>
<event>
 5    1  0.7625606E-005  0.3871222E+03  0.7818608E-02  0.1011224E+00
         21   -1    0    0  501  502  0.00000000000E+00  0.00000000000E+00  0.98837649861E+03  0.98837649861E+03  0.00000000000E+00 0.  1.
          4   -1    0    0  502    0 -0.00000000000E+00 -0.00000000000E+00 -0.44259489720E+03  0.44259489720E+03  0.00000000000E+00 0.  1.
        -13    1    1    2    0    0  0.36022517132E+03  0.90675230022E+02  0.67152388645E+03  0.76741677896E+03  0.10566000000E+00 0.  1.
         13    1    1    2    0    0  0.61054363043E+02  0.10686376461E+03 -0.15431513149E+03  0.19738457489E+03  0.10566000000E+00 0. -1.
          4    1    1    2  501    0 -0.42127953436E+03 -0.19753899464E+03  0.28572846448E+02  0.46617004197E+03  0.00000000000E+00 0.  1.
</event>
<event>
 5    1  0.7625606E-005  0.5950604E+03  0.7818608E-02  0.9290925E-01
          4   -1    0    0  502    0 -0.00000000000E+00  0.00000000000E+00  0.29282367421E+04  0.29282367421E+04  0.00000000000E+00 0.  1.
         21   -1    0    0  501  502  0.00000000000E+00 -0.00000000000E+00 -0.32966836216E+03  0.32966836216E+03  0.00000000000E+00 0. -1.
        -13    1    1    2    0    0  0.76060435503E+03 -0.65669834608E+01  0.48452384589E+03  0.90184559575E+03  0.10566000000E+00 0.  1.
         13    1    1    2    0    0 -0.50602196619E+03 -0.27133688344E+03  0.17086137662E+04  0.18025101797E+04  0.10566000000E+00 0. -1.
          4    1    1    2  501    0 -0.25458238884E+03  0.27790386690E+03  0.40543076781E+03  0.55354932882E+03  0.00000000000E+00 0.  1.
</event>
<event>
 5    1  0.7625606E-005  0.4516855E+03  0.7818608E-02  0.9590661E-01
         -4   -1    0    0    0  501 -0.00000000000E+00  0.00000000000E+00  0.23253411428E+04  0.23253411428E+04  0.00000000000E+00 0. -1.
         21   -1    0    0  501  502  0.00000000000E+00 -0.00000000000E+00 -0.26176528275E+03  0.26176528275E+03  0.00000000000E+00 0. -1.
        -13    1    1    2    0    0 -0.24766511747E+03  0.30958942194E+03  0.98906468911E+03  0.10655667933E+04  0.10566000000E+00 0.  1.
         13    1    1    2    0    0  0.36093828958E+03 -0.39251237263E+03  0.12125740830E+04  0.13246427177E+04  0.10566000000E+00 0. -1.
         -4    1    1    2    0  502 -0.11327317211E+03  0.82922950682E+02 -0.13806291208E+03  0.19689691456E+03  0.00000000000E+00 0. -1.
</event>
<event>
 5    1  0.7625606E-005  0.4421243E+03  0.7818608E-02  0.9614732E-01
          4   -1    0    0  502    0 -0.00000000000E+00  0.00000000000E+00  0.22146580076E+04  0.22146580076E+04  0.00000000000E+00 0.  1.
         21   -1    0    0  501  502  0.00000000000E+00 -0.00000000000E+00 -0.23955684869E+03  0.23955684869E+03  0.00000000000E+00 0. -1.
        -13    1    1    2    0    0  0.43620163832E+03  0.50303168685E+02  0.17751200125E+04  0.18286206135E+04  0.10566000000E+00 0.  1.
         13    1    1    2    0    0 -0.45616645985E+03 -0.28606431865E+02  0.28294029048E+03  0.53755128703E+03  0.10566000000E+00 0. -1.
          4    1    1    2  501    0  0.19964821537E+02 -0.21696736819E+02 -0.82959144048E+02  0.88042955816E+02  0.00000000000E+00 0.  1.
</event>
<event>
 5    1  0.7625606E-005  0.1104980E+03  0.7818608E-02  0.1148265E+00
         21   -1    0    0  501  502  0.00000000000E+00  0.00000000000E+00  0.24148833906E+03  0.24148833906E+03  0.00000000000E+00 0.  1.
         -4   -1    0    0    0  501 -0.00000000000E+00 -0.00000000000E+00 -0.23891337386E+03  0.23891337386E+03  0.00000000000E+00 0. -1.
        -13    1    1    2    0    0 -0.92382282688E+02 -0.10774750489E+03  0.29987474184E+02  0.14506298886E+03  0.10566000000E+00 0.  1.
         13    1    1    2    0    0  0.44360444346E+02  0.95847779634E+02 -0.16118809534E+03  0.19270770386E+03  0.10566000000E+00 0. -1.
         -4    1    1    2    0  502  0.48021838342E+02  0.11899725254E+02  0.13377558636E+03  0.14263102020E+03  0.00000000000E+00 0. -1.
</event>
<event>
 5    1  0.7625606E-005  0.3673316E+03  0.7818608E-02  0.9828447E-01
          4   -1    0    0  502    0 -0.00000000000E+00  0.00000000000E+00  0.11500250899E+04  0.11500250899E+04  0.00000000000E+00 0.  1.
         21   -1    0    0  501  502  0.00000000000E+00 -0.00000000000E+00 -0.25337267209E+03  0.25337267209E+03  0.00000000000E+00 0. -1.
        -13    1    1    2    0    0  0.25002862135E+03  0.27386249061E+03  0.81614165460E+03  0.89643861296E+03  0.10566000000E+00 0.  1.
         13    1    1    2    0    0 -0.24358602667E+03 -0.26212407968E+03  0.18416578382E+03  0.40244283151E+03  0.10566000000E+00 0. -1.
          4    1    1    2  501    0 -0.64425946816E+01 -0.11738410929E+02 -0.10365502065E+03  0.10451631749E+03  0.00000000000E+00 0.  1.
</event>
<event>
 5    1  0.7625606E-005  0.8390984E+02  0.7818608E-02  0.1194328E+00
         -4   -1    0    0    0  501 -0.00000000000E+00  0.00000000000E+00  0.37259689255E+03  0.37259689255E+03  0.00000000000E+00 0. -1.
         21   -1    0    0  501  502  0.00000000000E+00 -0.00000000000E+00 -0.10214135856E+03  0.10214135856E+03  0.00000000000E+00 0.  1.
        -13    1    1    2    0    0  0.99488897833E+02  0.19307409359E+02  0.45054136580E+01  0.10144519094E+03  0.10566000000E+00 0.  1.
         13    1    1    2    0    0 -0.80800600474E+02  0.17946952751E+02  0.30508940906E+03  0.31611768194E+03  0.10566000000E+00 0. -1.
         -4    1    1    2    0  502 -0.18688297358E+02 -0.37254362110E+02 -0.39139288721E+02  0.57175378232E+02  0.00000000000E+00 0. -1.
</event>
<event>
 5    1  0.7625606E-005  0.6916784E+03  0.7818608E-02  0.9135138E-01
         21   -1    0    0  501  502  0.00000000000E+00  0.00000000000E+00  0.22035877335E+04  0.22035877335E+04  0.00000000000E+00 0.  1.
         -4   -1    0    0    0  501 -0.00000000000E+00 -0.00000000000E+00 -0.48075063702E+03  0.48075063702E+03  0.00000000000E+00 0. -1.
        -13    1    1    2    0    0  0.53447823722E+03  0.81586028547E+01  0.15626950134E+04  0.16515899203E+04  0.10566000000E+00 0.  1.
         13    1    1    2    0    0 -0.72267286498E+03  0.41088974886E+02 -0.74832910995E+02  0.72769797950E+03  0.10566000000E+00 0. -1.
         -4    1    1    2    0  502  0.18819462775E+03 -0.49247577740E+02  0.23497499404E+03  0.30505047067E+03  0.00000000000E+00 0. -1.
</event>
<event>
 5    1  0.7625606E-005  0.5388093E+03  0.7818608E-02  0.9396739E-01
         21   -1    0    0  501  502  0.00000000000E+00  0.00000000000E+00  0.28348419339E+03  0.28348419339E+03  0.00000000000E+00 0. -1.
          4   -1    0    0  502    0 -0.00000000000E+00 -0.00000000000E+00 -0.19331413768E+04  0.19331413768E+04  0.00000000000E+00 0.  1.
        -13    1    1    2    0    0  0.17200081619E+03 -0.51511107556E+03 -0.15407791274E+04  0.16336841897E+04  0.10566000000E+00 0.  1.
         13    1    1    2    0    0 -0.18200090400E+03  0.48796159730E+03 -0.14116173573E+03  0.53959011879E+03  0.10566000000E+00 0. -1.
          4    1    1    2  501    0  0.10000087807E+02  0.27149478253E+02  0.32283679677E+02  0.43351261794E+02  0.00000000000E+00 0.  1.
</event>
<event>
 5    1  0.7625606E-005  0.2443033E+02  0.7818608E-02  0.1456176E+00
         21   -1    0    0  501  502  0.00000000000E+00  0.00000000000E+00  0.46780190399E+03  0.46780190399E+03  0.00000000000E+00 0. -1.
         -4   -1    0    0    0  501 -0.00000000000E+00 -0.00000000000E+00 -0.23662128075E+02  0.23662128075E+02  0.00000000000E+00 0. -1.
        -13    1    1    2    0    0 -0.11113366569E+02  0.74219366836E+01  0.78048270553E+02  0.79184188833E+02  0.10566000000E+00 0.  1.
         13    1    1    2    0    0  0.18869807769E+02 -0.17050616999E+02 -0.15961893346E+02  0.30026428168E+02  0.10566000000E+00 0. -1.
         -4    1    1    2    0  502 -0.77564411994E+01  0.96286803152E+01  0.38205339871E+03  0.38225341507E+03  0.00000000000E+00 0. -1.
</event>
<event>
 5    1  0.7625606E-005  0.5872803E+03  0.7818608E-02  0.9404909E-01
         21   -1    0    0  501  502  0.00000000000E+00  0.00000000000E+00  0.96973299108E+03  0.96973299108E+03  0.00000000000E+00 0. -1.
         -4   -1    0    0    0  501 -0.00000000000E+00 -0.00000000000E+00 -0.13267899450E+04  0.13267899450E+04  0.00000000000E+00 0. -1.
        -13    1    1    2    0    0 -0.33613520619E+03 -0.62351299590E+03 -0.74807963035E+03  0.10302322444E+04  0.10566000000E+00 0.  1.
         13    1    1    2    0    0 -0.28683193714E+03  0.12069418432E+03 -0.10032453179E+03  0.32696279472E+03  0.10566000000E+00 0. -1.
         -4    1    1    2    0  502  0.62296714333E+03  0.50281881158E+03  0.49134720823E+03  0.93932789694E+03  0.00000000000E+00 0. -1.
</event>
<event>
 5    1  0.7625606E-005  0.4701767E+03  0.7818608E-02  0.1002636E+00
         21   -1    0    0  501  502  0.00000000000E+00  0.00000000000E+00  0.64760865173E+03  0.64760865173E+03  0.00000000000E+00 0.  1.
          4   -1    0    0  502    0 -0.00000000000E+00 -0.00000000000E+00 -0.53410733155E+03  0.53410733155E+03  0.00000000000E+00 0.  1.
        -13    1    1    2    0    0 -0.55464641251E+02 -0.46976644820E+03  0.13876383651E+03  0.49296273264E+03  0.10566000000E+00 0.  1.
         13    1    1    2    0    0  0.90675921847E+02 -0.61542264501E+00 -0.17227030958E+03  0.19467812480E+03  0.10566000000E+00 0. -1.
          4    1    1    2  501    0 -0.35211280596E+02  0.47038187085E+03  0.14700779325E+03  0.49407512585E+03  0.00000000000E+00 0.  1.
</event>
<event>
 5    1  0.7625606E-005  0.4733374E+03  0.7818608E-02  0.9856926E-01
         21   -1    0    0  501  502  0.00000000000E+00  0.00000000000E+00  0.14691074218E+03  0.14691074218E+03  0.00000000000E+00 0. -1.
         -4   -1    0    0    0  501 -0.00000000000E+00 -0.00000000000E+00 -0.21825892599E+04  0.21825892599E+04  0.00000000000E+00 0. -1.
        -13    1    1    2    0    0  0.14812593600E+03 -0.48629252086E+02 -0.39148503078E+03  0.42138656547E+03  0.10566000000E+00 0.  1.
         13    1    1    2    0    0 -0.30640029959E+03 -0.39029418198E+03 -0.94835213606E+03  0.10703188671E+04  0.10566000000E+00 0. -1.
         -4    1    1    2    0  502  0.15827436359E+03  0.43892343407E+03 -0.69584135092E+03  0.83779456956E+03  0.00000000000E+00 0. -1.
</event>
<event>
 5    1  0.7625606E-005  0.5392789E+03  0.7818608E-02  0.9430173E-01
         21   -1    0    0  501  502  0.00000000000E+00  0.00000000000E+00  0.11057772711E+04  0.11057772711E+04  0.00000000000E+00 0. -1.
          4   -1    0    0  502    0 -0.00000000000E+00 -0.00000000000E+00 -0.12148015925E+04  0.12148015925E+04  0.00000000000E+00 0.  1.
        -13    1    1    2    0    0 -0.12626980177E+03  0.40899622422E+03 -0.41672974090E+03  0.59739908133E+03  0.10566000000E+00 0.  1.
         13    1    1    2    0    0  0.67692487649E+03 -0.57342287473E+03 -0.25068874079E+03  0.92189258464E+03  0.10566000000E+00 0. -1.
          4    1    1    2  501    0 -0.55065507473E+03  0.16442665052E+03  0.55839416035E+03  0.80128719760E+03  0.00000000000E+00 0.  1.
</event>
<event>
 5    1  0.7625606E-005  0.4412918E+03  0.7818608E-02  0.9759145E-01
         -4   -1    0    0    0  501 -0.00000000000E+00  0.00000000000E+00  0.54901524400E+03  0.54901524400E+03  0.00000000000E+00 0. -1.
         21   -1    0    0  501  502  0.00000000000E+00 -0.00000000000E+00 -0.13604038025E+04  0.13604038025E+04  0.00000000000E+00 0.  1.
        -13    1    1    2    0    0 -0.47380158021E+03 -0.30916113236E+03 -0.34105251526E+03  0.66059471122E+03  0.10566000000E+00 0.  1.
         13    1    1    2    0    0 -0.17644145523E+03  0.28817656908E+03 -0.49319072151E+03  0.59784146815E+03  0.10566000000E+00 0. -1.
         -4    1    1    2    0  502  0.65024303544E+03  0.20984563275E+02  0.22854678235E+02  0.65098286717E+03  0.00000000000E+00 0. -1.
</event>
<event>
 5    1  0.7625606E-005  0.2061766E+03  0.7818608E-02  0.1055982E+00
         21   -1    0    0  501  502  0.00000000000E+00  0.00000000000E+00  0.12170958334E+03  0.12170958334E+03  0.00000000000E+00 0. -1.
         -4   -1    0    0    0  501 -0.00000000000E+00 -0.00000000000E+00 -0.16143905581E+04  0.16143905581E+04  0.00000000000E+00 0. -1.
        -13    1    1    2    0    0 -0.16362212066E+03 -0.13730449245E+03 -0.55465154982E+03  0.59435938194E+03  0.10566000000E+00 0.  1.
         13    1    1    2    0    0  0.16869284358E+03  0.11271928381E+03 -0.10282593272E+04  0.10480840461E+04  0.10566000000E+00 0. -1.
         -4    1    1    2    0  502 -0.50707229156E+01  0.24585208635E+02  0.90229902263E+02  0.93656713464E+02  0.00000000000E+00 0. -1.
</event>
<event>
 5    1  0.7625606E-005  0.2501002E+02  0.7818608E-02  0.1496184E+00
         21   -1    0    0  501  502  0.00000000000E+00  0.00000000000E+00  0.17568544716E+02  0.17568544716E+02  0.00000000000E+00 0.  1.
          4   -1    0    0  502    0 -0.00000000000E+00 -0.00000000000E+00 -0.93275952457E+02  0.93275952457E+02  0.00000000000E+00 0.  1.
        -13    1    1    2    0    0  0.29057214270E+02  0.78607494432E+00 -0.57745675454E+02  0.64649159411E+02  0.10566000000E+00 0.  1.
         13    1    1    2    0    0 -0.70485723661E+01  0.10288445430E+02 -0.17579834449E+02  0.21554494312E+02  0.10566000000E+00 0. -1.
          4    1    1    2  501    0 -0.22008641904E+02 -0.11074520374E+02 -0.38189783909E+00  0.24640843450E+02  0.00000000000E+00 0.  1.
</event>
<event>
 5    1  0.7625606E-005  0.2381566E+03  0.7818608E-02  0.1036720E+00
         21   -1    0    0  501  502  0.00000000000E+00  0.00000000000E+00  0.96184513501E+03  0.96184513501E+03  0.00000000000E+00 0. -1.
          4   -1    0    0  502    0 -0.00000000000E+00 -0.00000000000E+00 -0.68643999164E+02  0.68643999164E+02  0.00000000000E+00 0.  1.
        -13    1    1    2    0    0  0.10985292276E+02 -0.24431634616E+03  0.47721532610E+03  0.53623281537E+03  0.10566000000E+00 0.  1.
         13    1    1    2    0    0 -0.77608114723E+01  0.23358830392E+03  0.31283494816E+03  0.39049896527E+03  0.10566000000E+00 0. -1.
          4    1    1    2  501    0 -0.32244808033E+01  0.10728042236E+02  0.10315086158E+03  0.10375735353E+03  0.00000000000E+00 0.  1.
</event>
<event>
 5    1  0.7625606E-005  0.3296784E+03  0.7818608E-02  0.1006478E+00
         21   -1    0    0  501  502  0.00000000000E+00  0.00000000000E+00  0.60690900148E+03  0.60690900148E+03  0.00000000000E+00 0. -1.
         -4   -1    0    0    0  501 -0.00000000000E+00 -0.00000000000E+00 -0.18784535069E+04  0.18784535069E+04  0.00000000000E+00 0. -1.
        -13    1    1    2    0    0 -0.92803953809E+02 -0.21283172590E+03 -0.13983607665E+04  0.14175058242E+04  0.10566000000E+00 0.  1.
         13    1    1    2    0    0 -0.21072486688E+03  0.37069008668E+02 -0.38907478914E+03  0.44402509348E+03  0.10566000000E+00 0. -1.
         -4    1    1    2    0  502  0.30352882069E+03  0.17576271723E+03  0.51589105023E+03  0.62383159063E+03  0.00000000000E+00 0. -1.
</event>
<event>
 5    1  0.7625606E-005  0.3149835E+03  0.7818608E-02  0.1001305E+00
          4   -1    0    0  502    0 -0.00000000000E+00  0.00000000000E+00  0.11036599031E+04  0.11036599031E+04  0.00000000000E+00 0.  1.
         21   -1    0    0  501  502  0.00000000000E+00 -0.00000000000E+00 -0.50702108187E+03  0.50702108187E+03  0.00000000000E+00 0.  1.
        -13    1    1    2    0    0 -0.28973210887E+03  0.18472245309E+03  0.52567733741E+03  0.62801572736E+03  0.10566000000E+00 0.  1.
         13    1    1    2    0    0  0.17771624429E+03 -0.24258820843E+03  0.47345614069E+03  0.56088575546E+03  0.10566000000E+00 0. -1.
          4    1    1    2  501    0  0.11201586457E+03  0.57865755340E+02 -0.40249465691E+03  0.42177950211E+03  0.00000000000E+00 0.  1.
</event>
<event>
 5    1  0.7625606E-005  0.4966998E+03  0.7818608E-02  0.1014002E+00
         21   -1    0    0  501  502  0.00000000000E+00  0.00000000000E+00  0.30947182454E+03  0.30947182454E+03  0.00000000000E+00 0.  1.
          4   -1    0    0  502    0 -0.00000000000E+00 -0.00000000000E+00 -0.10872895342E+04  0.10872895342E+04  0.00000000000E+00 0.  1.
        -13    1    1    2    0    0 -0.14395058921E+03 -0.50648417867E+03 -0.42929245340E+03  0.67936736534E+03  0.10566000000E+00 0.  1.
         13    1    1    2    0    0  0.36538383013E+02  0.38827305749E+02 -0.21187680275E+03  0.21848204460E+03  0.10566000000E+00 0. -1.
          4    1    1    2  501    0  0.10741220620E+03  0.46765687292E+03 -0.13664845355E+03  0.49891194883E+03  0.00000000000E+00 0.  1.
</event>
<event>
 5    1  0.7625606E-005  0.4777290E+03  0.7818608E-02  0.9903541E-01
         21   -1    0    0  501  502  0.00000000000E+00  0.00000000000E+00  0.21992264386E+03  0.21992264386E+03  0.00000000000E+00 0.  1.
          4   -1    0    0  502    0 -0.00000000000E+00 -0.00000000000E+00 -0.16247451274E+04  0.16247451274E+04  0.00000000000E+00 0.  1.
        -13    1    1    2    0    0  0.14714236513E+03 -0.38622633941E+03 -0.69066584525E+03  0.80488569488E+03  0.10566000000E+00 0.  1.
         13    1    1    2    0    0  0.11479879249E+03 -0.60285786514E+02 -0.43025711405E+03  0.44937104287E+03  0.10566000000E+00 0. -1.
          4    1    1    2  501    0 -0.26194115762E+03  0.44651212592E+03 -0.28389952426E+03  0.59041103354E+03  0.00000000000E+00 0.  1.
</event>
<event>
 5    1  0.7625606E-005  0.2871004E+03  0.7818608E-02  0.1012777E+00
         -4   -1    0    0    0  501 -0.00000000000E+00  0.00000000000E+00  0.51733576372E+03  0.51733576372E+03  0.00000000000E+00 0. -1.
         21   -1    0    0  501  502  0.00000000000E+00 -0.00000000000E+00 -0.15608996432E+04  0.15608996432E+04  0.00000000000E+00 0. -1.
        -13    1    1    2    0    0 -0.27180760286E+03  0.16243131451E+03 -0.18525188993E+03  0.36685362039E+03  0.10566000000E+00 0.  1.
         13    1    1    2    0    0  0.26089522989E+03 -0.10849795251E+03  0.37906165496E+03  0.47278523254E+03  0.10566000000E+00 0. -1.
         -4    1    1    2    0  502  0.10912372961E+02 -0.53933362004E+02 -0.12373736445E+04  0.12385965540E+04  0.00000000000E+00 0. -1.
</event>
<event>
 5    1  0.7625606E-005  0.9542914E+02  0.7818608E-02  0.1172348E+00
         21   -1    0    0  501  502  0.00000000000E+00  0.00000000000E+00  0.18032184906E+03  0.18032184906E+03  0.00000000000E+00 0.  1.
          4   -1    0    0  502    0 -0.00000000000E+00 -0.00000000000E+00 -0.20674089659E+03  0.20674089659E+03  0.00000000000E+00 0.  1.
        -13    1    1    2    0    0  0.93597498871E+02 -0.36122172798E+02 -0.17325603538E+03  0.20020731286E+03  0.10566000000E+00 0.  1.
         13    1    1    2    0    0 -0.66793445300E+02  0.21400878887E+02  0.52287364265E+02  0.87483378867E+02  0.10566000000E+00 0. -1.
          4    1    1    2  501    0 -0.26804053571E+02  0.14721293911E+02  0.94549623578E+02  0.99372053923E+02  0.00000000000E+00 0.  1.
</event>
<event>
 5    1  0.7625606E-005  0.3517675E+03  0.7818608E-02  0.9879731E-01
          4   -1    0    0  502    0 -0.00000000000E+00  0.00000000000E+00  0.45374630748E+03  0.45374630748E+03  0.00000000000E+00 0.  1.
         21   -1    0    0  501  502  0.00000000000E+00 -0.00000000000E+00 -0.74118615310E+03  0.74118615310E+03  0.00000000000E+00 0.  1.
        -13    1    1    2    0    0 -0.99040026632E+02 -0.42576514418E+03  0.89384349361E+02  0.44617760807E+03  0.10566000000E+00 0.  1.
         13    1    1    2    0    0  0.13614345131E+03  0.26187386905E+03  0.41396630476E+02  0.29803800900E+03  0.10566000000E+00 0. -1.
          4    1    1    2  501    0 -0.37103424679E+02  0.16389127513E+03 -0.41822082545E+03  0.45071684351E+03  0.00000000000E+00 0.  1.
</event>
<event>
 5    1  0.7625606E-005  0.4838055E+03  0.7818608E-02  0.9809275E-01
         -4   -1    0    0    0  501 -0.00000000000E+00  0.00000000000E+00  0.18354541874E+04  0.18354541874E+04  0.00000000000E+00 0. -1.
         21   -1    0    0  501  502  0.00000000000E+00 -0.00000000000E+00 -0.19954789288E+03  0.19954789288E+03  0.00000000000E+00 0. -1.
        -13    1    1    2    0    0 -0.72183434841E+02  0.15568834789E+03  0.10023912154E+03  0.19873903136E+03  0.10566000000E+00 0.  1.
         13    1    1    2    0    0  0.52508424458E+03 -0.14673519674E+03  0.95667272122E+03  0.11011209691E+04  0.10566000000E+00 0. -1.
         -4    1    1    2    0  502 -0.45290080974E+03 -0.89531511472E+01  0.57899445177E+03  0.73514207984E+03  0.00000000000E+00 0. -1.
</event>
<event>
 5    1  0.7625606E-005  0.1791989E+03  0.7818608E-02  0.1082604E+00
          4   -1    0    0  502    0 -0.00000000000E+00  0.00000000000E+00  0.68775495394E+03  0.68775495394E+03  0.00000000000E+00 0.  1.
         21   -1    0    0  501  502  0.00000000000E+00 -0.00000000000E+00 -0.56293442235E+03  0.56293442235E+03  0.00000000000E+00 0.  1.
        -13    1    1    2    0    0  0.13678487510E+03  0.77750056676E+02 -0.38243930073E+03  0.41353960303E+03  0.10566000000E+00 0.  1.
         13    1    1    2    0    0  0.19794861564E+03  0.11517648837E+02 -0.27295337844E+02  0.20015333448E+03  0.10566000000E+00 0. -1.
          4    1    1    2  501    0 -0.33473349074E+03 -0.89267705513E+02  0.53455517016E+03  0.63699643878E+03  0.00000000000E+00 0.  1.
</event>
<event>
 5    1  0.7625606E-005  0.4721526E+03  0.7818608E-02  0.9767180E-01
          4   -1    0    0  502    0 -0.00000000000E+00  0.00000000000E+00  0.25404716607E+03  0.25404716607E+03  0.00000000000E+00 0.  1.
         21   -1    0    0  501  502  0.00000000000E+00 -0.00000000000E+00 -0.15352913666E+04  0.15352913666E+04  0.00000000000E+00 0.  1.
        -13    1    1    2    0    0 -0.36384254151E+03  0.30557340475E+03 -0.24287947213E+03  0.53361685679E+03  0.10566000000E+00 0.  1.
         13    1    1    2    0    0  0.16336439431E+03  0.13704855508E+03 -0.23936351081E+03  0.32057001302E+03  0.10566000000E+00 0. -1.
          4    1    1    2  501    0  0.20047814720E+03 -0.44262195983E+03 -0.79900121758E+03  0.93515166285E+03  0.00000000000E+00 0.  1.
</event>
<event>
 5    1  0.7625606E-005  0.1760737E+03  0.7818608E-02  0.1092466E+00
         21   -1    0    0  501  502  0.00000000000E+00  0.00000000000E+00  0.34980336302E+03  0.34980336302E+03  0.00000000000E+00 0.  1.
          4   -1    0    0  502    0 -0.00000000000E+00 -0.00000000000E+00 -0.20264389261E+04  0.20264389261E+04  0.00000000000E+00 0.  1.
        -13    1    1    2    0    0 -0.93782318582E+02 -0.10301174706E+03  0.28269585425E+03  0.31515631119E+03  0.10566000000E+00 0.  1.
         13    1    1    2    0    0 -0.99929813587E+02 -0.19108666376E+03 -0.12575129182E+04  0.12758678738E+04  0.10566000000E+00 0. -1.
          4    1    1    2  501    0  0.19371213217E+03  0.29409841082E+03 -0.70181849914E+03  0.78521810418E+03  0.00000000000E+00 0.  1.
</event>
<event>
 5    1  0.7625606E-005  0.1912722E+03  0.7818608E-02  0.1066290E+00
         21   -1    0    0  501  502  0.00000000000E+00  0.00000000000E+00  0.59148968038E+02  0.59148968038E+02  0.00000000000E+00 0. -1.
          4   -1    0    0  502    0 -0.00000000000E+00 -0.00000000000E+00 -0.13310775505E+04  0.13310775505E+04  0.00000000000E+00 0.  1.
        -13    1    1    2    0    0 -0.70914295656E+02 -0.16387769505E+03 -0.82125884639E+03  0.84044680986E+03  0.10566000000E+00 0.  1.
         13    1    1    2    0    0  0.90487431399E+02  0.20870816755E+03 -0.44597185951E+03  0.50063757858E+03  0.10566000000E+00 0. -1.
          4    1    1    2  501    0 -0.19573135743E+02 -0.44830472503E+02 -0.46978765716E+01  0.49142130112E+02  0.00000000000E+00 0.  1.
</event>
<event>
 5    1  0.7625606E-005  0.4780858E+03  0.7818608E-02  0.1030128E+00
         -4   -1    0    0    0  501 -0.00000000000E+00  0.00000000000E+00  0.45590454864E+03  0.45590454864E+03  0.00000000000E+00 0. -1.
         21   -1    0    0  501  502  0.00000000000E+00 -0.00000000000E+00 -0.68006409537E+03  0.68006409537E+03  0.00000000000E+00 0. -1.
        -13    1    1    2    0    0 -0.24825020291E+02  0.26127602705E+02  0.99601642287E+02  0.10592181818E+03  0.10566000000E+00 0.  1.
         13    1    1    2    0    0  0.12400379417E+03 -0.47462743027E+03 -0.28909247161E+03  0.56940548543E+03  0.10566000000E+00 0. -1.
         -4    1    1    2    0  502 -0.99178773879E+02  0.44849982757E+03 -0.34668717403E+02  0.46064134040E+03  0.00000000000E+00 0. -1.
</event>
<event>
 5    1  0.7625606E-005  0.4991742E+03  0.7818608E-02  0.9577346E-01
         21   -1    0    0  501  502  0.00000000000E+00  0.00000000000E+00  0.43465534110E+03  0.43465534110E+03  0.00000000000E+00 0. -1.
         -4   -1    0    0    0  501 -0.00000000000E+00 -0.00000000000E+00 -0.25400871255E+04  0.25400871255E+04  0.00000000000E+00 0. -1.
        -13    1    1    2    0    0 -0.34624853730E+03  0.57173444602E+02 -0.18242324708E+04  0.18576816119E+04  0.10566000000E+00 0.  1.
         13    1    1    2    0    0 -0.31482744618E+03  0.19256543814E+03 -0.14969038364E+03  0.39825242115E+03  0.10566000000E+00 0. -1.
         -4    1    1    2    0  502  0.66107598349E+03 -0.24973888274E+03 -0.13150892993E+03  0.71880843355E+03  0.00000000000E+00 0. -1.
</event>
<event>
 5    1  0.7625606E-005  0.4993215E+03  0.7818608E-02  0.9574834E-01
         -4   -1    0    0    0  501 -0.00000000000E+00  0.00000000000E+00  0.22556013179E+04  0.22556013179E+04  0.00000000000E+00 0. -1.
         21   -1    0    0  501  502  0.00000000000E+00 -0.00000000000E+00 -0.36364424860E+03  0.36364424860E+03  0.00000000000E+00 0. -1.
        -13    1    1    2    0    0 -0.44697495076E+02  0.35095463298E+03  0.13948236395E+04  0.14389927092E+04  0.10566000000E+00 0.  1.
         13    1    1    2    0    0  0.32093109967E+03  0.20066855507E+03  0.40866348000E+03  0.55701929120E+03  0.10566000000E+00 0. -1.
         -4    1    1    2    0  502 -0.27623360459E+03 -0.55162318805E+03  0.88469949743E+02  0.62323356610E+03  0.00000000000E+00 0. -1.
</event>
<event>
 5    1  0.7625606E-005  0.1130260E+03  0.7818608E-02  0.1144637E+00
         -4   -1    0    0    0  501 -0.00000000000E+00  0.00000000000E+00  0.25057438342E+03  0.25057438342E+03  0.00000000000E+00 0. -1.
         21   -1    0    0  501  502  0.00000000000E+00 -0.00000000000E+00 -0.74549940577E+02  0.74549940577E+02  0.00000000000E+00 0.  1.
        -13    1    1    2    0    0 -0.20643607822E+02 -0.95931230684E+02  0.76779377391E+01  0.98427239403E+02  0.10566000000E+00 0.  1.
         13    1    1    2    0    0  0.33768066239E+01  0.12085299603E+03  0.14231429617E+03  0.18673569431E+03  0.10566000000E+00 0. -1.
         -4    1    1    2    0  502  0.17266801198E+02 -0.24921765342E+02  0.26032208935E+02  0.39961390284E+02  0.00000000000E+00 0. -1.
</event>
<event>
 5    1  0.7625606E-005  0.4773592E+03  0.7818608E-02  0.9529026E-01
          4   -1    0    0  502    0 -0.00000000000E+00  0.00000000000E+00  0.22008584079E+04  0.22008584079E+04  0.00000000000E+00 0.  1.
         21   -1    0    0  501  502  0.00000000000E+00 -0.00000000000E+00 -0.14045100185E+03  0.14045100185E+03  0.00000000000E+00 0. -1.
        -13    1    1    2    0    0  0.33246581923E+02  0.47942558859E+03  0.87992024877E+03  0.10026035535E+04  0.10566000000E+00 0.  1.
         13    1    1    2    0    0 -0.45485260572E+02 -0.47289597022E+03  0.12133465381E+04  0.13030385030E+04  0.10566000000E+00 0. -1.
          4    1    1    2  501    0  0.12238678649E+02 -0.65296183633E+01 -0.32859380872E+02  0.35667353173E+02  0.00000000000E+00 0.  1.
</event>
<event>
 5    1  0.7625606E-005  0.2333453E+03  0.7818608E-02  0.1039404E+00
          4   -1    0    0  502    0 -0.00000000000E+00  0.00000000000E+00  0.10592474046E+04  0.10592474046E+04  0.00000000000E+00 0.  1.
         21   -1    0    0  501  502  0.00000000000E+00 -0.00000000000E+00 -0.76363332474E+02  0.76363332474E+02  0.00000000000E+00 0. -1.
        -13    1    1    2    0    0  0.11440659550E+03 -0.21035008766E+03  0.75467366604E+03  0.79175020167E+03  0.10566000000E+00 0.  1.
         13    1    1    2    0    0 -0.10856516759E+03  0.19041152371E+03  0.23561550252E+03  0.32180369819E+03  0.10566000000E+00 0. -1.
          4    1    1    2  501    0 -0.58414279069E+01  0.19938563954E+02 -0.74050964692E+01  0.22056837177E+02  0.00000000000E+00 0.  1.
</event>
<event>
 5    1  0.7625606E-005  0.2036836E+03  0.7818608E-02  0.1057640E+00
         21   -1    0    0  501  502  0.00000000000E+00  0.00000000000E+00  0.79670820469E+03  0.79670820469E+03  0.00000000000E+00 0. -1.
          4   -1    0    0  502    0 -0.00000000000E+00 -0.00000000000E+00 -0.13611249387E+03  0.13611249387E+03  0.00000000000E+00 0.  1.
        -13    1    1    2    0    0 -0.18746016266E+03  0.72893764791E+02 -0.24387231498E+02  0.20260691438E+03  0.10566000000E+00 0.  1.
         13    1    1    2    0    0  0.19739127028E+03 -0.10132255584E+03  0.57976283490E+03  0.62076930481E+03  0.10566000000E+00 0. -1.
          4    1    1    2  501    0 -0.99311076130E+01  0.28428791050E+02  0.10522010742E+03  0.10944447937E+03  0.00000000000E+00 0.  1.
</event>
<event>
 5    1  0.7625606E-005  0.3792541E+03  0.7818608E-02  0.9790949E-01
         -4   -1    0    0    0  501 -0.00000000000E+00  0.00000000000E+00  0.73783758117E+03  0.73783758117E+03  0.00000000000E+00 0. -1.
         21   -1    0    0  501  502  0.00000000000E+00 -0.00000000000E+00 -0.24494819007E+03  0.24494819007E+03  0.00000000000E+00 0.  1.
        -13    1    1    2    0    0  0.36301768634E+03  0.11248816764E+03  0.13855131822E+03  0.40451440938E+03  0.10566000000E+00 0.  1.
         13    1    1    2    0    0 -0.35863162165E+03 -0.12210258546E+03  0.38842369953E+03  0.54258516653E+03  0.10566000000E+00 0. -1.
         -4    1    1    2    0  502 -0.43860646902E+01  0.96144178277E+01 -0.34085626646E+02  0.35686195335E+02  0.00000000000E+00 0. -1.
</event>
<event>
 5    1  0.7625606E-005  0.4724402E+03  0.7818608E-02  0.9886345E-01
          4   -1    0    0  502    0 -0.00000000000E+00  0.00000000000E+00  0.38375400741E+03  0.38375400741E+03  0.00000000000E+00 0.  1.
         21   -1    0    0  501  502  0.00000000000E+00 -0.00000000000E+00 -0.13104300829E+04  0.13104300829E+04  0.00000000000E+00 0.  1.
        -13    1    1    2    0    0 -0.38934488613E+03  0.40206569043E+03 -0.47604910274E+03  0.73475779626E+03  0.10566000000E+00 0.  1.
         13    1    1    2    0    0  0.12663852282E+03 -0.64275553229E+02  0.15990302623E+03  0.21386362750E+03  0.10566000000E+00 0. -1.
          4    1    1    2  501    0  0.26270636330E+03 -0.33779013720E+03 -0.61052999896E+03  0.74556266654E+03  0.00000000000E+00 0.  1.
</event>
<event>
 5    1  0.7625606E-005  0.1452756E+03  0.7818608E-02  0.1105866E+00
          4   -1    0    0  502    0 -0.00000000000E+00  0.00000000000E+00  0.11246845628E+04  0.11246845628E+04  0.00000000000E+00 0.  1.
         21   -1    0    0  501  502  0.00000000000E+00 -0.00000000000E+00 -0.32832561142E+02  0.32832561142E+02  0.00000000000E+00 0.  1.
        -13    1    1    2    0    0  0.15837082208E+03 -0.64637080032E+02  0.61236693118E+03  0.63580857101E+03  0.10566000000E+00 0.  1.
         13    1    1    2    0    0 -0.11930696325E+03  0.41346228255E+02  0.45030256873E+03  0.46767090634E+03  0.10566000000E+00 0. -1.
          4    1    1    2  501    0 -0.39063858833E+02  0.23290851777E+02  0.29182501800E+02  0.54037646643E+02  0.00000000000E+00 0.  1.
</event>
<event>
 5    1  0.7625606E-005  0.8183060E+02  0.7818608E-02  0.1198711E+00
         21   -1    0    0  501  502  0.00000000000E+00  0.00000000000E+00  0.38900954295E+02  0.38900954295E+02  0.00000000000E+00 0.  1.
         -4   -1    0    0    0  501 -0.00000000000E+00 -0.00000000000E+00 -0.31401992476E+03  0.31401992476E+03  0.00000000000E+00 0. -1.
        -13    1    1    2    0    0 -0.44607276625E+02  0.60812868059E+02 -0.39282756887E+02  0.85036228762E+02  0.10566000000E+00 0.  1.
         13    1    1    2    0    0  0.63600747764E+02 -0.55429037944E+02 -0.23317069532E+03  0.24796374268E+03  0.10566000000E+00 0. -1.
         -4    1    1    2    0  502 -0.18993471139E+02 -0.53838301153E+01 -0.26655182604E+01  0.19920907616E+02  0.00000000000E+00 0. -1.
</event>
<event>
 5    1  0.7625606E-005  0.4983627E+03  0.7818608E-02  0.9605779E-01
          4   -1    0    0  502    0 -0.00000000000E+00  0.00000000000E+00  0.60497676132E+03  0.60497676132E+03  0.00000000000E+00 0.  1.
         21   -1    0    0  501  502  0.00000000000E+00 -0.00000000000E+00 -0.79267629370E+03  0.79267629370E+03  0.00000000000E+00 0. -1.
        -13    1    1    2    0    0 -0.45427844325E+03  0.16231493023E+03  0.43614701574E+02  0.48437309373E+03  0.10566000000E+00 0.  1.
         13    1    1    2    0    0 -0.83755693025E+02 -0.30746651614E+03 -0.14208798405E+03  0.34891213942E+03  0.10566000000E+00 0. -1.
          4    1    1    2  501    0  0.53803413627E+03  0.14515158591E+03 -0.89226249914E+02  0.56436782187E+03  0.00000000000E+00 0.  1.
</event>
<event>
 5    1  0.7625606E-005  0.3204723E+03  0.7818608E-02  0.1016398E+00
          4   -1    0    0  502    0 -0.00000000000E+00  0.00000000000E+00  0.62986410702E+03  0.62986410702E+03  0.00000000000E+00 0.  1.
         21   -1    0    0  501  502  0.00000000000E+00 -0.00000000000E+00 -0.65284698320E+03  0.65284698320E+03  0.00000000000E+00 0.  1.
        -13    1    1    2    0    0  0.27849831691E+03  0.12927078382E+03 -0.43077843957E+03  0.52900125070E+03  0.10566000000E+00 0.  1.
         13    1    1    2    0    0  0.36341804360E+02  0.18030939867E+03  0.17792844728E+03  0.25591160487E+03  0.10566000000E+00 0. -1.
          4    1    1    2  501    0 -0.31484012127E+03 -0.30958018249E+03  0.22986711612E+03  0.49779823466E+03  0.00000000000E+00 0.  1.
</event>
<event>
 5    1  0.7625606E-005  0.7781392E+03  0.7818608E-02  0.9016735E-01
          4   -1    0    0  502    0 -0.00000000000E+00  0.00000000000E+00  0.27707671721E+04  0.27707671721E+04  0.00000000000E+00 0.  1.
         21   -1    0    0  501  502  0.00000000000E+00 -0.00000000000E+00 -0.49919410316E+03  0.49919410316E+03  0.00000000000E+00 0. -1.
        -13    1    1    2    0    0  0.28514437502E+03  0.72467326937E+03  0.14079229710E+04  0.16089455446E+04  0.10566000000E+00 0.  1.
         13    1    1    2    0    0 -0.78954556174E+02 -0.79017111865E+03  0.10895501049E+04  0.13482298250E+04  0.10566000000E+00 0. -1.
          4    1    1    2  501    0 -0.20618981885E+03  0.65497849286E+02 -0.22590000698E+03  0.31278590571E+03  0.00000000000E+00 0.  1.
</event>
<event>
 5    1  0.7625606E-005  0.6047735E+03  0.7818608E-02  0.9372566E-01
         21   -1    0    0  501  502  0.00000000000E+00  0.00000000000E+00  0.71947608179E+03  0.71947608179E+03  0.00000000000E+00 0. -1.
         -4   -1    0    0    0  501 -0.00000000000E+00 -0.00000000000E+00 -0.20858545540E+04  0.20858545540E+04  0.00000000000E+00 0. -1.
        -13    1    1    2    0    0  0.71046288141E+03  0.16069850863E+03 -0.13708068766E+04  0.15523185951E+04  0.10566000000E+00 0.  1.
         13    1    1    2    0    0  0.36603633327E+02 -0.31057581424E+03 -0.29918981182E+03  0.43279523683E+03  0.10566000000E+00 0. -1.
         -4    1    1    2    0  502 -0.74706651474E+03  0.14987730561E+03  0.30361821619E+03  0.82021680389E+03  0.00000000000E+00 0. -1.
</event>
<event>
 5    1  0.7625606E-005  0.4882167E+03  0.7818608E-02  0.9811644E-01
          4   -1    0    0  502    0 -0.00000000000E+00  0.00000000000E+00  0.39324285232E+03  0.39324285232E+03  0.00000000000E+00 0.  1.
         21   -1    0    0  501  502  0.00000000000E+00 -0.00000000000E+00 -0.90236290155E+03  0.90236290155E+03  0.00000000000E+00 0.  1.
        -13    1    1    2    0    0 -0.43171754484E+03  0.20160895033E+02 -0.23486105462E+03  0.49188029677E+03  0.10566000000E+00 0.  1.
         13    1    1    2    0    0 -0.12280300403E+03  0.11118211722E+03  0.11834465386E+02  0.16607861609E+03  0.10566000000E+00 0. -1.
          4    1    1    2  501    0  0.55452054887E+03 -0.13134301226E+03 -0.28609345999E+03  0.63764684100E+03  0.00000000000E+00 0.  1.
</event>
<event>
 5    1  0.7625606E-005  0.5980179E+03  0.7818608E-02  0.9285706E-01
         21   -1    0    0  501  502  0.00000000000E+00  0.00000000000E+00  0.37364987420E+03  0.37364987420E+03  0.00000000000E+00 0. -1.
          4   -1    0    0  502    0 -0.00000000000E+00 -0.00000000000E+00 -0.18837042475E+04  0.18837042475E+04  0.00000000000E+00 0.  1.
        -13    1    1    2    0    0 -0.50013742877E+03 -0.27841676086E+03 -0.38812318519E+03  0.69158727463E+03  0.10566000000E+00 0.  1.
         13    1    1    2    0    0  0.49545154376E+03  0.35773881748E+03 -0.12634423593E+04  0.14034727999E+04  0.10566000000E+00 0. -1.
          4    1    1    2  501    0  0.46858850052E+01 -0.79322056621E+02  0.14151117115E+03  0.16229404717E+03  0.00000000000E+00 0.  1.
</event>
<event>
 5    1  0.7625606E-005  0.3054292E+03  0.7818608E-02  0.1011720E+00
         21   -1    0    0  501  502  0.00000000000E+00  0.00000000000E+00  0.39415084936E+03  0.39415084936E+03  0.00000000000E+00 0. -1.
         -4   -1    0    0    0  501 -0.00000000000E+00 -0.00000000000E+00 -0.13166268990E+04  0.13166268990E+04  0.00000000000E+00 0. -1.
        -13    1    1    2    0    0  0.56445612392E+02  0.24010572808E+03 -0.56458390490E+03  0.61611026988E+03  0.10566000000E+00 0.  1.
         13    1    1    2    0    0  0.12221437498E+03  0.25255989046E+03  0.18815784889E+03  0.33782575240E+03  0.10566000000E+00 0. -1.
         -4    1    1    2    0  502 -0.17865998737E+03 -0.49266561854E+03 -0.54604999363E+03  0.75684172607E+03  0.00000000000E+00 0. -1.
</event>
<event>
 5    1  0.7625606E-005  0.4004139E+03  0.7818608E-02  0.9727851E-01
         21   -1    0    0  501  502  0.00000000000E+00  0.00000000000E+00  0.10081293272E+03  0.10081293272E+03  0.00000000000E+00 0.  1.
         -4   -1    0    0    0  501 -0.00000000000E+00 -0.00000000000E+00 -0.27929801198E+04  0.27929801198E+04  0.00000000000E+00 0. -1.
        -13    1    1    2    0    0  0.20906277011E+03 -0.33562894420E+03 -0.21575591401E+04  0.21934938988E+04  0.10566000000E+00 0.  1.
         13    1    1    2    0    0 -0.21678295965E+03  0.36103529052E+03 -0.52259866371E+03  0.67115624639E+03  0.10566000000E+00 0. -1.
         -4    1    1    2    0  502  0.77201895370E+01 -0.25406346328E+02 -0.12009383318E+02  0.29142907335E+02  0.00000000000E+00 0. -1.
</event>
<event>
 5    1  0.7625606E-005  0.6907141E+02  0.7818608E-02  0.1229185E+00
          4   -1    0    0  502    0 -0.00000000000E+00  0.00000000000E+00  0.34376161735E+02  0.34376161735E+02  0.00000000000E+00 0.  1.
         21   -1    0    0  501  502  0.00000000000E+00 -0.00000000000E+00 -0.34367996058E+03  0.34367996058E+03  0.00000000000E+00 0. -1.
        -13    1    1    2    0    0 -0.16363669056E+01 -0.71898925999E+02 -0.23008642146E+02  0.75508556031E+02  0.10566000000E+00 0.  1.
         13    1    1    2    0    0 -0.13755291910E+02  0.53696026865E+02 -0.26450680801E+03  0.27025235245E+03  0.10566000000E+00 0. -1.
          4    1    1    2  501    0  0.15391658816E+02  0.18202899134E+02 -0.21788348690E+02  0.32295213835E+02  0.00000000000E+00 0.  1.
</event>
<event>
 5    1  0.7625606E-005  0.3649318E+03  0.7818608E-02  0.9912610E-01
         -4   -1    0    0    0  501 -0.00000000000E+00  0.00000000000E+00  0.48398413106E+03  0.48398413106E+03  0.00000000000E+00 0. -1.
         21   -1    0    0  501  502  0.00000000000E+00 -0.00000000000E+00 -0.95482299855E+03  0.95482299855E+03  0.00000000000E+00 0. -1.
        -13    1    1    2    0    0 -0.26379738562E+03 -0.10028204075E+03  0.57569463726E+02  0.28802743389E+03  0.10566000000E+00 0.  1.
         13    1    1    2    0    0  0.55286848070E+03  0.23374306846E+03 -0.86997700801E+02  0.60652121984E+03  0.10566000000E+00 0. -1.
         -4    1    1    2    0  502 -0.28907109508E+03 -0.13346102771E+03 -0.44141063041E+03  0.54425847588E+03  0.00000000000E+00 0. -1.
</event>
<event>
 5    1  0.7625606E-005  0.1775918E+03  0.7818608E-02  0.1076688E+00
         -4   -1    0    0    0  501 -0.00000000000E+00  0.00000000000E+00  0.25840074866E+02  0.25840074866E+02  0.00000000000E+00 0. -1.
         21   -1    0    0  501  502  0.00000000000E+00 -0.00000000000E+00 -0.26116696950E+04  0.26116696950E+04  0.00000000000E+00 0. -1.
        -13    1    1    2    0    0  0.12348410964E+03 -0.10703023528E+03 -0.59034208362E+03  0.61254190342E+03  0.10566000000E+00 0.  1.
         13    1    1    2    0    0 -0.15651672921E+03  0.11303620806E+03 -0.62661469708E+03  0.65568335393E+03  0.10566000000E+00 0. -1.
         -4    1    1    2    0  502  0.33032619573E+02 -0.60059727887E+01 -0.13688728395E+04  0.13692845126E+04  0.00000000000E+00 0. -1.
</event>
<event>
 5    1  0.7625606E-005  0.4832993E+03  0.7818608E-02  0.9567095E-01
         21   -1    0    0  501  502  0.00000000000E+00  0.00000000000E+00  0.13493587782E+03  0.13493587782E+03  0.00000000000E+00 0.  1.
          4   -1    0    0  502    0 -0.00000000000E+00 -0.00000000000E+00 -0.40201553486E+04  0.40201553486E+04  0.00000000000E+00 0.  1.
        -13    1    1    2    0    0  0.28124804706E+03 -0.27727104931E+03 -0.17343467414E+04  0.17787462802E+04  0.10566000000E+00 0.  1.
         13    1    1    2    0    0  0.30525173023E+03  0.26021858118E+03 -0.11271635666E+04  0.11964071405E+04  0.10566000000E+00 0. -1.
          4    1    1    2  501    0 -0.58649977729E+03  0.17052468135E+02 -0.10237091628E+04  0.11799378057E+04  0.00000000000E+00 0.  1.
</event>
<event>
 5    1  0.7625606E-005  0.4784577E+03  0.7818608E-02  0.1006427E+00
          4   -1    0    0  502    0 -0.00000000000E+00  0.00000000000E+00  0.21941394918E+04  0.21941394918E+04  0.00000000000E+00 0.  1.
         21   -1    0    0  501  502  0.00000000000E+00 -0.00000000000E+00 -0.13754437306E+03  0.13754437306E+03  0.00000000000E+00 0.  1.
        -13    1    1    2    0    0  0.11250221179E+02  0.49402296706E+03  0.11198701810E+04  0.12240484030E+04  0.10566000000E+00 0.  1.
         13    1    1    2    0    0  0.70022607690E+02 -0.29760403918E+02  0.33373357716E+03  0.34229659496E+03  0.10566000000E+00 0. -1.
          4    1    1    2  501    0 -0.81272828869E+02 -0.46426256314E+03  0.60299136060E+03  0.76533886691E+03  0.00000000000E+00 0.  1.
</event>
<event>
 5    1  0.7625606E-005  0.4487246E+03  0.7818608E-02  0.9598047E-01
         -4   -1    0    0    0  501 -0.00000000000E+00  0.00000000000E+00  0.22999072983E+04  0.22999072983E+04  0.00000000000E+00 0. -1.
         21   -1    0    0  501  502  0.00000000000E+00 -0.00000000000E+00 -0.28909963009E+03  0.28909963009E+03  0.00000000000E+00 0. -1.
        -13    1    1    2    0    0  0.37413388407E+03 -0.24594222574E+03  0.98113840869E+03  0.10784694385E+04  0.10566000000E+00 0.  1.
         13    1    1    2    0    0 -0.17020594924E+03  0.52064590866E+03  0.15187311942E+03  0.56842561776E+03  0.10566000000E+00 0. -1.
         -4    1    1    2    0  502 -0.20392793483E+03 -0.27470368292E+03  0.87779614006E+03  0.94211187208E+03  0.00000000000E+00 0. -1.
</event>
<event>
 5    1  0.7625606E-005  0.5119484E+03  0.7818608E-02  0.9595357E-01
         21   -1    0    0  501  502  0.00000000000E+00  0.00000000000E+00  0.59472052690E+03  0.59472052690E+03  0.00000000000E+00 0.  1.
          4   -1    0    0  502    0 -0.00000000000E+00 -0.00000000000E+00 -0.10528817587E+04  0.10528817587E+04  0.00000000000E+00 0.  1.
        -13    1    1    2    0    0  0.21630915436E+03  0.62839165974E+03  0.12168300465E+03  0.67562748100E+03  0.10566000000E+00 0.  1.
         13    1    1    2    0    0 -0.18158974628E+03 -0.24513913104E+03 -0.48935056734E+03  0.57665589257E+03  0.10566000000E+00 0. -1.
          4    1    1    2  501    0 -0.34719408074E+02 -0.38325252871E+03 -0.90493669116E+02  0.39531891203E+03  0.00000000000E+00 0.  1.
</event>
<event>
 5    1  0.7625606E-005  0.2883969E+03  0.7818608E-02  0.1012213E+00
         -4   -1    0    0    0  501 -0.00000000000E+00  0.00000000000E+00  0.40431504442E+03  0.40431504442E+03  0.00000000000E+00 0. -1.
         21   -1    0    0  501  502  0.00000000000E+00 -0.00000000000E+00 -0.49613434494E+03  0.49613434494E+03  0.00000000000E+00 0.  1.
        -13    1    1    2    0    0 -0.20684075422E+03  0.21574618989E+03 -0.20926553227E+03  0.36485831526E+03  0.10566000000E+00 0.  1.
         13    1    1    2    0    0  0.28841107983E+03 -0.67506123341E+02  0.18955452910E+03  0.35166597550E+03  0.10566000000E+00 0. -1.
         -4    1    1    2    0  502 -0.81570325609E+02 -0.14824006654E+03 -0.72108297362E+02  0.18392509861E+03  0.00000000000E+00 0. -1.
</event>
<event>
 5    1  0.7625606E-005  0.6316306E+02  0.7818608E-02  0.1245896E+00
         -4   -1    0    0    0  501 -0.00000000000E+00  0.00000000000E+00  0.40512192215E+02  0.40512192215E+02  0.00000000000E+00 0. -1.
         21   -1    0    0  501  502  0.00000000000E+00 -0.00000000000E+00 -0.16664283735E+03  0.16664283735E+03  0.00000000000E+00 0.  1.
        -13    1    1    2    0    0  0.66234974813E+01 -0.50742956573E+02 -0.69975929003E+02  0.86691176971E+02  0.10566000000E+00 0.  1.
         13    1    1    2    0    0 -0.12814557803E+02  0.68019643767E+02 -0.89195127558E+01  0.69788635907E+02  0.10566000000E+00 0. -1.
         -4    1    1    2    0  502  0.61910603219E+01 -0.17276687194E+02 -0.47235203374E+02  0.50675216685E+02  0.00000000000E+00 0. -1.
</event>
<event>
 5    1  0.7625606E-005  0.1013624E+03  0.7818608E-02  0.1162321E+00
          4   -1    0    0  502    0 -0.00000000000E+00  0.00000000000E+00  0.28543315084E+03  0.28543315084E+03  0.00000000000E+00 0.  1.
         21   -1    0    0  501  502  0.00000000000E+00 -0.00000000000E+00 -0.74581142139E+02  0.74581142139E+02  0.00000000000E+00 0. -1.
        -13    1    1    2    0    0 -0.83136319030E+02 -0.47191978471E+02  0.16122019371E+03  0.18743183400E+03  0.10566000000E+00 0.  1.
         13    1    1    2    0    0  0.10342880845E+03  0.50341397143E+02  0.76958814968E+02  0.13839958472E+03  0.10566000000E+00 0. -1.
          4    1    1    2  501    0 -0.20292489422E+02 -0.31494186726E+01 -0.27326999977E+02  0.34182874260E+02  0.00000000000E+00 0.  1.
</event>
<event>
 5    1  0.7625606E-005  0.3728382E+03  0.7818608E-02  0.1022129E+00
          4   -1    0    0  502    0 -0.00000000000E+00  0.00000000000E+00  0.54785994794E+03  0.54785994794E+03  0.00000000000E+00 0.  1.
         21   -1    0    0  501  502  0.00000000000E+00 -0.00000000000E+00 -0.62736840691E+03  0.62736840691E+03  0.00000000000E+00 0.  1.
        -13    1    1    2    0    0  0.25158499989E+03  0.20700576397E+03  0.33017921271E+03  0.46385851523E+03  0.10566000000E+00 0.  1.
         13    1    1    2    0    0  0.90440646548E+02 -0.36373256877E+02  0.53212178358E+02  0.11105886481E+03  0.10566000000E+00 0. -1.
          4    1    1    2  501    0 -0.34202564644E+03 -0.17063250709E+03 -0.46289985004E+03  0.60031097480E+03  0.00000000000E+00 0.  1.
</event>
<event>
 5    1  0.7625606E-005  0.2684937E+03  0.7818608E-02  0.1021231E+00
         -4   -1    0    0    0  501 -0.00000000000E+00  0.00000000000E+00  0.38536618431E+03  0.38536618431E+03  0.00000000000E+00 0. -1.
         21   -1    0    0  501  502  0.00000000000E+00 -0.00000000000E+00 -0.47490803040E+03  0.47490803040E+03  0.00000000000E+00 0. -1.
        -13    1    1    2    0    0  0.14161007550E+03 -0.20162038586E+03  0.79023945536E+02  0.25874502625E+03  0.10566000000E+00 0.  1.
         13    1    1    2    0    0 -0.32894053990E+03  0.17010966230E+03 -0.17892950183E+03  0.41128451683E+03  0.10566000000E+00 0. -1.
         -4    1    1    2    0  502  0.18733046440E+03  0.31510723553E+02  0.10363710200E+02  0.19024467162E+03  0.00000000000E+00 0. -1.
</event>
<event>
 5    1  0.1069601E-004  0.6678251E+03  0.7818608E-02  0.9171006E-01
         -4   -1    0    0    0  501 -0.00000000000E+00  0.00000000000E+00  0.19749702294E+04  0.19749702294E+04  0.00000000000E+00 0. -1.
         21   -1    0    0  501  502  0.00000000000E+00 -0.00000000000E+00 -0.78530119244E+03  0.78530119244E+03  0.00000000000E+00 0.  1.
        -13    1    1    2    0    0 -0.52814468031E+03  0.89703284200E+03  0.40435189835E+03  0.11167386408E+04  0.10566000000E+00 0.  1.
         13    1    1    2    0    0  0.37745090728E+03 -0.44702776066E+03  0.97123886598E+03  0.11338465294E+04  0.10566000000E+00 0. -1.
         -4    1    1    2    0  502  0.15069377302E+03 -0.45000508135E+03 -0.18592172735E+03  0.50968625170E+03  0.00000000000E+00 0. -1.
</event>
<event>
 5    1  0.7625606E-005  0.6319842E+02  0.7818608E-02  0.1286001E+00
         21   -1    0    0  501  502  0.00000000000E+00  0.00000000000E+00  0.68314029397E+03  0.68314029397E+03  0.00000000000E+00 0. -1.
         -4   -1    0    0    0  501 -0.00000000000E+00 -0.00000000000E+00 -0.16106065755E+02  0.16106065755E+02  0.00000000000E+00 0. -1.
        -13    1    1    2    0    0 -0.24453321402E+02  0.13132833433E+02  0.23938789708E+02  0.36653963746E+02  0.10566000000E+00 0.  1.
         13    1    1    2    0    0 -0.42244933801E+02 -0.23991272453E+02  0.68175189736E+02  0.83714295346E+02  0.10566000000E+00 0. -1.
         -4    1    1    2    0  502  0.66698255204E+02  0.10858439020E+02  0.57492024877E+03  0.57887810063E+03  0.00000000000E+00 0. -1.
</event>
<event>
 5    1  0.7625606E-005  0.6805941E+03  0.7818608E-02  0.9155309E-01
         21   -1    0    0  501  502  0.00000000000E+00  0.00000000000E+00  0.67752454111E+03  0.67752454111E+03  0.00000000000E+00 0.  1.
         -4   -1    0    0    0  501 -0.00000000000E+00 -0.00000000000E+00 -0.26157021143E+04  0.26157021143E+04  0.00000000000E+00 0. -1.
        -13    1    1    2    0    0 -0.11447785378E+03 -0.82592739832E+03 -0.96413065312E+03  0.12746800280E+04  0.10566000000E+00 0.  1.
         13    1    1    2    0    0 -0.48798205887E+03  0.49882329991E+03 -0.11181491939E+04  0.13180321716E+04  0.10566000000E+00 0. -1.
         -4    1    1    2    0  502  0.60245991265E+03  0.32710409841E+03  0.14410227383E+03  0.70051445586E+03  0.00000000000E+00 0. -1.
</event>
<event>
 5    1  0.7625606E-005  0.4834084E+02  0.7818608E-02  0.1340049E+00
         -4   -1    0    0    0  501 -0.00000000000E+00  0.00000000000E+00  0.61735242318E+02  0.61735242318E+02  0.00000000000E+00 0. -1.
         21   -1    0    0  501  502  0.00000000000E+00 -0.00000000000E+00 -0.10476159211E+03  0.10476159211E+03  0.00000000000E+00 0. -1.
        -13    1    1    2    0    0 -0.22007270486E+02  0.27822182365E+01  0.34131535082E+02  0.40706676893E+02  0.10566000000E+00 0.  1.
         13    1    1    2    0    0  0.32169147341E+02  0.41838070053E+02 -0.49267131688E+02  0.72197919465E+02  0.10566000000E+00 0. -1.
         -4    1    1    2    0  502 -0.10161876854E+02 -0.44620288289E+02 -0.27890753191E+02  0.53592238074E+02  0.00000000000E+00 0. -1.
</event>
<event>
 5    1  0.7625606E-005  0.6834687E+02  0.7818608E-02  0.1231133E+00
         21   -1    0    0  501  502  0.00000000000E+00  0.00000000000E+00  0.28762717158E+03  0.28762717158E+03  0.00000000000E+00 0. -1.
          4   -1    0    0  502    0 -0.00000000000E+00 -0.00000000000E+00 -0.45476261988E+02  0.45476261988E+02  0.00000000000E+00 0.  1.
        -13    1    1    2    0    0  0.67913449884E+02 -0.14983657803E+02 -0.10544110822E+02  0.70341567465E+02  0.10566000000E+00 0.  1.
         13    1    1    2    0    0 -0.59275618760E+02  0.66916693712E+01  0.21997922531E+03  0.22792377707E+03  0.10566000000E+00 0. -1.
          4    1    1    2  501    0 -0.86378311244E+01  0.82919884319E+01  0.32715795099E+02  0.34838089035E+02  0.00000000000E+00 0.  1.
</event>
<event>
 5    1  0.7625606E-005  0.4998298E+03  0.7818608E-02  0.9844898E-01
         21   -1    0    0  501  502  0.00000000000E+00  0.00000000000E+00  0.48256097464E+03  0.48256097464E+03  0.00000000000E+00 0. -1.
         -4   -1    0    0    0  501 -0.00000000000E+00 -0.00000000000E+00 -0.81521001736E+03  0.81521001736E+03  0.00000000000E+00 0. -1.
        -13    1    1    2    0    0 -0.13233998497E+03 -0.38751211253E+02 -0.24853774070E+03  0.28422974459E+03  0.10566000000E+00 0.  1.
         13    1    1    2    0    0 -0.29665773421E+03  0.36095950466E+03 -0.95561589528E+02  0.47689579976E+03  0.10566000000E+00 0. -1.
         -4    1    1    2    0  502  0.42899771918E+03 -0.32220829340E+03  0.11450287517E+02  0.53664544765E+03  0.00000000000E+00 0. -1.
</event>
<event>
 5    1  0.7625606E-005  0.3181664E+03  0.7818608E-02  0.1002214E+00
          4   -1    0    0  502    0 -0.00000000000E+00  0.00000000000E+00  0.24665680609E+04  0.24665680609E+04  0.00000000000E+00 0.  1.
         21   -1    0    0  501  502  0.00000000000E+00 -0.00000000000E+00 -0.19796322932E+03  0.19796322932E+03  0.00000000000E+00 0.  1.
        -13    1    1    2    0    0  0.13407974384E+03  0.26037106193E+03  0.57991066769E+02  0.29855224432E+03  0.10566000000E+00 0.  1.
         13    1    1    2    0    0  0.32723081592E+03 -0.38473480087E+02  0.79035444774E+03  0.85628288538E+03  0.10566000000E+00 0. -1.
          4    1    1    2  501    0 -0.46131055976E+03 -0.22189758184E+03  0.14202593171E+04  0.15096961605E+04  0.00000000000E+00 0.  1.
</event>
<event>
 5    1  0.7625606E-005  0.4785173E+03  0.7818608E-02  0.9526343E-01
         21   -1    0    0  501  502  0.00000000000E+00  0.00000000000E+00  0.29806781755E+03  0.29806781755E+03  0.00000000000E+00 0. -1.
          4   -1    0    0  502    0 -0.00000000000E+00 -0.00000000000E+00 -0.18923493709E+04  0.18923493709E+04  0.00000000000E+00 0.  1.
        -13    1    1    2    0    0  0.59338178851E+03 -0.38795102267E+03 -0.68188875991E+03  0.98365656354E+03  0.10566000000E+00 0.  1.
         13    1    1    2    0    0 -0.34185221660E+03  0.21325634045E+03 -0.76996811594E+03  0.86901790284E+03  0.10566000000E+00 0. -1.
          4    1    1    2  501    0 -0.25152957192E+03  0.17469468222E+03 -0.14242467748E+03  0.33774272205E+03  0.00000000000E+00 0.  1.
</event>
<event>
 5    1  0.7625606E-005  0.5449826E+03  0.7818608E-02  0.9384478E-01
         21   -1    0    0  501  502  0.00000000000E+00  0.00000000000E+00  0.19293209072E+03  0.19293209072E+03  0.00000000000E+00 0. -1.
         -4   -1    0    0    0  501 -0.00000000000E+00 -0.00000000000E+00 -0.31476364852E+04  0.31476364852E+04  0.00000000000E+00 0. -1.
        -13    1    1    2    0    0  0.44733433762E+03 -0.30696981247E+03 -0.90551259232E+03  0.10556000859E+04  0.10566000000E+00 0.  1.
         13    1    1    2    0    0 -0.46199782995E+03  0.29143044068E+03 -0.21312696123E+04  0.22001554191E+04  0.10566000000E+00 0. -1.
         -4    1    1    2    0  502  0.14663492326E+02  0.15539371789E+02  0.82077810139E+02  0.84813070927E+02  0.00000000000E+00 0. -1.
</event>
<event>
 5    1  0.7625606E-005  0.4618930E+03  0.7818608E-02  0.9946433E-01
         -4   -1    0    0    0  501 -0.00000000000E+00  0.00000000000E+00  0.12448241983E+04  0.12448241983E+04  0.00000000000E+00 0. -1.
         21   -1    0    0  501  502  0.00000000000E+00 -0.00000000000E+00 -0.28212360020E+03  0.28212360020E+03  0.00000000000E+00 0. -1.
        -13    1    1    2    0    0 -0.32766892634E+02 -0.11998467966E+03  0.21732929098E+03  0.25040372299E+03  0.10566000000E+00 0.  1.
         13    1    1    2    0    0 -0.32383087045E+02 -0.42643742063E+03  0.12135956293E+03  0.44455111373E+03  0.10566000000E+00 0. -1.
         -4    1    1    2    0  502  0.65149979679E+02  0.54642210030E+03  0.62401174419E+03  0.83199296177E+03  0.00000000000E+00 0. -1.
</event>
<event>
 5    1  0.7625606E-005  0.4637835E+03  0.7818608E-02  0.9674832E-01
         -4   -1    0    0    0  501 -0.00000000000E+00  0.00000000000E+00  0.33469604066E+04  0.33469604066E+04  0.00000000000E+00 0. -1.
         21   -1    0    0  501  502  0.00000000000E+00 -0.00000000000E+00 -0.13120742185E+03  0.13120742185E+03  0.00000000000E+00 0. -1.
        -13    1    1    2    0    0  0.28284189291E+03  0.12671487611E+03  0.11725356512E+04  0.12128050382E+04  0.10566000000E+00 0.  1.
         13    1    1    2    0    0  0.30448835806E+03 -0.17768156061E+03  0.10796892485E+04  0.11357872959E+04  0.10566000000E+00 0. -1.
         -4    1    1    2    0  502 -0.58733025097E+03  0.50966684506E+02  0.96352808513E+03  0.11295754944E+04  0.00000000000E+00 0. -1.
</event>
<event>
 5    1  0.7625606E-005  0.4622301E+03  0.7818608E-02  0.1012107E+00
          4   -1    0    0  502    0 -0.00000000000E+00  0.00000000000E+00  0.16174855116E+03  0.16174855116E+03  0.00000000000E+00 0.  1.
         21   -1    0    0  501  502  0.00000000000E+00 -0.00000000000E+00 -0.22404928779E+04  0.22404928779E+04  0.00000000000E+00 0.  1.
        -13    1    1    2    0    0  0.30726892952E+03 -0.27208555073E+03 -0.36214187190E+03  0.54734951221E+03  0.10566000000E+00 0.  1.
         13    1    1    2    0    0  0.53921265333E+02 -0.45083542304E+02  0.20197301848E+01  0.70314430353E+02  0.10566000000E+00 0. -1.
          4    1    1    2  501    0 -0.36119019486E+03  0.31716909303E+03 -0.17186221850E+04  0.17845774865E+04  0.00000000000E+00 0.  1.
</event>
<event>
 5    1  0.7625606E-005  0.2233750E+03  0.7818608E-02  0.1053867E+00
         -4   -1    0    0    0  501 -0.00000000000E+00  0.00000000000E+00  0.50026646802E+03  0.50026646802E+03  0.00000000000E+00 0. -1.
         21   -1    0    0  501  502  0.00000000000E+00 -0.00000000000E+00 -0.85227176295E+03  0.85227176295E+03  0.00000000000E+00 0. -1.
        -13    1    1    2    0    0 -0.17235647570E+03 -0.82549923795E+01  0.10075261294E+03  0.19981491384E+03  0.10566000000E+00 0.  1.
         13    1    1    2    0    0 -0.59256413184E+02  0.10740826203E+02  0.33049629779E+03  0.33593824115E+03  0.10566000000E+00 0. -1.
         -4    1    1    2    0  502  0.23161288889E+03 -0.24858338230E+01 -0.78325420566E+03  0.81678507598E+03  0.00000000000E+00 0. -1.
</event>
<event>
 5    1  0.7625606E-005  0.3934610E+03  0.7818608E-02  0.9859345E-01
         21   -1    0    0  501  502  0.00000000000E+00  0.00000000000E+00  0.11148673355E+03  0.11148673355E+03  0.00000000000E+00 0. -1.
         -4   -1    0    0    0  501 -0.00000000000E+00 -0.00000000000E+00 -0.39350656561E+04  0.39350656561E+04  0.00000000000E+00 0. -1.
        -13    1    1    2    0    0 -0.24120087030E+03 -0.11960758388E+03 -0.10567185036E+04  0.10904759699E+04  0.10566000000E+00 0.  1.
         13    1    1    2    0    0 -0.29413646353E+03  0.22112644437E+03 -0.47791730495E+03  0.60317337898E+03  0.10566000000E+00 0. -1.
         -4    1    1    2    0  502  0.53533733383E+03 -0.10151886049E+03 -0.22889431140E+04  0.23529030407E+04  0.00000000000E+00 0. -1.
</event>
<event>
 5    1  0.7625606E-005  0.1754400E+03  0.7818608E-02  0.1078415E+00
          4   -1    0    0  502    0 -0.00000000000E+00  0.00000000000E+00  0.60085000227E+03  0.60085000227E+03  0.00000000000E+00 0.  1.
         21   -1    0    0  501  502  0.00000000000E+00 -0.00000000000E+00 -0.10128565155E+03  0.10128565155E+03  0.00000000000E+00 0. -1.
        -13    1    1    2    0    0  0.17451990951E+03  0.30263992801E+02  0.61826787411E+02  0.18760509290E+03  0.10566000000E+00 0.  1.
         13    1    1    2    0    0 -0.15576660510E+03 -0.84066687265E+02  0.41850089846E+03  0.45439350386E+03  0.10566000000E+00 0. -1.
          4    1    1    2  501    0 -0.18753304405E+02  0.53802694464E+02  0.19236664853E+02  0.60137057065E+02  0.00000000000E+00 0.  1.
</event>
<event>
 5    1  0.7625606E-005  0.4971580E+03  0.7818608E-02  0.9527498E-01
         21   -1    0    0  501  502  0.00000000000E+00  0.00000000000E+00  0.34861055741E+03  0.34861055741E+03  0.00000000000E+00 0. -1.
         -4   -1    0    0    0  501 -0.00000000000E+00 -0.00000000000E+00 -0.16486574457E+04  0.16486574457E+04  0.00000000000E+00 0. -1.
        -13    1    1    2    0    0  0.10816493009E+03 -0.41091000094E+03 -0.34236807407E+03  0.54567626875E+03  0.10566000000E+00 0.  1.
         13    1    1    2    0    0  0.35389314994E+03  0.47093168725E+03 -0.34779226270E+03  0.68408806801E+03  0.10566000000E+00 0. -1.
         -4    1    1    2    0  502 -0.46205808003E+03 -0.60021686319E+02 -0.60988655152E+03  0.76750366636E+03  0.00000000000E+00 0. -1.
</event>
<event>
 5    1  0.7625606E-005  0.4860490E+03  0.7818608E-02  0.9509085E-01
         21   -1    0    0  501  502  0.00000000000E+00  0.00000000000E+00  0.10429414907E+04  0.10429414907E+04  0.00000000000E+00 0. -1.
          4   -1    0    0  502    0 -0.00000000000E+00 -0.00000000000E+00 -0.85998016396E+03  0.85998016396E+03  0.00000000000E+00 0.  1.
        -13    1    1    2    0    0 -0.28077360542E+03 -0.41132318454E+03 -0.70312457378E+03  0.86162912965E+03  0.10566000000E+00 0.  1.
         13    1    1    2    0    0  0.23172342255E+03  0.32770917677E+03  0.48938543618E+03  0.63291955682E+03  0.10566000000E+00 0. -1.
          4    1    1    2  501    0  0.49050182865E+02  0.83614007769E+02  0.39670046436E+03  0.40837296820E+03  0.00000000000E+00 0.  1.
</event>
<event>
 5    1  0.7625606E-005  0.3783382E+02  0.7818608E-02  0.1413809E+00
          4   -1    0    0  502    0 -0.00000000000E+00  0.00000000000E+00  0.47756488924E+02  0.47756488924E+02  0.00000000000E+00 0.  1.
         21   -1    0    0  501  502  0.00000000000E+00 -0.00000000000E+00 -0.16984825258E+03  0.16984825258E+03  0.00000000000E+00 0. -1.
        -13    1    1    2    0    0  0.14947447868E+02 -0.21729179194E+02  0.39166516777E+02  0.47218752913E+02  0.10566000000E+00 0.  1.
         13    1    1    2    0    0  0.10134411650E+02 -0.80033916550E+01 -0.70030075280E+02  0.71210836150E+02  0.10566000000E+00 0. -1.
          4    1    1    2  501    0 -0.25081859517E+02  0.29732570849E+02 -0.91228205149E+02  0.99175152437E+02  0.00000000000E+00 0.  1.
</event>
<event>
 5    1  0.7625606E-005  0.4983984E+03  0.7818608E-02  0.9748436E-01
         21   -1    0    0  501  502  0.00000000000E+00  0.00000000000E+00  0.26829366666E+03  0.26829366666E+03  0.00000000000E+00 0.  1.
          4   -1    0    0  502    0 -0.00000000000E+00 -0.00000000000E+00 -0.13733202222E+04  0.13733202222E+04  0.00000000000E+00 0.  1.
        -13    1    1    2    0    0 -0.56189490371E+03  0.16865494625E+03 -0.40263105441E+03  0.71153506649E+03  0.10566000000E+00 0.  1.
         13    1    1    2    0    0  0.19212528234E+03  0.21976049980E+02 -0.23581142393E+03  0.30496247262E+03  0.10566000000E+00 0. -1.
          4    1    1    2  501    0  0.36976962138E+03 -0.19063099623E+03 -0.46658407717E+03  0.62511634972E+03  0.00000000000E+00 0.  1.
</event>
<event>
 5    1  0.7625606E-005  0.4096762E+03  0.7818608E-02  0.9971802E-01
         21   -1    0    0  501  502  0.00000000000E+00  0.00000000000E+00  0.14805818215E+03  0.14805818215E+03  0.00000000000E+00 0.  1.
          4   -1    0    0  502    0 -0.00000000000E+00 -0.00000000000E+00 -0.22800294779E+04  0.22800294779E+04  0.00000000000E+00 0.  1.
        -13    1    1    2    0    0 -0.16900202942E+03  0.34527939105E+03 -0.33528105137E+03  0.51009110795E+03  0.10566000000E+00 0.  1.
         13    1    1    2    0    0 -0.15863748860E+03  0.41280938393E+02 -0.40438393979E+03  0.43634430281E+03  0.10566000000E+00 0. -1.
          4    1    1    2  501    0  0.32763951802E+03 -0.38656032944E+03 -0.13923063046E+04  0.14816522493E+04  0.00000000000E+00 0.  1.
</event>
<event>
 5    1  0.7625606E-005  0.5061229E+03  0.7818608E-02  0.9892221E-01
         21   -1    0    0  501  502  0.00000000000E+00  0.00000000000E+00  0.30431979255E+03  0.30431979255E+03  0.00000000000E+00 0.  1.
          4   -1    0    0  502    0 -0.00000000000E+00 -0.00000000000E+00 -0.12806190176E+04  0.12806190176E+04  0.00000000000E+00 0.  1.
        -13    1    1    2    0    0 -0.28864420626E+03  0.47405673830E+03 -0.27564196425E+03  0.61969651650E+03  0.10566000000E+00 0.  1.
         13    1    1    2    0    0  0.10008922710E+03 -0.52997365354E+02 -0.39721597366E+03  0.41304614151E+03  0.10566000000E+00 0. -1.
          4    1    1    2  501    0  0.18855497916E+03 -0.42105937295E+03 -0.30344128714E+03  0.55219615215E+03  0.00000000000E+00 0.  1.
</event>
<event>
 5    1  0.7625606E-005  0.2832867E+03  0.7818608E-02  0.1014453E+00
         21   -1    0    0  501  502  0.00000000000E+00  0.00000000000E+00  0.44026440027E+03  0.44026440027E+03  0.00000000000E+00 0. -1.
          4   -1    0    0  502    0 -0.00000000000E+00 -0.00000000000E+00 -0.26989424761E+03  0.26989424761E+03  0.00000000000E+00 0.  1.
        -13    1    1    2    0    0 -0.25140539399E+03  0.20000332081E+03  0.50651373953E+01  0.32129685222E+03  0.10566000000E+00 0.  1.
         13    1    1    2    0    0  0.16444720755E+03 -0.18531106113E+03  0.66710767909E+02  0.25658022365E+03  0.10566000000E+00 0. -1.
          4    1    1    2  501    0  0.86958186438E+02 -0.14692259680E+02  0.98594247360E+02  0.13228157202E+03  0.00000000000E+00 0.  1.
</event>
<event>
 5    1  0.7625606E-005  0.3302099E+02  0.7818608E-02  0.1382175E+00
          4   -1    0    0  502    0 -0.00000000000E+00  0.00000000000E+00  0.11481290567E+02  0.11481290567E+02  0.00000000000E+00 0.  1.
         21   -1    0    0  501  502  0.00000000000E+00 -0.00000000000E+00 -0.70943094414E+03  0.70943094414E+03  0.00000000000E+00 0.  1.
        -13    1    1    2    0    0 -0.74250707059E+01  0.33629763404E+02 -0.23071593989E+02  0.41453615944E+02  0.10566000000E+00 0.  1.
         13    1    1    2    0    0 -0.23051464791E+01 -0.29610032896E+02 -0.96098139153E+02  0.10058295711E+03  0.10566000000E+00 0. -1.
          4    1    1    2  501    0  0.97302171851E+01 -0.40197305079E+01 -0.57877992043E+03  0.57887566166E+03  0.00000000000E+00 0.  1.
</event>
<event>
 5    1  0.7625606E-005  0.3743759E+03  0.7818608E-02  0.9996010E-01
         21   -1    0    0  501  502  0.00000000000E+00  0.00000000000E+00  0.15906166363E+04  0.15906166363E+04  0.00000000000E+00 0.  1.
          4   -1    0    0  502    0 -0.00000000000E+00 -0.00000000000E+00 -0.26585497147E+03  0.26585497147E+03  0.00000000000E+00 0.  1.
        -13    1    1    2    0    0 -0.33645836221E+03 -0.38857682872E+03  0.29291284660E+03  0.59160301570E+03  0.10566000000E+00 0.  1.
         13    1    1    2    0    0  0.46998445530E+02  0.19271463574E+03  0.26035996749E+02  0.20006416222E+03  0.10566000000E+00 0. -1.
          4    1    1    2  501    0  0.28945991668E+03  0.19586219298E+03  0.10058128215E+04  0.10648044299E+04  0.00000000000E+00 0.  1.
</event>
<event>
 5    1  0.7625606E-005  0.6457581E+02  0.7818608E-02  0.1241721E+00
         21   -1    0    0  501  502  0.00000000000E+00  0.00000000000E+00  0.15387148490E+04  0.15387148490E+04  0.00000000000E+00 0. -1.
         -4   -1    0    0    0  501 -0.00000000000E+00 -0.00000000000E+00 -0.10151280269E+02  0.10151280269E+02  0.00000000000E+00 0. -1.
        -13    1    1    2    0    0 -0.68940229631E+02 -0.60518594343E+01  0.36676543800E+03  0.37323756233E+03  0.10566000000E+00 0.  1.
         13    1    1    2    0    0  0.62775944350E+02 -0.63943150414E+01  0.13806683309E+03  0.15180305668E+03  0.10566000000E+00 0. -1.
         -4    1    1    2    0  502  0.61642852815E+01  0.12446174476E+02  0.10237312977E+04  0.10238255103E+04  0.00000000000E+00 0. -1.
</event>
<event>
 5    1  0.7625606E-005  0.3288501E+03  0.7818608E-02  0.1005563E+00
         21   -1    0    0  501  502  0.00000000000E+00  0.00000000000E+00  0.51796656172E+03  0.51796656172E+03  0.00000000000E+00 0.  1.
          4   -1    0    0  502    0 -0.00000000000E+00 -0.00000000000E+00 -0.11047800875E+04  0.11047800875E+04  0.00000000000E+00 0.  1.
        -13    1    1    2    0    0  0.50938578440E+03  0.16808796684E+03 -0.25296554037E+03  0.59305903393E+03  0.10566000000E+00 0.  1.
         13    1    1    2    0    0 -0.22553524623E+03 -0.84887950197E+02 -0.59068444565E+03  0.63795002694E+03  0.10566000000E+00 0. -1.
          4    1    1    2  501    0 -0.28385053817E+03 -0.83200016648E+02  0.25683646027E+03  0.39173758833E+03  0.00000000000E+00 0.  1.
</event>
<event>
 5    1  0.7625606E-005  0.4509091E+03  0.7818608E-02  0.9825118E-01
         21   -1    0    0  501  502  0.00000000000E+00  0.00000000000E+00  0.76391100442E+03  0.76391100442E+03  0.00000000000E+00 0. -1.
         -4   -1    0    0    0  501 -0.00000000000E+00 -0.00000000000E+00 -0.96883750464E+03  0.96883750464E+03  0.00000000000E+00 0. -1.
        -13    1    1    2    0    0  0.77899792245E+02 -0.18512984482E+03 -0.61378525323E+03  0.64581250013E+03  0.10566000000E+00 0.  1.
         13    1    1    2    0    0 -0.38283493964E+03  0.43949979816E+03  0.11793354660E+03  0.59466881217E+03  0.10566000000E+00 0. -1.
         -4    1    1    2    0  502  0.30493514740E+03 -0.25436995334E+03  0.29092520641E+03  0.49226719676E+03  0.00000000000E+00 0. -1.
</event>
<event>
 5    1  0.7625606E-005  0.9984294E+02  0.7818608E-02  0.1164816E+00
         21   -1    0    0  501  502  0.00000000000E+00  0.00000000000E+00  0.47361091420E+03  0.47361091420E+03  0.00000000000E+00 0.  1.
          4   -1    0    0  502    0 -0.00000000000E+00 -0.00000000000E+00 -0.35219608792E+03  0.35219608792E+03  0.00000000000E+00 0.  1.
        -13    1    1    2    0    0 -0.66120989347E+02  0.76057979560E+02 -0.33632853208E+03  0.35110353764E+03  0.10566000000E+00 0.  1.
         13    1    1    2    0    0  0.68500616810E+02 -0.35832316838E+02  0.21151636722E+03  0.22520096403E+03  0.10566000000E+00 0. -1.
          4    1    1    2  501    0 -0.23796274629E+01 -0.40225662721E+02  0.24622699114E+03  0.24950250046E+03  0.00000000000E+00 0.  1.
</event>
<event>
 5    1  0.7625606E-005  0.1299537E+03  0.7818608E-02  0.1122755E+00
         21   -1    0    0  501  502  0.00000000000E+00  0.00000000000E+00  0.44982601034E+02  0.44982601034E+02  0.00000000000E+00 0. -1.
         -4   -1    0    0    0  501 -0.00000000000E+00 -0.00000000000E+00 -0.13629670293E+04  0.13629670293E+04  0.00000000000E+00 0. -1.
        -13    1    1    2    0    0  0.25478385175E+02  0.13208618416E+03 -0.70715372711E+03  0.71983492072E+03  0.10566000000E+00 0.  1.
         13    1    1    2    0    0 -0.53364355390E+02 -0.11558768853E+03 -0.63503513683E+03  0.64767113903E+03  0.10566000000E+00 0. -1.
         -4    1    1    2    0  502  0.27885970216E+02 -0.16498495629E+02  0.24204435689E+02  0.40443570564E+02  0.00000000000E+00 0. -1.
</event>
<event>
 5    1  0.7625606E-005  0.6667340E+02  0.7818608E-02  0.1235736E+00
         21   -1    0    0  501  502  0.00000000000E+00  0.00000000000E+00  0.12959628708E+03  0.12959628708E+03  0.00000000000E+00 0.  1.
         -4   -1    0    0    0  501 -0.00000000000E+00 -0.00000000000E+00 -0.94722894762E+02  0.94722894762E+02  0.00000000000E+00 0. -1.
        -13    1    1    2    0    0  0.55275078073E+02  0.41601972394E+01  0.25661336775E+02  0.61083196267E+02  0.10566000000E+00 0.  1.
         13    1    1    2    0    0 -0.70508874003E+02  0.12600050645E+02 -0.58092588944E+02  0.92222679660E+02  0.10566000000E+00 0. -1.
         -4    1    1    2    0  502  0.15233795929E+02 -0.16760247884E+02  0.67304644483E+02  0.71013305912E+02  0.00000000000E+00 0. -1.
</event>
<event>
 5    1  0.7625606E-005  0.2500575E+02  0.7818608E-02  0.1450176E+00
         21   -1    0    0  501  502  0.00000000000E+00  0.00000000000E+00  0.15420888122E+03  0.15420888122E+03  0.00000000000E+00 0.  1.
         -4   -1    0    0    0  501 -0.00000000000E+00 -0.00000000000E+00 -0.96928721966E+02  0.96928721966E+02  0.00000000000E+00 0. -1.
        -13    1    1    2    0    0 -0.22813007656E+02 -0.23300589136E+02  0.64742168260E+02  0.72490760014E+02  0.10566000000E+00 0.  1.
         13    1    1    2    0    0  0.45388150609E+01  0.24534630681E+02 -0.90364104927E+02  0.93745568259E+02  0.10566000000E+00 0. -1.
         -4    1    1    2    0  502  0.18274192595E+02 -0.12340415447E+01  0.82902095921E+02  0.84901274912E+02  0.00000000000E+00 0. -1.
</event>
<event>
 5    1  0.7625606E-005  0.1608956E+03  0.7818608E-02  0.1090837E+00
         21   -1    0    0  501  502  0.00000000000E+00  0.00000000000E+00  0.36150857196E+02  0.36150857196E+02  0.00000000000E+00 0.  1.
         -4   -1    0    0    0  501 -0.00000000000E+00 -0.00000000000E+00 -0.12167443170E+04  0.12167443170E+04  0.00000000000E+00 0. -1.
        -13    1    1    2    0    0 -0.73639137811E+02  0.12682028910E+03 -0.23429329790E+03  0.27640453858E+03  0.10566000000E+00 0.  1.
         13    1    1    2    0    0  0.84203740415E+02 -0.14281700226E+03 -0.94247000592E+03  0.95694131966E+03  0.10566000000E+00 0. -1.
         -4    1    1    2    0  502 -0.10564602604E+02  0.15996713160E+02 -0.38301559984E+01  0.19549315975E+02  0.00000000000E+00 0. -1.
</event>
<event>
 5    1  0.7625606E-005  0.2369991E+03  0.7818608E-02  0.1037359E+00
         21   -1    0    0  501  502  0.00000000000E+00  0.00000000000E+00  0.50490271246E+02  0.50490271246E+02  0.00000000000E+00 0.  1.
         -4   -1    0    0    0  501 -0.00000000000E+00 -0.00000000000E+00 -0.17872538138E+04  0.17872538138E+04  0.00000000000E+00 0. -1.
        -13    1    1    2    0    0  0.11106167851E+03  0.22012828940E+03 -0.11602760801E+04  0.11861836930E+04  0.10566000000E+00 0.  1.
         13    1    1    2    0    0 -0.84396415020E+02 -0.20560247800E+03 -0.57987462291E+03  0.62100702354E+03  0.10566000000E+00 0. -1.
         -4    1    1    2    0  502 -0.26665263489E+02 -0.14525811397E+02  0.33871604545E+01  0.30553368548E+02  0.00000000000E+00 0. -1.
</event>
<event>
 5    1  0.7625606E-005  0.4462444E+03  0.7818608E-02  0.1021078E+00
         21   -1    0    0  501  502  0.00000000000E+00  0.00000000000E+00  0.12464077869E+04  0.12464077869E+04  0.00000000000E+00 0.  1.
          4   -1    0    0  502    0 -0.00000000000E+00 -0.00000000000E+00 -0.23608320844E+03  0.23608320844E+03  0.00000000000E+00 0.  1.
        -13    1    1    2    0    0  0.55076036093E+02 -0.43453585682E+03  0.78963030268E+03  0.90297885173E+03  0.10566000000E+00 0.  1.
         13    1    1    2    0    0  0.54381525656E+02 -0.22264352864E+02 -0.38136074722E+01  0.58886386433E+02  0.10566000000E+00 0. -1.
          4    1    1    2  501    0 -0.10945756175E+03  0.45680020968E+03  0.22450788327E+03  0.52062575718E+03  0.00000000000E+00 0.  1.
</event>
<event>
 5    1  0.7625606E-005  0.6314640E+02  0.7818608E-02  0.1245946E+00
         21   -1    0    0  501  502  0.00000000000E+00  0.00000000000E+00  0.44723845507E+03  0.44723845507E+03  0.00000000000E+00 0. -1.
          4   -1    0    0  502    0 -0.00000000000E+00 -0.00000000000E+00 -0.17777723256E+02  0.17777723256E+02  0.00000000000E+00 0.  1.
        -13    1    1    2    0    0 -0.57475253178E+02 -0.26021485936E+02  0.58997059080E+02  0.86378160447E+02  0.10566000000E+00 0.  1.
         13    1    1    2    0    0  0.63102203828E+02  0.13591092602E+02  0.30009274440E+03  0.30695646651E+03  0.10566000000E+00 0. -1.
          4    1    1    2  501    0 -0.56269506500E+01  0.12430393334E+02  0.70370928343E+02  0.71681551378E+02  0.00000000000E+00 0.  1.
</event>
<event>
 5    1  0.7625606E-005  0.2663064E+03  0.7818608E-02  0.1037049E+00
         21   -1    0    0  501  502  0.00000000000E+00  0.00000000000E+00  0.17683321486E+03  0.17683321486E+03  0.00000000000E+00 0. -1.
         -4   -1    0    0    0  501 -0.00000000000E+00 -0.00000000000E+00 -0.76937536698E+03  0.76937536698E+03  0.00000000000E+00 0. -1.
        -13    1    1    2    0    0 -0.16294890043E+03  0.43415937484E+02 -0.17458897625E+03  0.24273155866E+03  0.10566000000E+00 0.  1.
         13    1    1    2    0    0 -0.25632888094E+02 -0.26272040387E+03 -0.27374862841E+03  0.38028591649E+03  0.10566000000E+00 0. -1.
         -4    1    1    2    0  502  0.18858178852E+03  0.21930446638E+03 -0.14420454745E+03  0.32319110669E+03  0.00000000000E+00 0. -1.
</event>
<event>
 5    1  0.7625606E-005  0.5064461E+03  0.7818608E-02  0.9765290E-01
          4   -1    0    0  502    0 -0.00000000000E+00  0.00000000000E+00  0.12785044328E+04  0.12785044328E+04  0.00000000000E+00 0.  1.
         21   -1    0    0  501  502  0.00000000000E+00 -0.00000000000E+00 -0.40061463490E+03  0.40061463490E+03  0.00000000000E+00 0.  1.
        -13    1    1    2    0    0 -0.55888625820E+02 -0.47731675183E+03  0.32191116531E+03  0.57843031524E+03  0.10566000000E+00 0.  1.
         13    1    1    2    0    0 -0.17388762949E+03 -0.29624954964E+01  0.54078035658E+03  0.56805729402E+03  0.10566000000E+00 0. -1.
          4    1    1    2  501    0  0.22977625531E+03  0.48027924733E+03  0.15198276008E+02  0.53263145843E+03  0.00000000000E+00 0.  1.
</event>
<event>
 5    1  0.7625606E-005  0.2708677E+03  0.7818608E-02  0.1020112E+00
         -4   -1    0    0    0  501 -0.00000000000E+00  0.00000000000E+00  0.54118014307E+03  0.54118014307E+03  0.00000000000E+00 0. -1.
         21   -1    0    0  501  502  0.00000000000E+00 -0.00000000000E+00 -0.79202881714E+03  0.79202881714E+03  0.00000000000E+00 0. -1.
        -13    1    1    2    0    0  0.27393555061E+02 -0.26154252360E+03  0.21000852513E+01  0.26298159637E+03  0.10566000000E+00 0.  1.
         13    1    1    2    0    0  0.10540690322E+03  0.31686358602E+03 -0.60437533563E+03  0.69049453645E+03  0.10566000000E+00 0. -1.
         -4    1    1    2    0  502 -0.13280045828E+03 -0.55321062420E+02  0.35142657630E+03  0.37973282739E+03  0.00000000000E+00 0. -1.
</event>
<event>
 5    1  0.7625606E-005  0.2469835E+03  0.7818608E-02  0.1039977E+00
         21   -1    0    0  501  502  0.00000000000E+00  0.00000000000E+00  0.29110095258E+03  0.29110095258E+03  0.00000000000E+00 0.  1.
          4   -1    0    0  502    0 -0.00000000000E+00 -0.00000000000E+00 -0.14954793060E+04  0.14954793060E+04  0.00000000000E+00 0.  1.
        -13    1    1    2    0    0 -0.79539268955E+02  0.18880121716E+03  0.11859235186E+03  0.23672040890E+03  0.10566000000E+00 0.  1.
         13    1    1    2    0    0 -0.52526967885E+02  0.27412303580E+03 -0.25353386763E+03  0.37707022464E+03  0.10566000000E+00 0. -1.
          4    1    1    2  501    0  0.13206623684E+03 -0.46292425296E+03 -0.10694368377E+04  0.11727896251E+04  0.00000000000E+00 0.  1.
</event>
<event>
 5    1  0.7625606E-005  0.7222047E+02  0.7818608E-02  0.1221019E+00
         21   -1    0    0  501  502  0.00000000000E+00  0.00000000000E+00  0.15628435785E+03  0.15628435785E+03  0.00000000000E+00 0. -1.
         -4   -1    0    0    0  501 -0.00000000000E+00 -0.00000000000E+00 -0.13703239914E+03  0.13703239914E+03  0.00000000000E+00 0. -1.
        -13    1    1    2    0    0 -0.28178272459E+02 -0.44216967075E+02  0.10177416008E+03  0.11448644479E+03  0.10566000000E+00 0.  1.
         13    1    1    2    0    0  0.59983525748E+02  0.44378289856E+02 -0.11258451082E+03  0.13506568480E+03  0.10566000000E+00 0. -1.
         -4    1    1    2    0  502 -0.31805253290E+02 -0.16132278129E+00  0.30062309447E+02  0.43764627397E+02  0.00000000000E+00 0. -1.
</event>
<event>
 5    1  0.7625606E-005  0.4948868E+03  0.7818608E-02  0.9621513E-01
          4   -1    0    0  502    0 -0.00000000000E+00  0.00000000000E+00  0.13207534082E+04  0.13207534082E+04  0.00000000000E+00 0.  1.
         21   -1    0    0  501  502  0.00000000000E+00 -0.00000000000E+00 -0.35065044180E+03  0.35065044180E+03  0.00000000000E+00 0. -1.
        -13    1    1    2    0    0  0.14998290021E+03  0.58892798905E+03  0.18445394360E+03  0.63510181477E+03  0.10566000000E+00 0.  1.
         13    1    1    2    0    0  0.65786068660E+02 -0.30065461969E+03  0.28385866360E+03  0.41868455815E+03  0.10566000000E+00 0. -1.
          4    1    1    2  501    0 -0.21576896887E+03 -0.28827336936E+03  0.50179035918E+03  0.61761747706E+03  0.00000000000E+00 0.  1.
</event>
<event>
 5    1  0.7625606E-005  0.3648189E+03  0.7818608E-02  0.9971853E-01
         21   -1    0    0  501  502  0.00000000000E+00  0.00000000000E+00  0.23590784505E+03  0.23590784505E+03  0.00000000000E+00 0.  1.
          4   -1    0    0  502    0 -0.00000000000E+00 -0.00000000000E+00 -0.19535005104E+04  0.19535005104E+04  0.00000000000E+00 0.  1.
        -13    1    1    2    0    0 -0.40268623312E+03 -0.38643348773E+03 -0.90227219686E+03  0.10609345744E+04  0.10566000000E+00 0.  1.
         13    1    1    2    0    0  0.15505727434E+03  0.17268871946E+03 -0.76259914278E+03  0.79713337396E+03  0.10566000000E+00 0. -1.
          4    1    1    2  501    0  0.24762895878E+03  0.21374476827E+03 -0.52721325724E+02  0.33134040710E+03  0.00000000000E+00 0.  1.
</event>
<event>
 5    1  0.7625606E-005  0.4072647E+03  0.7818608E-02  0.9739642E-01
         21   -1    0    0  501  502  0.00000000000E+00  0.00000000000E+00  0.62207107576E+03  0.62207107576E+03  0.00000000000E+00 0.  1.
          4   -1    0    0  502    0 -0.00000000000E+00 -0.00000000000E+00 -0.82243918072E+03  0.82243918072E+03  0.00000000000E+00 0.  1.
        -13    1    1    2    0    0 -0.15254196783E+02 -0.32670213074E+03 -0.45822464498E+03  0.56297141062E+03  0.10566000000E+00 0.  1.
         13    1    1    2    0    0  0.36425121339E+03  0.28132038571E+02  0.23947166477E+02  0.36611997487E+03  0.10566000000E+00 0. -1.
          4    1    1    2  501    0 -0.34899701661E+03  0.29857009217E+03  0.23390937354E+03  0.51541887099E+03  0.00000000000E+00 0.  1.
</event>
<event>
 5    1  0.7625606E-005  0.6065064E+02  0.7818608E-02  0.1263919E+00
          4   -1    0    0  502    0 -0.00000000000E+00  0.00000000000E+00  0.79328102316E+02  0.79328102316E+02  0.00000000000E+00 0.  1.
         21   -1    0    0  501  502  0.00000000000E+00 -0.00000000000E+00 -0.37932625419E+03  0.37932625419E+03  0.00000000000E+00 0.  1.
        -13    1    1    2    0    0 -0.79936605519E+02  0.60290825470E+02  0.33701680421E+02  0.10564402001E+03  0.10566000000E+00 0.  1.
         13    1    1    2    0    0  0.47791611901E+02 -0.10906357741E+02 -0.92151366403E+02  0.10437850498E+03  0.10566000000E+00 0. -1.
          4    1    1    2  501    0  0.32144993617E+02 -0.49384467729E+02 -0.24154846589E+03  0.24863183152E+03  0.00000000000E+00 0.  1.
</event>
<event>
 5    1  0.7625606E-005  0.3302092E+02  0.7818608E-02  0.1382175E+00
         21   -1    0    0  501  502  0.00000000000E+00  0.00000000000E+00  0.20731532760E+03  0.20731532760E+03  0.00000000000E+00 0.  1.
         -4   -1    0    0    0  501 -0.00000000000E+00 -0.00000000000E+00 -0.10510277926E+02  0.10510277926E+02  0.00000000000E+00 0. -1.
        -13    1    1    2    0    0  0.25926731607E+02  0.28051437195E+01  0.92610888849E+02  0.96212536296E+02  0.10566000000E+00 0.  1.
         13    1    1    2    0    0 -0.34795078254E+02 -0.91471309386E+01  0.30643977303E+02  0.47259199994E+02  0.10566000000E+00 0. -1.
         -4    1    1    2    0  502  0.88683466471E+01  0.63419872191E+01  0.73550183527E+02  0.74353869241E+02  0.00000000000E+00 0. -1.
</event>
<event>
 5    1  0.7625606E-005  0.1905338E+03  0.7818608E-02  0.1077859E+00
         -4   -1    0    0    0  501 -0.00000000000E+00  0.00000000000E+00  0.23065432454E+04  0.23065432454E+04  0.00000000000E+00 0. -1.
         21   -1    0    0  501  502  0.00000000000E+00 -0.00000000000E+00 -0.14598276229E+03  0.14598276229E+03  0.00000000000E+00 0. -1.
        -13    1    1    2    0    0  0.42310995647E+02 -0.13253741435E+03  0.39970991737E+03  0.42323092486E+03  0.10566000000E+00 0.  1.
         13    1    1    2    0    0 -0.12774564961E+03 -0.13778416702E+03 -0.51566015477E+02  0.19483965918E+03  0.10566000000E+00 0. -1.
         -4    1    1    2    0  502  0.85434653962E+02  0.27032158136E+03  0.18124165813E+04  0.18344554237E+04  0.00000000000E+00 0. -1.
</event>
<event>
 5    1  0.7625606E-005  0.3993684E+03  0.7818608E-02  0.9730872E-01
          4   -1    0    0  502    0 -0.00000000000E+00  0.00000000000E+00  0.33251288023E+04  0.33251288023E+04  0.00000000000E+00 0.  1.
         21   -1    0    0  501  502  0.00000000000E+00 -0.00000000000E+00 -0.21376832424E+03  0.21376832424E+03  0.00000000000E+00 0. -1.
        -13    1    1    2    0    0  0.39971834808E+03 -0.57251922533E+02  0.22461956491E+04  0.22822023235E+04  0.10566000000E+00 0.  1.
         13    1    1    2    0    0 -0.39731282776E+03 -0.31142172990E+03  0.67195333439E+03  0.84045361068E+03  0.10566000000E+00 0. -1.
          4    1    1    2  501    0 -0.24055203176E+01  0.36867365243E+03  0.19321149454E+03  0.41624119227E+03  0.00000000000E+00 0.  1.
</event>
<event>
 5    1  0.7625606E-005  0.1012990E+03  0.7818608E-02  0.1162424E+00
         -4   -1    0    0    0  501 -0.00000000000E+00  0.00000000000E+00  0.20796574777E+03  0.20796574777E+03  0.00000000000E+00 0. -1.
         21   -1    0    0  501  502  0.00000000000E+00 -0.00000000000E+00 -0.61317149455E+02  0.61317149455E+02  0.00000000000E+00 0.  1.
        -13    1    1    2    0    0 -0.51844446988E+02  0.75027961928E+02  0.44724199572E+02  0.10157414507E+03  0.10566000000E+00 0.  1.
         13    1    1    2    0    0  0.60528979832E+02 -0.93788387288E+02  0.78482576977E+02  0.13645345376E+03  0.10566000000E+00 0. -1.
         -4    1    1    2    0  502 -0.86845328443E+01  0.18760425360E+02  0.23441821769E+02  0.31255298403E+02  0.00000000000E+00 0. -1.
</event>
<event>
 5    1  0.7625606E-005  0.1877729E+03  0.7818608E-02  0.1068857E+00
         -4   -1    0    0    0  501 -0.00000000000E+00  0.00000000000E+00  0.71932990534E+03  0.71932990534E+03  0.00000000000E+00 0. -1.
         21   -1    0    0  501  502  0.00000000000E+00 -0.00000000000E+00 -0.15947663798E+03  0.15947663798E+03  0.00000000000E+00 0.  1.
        -13    1    1    2    0    0  0.21219003318E+03 -0.11201124073E+03  0.41688634420E+03  0.48100453571E+03  0.10566000000E+00 0.  1.
         13    1    1    2    0    0 -0.14097804826E+03  0.54596274656E+02  0.22756435693E+03  0.27320525435E+03  0.10566000000E+00 0. -1.
         -4    1    1    2    0  502 -0.71211984918E+02  0.57414966077E+02 -0.84597433756E+02  0.12459675326E+03  0.00000000000E+00 0. -1.
</event>
<event>
 5    1  0.7625606E-005  0.1984865E+03  0.7818608E-02  0.1061178E+00
         -4   -1    0    0    0  501 -0.00000000000E+00  0.00000000000E+00  0.13449020170E+04  0.13449020170E+04  0.00000000000E+00 0. -1.
         21   -1    0    0  501  502  0.00000000000E+00 -0.00000000000E+00 -0.44832394026E+02  0.44832394026E+02  0.00000000000E+00 0.  1.
        -13    1    1    2    0    0 -0.11936818174E+03 -0.15542030631E+03  0.70928874061E+03  0.73586327748E+03  0.10566000000E+00 0.  1.
         13    1    1    2    0    0  0.11324642959E+03  0.16701750787E+03  0.60304814861E+03  0.63591405272E+03  0.10566000000E+00 0. -1.
         -4    1    1    2    0  502  0.61217521535E+01 -0.11597201556E+02 -0.12267266197E+02  0.17957080868E+02  0.00000000000E+00 0. -1.
</event>
<event>
 5    1  0.7625606E-005  0.3356969E+02  0.7818608E-02  0.1378344E+00
         -4   -1    0    0    0  501 -0.00000000000E+00  0.00000000000E+00  0.20314720909E+03  0.20314720909E+03  0.00000000000E+00 0. -1.
         21   -1    0    0  501  502  0.00000000000E+00 -0.00000000000E+00 -0.30125176455E+02  0.30125176455E+02  0.00000000000E+00 0. -1.
        -13    1    1    2    0    0  0.37233252522E+02  0.26255994265E+01  0.53296642848E+02  0.65067289544E+02  0.10566000000E+00 0.  1.
         13    1    1    2    0    0 -0.23227005748E+02 -0.26400087031E+02  0.13301049706E+03  0.13758001993E+03  0.10566000000E+00 0. -1.
         -4    1    1    2    0  502 -0.14006246775E+02  0.23774487604E+02 -0.13285107269E+02  0.30625076077E+02  0.00000000000E+00 0. -1.
</event>
<event>
 5    1  0.7625606E-005  0.3585507E+03  0.7818608E-02  0.1015091E+00
         21   -1    0    0  501  502  0.00000000000E+00  0.00000000000E+00  0.23569260889E+03  0.23569260889E+03  0.00000000000E+00 0. -1.
         -4   -1    0    0    0  501 -0.00000000000E+00 -0.00000000000E+00 -0.14667175491E+04  0.14667175491E+04  0.00000000000E+00 0. -1.
        -13    1    1    2    0    0  0.20199437784E+02  0.13540917717E+03 -0.25391688781E+03  0.28847436563E+03  0.10566000000E+00 0.  1.
         13    1    1    2    0    0 -0.26183665911E+03  0.14664337583E+03 -0.99780041352E+03  0.10419541219E+04  0.10566000000E+00 0. -1.
         -4    1    1    2    0  502  0.24163722133E+03 -0.28205255299E+03  0.20692361090E+02  0.37198167050E+03  0.00000000000E+00 0. -1.
</event>
<event>
 5    1  0.7625606E-005  0.3898085E+03  0.7818608E-02  0.9758949E-01
         21   -1    0    0  501  502  0.00000000000E+00  0.00000000000E+00  0.55652996392E+03  0.55652996392E+03  0.00000000000E+00 0.  1.
          4   -1    0    0  502    0 -0.00000000000E+00 -0.00000000000E+00 -0.12782060757E+04  0.12782060757E+04  0.00000000000E+00 0.  1.
        -13    1    1    2    0    0 -0.30383083944E+03  0.59427303417E+03  0.16683249570E+03  0.68797289985E+03  0.10566000000E+00 0.  1.
         13    1    1    2    0    0  0.18483685303E+03 -0.31037736511E+03 -0.69468922949E+03  0.78300185680E+03  0.10566000000E+00 0. -1.
          4    1    1    2  501    0  0.11899398642E+03 -0.28389566906E+03 -0.19381937802E+03  0.36376128300E+03  0.00000000000E+00 0.  1.
</event>
<event>
 5    1  0.7625606E-005  0.4843402E+03  0.7818608E-02  0.9568864E-01
         21   -1    0    0  501  502  0.00000000000E+00  0.00000000000E+00  0.27976379885E+03  0.27976379885E+03  0.00000000000E+00 0. -1.
          4   -1    0    0  502    0 -0.00000000000E+00 -0.00000000000E+00 -0.25429353699E+04  0.25429353699E+04  0.00000000000E+00 0.  1.
        -13    1    1    2    0    0  0.20971962223E+03  0.18349626202E+03 -0.98386886284E+03  0.10225708526E+04  0.10566000000E+00 0.  1.
         13    1    1    2    0    0  0.29004494996E+03 -0.45031064422E+03 -0.10692542261E+04  0.11959140272E+04  0.10566000000E+00 0. -1.
          4    1    1    2  501    0 -0.49976457219E+03  0.26681438220E+03 -0.21004848214E+03  0.60421428899E+03  0.00000000000E+00 0.  1.
</event>
<event>
 5    1  0.7625606E-005  0.1585281E+03  0.7818608E-02  0.1092993E+00
         21   -1    0    0  501  502  0.00000000000E+00  0.00000000000E+00  0.10582064830E+03  0.10582064830E+03  0.00000000000E+00 0.  1.
         -4   -1    0    0    0  501 -0.00000000000E+00 -0.00000000000E+00 -0.41225396776E+03  0.41225396776E+03  0.00000000000E+00 0. -1.
        -13    1    1    2    0    0  0.37771542884E+02  0.14355893079E+03 -0.95688880844E+02  0.17661321905E+03  0.10566000000E+00 0.  1.
         13    1    1    2    0    0 -0.90498508492E+01 -0.16594742651E+03 -0.24193151578E+03  0.29351544706E+03  0.10566000000E+00 0. -1.
         -4    1    1    2    0  502 -0.28721692035E+02  0.22388495720E+02  0.31187077170E+02  0.47945949947E+02  0.00000000000E+00 0. -1.
</event>
<event>
 5    1  0.7625606E-005  0.4099554E+03  0.7818608E-02  0.9837431E-01
         -4   -1    0    0    0  501 -0.00000000000E+00  0.00000000000E+00  0.31685244771E+04  0.31685244771E+04  0.00000000000E+00 0. -1.
         21   -1    0    0  501  502  0.00000000000E+00 -0.00000000000E+00 -0.13145708609E+03  0.13145708609E+03  0.00000000000E+00 0. -1.
        -13    1    1    2    0    0  0.23636100352E+03 -0.99176737200E+02  0.64455744802E+03  0.69365471536E+03  0.10566000000E+00 0.  1.
         13    1    1    2    0    0  0.34374658478E+03  0.13418043265E+03  0.46798155768E+03  0.59596380138E+03  0.10566000000E+00 0. -1.
         -4    1    1    2    0  502 -0.58010758830E+03 -0.35003695450E+02  0.19245283853E+04  0.20103630464E+04  0.00000000000E+00 0. -1.
</event>
<event>
 5    1  0.7625606E-005  0.9980912E+02  0.7818608E-02  0.1164872E+00
         21   -1    0    0  501  502  0.00000000000E+00  0.00000000000E+00  0.12779662315E+03  0.12779662315E+03  0.00000000000E+00 0.  1.
          4   -1    0    0  502    0 -0.00000000000E+00 -0.00000000000E+00 -0.48959785820E+03  0.48959785820E+03  0.00000000000E+00 0.  1.
        -13    1    1    2    0    0  0.10121608462E+03 -0.63783516867E+00 -0.43857516219E+03  0.45010363993E+03  0.10566000000E+00 0.  1.
         13    1    1    2    0    0 -0.84997410317E+02 -0.40100106265E+02  0.20920494418E+02  0.96282171422E+02  0.10566000000E+00 0. -1.
          4    1    1    2  501    0 -0.16218674307E+02  0.40737941433E+02  0.55853432721E+02  0.71008670001E+02  0.00000000000E+00 0.  1.
</event>
<event>
 5    1  0.7639806E-005  0.4819118E+03  0.7818608E-02  0.9909325E-01
         21   -1    0    0  501  502  0.00000000000E+00  0.00000000000E+00  0.68076270510E+03  0.68076270510E+03  0.00000000000E+00 0.  1.
          4   -1    0    0  502    0 -0.00000000000E+00 -0.00000000000E+00 -0.48584454569E+03  0.48584454569E+03  0.00000000000E+00 0.  1.
        -13    1    1    2    0    0  0.40594552018E+03  0.66379966218E+02 -0.65928147046E+02  0.41658684210E+03  0.10566000000E+00 0.  1.
         13    1    1    2    0    0  0.10244392238E+03  0.69689772649E+02 -0.55730613030E+02  0.13585777136E+03  0.10566000000E+00 0. -1.
          4    1    1    2  501    0 -0.50838944257E+03 -0.13606973887E+03  0.31657691948E+03  0.61416263733E+03  0.00000000000E+00 0.  1.
</event>
<event>
 5    1  0.7625606E-005  0.4998731E+03  0.7818608E-02  0.9883140E-01
          4   -1    0    0  502    0 -0.00000000000E+00  0.00000000000E+00  0.15485273620E+04  0.15485273620E+04  0.00000000000E+00 0.  1.
         21   -1    0    0  501  502  0.00000000000E+00 -0.00000000000E+00 -0.22871028768E+03  0.22871028768E+03  0.00000000000E+00 0.  1.
        -13    1    1    2    0    0  0.46233781301E+03 -0.20002865721E+03  0.76276281546E+03  0.91409782893E+03  0.10566000000E+00 0.  1.
         13    1    1    2    0    0  0.33907168842E+02  0.11635108363E+03  0.12784588398E+02  0.12186356151E+03  0.10566000000E+00 0. -1.
          4    1    1    2  501    0 -0.49624498185E+03  0.83677573580E+02  0.54426967048E+03  0.74127625926E+03  0.00000000000E+00 0.  1.
</event>
<event>
 5    1  0.7625606E-005  0.2370757E+03  0.7818608E-02  0.1038396E+00
         21   -1    0    0  501  502  0.00000000000E+00  0.00000000000E+00  0.84236480710E+03  0.84236480710E+03  0.00000000000E+00 0.  1.
          4   -1    0    0  502    0 -0.00000000000E+00 -0.00000000000E+00 -0.58741964192E+03  0.58741964192E+03  0.00000000000E+00 0.  1.
        -13    1    1    2    0    0 -0.22868386161E+03 -0.73276502796E+02 -0.26132732571E+03  0.35490525038E+03  0.10566000000E+00 0.  1.
         13    1    1    2    0    0  0.39054732425E+02  0.22606739399E+03 -0.20867383608E+03  0.31012339444E+03  0.10566000000E+00 0. -1.
          4    1    1    2  501    0  0.18962912918E+03 -0.15279089119E+03  0.72494632697E+03  0.76475580419E+03  0.00000000000E+00 0.  1.
</event>
<event>
 5    1  0.7625606E-005  0.3953461E+03  0.7818608E-02  0.9742583E-01
         21   -1    0    0  501  502  0.00000000000E+00  0.00000000000E+00  0.15068420779E+03  0.15068420779E+03  0.00000000000E+00 0. -1.
          4   -1    0    0  502    0 -0.00000000000E+00 -0.00000000000E+00 -0.13812598294E+04  0.13812598294E+04  0.00000000000E+00 0.  1.
        -13    1    1    2    0    0 -0.19332363157E+03 -0.33367932245E+03 -0.63983185209E+03  0.74706139431E+03  0.10566000000E+00 0.  1.
         13    1    1    2    0    0  0.19605627088E+03  0.35588491469E+03 -0.62410484197E+03  0.74471403827E+03  0.10566000000E+00 0. -1.
          4    1    1    2  501    0 -0.27326393118E+01 -0.22205592233E+02  0.33361072435E+02  0.40168604632E+02  0.00000000000E+00 0.  1.
</event>
<event>
 5    1  0.7625606E-005  0.5224171E+03  0.7818608E-02  0.9430147E-01
         21   -1    0    0  501  502  0.00000000000E+00  0.00000000000E+00  0.21523301856E+03  0.21523301856E+03  0.00000000000E+00 0. -1.
         -4   -1    0    0    0  501 -0.00000000000E+00 -0.00000000000E+00 -0.22861436910E+04  0.22861436910E+04  0.00000000000E+00 0. -1.
        -13    1    1    2    0    0 -0.42937353691E+03 -0.17047350436E+03 -0.61478497146E+03  0.76901457866E+03  0.10566000000E+00 0.  1.
         13    1    1    2    0    0  0.53015830528E+03  0.33597630461E+03 -0.65119262170E+03  0.90443338485E+03  0.10566000000E+00 0. -1.
         -4    1    1    2    0  502 -0.10078476837E+03 -0.16550280025E+03 -0.80493307930E+03  0.82792874607E+03  0.00000000000E+00 0. -1.
</event>
<event>
 5    1  0.7625606E-005  0.2319864E+03  0.7818608E-02  0.1040175E+00
          4   -1    0    0  502    0 -0.00000000000E+00  0.00000000000E+00  0.29619669420E+03  0.29619669420E+03  0.00000000000E+00 0.  1.
         21   -1    0    0  501  502  0.00000000000E+00 -0.00000000000E+00 -0.33286815572E+03  0.33286815572E+03  0.00000000000E+00 0. -1.
        -13    1    1    2    0    0  0.11775452489E+03  0.16488927599E+03 -0.14541002034E+03  0.24939664522E+03  0.10566000000E+00 0.  1.
         13    1    1    2    0    0 -0.22063836289E+03 -0.12275510046E+03  0.79553180239E+02  0.26472404786E+03  0.10566000000E+00 0. -1.
          4    1    1    2  501    0  0.10288383799E+03 -0.42134175532E+02  0.29185378575E+02  0.11494415684E+03  0.00000000000E+00 0.  1.
</event>
<event>
 5    1  0.7625606E-005  0.1420468E+03  0.7818608E-02  0.1109231E+00
          4   -1    0    0  502    0 -0.00000000000E+00  0.00000000000E+00  0.46111700603E+02  0.46111700603E+02  0.00000000000E+00 0.  1.
         21   -1    0    0  501  502  0.00000000000E+00 -0.00000000000E+00 -0.63805299634E+03  0.63805299634E+03  0.00000000000E+00 0. -1.
        -13    1    1    2    0    0  0.13547981111E+03  0.45439684003E+02 -0.15208852022E+03  0.20868750141E+03  0.10566000000E+00 0.  1.
         13    1    1    2    0    0 -0.13759801154E+03 -0.31396378619E+02 -0.26668579476E+03  0.30172880151E+03  0.10566000000E+00 0. -1.
          4    1    1    2  501    0  0.21182004277E+01 -0.14043305384E+02 -0.17316698076E+03  0.17374839402E+03  0.00000000000E+00 0.  1.
</event>
<event>
 5    1  0.7625606E-005  0.6997095E+03  0.7818608E-02  0.9123400E-01
         21   -1    0    0  501  502  0.00000000000E+00  0.00000000000E+00  0.39848221384E+03  0.39848221384E+03  0.00000000000E+00 0. -1.
          4   -1    0    0  502    0 -0.00000000000E+00 -0.00000000000E+00 -0.20496762412E+04  0.20496762412E+04  0.00000000000E+00 0.  1.
        -13    1    1    2    0    0 -0.60140154299E+03  0.47473357738E+03 -0.13815907745E+04  0.15798255805E+04  0.10566000000E+00 0.  1.
         13    1    1    2    0    0  0.52211677476E+03 -0.25676181995E+03 -0.25694279237E+03  0.63604415600E+03  0.10566000000E+00 0. -1.
          4    1    1    2  501    0  0.79284768237E+02 -0.21797175743E+03 -0.12660460484E+02  0.23228871856E+03  0.00000000000E+00 0.  1.
</event>
<event>
 5    1  0.7625606E-005  0.6769616E+02  0.7818608E-02  0.1232905E+00
         21   -1    0    0  501  502  0.00000000000E+00  0.00000000000E+00  0.45197189450E+02  0.45197189450E+02  0.00000000000E+00 0. -1.
          4   -1    0    0  502    0 -0.00000000000E+00 -0.00000000000E+00 -0.18340301696E+03  0.18340301696E+03  0.00000000000E+00 0.  1.
        -13    1    1    2    0    0  0.42944215199E+02  0.78005929500E+02 -0.69855886701E+02  0.11317679412E+03  0.10566000000E+00 0.  1.
         13    1    1    2    0    0 -0.14196271175E+02 -0.53097920183E+02 -0.41199804274E+02  0.68690307025E+02  0.10566000000E+00 0. -1.
          4    1    1    2  501    0 -0.28747944024E+02 -0.24908009318E+02 -0.27150136534E+02  0.46733105264E+02  0.00000000000E+00 0.  1.
</event>
<event>
 5    1  0.7625606E-005  0.4853762E+03  0.7818608E-02  0.9510613E-01
         21   -1    0    0  501  502  0.00000000000E+00  0.00000000000E+00  0.22207223826E+03  0.22207223826E+03  0.00000000000E+00 0.  1.
         -4   -1    0    0    0  501 -0.00000000000E+00 -0.00000000000E+00 -0.16974078751E+04  0.16974078751E+04  0.00000000000E+00 0. -1.
        -13    1    1    2    0    0  0.26592639456E+02  0.44405498968E+03 -0.20936567470E+03  0.49165638330E+03  0.10566000000E+00 0.  1.
         13    1    1    2    0    0 -0.26764341977E+02 -0.49813722709E+03 -0.12784407410E+04  0.13723220345E+04  0.10566000000E+00 0. -1.
         -4    1    1    2    0  502  0.17170252007E+00  0.54082237416E+02  0.12470778831E+02  0.55501695563E+02  0.00000000000E+00 0. -1.
</event>
<event>
 5    1  0.7625606E-005  0.1013845E+04  0.7818608E-02  0.8761691E-01
         21   -1    0    0  501  502  0.00000000000E+00  0.00000000000E+00  0.95444111279E+03  0.95444111279E+03  0.00000000000E+00 0.  1.
          4   -1    0    0  502    0 -0.00000000000E+00 -0.00000000000E+00 -0.15179727886E+04  0.15179727886E+04  0.00000000000E+00 0.  1.
        -13    1    1    2    0    0 -0.86108931930E+03 -0.66135904100E+03 -0.60812571268E+03  0.12444627317E+04  0.10566000000E+00 0.  1.
         13    1    1    2    0    0  0.79109456088E+03  0.41666870711E+03  0.21759732199E+03  0.92021303046E+03  0.10566000000E+00 0. -1.
          4    1    1    2  501    0  0.69994758421E+02  0.24469033389E+03 -0.17300328516E+03  0.30773813930E+03  0.00000000000E+00 0.  1.
</event>
<event>
 5    1  0.7625606E-005  0.4024580E+03  0.7818608E-02  0.1000922E+00
         -4   -1    0    0    0  501 -0.00000000000E+00  0.00000000000E+00  0.53143439827E+03  0.53143439827E+03  0.00000000000E+00 0. -1.
         21   -1    0    0  501  502  0.00000000000E+00 -0.00000000000E+00 -0.46230050000E+03  0.46230050000E+03  0.00000000000E+00 0. -1.
        -13    1    1    2    0    0  0.47966482543E+02  0.14518816336E+03  0.76255535064E+02  0.17086633378E+03  0.10566000000E+00 0.  1.
         13    1    1    2    0    0 -0.36161803327E+03  0.14975150014E+03 -0.22570278112E+02  0.39204915814E+03  0.10566000000E+00 0. -1.
         -4    1    1    2    0  502  0.31365155073E+03 -0.29493966350E+03  0.15448641322E+02  0.43081940636E+03  0.00000000000E+00 0. -1.
</event>
<event>
 5    1  0.7625606E-005  0.6711805E+02  0.7818608E-02  0.1234499E+00
         21   -1    0    0  501  502  0.00000000000E+00  0.00000000000E+00  0.54953826285E+03  0.54953826285E+03  0.00000000000E+00 0.  1.
          4   -1    0    0  502    0 -0.00000000000E+00 -0.00000000000E+00 -0.48485276774E+02  0.48485276774E+02  0.00000000000E+00 0.  1.
        -13    1    1    2    0    0  0.92410227716E+00  0.64578083680E+02  0.58024466535E+01  0.64844910424E+02  0.10566000000E+00 0.  1.
         13    1    1    2    0    0 -0.95061913652E+01 -0.71784212313E+02  0.50487019458E+02  0.88273954876E+02  0.10566000000E+00 0. -1.
          4    1    1    2  501    0  0.85820890880E+01  0.72061286339E+01  0.44476351997E+03  0.44490467433E+03  0.00000000000E+00 0.  1.
</event>
<event>
 5    1  0.7625606E-005  0.1011338E+03  0.7818608E-02  0.1162693E+00
         21   -1    0    0  501  502  0.00000000000E+00  0.00000000000E+00  0.21464961471E+03  0.21464961471E+03  0.00000000000E+00 0.  1.
         -4   -1    0    0    0  501 -0.00000000000E+00 -0.00000000000E+00 -0.16537884718E+03  0.16537884718E+03  0.00000000000E+00 0. -1.
        -13    1    1    2    0    0  0.82009996371E+02  0.33779899672E+02  0.83667976361E+02  0.12193056450E+03  0.10566000000E+00 0.  1.
         13    1    1    2    0    0 -0.10023523315E+03 -0.25785063170E+02 -0.12674235992E+03  0.16363254080E+03  0.10566000000E+00 0. -1.
         -4    1    1    2    0  502  0.18225236779E+02 -0.79948365023E+01  0.92345151086E+02  0.94465356589E+02  0.00000000000E+00 0. -1.
</event>
<event>
 5    1  0.7625606E-005  0.1758596E+03  0.7818608E-02  0.1078077E+00
         21   -1    0    0  501  502  0.00000000000E+00  0.00000000000E+00  0.14244059599E+03  0.14244059599E+03  0.00000000000E+00 0.  1.
         -4   -1    0    0    0  501 -0.00000000000E+00 -0.00000000000E+00 -0.46511659599E+03  0.46511659599E+03  0.00000000000E+00 0. -1.
        -13    1    1    2    0    0  0.13783995447E+03  0.10149924812E+03 -0.43341130187E+02  0.17657976993E+03  0.10566000000E+00 0.  1.
         13    1    1    2    0    0 -0.16402208913E+03 -0.70722157622E+02 -0.32447726893E+03  0.37039219554E+03  0.10566000000E+00 0. -1.
         -4    1    1    2    0  502  0.26182134656E+02 -0.30777090494E+02  0.45142399115E+02  0.60585226518E+02  0.00000000000E+00 0. -1.
</event>
<event>
 5    1  0.7625606E-005  0.3119702E+03  0.7818608E-02  0.1002483E+00
          4   -1    0    0  502    0 -0.00000000000E+00  0.00000000000E+00  0.24580536029E+04  0.24580536029E+04  0.00000000000E+00 0.  1.
         21   -1    0    0  501  502  0.00000000000E+00 -0.00000000000E+00 -0.14837895802E+03  0.14837895802E+03  0.00000000000E+00 0.  1.
        -13    1    1    2    0    0 -0.22494319850E+03 -0.27587169497E+03  0.18844382723E+04  0.19177623022E+04  0.10566000000E+00 0.  1.
         13    1    1    2    0    0  0.17002076352E+03  0.16949962039E+03  0.49497458511E+03  0.55012456081E+03  0.10566000000E+00 0. -1.
          4    1    1    2  501    0  0.54922434982E+02  0.10637207458E+03 -0.69738212512E+02  0.13854569787E+03  0.00000000000E+00 0.  1.
</event>
<event>
 5    1  0.7625606E-005  0.4939873E+03  0.7818608E-02  0.1014350E+00
         21   -1    0    0  501  502  0.00000000000E+00  0.00000000000E+00  0.15515490372E+03  0.15515490372E+03  0.00000000000E+00 0.  1.
          4   -1    0    0  502    0 -0.00000000000E+00 -0.00000000000E+00 -0.19495997112E+04  0.19495997112E+04  0.00000000000E+00 0.  1.
        -13    1    1    2    0    0  0.49395908089E+03 -0.15029276436E+03 -0.61591426230E+03  0.80370011713E+03  0.10566000000E+00 0.  1.
         13    1    1    2    0    0 -0.53601390845E+02 -0.19351374592E-02 -0.32077491193E+03  0.32522248445E+03  0.10566000000E+00 0. -1.
          4    1    1    2  501    0 -0.44035769005E+03  0.15029469950E+03 -0.85775563329E+03  0.97583201337E+03  0.00000000000E+00 0.  1.
</event>
<event>
 5    1  0.7625606E-005  0.9930800E+02  0.7818608E-02  0.1165706E+00
         -4   -1    0    0    0  501 -0.00000000000E+00  0.00000000000E+00  0.50904850351E+02  0.50904850351E+02  0.00000000000E+00 0. -1.
         21   -1    0    0  501  502  0.00000000000E+00 -0.00000000000E+00 -0.57265778964E+03  0.57265778964E+03  0.00000000000E+00 0.  1.
        -13    1    1    2    0    0  0.80835914168E+01  0.10874549334E+03 -0.68762052853E+02  0.12891531270E+03  0.10566000000E+00 0.  1.
         13    1    1    2    0    0 -0.97895107767E+01 -0.89168044653E+02 -0.77219151800E+02  0.11836208547E+03  0.10566000000E+00 0. -1.
         -4    1    1    2    0  502  0.17059193599E+01 -0.19577448689E+02 -0.37577173463E+03  0.37628524181E+03  0.00000000000E+00 0. -1.
</event>
<event>
 5    1  0.7625606E-005  0.8534518E+02  0.7818608E-02  0.1191382E+00
         -4   -1    0    0    0  501 -0.00000000000E+00  0.00000000000E+00  0.28263820292E+03  0.28263820292E+03  0.00000000000E+00 0. -1.
         21   -1    0    0  501  502  0.00000000000E+00 -0.00000000000E+00 -0.98025847699E+02  0.98025847699E+02  0.00000000000E+00 0. -1.
        -13    1    1    2    0    0 -0.13411697885E+02 -0.58688926562E+02 -0.30550830422E+02  0.67510207707E+02  0.10566000000E+00 0.  1.
         13    1    1    2    0    0  0.35908866709E+02  0.81957501137E+02  0.25004281132E+03  0.26557088951E+03  0.10566000000E+00 0. -1.
         -4    1    1    2    0  502 -0.22497168824E+02 -0.23268574575E+02 -0.34879625669E+02  0.47582953404E+02  0.00000000000E+00 0. -1.
</event>
<event>
 5    1  0.7625606E-005  0.3563973E+03  0.7818608E-02  0.9999307E-01
         -4   -1    0    0    0  501 -0.00000000000E+00  0.00000000000E+00  0.24101253286E+04  0.24101253286E+04  0.00000000000E+00 0. -1.
         21   -1    0    0  501  502  0.00000000000E+00 -0.00000000000E+00 -0.27741126955E+03  0.27741126955E+03  0.00000000000E+00 0.  1.
        -13    1    1    2    0    0 -0.42963359422E+03 -0.12018334712E+03  0.24326998033E+03  0.50814304748E+03  0.10566000000E+00 0.  1.
         13    1    1    2    0    0 -0.13396177419E+03  0.23703540953E+03  0.84782258011E+02  0.28516588988E+03  0.10566000000E+00 0. -1.
         -4    1    1    2    0  502  0.56359536841E+03 -0.11685206240E+03  0.18046618207E+04  0.18942276608E+04  0.00000000000E+00 0. -1.
</event>
<event>
 5    1  0.7625606E-005  0.4062569E+03  0.7818608E-02  0.9711148E-01
         21   -1    0    0  501  502  0.00000000000E+00  0.00000000000E+00  0.44298875026E+03  0.44298875026E+03  0.00000000000E+00 0.  1.
          4   -1    0    0  502    0 -0.00000000000E+00 -0.00000000000E+00 -0.20324172306E+04  0.20324172306E+04  0.00000000000E+00 0.  1.
        -13    1    1    2    0    0  0.28360430074E+03  0.47094600501E+03  0.19847667625E+03  0.58447800746E+03  0.10566000000E+00 0.  1.
         13    1    1    2    0    0 -0.91800213193E+02 -0.38651333474E+03 -0.13143324930E+04  0.13730585386E+04  0.10566000000E+00 0. -1.
          4    1    1    2  501    0 -0.19180408754E+03 -0.84432670269E+02 -0.47357266367E+03  0.51786943488E+03  0.00000000000E+00 0.  1.
</event>
<event>
 5    1  0.7625606E-005  0.4496311E+03  0.7818608E-02  0.9595779E-01
         21   -1    0    0  501  502  0.00000000000E+00  0.00000000000E+00  0.38745435646E+03  0.38745435646E+03  0.00000000000E+00 0.  1.
         -4   -1    0    0    0  501 -0.00000000000E+00 -0.00000000000E+00 -0.16940136354E+04  0.16940136354E+04  0.00000000000E+00 0. -1.
        -13    1    1    2    0    0  0.34017603358E+03 -0.21875892860E+03 -0.75346903788E+03  0.85515542732E+03  0.10566000000E+00 0.  1.
         13    1    1    2    0    0 -0.68425606505E+03  0.18688359232E+03 -0.21092053685E+03  0.74001305642E+03  0.10566000000E+00 0. -1.
         -4    1    1    2    0  502  0.34408003147E+03  0.31875336277E+02 -0.34216970420E+03  0.48629950812E+03  0.00000000000E+00 0. -1.
</event>
<event>
 5    1  0.7625606E-005  0.2226434E+03  0.7818608E-02  0.1045631E+00
         21   -1    0    0  501  502  0.00000000000E+00  0.00000000000E+00  0.21558312007E+03  0.21558312007E+03  0.00000000000E+00 0. -1.
         -4   -1    0    0    0  501 -0.00000000000E+00 -0.00000000000E+00 -0.76287468290E+03  0.76287468290E+03  0.00000000000E+00 0. -1.
        -13    1    1    2    0    0 -0.21153370144E+03  0.17759772211E+01 -0.46749306132E+03  0.51312711338E+03  0.10566000000E+00 0.  1.
         13    1    1    2    0    0  0.29915152627E+03  0.87701694838E+02  0.88991665939E+01  0.31186925029E+03  0.10566000000E+00 0. -1.
         -4    1    1    2    0  502 -0.87617824830E+02 -0.89477672060E+02 -0.88697668104E+02  0.15346143930E+03  0.00000000000E+00 0. -1.
</event>
<event>
 5    1  0.7625606E-005  0.5132182E+03  0.7818608E-02  0.9694396E-01
         21   -1    0    0  501  502  0.00000000000E+00  0.00000000000E+00  0.18158097548E+03  0.18158097548E+03  0.00000000000E+00 0. -1.
         -4   -1    0    0    0  501 -0.00000000000E+00 -0.00000000000E+00 -0.21995921400E+04  0.21995921400E+04  0.00000000000E+00 0. -1.
        -13    1    1    2    0    0  0.17953183653E+03 -0.11574456494E+03 -0.29743233277E+03  0.36618914290E+03  0.10566000000E+00 0.  1.
         13    1    1    2    0    0  0.31629002571E+02  0.55568442956E+03 -0.82727738964E+03  0.99708247885E+03  0.10566000000E+00 0. -1.
         -4    1    1    2    0  502 -0.21116083910E+03 -0.43993986462E+03 -0.89330144216E+03  0.10179014938E+04  0.00000000000E+00 0. -1.
</event>
<event>
 5    1  0.7625606E-005  0.3854646E+03  0.7818608E-02  0.1001210E+00
         21   -1    0    0  501  502  0.00000000000E+00  0.00000000000E+00  0.28727119930E+03  0.28727119930E+03  0.00000000000E+00 0.  1.
          4   -1    0    0  502    0 -0.00000000000E+00 -0.00000000000E+00 -0.19077339340E+04  0.19077339340E+04  0.00000000000E+00 0.  1.
        -13    1    1    2    0    0  0.41947967581E+03  0.18430419278E+03 -0.71821847625E+03  0.85192078545E+03  0.10566000000E+00 0.  1.
         13    1    1    2    0    0 -0.44638205141E+02 -0.16652272463E+03 -0.94934935789E+03  0.96487646964E+03  0.10566000000E+00 0. -1.
          4    1    1    2  501    0 -0.37484147067E+03 -0.17781468152E+02  0.47105099446E+02  0.37820787821E+03  0.00000000000E+00 0.  1.
</event>
<event>
 5    1  0.7625606E-005  0.4212088E+03  0.7818608E-02  0.1007326E+00
         -4   -1    0    0    0  501 -0.00000000000E+00  0.00000000000E+00  0.22488131149E+04  0.22488131149E+04  0.00000000000E+00 0. -1.
         21   -1    0    0  501  502  0.00000000000E+00 -0.00000000000E+00 -0.12707431338E+03  0.12707431338E+03  0.00000000000E+00 0. -1.
        -13    1    1    2    0    0 -0.10131010381E+03  0.38335263104E+02  0.61705578781E+03  0.62649116990E+03  0.10566000000E+00 0.  1.
         13    1    1    2    0    0 -0.37406732182E+03  0.87148249304E+02  0.49652905682E+03  0.62774381243E+03  0.10566000000E+00 0. -1.
         -4    1    1    2    0  502  0.47537742563E+03 -0.12548351241E+03  0.10081539568E+04  0.11216524459E+04  0.00000000000E+00 0. -1.
</event>
<event>
 5    1  0.7625606E-005  0.2458388E+03  0.7818608E-02  0.1032572E+00
          4   -1    0    0  502    0 -0.00000000000E+00  0.00000000000E+00  0.80259755096E+03  0.80259755096E+03  0.00000000000E+00 0.  1.
         21   -1    0    0  501  502  0.00000000000E+00 -0.00000000000E+00 -0.14420175616E+03  0.14420175616E+03  0.00000000000E+00 0. -1.
        -13    1    1    2    0    0 -0.23343922079E+03 -0.24778401272E+02  0.50749822724E+02  0.24017367600E+03  0.10566000000E+00 0.  1.
         13    1    1    2    0    0  0.24682858804E+03  0.29660159412E+02  0.63159281166E+03  0.67875884365E+03  0.10566000000E+00 0. -1.
          4    1    1    2  501    0 -0.13389367253E+02 -0.48817581395E+01 -0.23946839585E+02  0.27866787473E+02  0.00000000000E+00 0.  1.
</event>
<event>
 5    1  0.7625606E-005  0.4034556E+02  0.7818608E-02  0.1337001E+00
         -4   -1    0    0    0  501 -0.00000000000E+00  0.00000000000E+00  0.66372508008E+02  0.66372508008E+02  0.00000000000E+00 0. -1.
         21   -1    0    0  501  502  0.00000000000E+00 -0.00000000000E+00 -0.56734198496E+02  0.56734198496E+02  0.00000000000E+00 0.  1.
        -13    1    1    2    0    0 -0.75813885965E+01  0.25421421796E+02 -0.35943228114E+02  0.44672731621E+02  0.10566000000E+00 0.  1.
         13    1    1    2    0    0  0.13328321820E+02 -0.41339400545E+02  0.43345733587E+02  0.61363295089E+02  0.10566000000E+00 0. -1.
         -4    1    1    2    0  502 -0.57469332237E+01  0.15917978749E+02  0.22358040393E+01  0.17070679794E+02  0.00000000000E+00 0. -1.
</event>
<event>
 5    1  0.7625606E-005  0.4648683E+03  0.7818608E-02  0.9558487E-01
          4   -1    0    0  502    0 -0.00000000000E+00  0.00000000000E+00  0.27833549565E+04  0.27833549565E+04  0.00000000000E+00 0.  1.
         21   -1    0    0  501  502  0.00000000000E+00 -0.00000000000E+00 -0.46067939388E+03  0.46067939388E+03  0.00000000000E+00 0. -1.
        -13    1    1    2    0    0 -0.36747788464E+03  0.28407477162E+03  0.26274743352E+04  0.26682128598E+04  0.10566000000E+00 0.  1.
         13    1    1    2    0    0  0.36981155307E+03 -0.29478374162E+03 -0.28224402282E+03  0.55074471281E+03  0.10566000000E+00 0. -1.
          4    1    1    2  501    0 -0.23336684319E+01  0.10708970003E+02 -0.22554749795E+02  0.25076777807E+02  0.00000000000E+00 0.  1.
</event>
<event>
 5    1  0.7625606E-005  0.4962151E+03  0.7818608E-02  0.9648338E-01
         21   -1    0    0  501  502  0.00000000000E+00  0.00000000000E+00  0.16986050854E+03  0.16986050854E+03  0.00000000000E+00 0.  1.
          4   -1    0    0  502    0 -0.00000000000E+00 -0.00000000000E+00 -0.25256838997E+04  0.25256838997E+04  0.00000000000E+00 0.  1.
        -13    1    1    2    0    0  0.34910842997E+03  0.18581785402E+03 -0.96408782045E+03  0.10420510100E+04  0.10566000000E+00 0.  1.
         13    1    1    2    0    0  0.25311500983E+03 -0.11426889068E+03 -0.54879405167E+03  0.61506057417E+03  0.10566000000E+00 0. -1.
          4    1    1    2  501    0 -0.60222343981E+03 -0.71548963332E+02 -0.84294151907E+03  0.10384328241E+04  0.00000000000E+00 0.  1.
</event>
<event>
 5    1  0.7625606E-005  0.5719266E+03  0.7818608E-02  0.9332885E-01
         -4   -1    0    0    0  501 -0.00000000000E+00  0.00000000000E+00  0.18199965706E+04  0.18199965706E+04  0.00000000000E+00 0. -1.
         21   -1    0    0  501  502  0.00000000000E+00 -0.00000000000E+00 -0.40321367765E+03  0.40321367765E+03  0.00000000000E+00 0.  1.
        -13    1    1    2    0    0  0.13667301775E+03  0.50882087979E+03  0.17476154470E+03  0.55508540799E+03  0.10566000000E+00 0.  1.
         13    1    1    2    0    0 -0.53108910887E+03 -0.35967433111E+03  0.98137296308E+03  0.11723967630E+04  0.10566000000E+00 0. -1.
         -4    1    1    2    0  502  0.39441609112E+03 -0.14914654868E+03  0.26064838518E+03  0.49572807729E+03  0.00000000000E+00 0. -1.
</event>
<event>
 5    1  0.7625606E-005  0.4632461E+03  0.7818608E-02  0.9931945E-01
         21   -1    0    0  501  502  0.00000000000E+00  0.00000000000E+00  0.15828789137E+03  0.15828789137E+03  0.00000000000E+00 0. -1.
         -4   -1    0    0    0  501 -0.00000000000E+00 -0.00000000000E+00 -0.21742672761E+04  0.21742672761E+04  0.00000000000E+00 0. -1.
        -13    1    1    2    0    0 -0.12264863831E+03  0.41140096676E+02 -0.46407075419E+03  0.48176433253E+03  0.10566000000E+00 0.  1.
         13    1    1    2    0    0  0.54670461688E+03  0.15209255072E+01 -0.11072512609E+04  0.12348658296E+04  0.10566000000E+00 0. -1.
         -4    1    1    2    0  502 -0.42405597857E+03 -0.42661022183E+02 -0.44465736969E+03  0.61592500534E+03  0.00000000000E+00 0. -1.
</event>
<event>
 5    1  0.7625606E-005  0.4583325E+03  0.7818608E-02  0.9839677E-01
         21   -1    0    0  501  502  0.00000000000E+00  0.00000000000E+00  0.18618509197E+03  0.18618509197E+03  0.00000000000E+00 0. -1.
         -4   -1    0    0    0  501 -0.00000000000E+00 -0.00000000000E+00 -0.19170200942E+04  0.19170200942E+04  0.00000000000E+00 0. -1.
        -13    1    1    2    0    0  0.12801943734E+03 -0.12941309329E+03 -0.32039632245E+03  0.36849767931E+03  0.10566000000E+00 0.  1.
         13    1    1    2    0    0 -0.54109039190E+03  0.16253779976E+02 -0.10219562912E+04  0.11564764026E+04  0.10566000000E+00 0. -1.
         -4    1    1    2    0  502  0.41307095456E+03  0.11315931331E+03 -0.38848238864E+03  0.57823110430E+03  0.00000000000E+00 0. -1.
</event>
<event>
 5    1  0.7625606E-005  0.4712430E+03  0.7818608E-02  0.9772476E-01
          4   -1    0    0  502    0 -0.00000000000E+00  0.00000000000E+00  0.17020888356E+04  0.17020888356E+04  0.00000000000E+00 0.  1.
         21   -1    0    0  501  502  0.00000000000E+00 -0.00000000000E+00 -0.22111474312E+03  0.22111474312E+03  0.00000000000E+00 0.  1.
        -13    1    1    2    0    0  0.40599949714E+03 -0.13866203304E+03  0.37224902816E+03  0.56800713131E+03  0.10566000000E+00 0.  1.
         13    1    1    2    0    0  0.46771676397E+02 -0.20534934771E+03  0.30595696935E+03  0.37143723908E+03  0.10566000000E+00 0. -1.
          4    1    1    2  501    0 -0.45277117354E+03  0.34401138074E+03  0.80276809492E+03  0.98375920829E+03  0.00000000000E+00 0.  1.
</event>
<event>
 5    1  0.7625606E-005  0.4096680E+03  0.7818608E-02  0.9888214E-01
         21   -1    0    0  501  502  0.00000000000E+00  0.00000000000E+00  0.71898333155E+03  0.71898333155E+03  0.00000000000E+00 0.  1.
          4   -1    0    0  502    0 -0.00000000000E+00 -0.00000000000E+00 -0.12060601320E+04  0.12060601320E+04  0.00000000000E+00 0.  1.
        -13    1    1    2    0    0  0.46762222642E+03  0.62771875740E+02 -0.10053087078E+03  0.48240783801E+03  0.10566000000E+00 0.  1.
         13    1    1    2    0    0 -0.13644503570E+03  0.16803030179E+03 -0.82131782108E+03  0.84936117434E+03  0.10566000000E+00 0. -1.
          4    1    1    2  501    0 -0.33117719072E+03 -0.23080217753E+03  0.43477189145E+03  0.59327445117E+03  0.00000000000E+00 0.  1.
</event>
<event>
 5    1  0.7625606E-005  0.4658632E+03  0.7818608E-02  0.9994646E-01
          4   -1    0    0  502    0 -0.00000000000E+00  0.00000000000E+00  0.31707255525E+03  0.31707255525E+03  0.00000000000E+00 0.  1.
         21   -1    0    0  501  502  0.00000000000E+00 -0.00000000000E+00 -0.10355111644E+04  0.10355111644E+04  0.00000000000E+00 0.  1.
        -13    1    1    2    0    0  0.30340404573E+02  0.50482535029E+03 -0.20879986058E+03  0.54714400974E+03  0.10566000000E+00 0.  1.
         13    1    1    2    0    0 -0.84962140905E+02 -0.58945721943E+02  0.25744083155E+02  0.10656421775E+03  0.10566000000E+00 0. -1.
          4    1    1    2  501    0  0.54621736332E+02 -0.44587962835E+03 -0.53538283177E+03  0.69887549221E+03  0.00000000000E+00 0.  1.
</event>
<event>
 5    1  0.7625606E-005  0.3068691E+03  0.7818608E-02  0.1004510E+00
          4   -1    0    0  502    0 -0.00000000000E+00  0.00000000000E+00  0.77967807043E+03  0.77967807043E+03  0.00000000000E+00 0.  1.
         21   -1    0    0  501  502  0.00000000000E+00 -0.00000000000E+00 -0.27517655785E+03  0.27517655785E+03  0.00000000000E+00 0. -1.
        -13    1    1    2    0    0  0.14586070261E+03  0.27201262751E+03  0.61234295485E+03  0.68573327148E+03  0.10566000000E+00 0.  1.
         13    1    1    2    0    0 -0.14310883220E+03 -0.26202788155E+03 -0.40860280079E+02  0.30134419227E+03  0.10566000000E+00 0. -1.
          4    1    1    2  501    0 -0.27518704089E+01 -0.99847459573E+01 -0.66981162200E+02  0.67777164534E+02  0.00000000000E+00 0.  1.
</event>
<event>
 5    1  0.7625606E-005  0.5759460E+03  0.7818608E-02  0.9325446E-01
         21   -1    0    0  501  502  0.00000000000E+00  0.00000000000E+00  0.79592745640E+03  0.79592745640E+03  0.00000000000E+00 0.  1.
          4   -1    0    0  502    0 -0.00000000000E+00 -0.00000000000E+00 -0.19622042304E+04  0.19622042304E+04  0.00000000000E+00 0.  1.
        -13    1    1    2    0    0 -0.32096195143E+03  0.43720768319E+03 -0.32594683477E+03  0.63277838361E+03  0.10566000000E+00 0.  1.
         13    1    1    2    0    0  0.37070696721E+03 -0.45761489650E+03 -0.14230804249E+04  0.15401275778E+04  0.10566000000E+00 0. -1.
          4    1    1    2  501    0 -0.49745015780E+02  0.20407213312E+02  0.58275048574E+03  0.58522572532E+03  0.00000000000E+00 0.  1.
</event>
<event>
 5    1  0.7625606E-005  0.4984011E+03  0.7818608E-02  0.9557698E-01
         21   -1    0    0  501  502  0.00000000000E+00  0.00000000000E+00  0.51172859348E+03  0.51172859348E+03  0.00000000000E+00 0.  1.
          4   -1    0    0  502    0 -0.00000000000E+00 -0.00000000000E+00 -0.19369986238E+04  0.19369986238E+04  0.00000000000E+00 0.  1.
        -13    1    1    2    0    0 -0.17170442774E+03 -0.24316188297E+03 -0.24602429527E+03  0.38618399354E+03  0.10566000000E+00 0.  1.
         13    1    1    2    0    0 -0.27564416688E+03 -0.25906587036E+03 -0.13219418332E+04  0.13750000194E+04  0.10566000000E+00 0. -1.
          4    1    1    2  501    0  0.44734859462E+03  0.50222775333E+03  0.14269609816E+03  0.68754320429E+03  0.00000000000E+00 0.  1.
</event>
<event>
 5    1  0.7625606E-005  0.4753242E+03  0.7818608E-02  0.9533761E-01
         -4   -1    0    0    0  501 -0.00000000000E+00  0.00000000000E+00  0.18603275741E+04  0.18603275741E+04  0.00000000000E+00 0. -1.
         21   -1    0    0  501  502  0.00000000000E+00 -0.00000000000E+00 -0.33521939149E+03  0.33521939149E+03  0.00000000000E+00 0.  1.
        -13    1    1    2    0    0  0.27344031726E+03  0.38417351777E+03  0.55385708388E+03  0.72740400012E+03  0.10566000000E+00 0.  1.
         13    1    1    2    0    0 -0.29367700541E+02 -0.50716118650E+03  0.10643845706E+04  0.11794021605E+04  0.10566000000E+00 0. -1.
         -4    1    1    2    0  502 -0.24407261672E+03  0.12298766872E+03 -0.93133471839E+02  0.28874080499E+03  0.00000000000E+00 0. -1.
</event>
<event>
 5    1  0.7625606E-005  0.4075812E+03  0.7818608E-02  0.9838284E-01
         21   -1    0    0  501  502  0.00000000000E+00  0.00000000000E+00  0.25608875861E+03  0.25608875861E+03  0.00000000000E+00 0.  1.
          4   -1    0    0  502    0 -0.00000000000E+00 -0.00000000000E+00 -0.16304158548E+04  0.16304158548E+04  0.00000000000E+00 0.  1.
        -13    1    1    2    0    0 -0.10988373968E+03 -0.17104688692E+03 -0.97372882998E+03  0.99472575079E+03  0.10566000000E+00 0.  1.
         13    1    1    2    0    0 -0.12115042261E+03 -0.23013697878E+03 -0.33514804546E+03  0.42422243863E+03  0.10566000000E+00 0. -1.
          4    1    1    2  501    0  0.23103416229E+03  0.40118386570E+03 -0.65450220780E+02  0.46755642402E+03  0.00000000000E+00 0.  1.
</event>
<event>
 5    1  0.7625606E-005  0.3148298E+03  0.7818608E-02  0.1013029E+00
         -4   -1    0    0    0  501 -0.00000000000E+00  0.00000000000E+00  0.20139296644E+04  0.20139296644E+04  0.00000000000E+00 0. -1.
         21   -1    0    0  501  502  0.00000000000E+00 -0.00000000000E+00 -0.20252277668E+03  0.20252277668E+03  0.00000000000E+00 0.  1.
        -13    1    1    2    0    0  0.14572890999E+03 -0.15940351306E+03  0.59388048582E+03  0.63193388719E+03  0.10566000000E+00 0.  1.
         13    1    1    2    0    0  0.18135769864E+03  0.26296634863E+03 -0.14050972867E+00  0.31944005114E+03  0.10566000000E+00 0. -1.
         -4    1    1    2    0  502 -0.32708660862E+03 -0.10356283557E+03  0.12176669116E+04  0.12650785027E+04  0.00000000000E+00 0. -1.
</event>
<event>
 5    1  0.7625606E-005  0.5739464E+03  0.7818608E-02  0.9712092E-01
         -4   -1    0    0    0  501 -0.00000000000E+00  0.00000000000E+00  0.49444244134E+03  0.49444244134E+03  0.00000000000E+00 0. -1.
         21   -1    0    0  501  502  0.00000000000E+00 -0.00000000000E+00 -0.93879290276E+03  0.93879290276E+03  0.00000000000E+00 0. -1.
        -13    1    1    2    0    0  0.30344754950E+02  0.14036030601E+03  0.25122164235E+02  0.14578392900E+03  0.10566000000E+00 0.  1.
         13    1    1    2    0    0 -0.36071748808E+03  0.40358063185E+03 -0.33631043298E+03  0.63725909260E+03  0.10566000000E+00 0. -1.
         -4    1    1    2    0  502  0.33037273313E+03 -0.54394093786E+03 -0.13316219268E+03  0.65019232249E+03  0.00000000000E+00 0. -1.
</event>
<event>
 5    1  0.7625606E-005  0.2266749E+02  0.7818608E-02  0.1514890E+00
         21   -1    0    0  501  502  0.00000000000E+00  0.00000000000E+00  0.64696172784E+01  0.64696172784E+01  0.00000000000E+00 0.  1.
          4   -1    0    0  502    0 -0.00000000000E+00 -0.00000000000E+00 -0.17958366331E+03  0.17958366331E+03  0.00000000000E+00 0.  1.
        -13    1    1    2    0    0  0.11510104932E+02 -0.18343762701E+02 -0.11500802897E+03  0.11702920164E+03  0.10566000000E+00 0.  1.
         13    1    1    2    0    0  0.99246319908E+01  0.80527972982E+01 -0.26990887858E+02  0.29864109829E+02  0.10566000000E+00 0. -1.
          4    1    1    2  501    0 -0.21434736923E+02  0.10290965403E+02 -0.31115129206E+02  0.39159969119E+02  0.00000000000E+00 0.  1.
</event>
<event>
 5    1  0.7625606E-005  0.1557987E+03  0.7818608E-02  0.1103346E+00
         21   -1    0    0  501  502  0.00000000000E+00  0.00000000000E+00  0.41838350905E+03  0.41838350905E+03  0.00000000000E+00 0.  1.
          4   -1    0    0  502    0 -0.00000000000E+00 -0.00000000000E+00 -0.10569413186E+04  0.10569413186E+04  0.00000000000E+00 0.  1.
        -13    1    1    2    0    0 -0.88518997648E+02 -0.10861397013E+03 -0.57073860926E+03  0.58768629278E+03  0.10566000000E+00 0.  1.
         13    1    1    2    0    0 -0.62249471837E+02  0.19390388573E+03 -0.43573921144E+03  0.48098064950E+03  0.10566000000E+00 0. -1.
          4    1    1    2  501    0  0.15076846948E+03 -0.85289915602E+02  0.36792001118E+03  0.40665788535E+03  0.00000000000E+00 0.  1.
</event>
<event>
 5    1  0.7625606E-005  0.3911885E+03  0.7818608E-02  0.9754844E-01
         21   -1    0    0  501  502  0.00000000000E+00  0.00000000000E+00  0.25236304028E+03  0.25236304028E+03  0.00000000000E+00 0. -1.
         -4   -1    0    0    0  501 -0.00000000000E+00 -0.00000000000E+00 -0.22065991486E+04  0.22065991486E+04  0.00000000000E+00 0. -1.
        -13    1    1    2    0    0 -0.39869509939E+03 -0.96260732968E+02 -0.45916913731E+03  0.61567866523E+03  0.10566000000E+00 0.  1.
         13    1    1    2    0    0  0.36575893435E+03 -0.58639899864E+02 -0.32152662899E+02  0.37182259320E+03  0.10566000000E+00 0. -1.
         -4    1    1    2    0  502  0.32936165039E+02  0.15490063283E+03 -0.14629143081E+04  0.14714609304E+04  0.00000000000E+00 0. -1.
</event>
<event>
 5    1  0.7625606E-005  0.1748191E+03  0.7818608E-02  0.1126356E+00
         -4   -1    0    0    0  501 -0.00000000000E+00  0.00000000000E+00  0.36009446470E+03  0.36009446470E+03  0.00000000000E+00 0. -1.
         21   -1    0    0  501  502  0.00000000000E+00 -0.00000000000E+00 -0.11021224897E+04  0.11021224897E+04  0.00000000000E+00 0. -1.
        -13    1    1    2    0    0 -0.13705350605E+02  0.46651189469E+02  0.10990646375E+03  0.12018157950E+03  0.10566000000E+00 0.  1.
         13    1    1    2    0    0  0.13797310138E+03 -0.16783467395E+03  0.18824460005E+03  0.28747364244E+03  0.10566000000E+00 0. -1.
         -4    1    1    2    0  502 -0.12426775078E+03  0.12118348448E+03 -0.10401790888E+04  0.10545617324E+04  0.00000000000E+00 0. -1.
</event>
<event>
 5    1  0.7625606E-005  0.7686377E+03  0.7818608E-02  0.9028944E-01
         -4   -1    0    0    0  501 -0.00000000000E+00  0.00000000000E+00  0.18093523310E+04  0.18093523310E+04  0.00000000000E+00 0. -1.
         21   -1    0    0  501  502  0.00000000000E+00 -0.00000000000E+00 -0.46429733263E+03  0.46429733263E+03  0.00000000000E+00 0.  1.
        -13    1    1    2    0    0 -0.60597340358E+03 -0.25983684280E+03  0.41873963399E+03  0.78106455749E+03  0.10566000000E+00 0.  1.
         13    1    1    2    0    0  0.76105178717E+03  0.44551281484E+03  0.88085873719E+03  0.12464323556E+04  0.10566000000E+00 0. -1.
         -4    1    1    2    0  502 -0.15507838359E+03 -0.18567597204E+03  0.45456627152E+02  0.24615275054E+03  0.00000000000E+00 0. -1.
</event>
<event>
 5    1  0.7625606E-005  0.4860999E+03  0.7818608E-02  0.9718289E-01
         -4   -1    0    0    0  501 -0.00000000000E+00  0.00000000000E+00  0.78787095412E+03  0.78787095412E+03  0.00000000000E+00 0. -1.
         21   -1    0    0  501  502  0.00000000000E+00 -0.00000000000E+00 -0.51821608289E+03  0.51821608289E+03  0.00000000000E+00 0. -1.
        -13    1    1    2    0    0 -0.10675828005E+03  0.20523740765E+03  0.55373501348E+02  0.23787803529E+03  0.10566000000E+00 0.  1.
         13    1    1    2    0    0 -0.30050228739E+03 -0.42109572002E+03 -0.76902827502E+02  0.52300792173E+03  0.10566000000E+00 0. -1.
         -4    1    1    2    0  502  0.40726056744E+03  0.21585831237E+03  0.29118419739E+03  0.54520107999E+03  0.00000000000E+00 0. -1.
</event>
<event>
 5    1  0.7625606E-005  0.3772479E+03  0.7818608E-02  0.9797156E-01
         21   -1    0    0  501  502  0.00000000000E+00  0.00000000000E+00  0.39549629787E+03  0.39549629787E+03  0.00000000000E+00 0.  1.
          4   -1    0    0  502    0 -0.00000000000E+00 -0.00000000000E+00 -0.10433340935E+04  0.10433340935E+04  0.00000000000E+00 0.  1.
        -13    1    1    2    0    0 -0.37554019186E+03  0.31404058851E+03 -0.70800818404E+03  0.86077147186E+03  0.10566000000E+00 0.  1.
         13    1    1    2    0    0  0.14748012677E+03 -0.21020617211E+03 -0.10555346072E+03  0.27763027000E+03  0.10566000000E+00 0. -1.
          4    1    1    2  501    0  0.22806006508E+03 -0.10383441641E+03  0.16572384909E+03  0.30042864955E+03  0.00000000000E+00 0.  1.
</event>
<event>
 5    1  0.7625606E-005  0.3745198E+03  0.7818608E-02  0.9805662E-01
          4   -1    0    0  502    0 -0.00000000000E+00  0.00000000000E+00  0.46394253539E+03  0.46394253539E+03  0.00000000000E+00 0.  1.
         21   -1    0    0  501  502  0.00000000000E+00 -0.00000000000E+00 -0.36332580322E+03  0.36332580322E+03  0.00000000000E+00 0. -1.
        -13    1    1    2    0    0  0.12589941250E+03 -0.36122898290E+03  0.17551555263E+03  0.42088330987E+03  0.10566000000E+00 0.  1.
         13    1    1    2    0    0 -0.90198423300E+02  0.34991151097E+03 -0.61140866790E+02  0.36648606772E+03  0.10566000000E+00 0. -1.
          4    1    1    2  501    0 -0.35700989201E+02  0.11317471925E+02 -0.13757953664E+02  0.39898961011E+02  0.00000000000E+00 0.  1.
</event>
<event>
 5    1  0.7625606E-005  0.1025363E+03  0.7818608E-02  0.1160426E+00
         -4   -1    0    0    0  501 -0.00000000000E+00  0.00000000000E+00  0.23202806633E+03  0.23202806633E+03  0.00000000000E+00 0. -1.
         21   -1    0    0  501  502  0.00000000000E+00 -0.00000000000E+00 -0.97278879765E+02  0.97278879765E+02  0.00000000000E+00 0.  1.
        -13    1    1    2    0    0  0.79188868937E+02 -0.67365394037E+02  0.16326796838E+02  0.10524043299E+03  0.10566000000E+00 0.  1.
         13    1    1    2    0    0 -0.89371205837E+02  0.50257587232E+02  0.15299272060E+03  0.18417334559E+03  0.10566000000E+00 0. -1.
         -4    1    1    2    0  502  0.10182336901E+02  0.17107806805E+02 -0.34570330864E+02  0.39893167516E+02  0.00000000000E+00 0. -1.
</event>
<event>
 5    1  0.7625606E-005  0.1970742E+03  0.7818608E-02  0.1062160E+00
         21   -1    0    0  501  502  0.00000000000E+00  0.00000000000E+00  0.27921098400E+04  0.27921098400E+04  0.00000000000E+00 0. -1.
         -4   -1    0    0    0  501 -0.00000000000E+00 -0.00000000000E+00 -0.19084357126E+03  0.19084357126E+03  0.00000000000E+00 0. -1.
        -13    1    1    2    0    0  0.32150841987E+03 -0.81298469319E+01  0.26174786620E+03  0.41466337562E+03  0.10566000000E+00 0.  1.
         13    1    1    2    0    0 -0.15068405159E+03  0.94189966971E+02 -0.39134586432E+02  0.18195867745E+03  0.10566000000E+00 0. -1.
         -4    1    1    2    0  502 -0.17082436828E+03 -0.86060120039E+02  0.23786529890E+04  0.23863313582E+04  0.00000000000E+00 0. -1.
</event>
<event>
 5    1  0.7625606E-005  0.7734554E+03  0.7818608E-02  0.9022731E-01
         -4   -1    0    0    0  501 -0.00000000000E+00  0.00000000000E+00  0.19979192471E+04  0.19979192471E+04  0.00000000000E+00 0. -1.
         21   -1    0    0  501  502  0.00000000000E+00 -0.00000000000E+00 -0.41211536163E+03  0.41211536163E+03  0.00000000000E+00 0. -1.
        -13    1    1    2    0    0  0.68558505568E+03 -0.17124579018E+03  0.73459590397E+03  0.10193052254E+04  0.10566000000E+00 0.  1.
         13    1    1    2    0    0 -0.80235421951E+03  0.31744321908E+03  0.83853075452E+03  0.12031942189E+04  0.10566000000E+00 0. -1.
         -4    1    1    2    0  502  0.11676916383E+03 -0.14619742891E+03  0.12677227022E+02  0.18753516450E+03  0.00000000000E+00 0. -1.
</event>
<event>
 5    1  0.7625606E-005  0.4043837E+03  0.7818608E-02  0.9878271E-01
          4   -1    0    0  502    0 -0.00000000000E+00  0.00000000000E+00  0.25074826678E+04  0.25074826678E+04  0.00000000000E+00 0.  1.
         21   -1    0    0  501  502  0.00000000000E+00 -0.00000000000E+00 -0.17928750949E+03  0.17928750949E+03  0.00000000000E+00 0.  1.
        -13    1    1    2    0    0  0.34985190978E+03  0.43689961623E+02  0.12264622822E+04  0.12761327957E+04  0.10566000000E+00 0.  1.
         13    1    1    2    0    0 -0.19252415933E+02  0.23188920626E+03  0.91033631500E+03  0.93960389371E+03  0.10566000000E+00 0. -1.
          4    1    1    2  501    0 -0.33059949384E+03 -0.27557916788E+03  0.19139656114E+03  0.47103348789E+03  0.00000000000E+00 0.  1.
</event>
<event>
 5    1  0.7625606E-005  0.3895998E+02  0.7818608E-02  0.1344666E+00
          4   -1    0    0  502    0 -0.00000000000E+00  0.00000000000E+00  0.87501571047E+02  0.87501571047E+02  0.00000000000E+00 0.  1.
         21   -1    0    0  501  502  0.00000000000E+00 -0.00000000000E+00 -0.71179111102E+02  0.71179111102E+02  0.00000000000E+00 0. -1.
        -13    1    1    2    0    0  0.10457796426E+02 -0.35391037106E+02  0.55135469614E+02  0.66346229637E+02  0.10566000000E+00 0.  1.
         13    1    1    2    0    0 -0.29353668790E+02  0.50811684174E+02 -0.32754518765E+02  0.67203681325E+02  0.10566000000E+00 0. -1.
          4    1    1    2  501    0  0.18895872364E+02 -0.15420647068E+02 -0.60584909035E+01  0.25130771187E+02  0.00000000000E+00 0.  1.
</event>
<event>
 5    1  0.7625606E-005  0.3914805E+03  0.7818608E-02  0.9819057E-01
         -4   -1    0    0    0  501 -0.00000000000E+00  0.00000000000E+00  0.16977291091E+04  0.16977291091E+04  0.00000000000E+00 0. -1.
         21   -1    0    0  501  502  0.00000000000E+00 -0.00000000000E+00 -0.49296017970E+03  0.49296017970E+03  0.00000000000E+00 0. -1.
        -13    1    1    2    0    0  0.24551361602E+03 -0.36224920928E+03  0.10167348269E+04  0.11069106309E+04  0.10566000000E+00 0.  1.
         13    1    1    2    0    0 -0.14151200326E+03 -0.27907991614E+03 -0.15486788375E+03  0.34913510170E+03  0.10566000000E+00 0. -1.
         -4    1    1    2    0  502 -0.10400161276E+03  0.64132912542E+03  0.34290198625E+03  0.73464355626E+03  0.00000000000E+00 0. -1.
</event>
<event>
 5    1  0.7625606E-005  0.9857497E+02  0.7818608E-02  0.1168182E+00
         21   -1    0    0  501  502  0.00000000000E+00  0.00000000000E+00  0.12455569269E+04  0.12455569269E+04  0.00000000000E+00 0. -1.
          4   -1    0    0  502    0 -0.00000000000E+00 -0.00000000000E+00 -0.35646169175E+02  0.35646169175E+02  0.00000000000E+00 0.  1.
        -13    1    1    2    0    0 -0.95088713927E+02  0.84098096039E+02  0.12455310404E+03  0.17784217769E+03  0.10566000000E+00 0.  1.
         13    1    1    2    0    0  0.94376880271E+02  0.15633277916E+02  0.43450731500E+03  0.44491348919E+03  0.10566000000E+00 0. -1.
          4    1    1    2  501    0  0.71183365589E+00 -0.99731373955E+02  0.65085033865E+03  0.65844742917E+03  0.00000000000E+00 0.  1.
</event>
<event>
 5    1  0.7625606E-005  0.4731529E+03  0.7818608E-02  0.9650008E-01
          4   -1    0    0  502    0 -0.00000000000E+00  0.00000000000E+00  0.20771731715E+04  0.20771731715E+04  0.00000000000E+00 0.  1.
         21   -1    0    0  501  502  0.00000000000E+00 -0.00000000000E+00 -0.23760632180E+03  0.23760632180E+03  0.00000000000E+00 0. -1.
        -13    1    1    2    0    0 -0.28612072673E+03 -0.22087192378E+03  0.83756780525E+03  0.91223314812E+03  0.10566000000E+00 0.  1.
         13    1    1    2    0    0 -0.31031105973E+03  0.71558750006E+02  0.15038238752E+03  0.35217677682E+03  0.10566000000E+00 0. -1.
          4    1    1    2  501    0  0.59643178646E+03  0.14931317377E+03  0.85161665697E+03  0.10503695684E+04  0.00000000000E+00 0.  1.
</event>
<event>
 5    1  0.7625606E-005  0.3001731E+03  0.7818608E-02  0.1010853E+00
         -4   -1    0    0    0  501 -0.00000000000E+00  0.00000000000E+00  0.14656895779E+03  0.14656895779E+03  0.00000000000E+00 0. -1.
         21   -1    0    0  501  502  0.00000000000E+00 -0.00000000000E+00 -0.26203812688E+04  0.26203812688E+04  0.00000000000E+00 0. -1.
        -13    1    1    2    0    0  0.26015241534E+03  0.60775538030E+02 -0.65194827952E+03  0.70456335100E+03  0.10566000000E+00 0.  1.
         13    1    1    2    0    0 -0.24714610884E+03 -0.35322075433E+03 -0.33223416313E+03  0.54426615797E+03  0.10566000000E+00 0. -1.
         -4    1    1    2    0  502 -0.13006306507E+02  0.29244521630E+03 -0.14896298684E+04  0.15181207176E+04  0.00000000000E+00 0. -1.
</event>
<event>
 5    1  0.7625606E-005  0.4782621E+03  0.7818608E-02  0.9587259E-01
          4   -1    0    0  502    0 -0.00000000000E+00  0.00000000000E+00  0.36389580741E+04  0.36389580741E+04  0.00000000000E+00 0.  1.
         21   -1    0    0  501  502  0.00000000000E+00 -0.00000000000E+00 -0.14585614406E+03  0.14585614406E+03  0.00000000000E+00 0.  1.
        -13    1    1    2    0    0  0.60189171572E+03 -0.11058026471E+03  0.15730386314E+04  0.16878839354E+04  0.10566000000E+00 0.  1.
         13    1    1    2    0    0 -0.20869891041E+03  0.32368876076E+03  0.10549415122E+04  0.11230455264E+04  0.10566000000E+00 0. -1.
          4    1    1    2  501    0 -0.39319280531E+03 -0.21310849605E+03  0.86512178638E+03  0.97388475627E+03  0.00000000000E+00 0.  1.
</event>
<event>
 5    1  0.7625606E-005  0.3908293E+03  0.7818608E-02  0.1027394E+00
         21   -1    0    0  501  502  0.00000000000E+00  0.00000000000E+00  0.76639633698E+02  0.76639633698E+02  0.00000000000E+00 0. -1.
         -4   -1    0    0    0  501 -0.00000000000E+00 -0.00000000000E+00 -0.35514494883E+04  0.35514494883E+04  0.00000000000E+00 0. -1.
        -13    1    1    2    0    0 -0.11853824825E+02 -0.70814717948E+02 -0.23188879737E+03  0.24275020690E+03  0.10566000000E+00 0.  1.
         13    1    1    2    0    0  0.20099134541E+03  0.39699397523E+03 -0.26174983009E+04  0.26550516198E+04  0.10566000000E+00 0. -1.
         -4    1    1    2    0  502 -0.18913752058E+03 -0.32617925728E+03 -0.62542275635E+03  0.73028729534E+03  0.00000000000E+00 0. -1.
</event>
<event>
 5    1  0.7625606E-005  0.4912597E+03  0.7818608E-02  0.9678326E-01
         21   -1    0    0  501  502  0.00000000000E+00  0.00000000000E+00  0.18236314734E+03  0.18236314734E+03  0.00000000000E+00 0.  1.
          4   -1    0    0  502    0 -0.00000000000E+00 -0.00000000000E+00 -0.23230099001E+04  0.23230099001E+04  0.00000000000E+00 0.  1.
        -13    1    1    2    0    0  0.20461611291E+03  0.54342898317E+03 -0.58817113681E+03  0.82651564460E+03  0.10566000000E+00 0.  1.
         13    1    1    2    0    0 -0.19981603342E+03 -0.16259427942E+03 -0.59182694400E+03  0.64546300415E+03  0.10566000000E+00 0. -1.
          4    1    1    2  501    0 -0.48000794896E+01 -0.38083470375E+03 -0.96064867197E+03  0.10333943987E+04  0.00000000000E+00 0.  1.
</event>
<event>
 5    1  0.7625606E-005  0.5030876E+03  0.7818608E-02  0.9471230E-01
          4   -1    0    0  502    0 -0.00000000000E+00  0.00000000000E+00  0.76072033839E+03  0.76072033839E+03  0.00000000000E+00 0.  1.
         21   -1    0    0  501  502  0.00000000000E+00 -0.00000000000E+00 -0.20763881406E+04  0.20763881406E+04  0.00000000000E+00 0.  1.
        -13    1    1    2    0    0 -0.15979863738E+03 -0.45957971402E+03 -0.24019671657E+03  0.54262656760E+03  0.10566000000E+00 0.  1.
         13    1    1    2    0    0 -0.83600669023E+02  0.51460994744E+03  0.48626917964E+03  0.71293070919E+03  0.10566000000E+00 0. -1.
          4    1    1    2  501    0  0.24339930641E+03 -0.55030233424E+02 -0.15617402653E+04  0.15815512022E+04  0.00000000000E+00 0.  1.
</event>
<event>
 5    1  0.7625606E-005  0.1818582E+03  0.7818608E-02  0.1073339E+00
         -4   -1    0    0    0  501 -0.00000000000E+00  0.00000000000E+00  0.12007676288E+03  0.12007676288E+03  0.00000000000E+00 0. -1.
         21   -1    0    0  501  502  0.00000000000E+00 -0.00000000000E+00 -0.64039161202E+03  0.64039161202E+03  0.00000000000E+00 0. -1.
        -13    1    1    2    0    0 -0.60496048840E+02  0.12921641345E+03 -0.10976738311E+03  0.18001539654E+03  0.10566000000E+00 0.  1.
         13    1    1    2    0    0  0.11715789160E+03 -0.19290625380E+03 -0.80576661477E+02  0.23964850063E+03  0.10566000000E+00 0. -1.
         -4    1    1    2    0  502 -0.56661842757E+02  0.63689840343E+02 -0.32997080454E+03  0.34080447773E+03  0.00000000000E+00 0. -1.
</event>
<event>
 5    1  0.8747106E-005  0.3589053E+03  0.7818608E-02  0.1007574E+00
         -4   -1    0    0    0  501 -0.00000000000E+00  0.00000000000E+00  0.12910637018E+04  0.12910637018E+04  0.00000000000E+00 0. -1.
         21   -1    0    0  501  502  0.00000000000E+00 -0.00000000000E+00 -0.27850090068E+03  0.27850090068E+03  0.00000000000E+00 0. -1.
        -13    1    1    2    0    0  0.66140112259E+02  0.16060947532E+03  0.25193143379E+03  0.30600551712E+03  0.10566000000E+00 0.  1.
         13    1    1    2    0    0  0.20989741165E+02  0.21471337290E+03  0.84247516506E+03  0.86965902321E+03  0.10566000000E+00 0. -1.
         -4    1    1    2    0  502 -0.87129853425E+02 -0.37532284822E+03 -0.81843797719E+02  0.39390006217E+03  0.00000000000E+00 0. -1.
</event>
<event>
 5    1  0.7625606E-005  0.2537038E+03  0.7818608E-02  0.1028491E+00
         -4   -1    0    0    0  501 -0.00000000000E+00  0.00000000000E+00  0.19849818431E+04  0.19849818431E+04  0.00000000000E+00 0. -1.
         21   -1    0    0  501  502  0.00000000000E+00 -0.00000000000E+00 -0.24103929060E+03  0.24103929060E+03  0.00000000000E+00 0. -1.
        -13    1    1    2    0    0  0.24736408903E+03 -0.71868097245E+02  0.77177450432E+03  0.81362762528E+03  0.10566000000E+00 0.  1.
         13    1    1    2    0    0 -0.25715089849E+03 -0.90451461668E+02  0.11438737660E+04  0.11759061421E+04  0.10566000000E+00 0. -1.
         -4    1    1    2    0  502  0.97868094653E+01  0.16231955891E+03 -0.17170571784E+03  0.23648736622E+03  0.00000000000E+00 0. -1.
</event>
<event>
 5    1  0.7625606E-005  0.1146731E+03  0.7818608E-02  0.1169183E+00
         21   -1    0    0  501  502  0.00000000000E+00  0.00000000000E+00  0.40912802743E+03  0.40912802743E+03  0.00000000000E+00 0. -1.
         -4   -1    0    0    0  501 -0.00000000000E+00 -0.00000000000E+00 -0.11793091908E+03  0.11793091908E+03  0.00000000000E+00 0. -1.
        -13    1    1    2    0    0  0.35684414891E+02  0.47389677079E+02 -0.18415718865E+02  0.62115286565E+02  0.10566000000E+00 0.  1.
         13    1    1    2    0    0 -0.13487132508E+03  0.74742930451E+01 -0.16609653302E+00  0.13507841477E+03  0.10566000000E+00 0. -1.
         -4    1    1    2    0  502  0.99186910186E+02 -0.54863970124E+02  0.30977892375E+03  0.32986524517E+03  0.00000000000E+00 0. -1.
</event>
<event>
 5    1  0.7625606E-005  0.1484170E+03  0.7818608E-02  0.1102683E+00
         21   -1    0    0  501  502  0.00000000000E+00  0.00000000000E+00  0.83125005018E+03  0.83125005018E+03  0.00000000000E+00 0.  1.
          4   -1    0    0  502    0 -0.00000000000E+00 -0.00000000000E+00 -0.11543338504E+03  0.11543338504E+03  0.00000000000E+00 0.  1.
        -13    1    1    2    0    0 -0.67575775719E+02  0.11779304177E+03  0.72247852141E+03  0.73513054026E+03  0.10566000000E+00 0.  1.
         13    1    1    2    0    0  0.53816567995E+02 -0.14036588937E+03  0.42076678222E+02  0.15610657867E+03  0.10566000000E+00 0. -1.
          4    1    1    2  501    0  0.13759207723E+02  0.22572847603E+02 -0.48738534493E+02  0.55446316295E+02  0.00000000000E+00 0.  1.
</event>
<event>
 5    1  0.7625606E-005  0.1197213E+03  0.7818608E-02  0.1135510E+00
         21   -1    0    0  501  502  0.00000000000E+00  0.00000000000E+00  0.63541560672E+02  0.63541560672E+02  0.00000000000E+00 0.  1.
         -4   -1    0    0    0  501 -0.00000000000E+00 -0.00000000000E+00 -0.52935510750E+03  0.52935510750E+03  0.00000000000E+00 0. -1.
        -13    1    1    2    0    0 -0.60487503807E+02  0.10271954606E+03 -0.17116184152E+02  0.12042847746E+03  0.10566000000E+00 0.  1.
         13    1    1    2    0    0  0.73460775059E+02 -0.94800576273E+02 -0.43736176957E+03  0.45350740168E+03  0.10566000000E+00 0. -1.
         -4    1    1    2    0  502 -0.12973271253E+02 -0.79189697907E+01 -0.11335593112E+02  0.18960789032E+02  0.00000000000E+00 0. -1.
</event>
<event>
 5    1  0.7625606E-005  0.5638637E+03  0.7818608E-02  0.9348005E-01
          4   -1    0    0  502    0 -0.00000000000E+00  0.00000000000E+00  0.54586048738E+03  0.54586048738E+03  0.00000000000E+00 0.  1.
         21   -1    0    0  501  502  0.00000000000E+00 -0.00000000000E+00 -0.13604370420E+04  0.13604370420E+04  0.00000000000E+00 0. -1.
        -13    1    1    2    0    0 -0.26027703084E+03  0.49764871983E+03  0.14667187951E+03  0.58044037810E+03  0.10566000000E+00 0.  1.
         13    1    1    2    0    0  0.19785271323E+03 -0.53643652567E+03 -0.27281568772E+03  0.63351263036E+03  0.10566000000E+00 0. -1.
          4    1    1    2  501    0  0.62424317606E+02  0.38787805836E+02 -0.68843274639E+03  0.69234452090E+03  0.00000000000E+00 0.  1.
</event>
<event>
 5    1  0.7625606E-005  0.4963348E+03  0.7818608E-02  0.9506014E-01
         21   -1    0    0  501  502  0.00000000000E+00  0.00000000000E+00  0.22901563480E+03  0.22901563480E+03  0.00000000000E+00 0. -1.
         -4   -1    0    0    0  501 -0.00000000000E+00 -0.00000000000E+00 -0.26742531962E+04  0.26742531962E+04  0.00000000000E+00 0. -1.
        -13    1    1    2    0    0 -0.27262039555E+02 -0.46075989364E+03 -0.75435646072E+03  0.88436224443E+03  0.10566000000E+00 0.  1.
         13    1    1    2    0    0  0.33715731008E+03 -0.11635556906E+03 -0.10230491762E+04  0.10834404913E+04  0.10566000000E+00 0. -1.
         -4    1    1    2    0  502 -0.30989527052E+03  0.57711546270E+03 -0.66783192454E+03  0.93546609528E+03  0.00000000000E+00 0. -1.
</event>
<event>
 5    1  0.7625606E-005  0.6222947E+03  0.7818608E-02  0.9244032E-01
         -4   -1    0    0    0  501 -0.00000000000E+00  0.00000000000E+00  0.34314454446E+04  0.34314454446E+04  0.00000000000E+00 0. -1.
         21   -1    0    0  501  502  0.00000000000E+00 -0.00000000000E+00 -0.19814178745E+03  0.19814178745E+03  0.00000000000E+00 0.  1.
        -13    1    1    2    0    0 -0.43481435466E+03 -0.28178464483E+03  0.10737569043E+04  0.11922332027E+04  0.10566000000E+00 0.  1.
         13    1    1    2    0    0  0.51346872731E+03  0.58725167762E+03  0.17828032829E+04  0.19459964603E+04  0.10566000000E+00 0. -1.
         -4    1    1    2    0  502 -0.78654372649E+02 -0.30546703280E+03  0.37674347003E+03  0.49135756906E+03  0.00000000000E+00 0. -1.
</event>
<event>
 5    1  0.7625606E-005  0.2263124E+03  0.7818608E-02  0.1058649E+00
         -4   -1    0    0    0  501 -0.00000000000E+00  0.00000000000E+00  0.12495881572E+04  0.12495881572E+04  0.00000000000E+00 0. -1.
         21   -1    0    0  501  502  0.00000000000E+00 -0.00000000000E+00 -0.27398116794E+03  0.27398116794E+03  0.00000000000E+00 0. -1.
        -13    1    1    2    0    0  0.13612364391E+03  0.47480832151E+02  0.13656518057E+03  0.19858030003E+03  0.10566000000E+00 0.  1.
         13    1    1    2    0    0 -0.51211494593E+02  0.21948948365E+03 -0.16710069680E+03  0.28057245882E+03  0.10566000000E+00 0. -1.
         -4    1    1    2    0  502 -0.84912149312E+02 -0.26697031580E+03  0.10061425055E+04  0.10444165663E+04  0.00000000000E+00 0. -1.
</event>
<event>
 5    1  0.7625606E-005  0.1454873E+03  0.7818608E-02  0.1105649E+00
          4   -1    0    0  502    0 -0.00000000000E+00  0.00000000000E+00  0.13838432824E+03  0.13838432824E+03  0.00000000000E+00 0.  1.
         21   -1    0    0  501  502  0.00000000000E+00 -0.00000000000E+00 -0.92767015776E+03  0.92767015776E+03  0.00000000000E+00 0.  1.
        -13    1    1    2    0    0 -0.15465760810E+02  0.15835868613E+03  0.44226995851E+02  0.16514448691E+03  0.10566000000E+00 0.  1.
         13    1    1    2    0    0 -0.27787953043E+02 -0.12050889564E+03 -0.84702130736E+02  0.14989671904E+03  0.10566000000E+00 0. -1.
          4    1    1    2  501    0  0.43253713853E+02 -0.37849790490E+02 -0.74881069464E+03  0.75101328005E+03  0.00000000000E+00 0.  1.
</event>
<event>
 5    1  0.7625606E-005  0.5770818E+02  0.7818608E-02  0.1263238E+00
          4   -1    0    0  502    0 -0.00000000000E+00  0.00000000000E+00  0.35237244576E+03  0.35237244576E+03  0.00000000000E+00 0.  1.
         21   -1    0    0  501  502  0.00000000000E+00 -0.00000000000E+00 -0.31650919566E+02  0.31650919566E+02  0.00000000000E+00 0. -1.
        -13    1    1    2    0    0 -0.10102196070E+02  0.56605564351E+02  0.99633594949E+02  0.11503524976E+03  0.10566000000E+00 0.  1.
         13    1    1    2    0    0 -0.19981277155E+00 -0.58090954054E+02  0.24025446763E+03  0.24717770783E+03  0.10566000000E+00 0. -1.
          4    1    1    2  501    0  0.10302008841E+02  0.14853897028E+01 -0.19166536383E+02  0.21810407737E+02  0.00000000000E+00 0.  1.
</event>
<event>
 5    1  0.7625606E-005  0.4164710E+03  0.7818608E-02  0.9752065E-01
         -4   -1    0    0    0  501 -0.00000000000E+00  0.00000000000E+00  0.21099442524E+04  0.21099442524E+04  0.00000000000E+00 0. -1.
         21   -1    0    0  501  502  0.00000000000E+00 -0.00000000000E+00 -0.22127047215E+03  0.22127047215E+03  0.00000000000E+00 0. -1.
        -13    1    1    2    0    0  0.26909091392E+03 -0.18632430946E+03  0.32579395882E+03  0.46180989922E+03  0.10566000000E+00 0.  1.
         13    1    1    2    0    0 -0.89797831441E+02 -0.37061030506E+03  0.32823695205E+03  0.50314526392E+03  0.10566000000E+00 0. -1.
         -4    1    1    2    0  502 -0.17929308248E+03  0.55693461452E+03  0.12346428694E+04  0.13662595615E+04  0.00000000000E+00 0. -1.
</event>
<event>
 5    1  0.7625606E-005  0.1487405E+03  0.7818608E-02  0.1102360E+00
          4   -1    0    0  502    0 -0.00000000000E+00  0.00000000000E+00  0.45620467778E+02  0.45620467778E+02  0.00000000000E+00 0.  1.
         21   -1    0    0  501  502  0.00000000000E+00 -0.00000000000E+00 -0.84386654894E+03  0.84386654894E+03  0.00000000000E+00 0. -1.
        -13    1    1    2    0    0  0.13608790474E+03  0.10212277472E+03 -0.18617698444E+03  0.25221193396E+03  0.10566000000E+00 0.  1.
         13    1    1    2    0    0 -0.72210042831E+02 -0.82054503439E+02 -0.41445740844E+03  0.42862826131E+03  0.10566000000E+00 0. -1.
          4    1    1    2  501    0 -0.63877861906E+02 -0.20068271285E+02 -0.19761168828E+03  0.20864682145E+03  0.00000000000E+00 0.  1.
</event>
<event>
 5    1  0.7625606E-005  0.5163306E+03  0.7818608E-02  0.9442880E-01
          4   -1    0    0  502    0 -0.00000000000E+00  0.00000000000E+00  0.17957294302E+04  0.17957294302E+04  0.00000000000E+00 0.  1.
         21   -1    0    0  501  502  0.00000000000E+00 -0.00000000000E+00 -0.35202441490E+03  0.35202441490E+03  0.00000000000E+00 0. -1.
        -13    1    1    2    0    0  0.40198745281E+03 -0.36949740321E+03  0.10954144265E+04  0.12239505791E+04  0.10566000000E+00 0.  1.
         13    1    1    2    0    0 -0.30827498960E+03  0.36351604495E+03  0.53395615077E+03  0.71574196905E+03  0.10566000000E+00 0. -1.
          4    1    1    2  501    0 -0.93712463213E+02  0.59813582613E+01 -0.18566556194E+03  0.20806129697E+03  0.00000000000E+00 0.  1.
</event>
<event>
 5    1  0.7625606E-005  0.4595256E+02  0.7818608E-02  0.1321029E+00
         21   -1    0    0  501  502  0.00000000000E+00  0.00000000000E+00  0.29105704034E+03  0.29105704034E+03  0.00000000000E+00 0.  1.
          4   -1    0    0  502    0 -0.00000000000E+00 -0.00000000000E+00 -0.23654947744E+02  0.23654947744E+02  0.00000000000E+00 0.  1.
        -13    1    1    2    0    0 -0.13790362297E+01 -0.45390181560E+02  0.31663262494E+02  0.55360127157E+02  0.10566000000E+00 0.  1.
         13    1    1    2    0    0  0.47100989801E+02  0.21908698200E+02  0.80322944552E+02  0.95657100534E+02  0.10566000000E+00 0. -1.
          4    1    1    2  501    0 -0.45721953571E+02  0.23481483360E+02  0.15541588555E+03  0.16369476039E+03  0.00000000000E+00 0.  1.
</event>
<event>
 5    1  0.7625606E-005  0.9100224E+02  0.7818608E-02  0.1211294E+00
         21   -1    0    0  501  502  0.00000000000E+00  0.00000000000E+00  0.44220447062E+03  0.44220447062E+03  0.00000000000E+00 0. -1.
         -4   -1    0    0    0  501 -0.00000000000E+00 -0.00000000000E+00 -0.39307114816E+02  0.39307114816E+02  0.00000000000E+00 0. -1.
        -13    1    1    2    0    0  0.32741949780E+02  0.30552911858E+02  0.15767440096E+03  0.16391077933E+03  0.10566000000E+00 0.  1.
         13    1    1    2    0    0  0.34090925642E+02 -0.92275474603E+02  0.71877658528E+02  0.12183334266E+03  0.10566000000E+00 0. -1.
         -4    1    1    2    0  502 -0.66832875422E+02  0.61722562744E+02  0.17334529632E+03  0.19576746344E+03  0.00000000000E+00 0. -1.
</event>
<event>
 5    1  0.7625606E-005  0.2447882E+03  0.7818608E-02  0.1033129E+00
         -4   -1    0    0    0  501 -0.00000000000E+00  0.00000000000E+00  0.61768937423E+02  0.61768937423E+02  0.00000000000E+00 0. -1.
         21   -1    0    0  501  502  0.00000000000E+00 -0.00000000000E+00 -0.34221298608E+04  0.34221298608E+04  0.00000000000E+00 0. -1.
        -13    1    1    2    0    0 -0.25269855800E+03 -0.82278851297E+02 -0.56045935938E+03  0.62027499971E+03  0.10566000000E+00 0.  1.
         13    1    1    2    0    0  0.19525314456E+03  0.12722538400E+03 -0.40239037982E+03  0.46500335239E+03  0.10566000000E+00 0. -1.
         -4    1    1    2    0  502  0.57445413437E+02 -0.44946532702E+02 -0.23975111842E+04  0.23986204462E+04  0.00000000000E+00 0. -1.
</event>
<event>
 5    1  0.7625606E-005  0.3393583E+03  0.7818608E-02  0.9922682E-01
         -4   -1    0    0    0  501 -0.00000000000E+00  0.00000000000E+00  0.16216359541E+04  0.16216359541E+04  0.00000000000E+00 0. -1.
         21   -1    0    0  501  502  0.00000000000E+00 -0.00000000000E+00 -0.39505257787E+03  0.39505257787E+03  0.00000000000E+00 0.  1.
        -13    1    1    2    0    0  0.33195336156E+02  0.44789375789E+03  0.10098885360E+03  0.46033629926E+03  0.10566000000E+00 0.  1.
         13    1    1    2    0    0  0.13316968675E+03 -0.21265957221E+03 -0.11981210852E+03  0.27805253394E+03  0.10566000000E+00 0. -1.
         -4    1    1    2    0  502 -0.16636502290E+03 -0.23523418568E+03  0.12454066311E+04  0.12782996987E+04  0.00000000000E+00 0. -1.
</event>
<event>
 5    1  0.7625606E-005  0.1080440E+03  0.7818608E-02  0.1151891E+00
         21   -1    0    0  501  502  0.00000000000E+00  0.00000000000E+00  0.86483819637E+02  0.86483819637E+02  0.00000000000E+00 0. -1.
          4   -1    0    0  502    0 -0.00000000000E+00 -0.00000000000E+00 -0.24886474383E+03  0.24886474383E+03  0.00000000000E+00 0.  1.
        -13    1    1    2    0    0 -0.10777470037E+03 -0.46295928652E+01 -0.16743017145E+03  0.19917251981E+03  0.10566000000E+00 0.  1.
         13    1    1    2    0    0  0.10743773855E+03  0.24476583141E+02  0.19130343954E+02  0.11183895570E+03  0.10566000000E+00 0. -1.
          4    1    1    2  501    0  0.33696182244E+00 -0.19846990276E+02 -0.14081096697E+02  0.24337087962E+02  0.00000000000E+00 0.  1.
</event>
<event>
 5    1  0.7625606E-005  0.1419842E+03  0.7818608E-02  0.1109298E+00
         -4   -1    0    0    0  501 -0.00000000000E+00  0.00000000000E+00  0.27771896848E+03  0.27771896848E+03  0.00000000000E+00 0. -1.
         21   -1    0    0  501  502  0.00000000000E+00 -0.00000000000E+00 -0.43249459079E+03  0.43249459079E+03  0.00000000000E+00 0.  1.
        -13    1    1    2    0    0  0.55475689641E+02 -0.10595956411E+03 -0.34855039956E+03  0.36850016766E+03  0.10566000000E+00 0.  1.
         13    1    1    2    0    0 -0.81293943343E+02  0.11793922698E+03  0.24460285781E+03  0.28345887831E+03  0.10566000000E+00 0. -1.
         -4    1    1    2    0  502  0.25818253702E+02 -0.11979662862E+02 -0.50828080557E+02  0.58254513299E+02  0.00000000000E+00 0. -1.
</event>
<event>
 5    1  0.7625606E-005  0.4493604E+03  0.7818608E-02  0.9596456E-01
         21   -1    0    0  501  502  0.00000000000E+00  0.00000000000E+00  0.34483693325E+03  0.34483693325E+03  0.00000000000E+00 0.  1.
          4   -1    0    0  502    0 -0.00000000000E+00 -0.00000000000E+00 -0.13806396072E+04  0.13806396072E+04  0.00000000000E+00 0.  1.
        -13    1    1    2    0    0 -0.45911455476E+03 -0.37878426128E+03 -0.83533875112E+03  0.10256970953E+04  0.10566000000E+00 0.  1.
         13    1    1    2    0    0  0.29191584684E+03  0.15153445377E+03 -0.25025856303E+03  0.41328792851E+03  0.10566000000E+00 0. -1.
          4    1    1    2  501    0  0.16719870792E+03  0.22724980751E+03  0.49794640169E+02  0.28649151668E+03  0.00000000000E+00 0.  1.
</event>
<event>
 5    1  0.7625606E-005  0.4805385E+03  0.7818608E-02  0.9950316E-01
         21   -1    0    0  501  502  0.00000000000E+00  0.00000000000E+00  0.14223046914E+03  0.14223046914E+03  0.00000000000E+00 0.  1.
          4   -1    0    0  502    0 -0.00000000000E+00 -0.00000000000E+00 -0.24885594199E+04  0.24885594199E+04  0.00000000000E+00 0.  1.
        -13    1    1    2    0    0 -0.50073388797E+03 -0.15350521121E+02 -0.55608973637E+03  0.74846901814E+03  0.10566000000E+00 0.  1.
         13    1    1    2    0    0  0.58799589910E+02  0.91831659318E+02 -0.61134018536E+03  0.62098895226E+03  0.10566000000E+00 0. -1.
          4    1    1    2  501    0  0.44193429806E+03 -0.76481138197E+02 -0.11788990290E+04  0.12613319186E+04  0.00000000000E+00 0.  1.
</event>
<event>
 5    1  0.7625606E-005  0.4434680E+03  0.7818608E-02  0.9933953E-01
          4   -1    0    0  502    0 -0.00000000000E+00  0.00000000000E+00  0.15769205314E+04  0.15769205314E+04  0.00000000000E+00 0.  1.
         21   -1    0    0  501  502  0.00000000000E+00 -0.00000000000E+00 -0.22216784305E+03  0.22216784305E+03  0.00000000000E+00 0.  1.
        -13    1    1    2    0    0  0.41452720075E+03 -0.18834261551E+03  0.81583962133E+03  0.93429119651E+03  0.10566000000E+00 0.  1.
         13    1    1    2    0    0 -0.89239754352E+02 -0.11615278138E+03  0.35265923067E+03  0.38186875562E+03  0.10566000000E+00 0. -1.
          4    1    1    2  501    0 -0.32528744640E+03  0.30449539689E+03  0.18625383634E+03  0.48292842230E+03  0.00000000000E+00 0.  1.
</event>
<event>
 5    1  0.7625606E-005  0.4513117E+03  0.7818608E-02  0.9906271E-01
         -4   -1    0    0    0  501 -0.00000000000E+00  0.00000000000E+00  0.12369493567E+04  0.12369493567E+04  0.00000000000E+00 0. -1.
         21   -1    0    0  501  502  0.00000000000E+00 -0.00000000000E+00 -0.36550257927E+03  0.36550257927E+03  0.00000000000E+00 0. -1.
        -13    1    1    2    0    0  0.14965828153E+03 -0.28763281937E+02  0.48285347740E+03  0.50633232113E+03  0.10566000000E+00 0.  1.
         13    1    1    2    0    0 -0.45878486761E+03  0.30594599464E+03  0.39922692124E+03  0.68078532019E+03  0.10566000000E+00 0. -1.
         -4    1    1    2    0  502  0.30912658608E+03 -0.27718271270E+03 -0.10633621177E+02  0.41533429469E+03  0.00000000000E+00 0. -1.
</event>
<event>
 5    1  0.7625606E-005  0.4303423E+02  0.7818608E-02  0.1323078E+00
         21   -1    0    0  501  502  0.00000000000E+00  0.00000000000E+00  0.17885356422E+03  0.17885356422E+03  0.00000000000E+00 0.  1.
         -4   -1    0    0    0  501 -0.00000000000E+00 -0.00000000000E+00 -0.27904090978E+02  0.27904090978E+02  0.00000000000E+00 0. -1.
        -13    1    1    2    0    0 -0.46247783600E+02 -0.22328652961E+02  0.99672214655E+02  0.11212487578E+03  0.10566000000E+00 0.  1.
         13    1    1    2    0    0  0.21867569170E+02  0.36577915085E+02  0.86261544656E+01  0.43480526196E+02  0.10566000000E+00 0. -1.
         -4    1    1    2    0  502  0.24380214430E+02 -0.14249262124E+02  0.42651104119E+02  0.51152253218E+02  0.00000000000E+00 0. -1.
</event>
<event>
 5    1  0.7625606E-005  0.4255615E+02  0.7818608E-02  0.1325468E+00
         21   -1    0    0  501  502  0.00000000000E+00  0.00000000000E+00  0.94778215640E+02  0.94778215640E+02  0.00000000000E+00 0.  1.
          4   -1    0    0  502    0 -0.00000000000E+00 -0.00000000000E+00 -0.14517171019E+03  0.14517171019E+03  0.00000000000E+00 0.  1.
        -13    1    1    2    0    0 -0.43467536549E+02  0.13597956890E+02 -0.10184309624E+03  0.11156324924E+03  0.10566000000E+00 0.  1.
         13    1    1    2    0    0  0.32361235860E+02 -0.19018046968E+02 -0.28724513485E+02  0.47265680318E+02  0.10566000000E+00 0. -1.
          4    1    1    2  501    0  0.11106300689E+02  0.54200900782E+01  0.80174115177E+02  0.81120996271E+02  0.00000000000E+00 0.  1.
</event>
<event>
 5    1  0.7625606E-005  0.4876769E+03  0.7818608E-02  0.9587446E-01
         21   -1    0    0  501  502  0.00000000000E+00  0.00000000000E+00  0.34761731441E+03  0.34761731441E+03  0.00000000000E+00 0.  1.
          4   -1    0    0  502    0 -0.00000000000E+00 -0.00000000000E+00 -0.18256244500E+04  0.18256244500E+04  0.00000000000E+00 0.  1.
        -13    1    1    2    0    0 -0.16698378472E+03  0.57186251711E+03 -0.11019035005E+03  0.60584836985E+03  0.10566000000E+00 0.  1.
         13    1    1    2    0    0 -0.12610878180E+03 -0.34040808116E+03 -0.88821391976E+03  0.95953377480E+03  0.10566000000E+00 0. -1.
          4    1    1    2  501    0  0.29309256652E+03 -0.23145443596E+03 -0.47960286578E+03  0.60785961976E+03  0.00000000000E+00 0.  1.
</event>
<event>
 5    1  0.7625606E-005  0.3875997E+03  0.7818608E-02  0.9765557E-01
          4   -1    0    0  502    0 -0.00000000000E+00  0.00000000000E+00  0.14442529732E+04  0.14442529732E+04  0.00000000000E+00 0.  1.
         21   -1    0    0  501  502  0.00000000000E+00 -0.00000000000E+00 -0.40561914505E+03  0.40561914505E+03  0.00000000000E+00 0.  1.
        -13    1    1    2    0    0  0.34037482436E+03  0.98016451143E+02 -0.22298370400E+03  0.41854986461E+03  0.10566000000E+00 0.  1.
         13    1    1    2    0    0 -0.27200242627E+03 -0.29961135582E+03  0.51507435696E+03  0.65502205215E+03  0.10566000000E+00 0. -1.
          4    1    1    2  501    0 -0.68372398090E+02  0.20159490468E+03  0.74654317521E+03  0.77630020151E+03  0.00000000000E+00 0.  1.
</event>
<event>
 5    1  0.7625606E-005  0.1226907E+03  0.7818608E-02  0.1131670E+00
         21   -1    0    0  501  502  0.00000000000E+00  0.00000000000E+00  0.21464074022E+03  0.21464074022E+03  0.00000000000E+00 0. -1.
          4   -1    0    0  502    0 -0.00000000000E+00 -0.00000000000E+00 -0.49008778628E+03  0.49008778628E+03  0.00000000000E+00 0.  1.
        -13    1    1    2    0    0  0.39236710483E+02 -0.11066725390E+03 -0.33385021854E+03  0.35389651046E+03  0.10566000000E+00 0.  1.
         13    1    1    2    0    0  0.50917759237E+02  0.18566428517E+03 -0.41307612880E+02  0.19690143484E+03  0.10566000000E+00 0. -1.
          4    1    1    2  501    0 -0.90154469720E+02 -0.74997031276E+02  0.99710785358E+02  0.15393058120E+03  0.00000000000E+00 0.  1.
</event>
<event>
 5    1  0.7625606E-005  0.2744060E+03  0.7818608E-02  0.1048272E+00
         -4   -1    0    0    0  501 -0.00000000000E+00  0.00000000000E+00  0.74367581723E+03  0.74367581723E+03  0.00000000000E+00 0. -1.
         21   -1    0    0  501  502  0.00000000000E+00 -0.00000000000E+00 -0.20628060791E+03  0.20628060791E+03  0.00000000000E+00 0.  1.
        -13    1    1    2    0    0  0.10917920468E+03 -0.12480468530E+02  0.24927604232E+02  0.11268210793E+03  0.10566000000E+00 0.  1.
         13    1    1    2    0    0 -0.32316948561E+03 -0.12519496476E+03  0.46252984496E+03  0.57796726920E+03  0.10566000000E+00 0. -1.
         -4    1    1    2    0  502  0.21399028092E+03  0.13767543329E+03  0.49937760124E+02  0.25930704801E+03  0.00000000000E+00 0. -1.
</event>
<event>
 5    1  0.7625606E-005  0.2213873E+03  0.7818608E-02  0.1046387E+00
         -4   -1    0    0    0  501 -0.00000000000E+00  0.00000000000E+00  0.16056053489E+04  0.16056053489E+04  0.00000000000E+00 0. -1.
         21   -1    0    0  501  502  0.00000000000E+00 -0.00000000000E+00 -0.71519719552E+02  0.71519719552E+02  0.00000000000E+00 0. -1.
        -13    1    1    2    0    0  0.12412409380E+03 -0.19533547867E+03  0.95807648315E+03  0.98563345044E+03  0.10566000000E+00 0.  1.
         13    1    1    2    0    0 -0.96584502063E+02  0.18551053732E+03  0.61105097392E+03  0.64585294718E+03  0.10566000000E+00 0. -1.
         -4    1    1    2    0  502 -0.27539591734E+02  0.98249413470E+01 -0.35041827720E+02  0.45638670832E+02  0.00000000000E+00 0. -1.
</event>
<event>
 5    1  0.7625606E-005  0.7063690E+02  0.7818608E-02  0.1225066E+00
         21   -1    0    0  501  502  0.00000000000E+00  0.00000000000E+00  0.27722766617E+02  0.27722766617E+02  0.00000000000E+00 0.  1.
          4   -1    0    0  502    0 -0.00000000000E+00 -0.00000000000E+00 -0.35170839707E+03  0.35170839707E+03  0.00000000000E+00 0.  1.
        -13    1    1    2    0    0 -0.63346711561E+02 -0.52984922302E+02 -0.20134670050E+03  0.21762516587E+03  0.10566000000E+00 0.  1.
         13    1    1    2    0    0  0.32748859419E+02  0.51568498934E+02 -0.11502945952E+03  0.13024433038E+03  0.10566000000E+00 0. -1.
          4    1    1    2  501    0  0.30597852142E+02  0.14164233682E+01 -0.76094704437E+01  0.31561667435E+02  0.00000000000E+00 0.  1.
</event>
<event>
 5    1  0.7625606E-005  0.4218859E+03  0.7818608E-02  0.9667884E-01
         21   -1    0    0  501  502  0.00000000000E+00  0.00000000000E+00  0.96297820721E+03  0.96297820721E+03  0.00000000000E+00 0. -1.
          4   -1    0    0  502    0 -0.00000000000E+00 -0.00000000000E+00 -0.50252976965E+03  0.50252976965E+03  0.00000000000E+00 0.  1.
        -13    1    1    2    0    0 -0.54487722997E+03 -0.12398476895E+02 -0.94344305667E+02  0.55312365448E+03  0.10566000000E+00 0.  1.
         13    1    1    2    0    0  0.32622521707E+03 -0.54064877958E+02  0.20547345114E+02  0.33131270401E+03  0.10566000000E+00 0. -1.
          4    1    1    2  501    0  0.21865201290E+03  0.66463354852E+02  0.53424539811E+03  0.58107161838E+03  0.00000000000E+00 0.  1.
</event>
<event>
 5    1  0.7625606E-005  0.4888498E+03  0.7818608E-02  0.9502752E-01
         21   -1    0    0  501  502  0.00000000000E+00  0.00000000000E+00  0.39234292657E+03  0.39234292657E+03  0.00000000000E+00 0.  1.
         -4   -1    0    0    0  501 -0.00000000000E+00 -0.00000000000E+00 -0.27630052365E+04  0.27630052365E+04  0.00000000000E+00 0. -1.
        -13    1    1    2    0    0 -0.40416673203E+03  0.55830112739E+03 -0.30004196301E+03  0.75171542943E+03  0.10566000000E+00 0.  1.
         13    1    1    2    0    0  0.43471392438E+03 -0.18903340475E+03 -0.19606321525E+04  0.20171237624E+04  0.10566000000E+00 0. -1.
         -4    1    1    2    0  502 -0.30547192352E+02 -0.36926772264E+03 -0.10998819441E+03  0.38650897124E+03  0.00000000000E+00 0. -1.
</event>
<event>
 5    1  0.7625606E-005  0.3807644E+03  0.7818608E-02  0.9905440E-01
         21   -1    0    0  501  502  0.00000000000E+00  0.00000000000E+00  0.25517737600E+03  0.25517737600E+03  0.00000000000E+00 0. -1.
         -4   -1    0    0    0  501 -0.00000000000E+00 -0.00000000000E+00 -0.18173526338E+04  0.18173526338E+04  0.00000000000E+00 0. -1.
        -13    1    1    2    0    0  0.24996744440E+03  0.47681008322E+02 -0.55100722455E+03  0.60693177086E+03  0.10566000000E+00 0.  1.
         13    1    1    2    0    0 -0.27408773920E+03  0.33529126977E+03 -0.99082090567E+03  0.10813280736E+04  0.10566000000E+00 0. -1.
         -4    1    1    2    0  502  0.24120294796E+02 -0.38297227810E+03 -0.20347127596E+02  0.38427016540E+03  0.00000000000E+00 0. -1.
</event>
<event>
 5    1  0.7625606E-005  0.3884285E+03  0.7818608E-02  0.1006018E+00
          4   -1    0    0  502    0 -0.00000000000E+00  0.00000000000E+00  0.23183262759E+04  0.23183262759E+04  0.00000000000E+00 0.  1.
         21   -1    0    0  501  502  0.00000000000E+00 -0.00000000000E+00 -0.14460497854E+03  0.14460497854E+03  0.00000000000E+00 0.  1.
        -13    1    1    2    0    0  0.38962067043E+03 -0.68453614805E+01  0.25261309060E+03  0.46439693206E+03  0.10566000000E+00 0.  1.
         13    1    1    2    0    0 -0.14158472698E+02 -0.14339372545E+03  0.42658416550E+03  0.45026246153E+03  0.10566000000E+00 0. -1.
          4    1    1    2  501    0 -0.37546219773E+03  0.15023908693E+03  0.14945240412E+04  0.15482718608E+04  0.00000000000E+00 0.  1.
</event>
<event>
 5    1  0.7625606E-005  0.1633858E+03  0.7818608E-02  0.1088612E+00
         -4   -1    0    0    0  501 -0.00000000000E+00  0.00000000000E+00  0.10320812910E+03  0.10320812910E+03  0.00000000000E+00 0. -1.
         21   -1    0    0  501  502  0.00000000000E+00 -0.00000000000E+00 -0.37966774119E+03  0.37966774119E+03  0.00000000000E+00 0. -1.
        -13    1    1    2    0    0  0.16889731517E+03 -0.25888134812E+02 -0.71847896504E+02  0.18536081030E+03  0.10566000000E+00 0.  1.
         13    1    1    2    0    0 -0.15647511585E+03 -0.23629027226E+02 -0.11963298850E+03  0.19838058350E+03  0.10566000000E+00 0. -1.
         -4    1    1    2    0  502 -0.12422199321E+02  0.49517162037E+02 -0.84978727086E+02  0.99134476492E+02  0.00000000000E+00 0. -1.
</event>
<event>
 5    1  0.7625606E-005  0.4929246E+03  0.7818608E-02  0.9582324E-01
         21   -1    0    0  501  502  0.00000000000E+00  0.00000000000E+00  0.17680168130E+03  0.17680168130E+03  0.00000000000E+00 0. -1.
          4   -1    0    0  502    0 -0.00000000000E+00 -0.00000000000E+00 -0.29008658781E+04  0.29008658781E+04  0.00000000000E+00 0.  1.
        -13    1    1    2    0    0  0.80189364860E+02  0.65296162486E+03 -0.90280832371E+03  0.11170730049E+04  0.10566000000E+00 0.  1.
         13    1    1    2    0    0 -0.19022189911E+03 -0.30331751033E+03 -0.95947584298E+03  0.10240995007E+04  0.10566000000E+00 0. -1.
          4    1    1    2  501    0  0.11003253425E+03 -0.34964411453E+03 -0.86178003014E+03  0.93649505378E+03  0.00000000000E+00 0.  1.
</event>
<event>
 5    1  0.7625606E-005  0.7087342E+03  0.7818608E-02  0.9110403E-01
         -4   -1    0    0    0  501 -0.00000000000E+00  0.00000000000E+00  0.32043408504E+04  0.32043408504E+04  0.00000000000E+00 0. -1.
         21   -1    0    0  501  502  0.00000000000E+00 -0.00000000000E+00 -0.24358618507E+03  0.24358618507E+03  0.00000000000E+00 0.  1.
        -13    1    1    2    0    0 -0.35723518945E+03  0.48485394668E+03  0.10112367827E+04  0.11769877535E+04  0.10566000000E+00 0.  1.
         13    1    1    2    0    0  0.36192905328E+03 -0.75930268443E+03  0.17139359519E+04  0.19092170292E+04  0.10566000000E+00 0. -1.
         -4    1    1    2    0  502 -0.46938638357E+01  0.27444873776E+03  0.23558193073E+03  0.36172225270E+03  0.00000000000E+00 0. -1.
</event>
<event>
 5    1  0.7625606E-005  0.5462634E+03  0.7818608E-02  0.9381955E-01
          4   -1    0    0  502    0 -0.00000000000E+00  0.00000000000E+00  0.22913297133E+04  0.22913297133E+04  0.00000000000E+00 0.  1.
         21   -1    0    0  501  502  0.00000000000E+00 -0.00000000000E+00 -0.27734105796E+03  0.27734105796E+03  0.00000000000E+00 0.  1.
        -13    1    1    2    0    0 -0.74282190287E+03  0.24925965494E+02  0.86111218608E+03  0.11375059962E+04  0.10566000000E+00 0.  1.
         13    1    1    2    0    0  0.41359336743E+03 -0.21388095560E+03  0.69232730938E+03  0.83433905053E+03  0.10566000000E+00 0. -1.
          4    1    1    2  501    0  0.32922853544E+03  0.18895499010E+03  0.46054915984E+03  0.59682572453E+03  0.00000000000E+00 0.  1.
</event>
<event>
 5    1  0.7625606E-005  0.1557996E+03  0.7818608E-02  0.1095529E+00
         21   -1    0    0  501  502  0.00000000000E+00  0.00000000000E+00  0.31397494947E+03  0.31397494947E+03  0.00000000000E+00 0. -1.
          4   -1    0    0  502    0 -0.00000000000E+00 -0.00000000000E+00 -0.51195812826E+03  0.51195812826E+03  0.00000000000E+00 0.  1.
        -13    1    1    2    0    0 -0.15266844721E+03 -0.44577985773E+02 -0.40828503443E+03  0.43816838327E+03  0.10566000000E+00 0.  1.
         13    1    1    2    0    0  0.66813102535E+02  0.13105417042E+03  0.22095361209E+03  0.26544245349E+03  0.10566000000E+00 0. -1.
          4    1    1    2  501    0  0.85855344677E+02 -0.86476184650E+02 -0.10651756456E+02  0.12232224097E+03  0.00000000000E+00 0.  1.
</event>
<event>
 5    1  0.7625606E-005  0.3888978E+03  0.7818608E-02  0.9761668E-01
         21   -1    0    0  501  502  0.00000000000E+00  0.00000000000E+00  0.27588954863E+03  0.27588954863E+03  0.00000000000E+00 0.  1.
          4   -1    0    0  502    0 -0.00000000000E+00 -0.00000000000E+00 -0.15225849974E+04  0.15225849974E+04  0.00000000000E+00 0.  1.
        -13    1    1    2    0    0 -0.57198976950E+03  0.14604485639E+03 -0.34784789241E+03  0.68520038230E+03  0.10566000000E+00 0.  1.
         13    1    1    2    0    0  0.29740576982E+03 -0.32789821349E+02 -0.21722131907E+03  0.36974379904E+03  0.10566000000E+00 0. -1.
          4    1    1    2  501    0  0.27458399968E+03 -0.11325503504E+03 -0.68162623726E+03  0.74353036465E+03  0.00000000000E+00 0.  1.
</event>
<event>
 5    1  0.7625606E-005  0.4281152E+03  0.7818608E-02  0.9663884E-01
         21   -1    0    0  501  502  0.00000000000E+00  0.00000000000E+00  0.24687924855E+03  0.24687924855E+03  0.00000000000E+00 0.  1.
         -4   -1    0    0    0  501 -0.00000000000E+00 -0.00000000000E+00 -0.27294427977E+04  0.27294427977E+04  0.00000000000E+00 0. -1.
        -13    1    1    2    0    0  0.37965600562E+03  0.21795174707E+03 -0.12707645087E+04  0.13440550935E+04  0.10566000000E+00 0.  1.
         13    1    1    2    0    0  0.12449751210E+03 -0.16127939847E+03 -0.10921876648E+04  0.11110286141E+04  0.10566000000E+00 0. -1.
         -4    1    1    2    0  502 -0.50415351773E+03 -0.56672348605E+02 -0.11961137563E+03  0.52123833868E+03  0.00000000000E+00 0. -1.
</event>
<event>
 5    1  0.7625606E-005  0.2701676E+03  0.7818608E-02  0.1020441E+00
         21   -1    0    0  501  502  0.00000000000E+00  0.00000000000E+00  0.73585924982E+03  0.73585924982E+03  0.00000000000E+00 0.  1.
          4   -1    0    0  502    0 -0.00000000000E+00 -0.00000000000E+00 -0.75809169795E+03  0.75809169795E+03  0.00000000000E+00 0.  1.
        -13    1    1    2    0    0 -0.31064694469E+03  0.23981765048E+03  0.26732532528E+03  0.47484404854E+03  0.10566000000E+00 0.  1.
         13    1    1    2    0    0  0.26396742801E+03 -0.23990959437E+02 -0.58967529608E+03  0.64650702638E+03  0.10566000000E+00 0. -1.
          4    1    1    2  501    0  0.46679516680E+02 -0.21582669105E+03  0.30011752266E+03  0.37259987286E+03  0.00000000000E+00 0.  1.
</event>
<event>
 5    1  0.7625606E-005  0.4459817E+03  0.7818608E-02  0.9741695E-01
         21   -1    0    0  501  502  0.00000000000E+00  0.00000000000E+00  0.14080484473E+03  0.14080484473E+03  0.00000000000E+00 0. -1.
         -4   -1    0    0    0  501 -0.00000000000E+00 -0.00000000000E+00 -0.27692945089E+04  0.27692945089E+04  0.00000000000E+00 0. -1.
        -13    1    1    2    0    0  0.17456083726E+03 -0.21409936286E+03 -0.50743111490E+03  0.57775113207E+03  0.10566000000E+00 0.  1.
         13    1    1    2    0    0 -0.51319346686E+03  0.33197939368E+03 -0.13625749580E+04  0.14933815251E+04  0.10566000000E+00 0. -1.
         -4    1    1    2    0  502  0.33863262960E+03 -0.11788003082E+03 -0.75848359126E+03  0.83896669643E+03  0.00000000000E+00 0. -1.
</event>
<event>
 5    1  0.7625606E-005  0.4387521E+03  0.7818608E-02  0.9778543E-01
          4   -1    0    0  502    0 -0.00000000000E+00  0.00000000000E+00  0.21934583714E+04  0.21934583714E+04  0.00000000000E+00 0.  1.
         21   -1    0    0  501  502  0.00000000000E+00 -0.00000000000E+00 -0.19534829825E+03  0.19534829825E+03  0.00000000000E+00 0.  1.
        -13    1    1    2    0    0  0.26037442665E+03  0.54005187641E+03  0.13264563875E+04  0.14556570442E+04  0.10566000000E+00 0.  1.
         13    1    1    2    0    0 -0.19509723190E+03 -0.16508793385E+03  0.18582132796E+03  0.31598502004E+03  0.10566000000E+00 0. -1.
          4    1    1    2  501    0 -0.65277194749E+02 -0.37496394256E+03  0.48583235766E+03  0.61716460537E+03  0.00000000000E+00 0.  1.
</event>
<event>
 5    1  0.7625606E-005  0.1162830E+03  0.7818608E-02  0.1140113E+00
         21   -1    0    0  501  502  0.00000000000E+00  0.00000000000E+00  0.77381142323E+03  0.77381142323E+03  0.00000000000E+00 0. -1.
          4   -1    0    0  502    0 -0.00000000000E+00 -0.00000000000E+00 -0.27935013064E+02  0.27935013064E+02  0.00000000000E+00 0.  1.
        -13    1    1    2    0    0 -0.81706385478E+02 -0.86643518221E+02  0.18155442297E+03  0.21712911445E+03  0.10566000000E+00 0.  1.
         13    1    1    2    0    0  0.85242423912E+02  0.72994042455E+02  0.30632324120E+03  0.32623356714E+03  0.10566000000E+00 0. -1.
          4    1    1    2  501    0 -0.35360384342E+01  0.13649475766E+02  0.25799874600E+03  0.25838375470E+03  0.00000000000E+00 0.  1.
</event>
<event>
 5    1  0.7625606E-005  0.5170301E+02  0.7818608E-02  0.1285006E+00
         21   -1    0    0  501  502  0.00000000000E+00  0.00000000000E+00  0.12256222467E+03  0.12256222467E+03  0.00000000000E+00 0.  1.
          4   -1    0    0  502    0 -0.00000000000E+00 -0.00000000000E+00 -0.13009841690E+03  0.13009841690E+03  0.00000000000E+00 0.  1.
        -13    1    1    2    0    0 -0.40762564905E+02 -0.34820865593E+02 -0.95766474541E+02  0.10975111930E+03  0.10566000000E+00 0.  1.
         13    1    1    2    0    0  0.11781241731E+02  0.51030906818E+02  0.41829458301E+01  0.52540073346E+02  0.10566000000E+00 0. -1.
          4    1    1    2  501    0  0.28981323174E+02 -0.16210041224E+02  0.84047336481E+02  0.90369448925E+02  0.00000000000E+00 0.  1.
</event>
<event>
 5    1  0.7625606E-005  0.4246415E+03  0.7818608E-02  0.9846785E-01
         21   -1    0    0  501  502  0.00000000000E+00  0.00000000000E+00  0.20085053584E+03  0.20085053584E+03  0.00000000000E+00 0.  1.
          4   -1    0    0  502    0 -0.00000000000E+00 -0.00000000000E+00 -0.28568318878E+04  0.28568318878E+04  0.00000000000E+00 0.  1.
        -13    1    1    2    0    0 -0.44713378229E+03  0.17171815734E+03 -0.21648643686E+04  0.22172175108E+04  0.10566000000E+00 0.  1.
         13    1    1    2    0    0  0.26454517310E+02 -0.22187935863E+03 -0.30408815205E+03  0.37735912159E+03  0.10566000000E+00 0. -1.
          4    1    1    2  501    0  0.42067926498E+03  0.50161201280E+02 -0.18702883130E+03  0.46310579119E+03  0.00000000000E+00 0.  1.
</event>
<event>
 5    1  0.7625606E-005  0.1851153E+03  0.7818608E-02  0.1070849E+00
         -4   -1    0    0    0  501 -0.00000000000E+00  0.00000000000E+00  0.20287131551E+04  0.20287131551E+04  0.00000000000E+00 0. -1.
         21   -1    0    0  501  502  0.00000000000E+00 -0.00000000000E+00 -0.18284422990E+02  0.18284422990E+02  0.00000000000E+00 0.  1.
        -13    1    1    2    0    0 -0.11879210641E+03 -0.13455473854E+03  0.85828939833E+03  0.87685645613E+03  0.10566000000E+00 0.  1.
         13    1    1    2    0    0  0.12685036411E+03  0.14136487904E+03  0.11267593480E+04  0.11426555401E+04  0.10566000000E+00 0. -1.
         -4    1    1    2    0  502 -0.80582576994E+01 -0.68101404946E+01  0.25379985802E+02  0.27485581857E+02  0.00000000000E+00 0. -1.
</event>
<event>
 5    1  0.7625606E-005  0.1955089E+03  0.7818608E-02  0.1063259E+00
         -4   -1    0    0    0  501 -0.00000000000E+00  0.00000000000E+00  0.14863618058E+04  0.14863618058E+04  0.00000000000E+00 0. -1.
         21   -1    0    0  501  502  0.00000000000E+00 -0.00000000000E+00 -0.49762111332E+02  0.49762111332E+02  0.00000000000E+00 0.  1.
        -13    1    1    2    0    0  0.17282151560E+03  0.64326722065E+02  0.28832645537E+03  0.34225335566E+03  0.10566000000E+00 0.  1.
         13    1    1    2    0    0 -0.14507202925E+03 -0.14386840463E+03  0.10210015526E+04  0.10412435801E+04  0.10566000000E+00 0. -1.
         -4    1    1    2    0  502 -0.27749486351E+02  0.79541682561E+02  0.12727168642E+03  0.15262698130E+03  0.00000000000E+00 0. -1.
</event>
<event>
 5    1  0.7625606E-005  0.3235237E+02  0.7818608E-02  0.1386959E+00
         21   -1    0    0  501  502  0.00000000000E+00  0.00000000000E+00  0.40718794122E+02  0.40718794122E+02  0.00000000000E+00 0. -1.
          4   -1    0    0  502    0 -0.00000000000E+00 -0.00000000000E+00 -0.10921130061E+03  0.10921130061E+03  0.00000000000E+00 0.  1.
        -13    1    1    2    0    0  0.23001828475E+02 -0.23721456230E+02 -0.93018907941E+02  0.98713322289E+02  0.10566000000E+00 0.  1.
         13    1    1    2    0    0 -0.28004880196E+02  0.90139334517E+01  0.16485257724E+02  0.33723866880E+02  0.10566000000E+00 0. -1.
          4    1    1    2  501    0  0.50030517208E+01  0.14707522778E+02  0.80411437246E+01  0.17492905568E+02  0.00000000000E+00 0.  1.
</event>
<event>
 5    1  0.7625606E-005  0.4575324E+03  0.7818608E-02  0.9777927E-01
         21   -1    0    0  501  502  0.00000000000E+00  0.00000000000E+00  0.29896366439E+03  0.29896366439E+03  0.00000000000E+00 0.  1.
         -4   -1    0    0    0  501 -0.00000000000E+00 -0.00000000000E+00 -0.12966720799E+04  0.12966720799E+04  0.00000000000E+00 0. -1.
        -13    1    1    2    0    0 -0.35247398746E+02 -0.22308392960E+03 -0.19142812821E+03  0.29606343610E+03  0.10566000000E+00 0.  1.
         13    1    1    2    0    0  0.40047421613E+03  0.30769280543E+03 -0.12236291032E+03  0.51964136987E+03  0.10566000000E+00 0. -1.
         -4    1    1    2    0  502 -0.36522681738E+03 -0.84608875830E+02 -0.68391737694E+03  0.77993093828E+03  0.00000000000E+00 0. -1.
</event>
<event>
 5    1  0.7625606E-005  0.3593033E+03  0.7818608E-02  0.9889488E-01
         -4   -1    0    0    0  501 -0.00000000000E+00  0.00000000000E+00  0.15846994566E+04  0.15846994566E+04  0.00000000000E+00 0. -1.
         21   -1    0    0  501  502  0.00000000000E+00 -0.00000000000E+00 -0.34224286931E+03  0.34224286931E+03  0.00000000000E+00 0.  1.
        -13    1    1    2    0    0 -0.23660872091E+03 -0.21464345465E+03  0.41982064304E+03  0.52754609554E+03  0.10566000000E+00 0.  1.
         13    1    1    2    0    0 -0.15142234689E+03  0.16277591300E+03  0.95931636773E+03  0.98473987913E+03  0.10566000000E+00 0. -1.
         -4    1    1    2    0  502  0.38803106780E+03  0.51867541645E+02 -0.13668042348E+03  0.41465635123E+03  0.00000000000E+00 0. -1.
</event>
<event>
 5    1  0.7625606E-005  0.3940113E+03  0.7818608E-02  0.9895139E-01
         21   -1    0    0  501  502  0.00000000000E+00  0.00000000000E+00  0.13074131234E+04  0.13074131234E+04  0.00000000000E+00 0. -1.
         -4   -1    0    0    0  501 -0.00000000000E+00 -0.00000000000E+00 -0.12234984327E+04  0.12234984327E+04  0.00000000000E+00 0. -1.
        -13    1    1    2    0    0  0.16606585677E+03  0.17008707232E+03 -0.99594982649E+03  0.10239255583E+04  0.10566000000E+00 0.  1.
         13    1    1    2    0    0  0.23937412443E+03  0.25678696851E+03  0.75956342807E+03  0.83676527835E+03  0.10566000000E+00 0. -1.
         -4    1    1    2    0  502 -0.40543998120E+03 -0.42687404083E+03  0.32030108916E+03  0.67022071947E+03  0.00000000000E+00 0. -1.
</event>
<event>
 5    1  0.7625606E-005  0.3061766E+03  0.7818608E-02  0.1004788E+00
          4   -1    0    0  502    0 -0.00000000000E+00  0.00000000000E+00  0.77323291540E+03  0.77323291540E+03  0.00000000000E+00 0.  1.
         21   -1    0    0  501  502  0.00000000000E+00 -0.00000000000E+00 -0.46223150595E+03  0.46223150595E+03  0.00000000000E+00 0. -1.
        -13    1    1    2    0    0 -0.28422434271E+03  0.13261334463E+03 -0.36327118607E+03  0.47993305988E+03  0.10566000000E+00 0.  1.
         13    1    1    2    0    0  0.27210590354E+03 -0.13884039896E+03  0.53878641044E+03  0.61936183799E+03  0.10566000000E+00 0. -1.
          4    1    1    2  501    0  0.12118439170E+02  0.62270543243E+01  0.13548618509E+03  0.13616952347E+03  0.00000000000E+00 0.  1.
</event>
<event>
 5    1  0.7625606E-005  0.1266200E+03  0.7818608E-02  0.1126766E+00
         21   -1    0    0  501  502  0.00000000000E+00  0.00000000000E+00  0.28249426760E+03  0.28249426760E+03  0.00000000000E+00 0. -1.
          4   -1    0    0  502    0 -0.00000000000E+00 -0.00000000000E+00 -0.10087696884E+03  0.10087696884E+03  0.00000000000E+00 0.  1.
        -13    1    1    2    0    0 -0.11459646663E+03 -0.63773112331E+01  0.10642828131E+02  0.11526621889E+03  0.10566000000E+00 0.  1.
         13    1    1    2    0    0  0.15063930747E+03 -0.25287777997E+01  0.81630077061E+02  0.17135365860E+03  0.10566000000E+00 0. -1.
          4    1    1    2  501    0 -0.36042840839E+02  0.89060890327E+01  0.89344393567E+02  0.96751358954E+02  0.00000000000E+00 0.  1.
</event>
<event>
 5    1  0.7625606E-005  0.3044353E+03  0.7818608E-02  0.1008810E+00
         21   -1    0    0  501  502  0.00000000000E+00  0.00000000000E+00  0.58858181322E+03  0.58858181322E+03  0.00000000000E+00 0.  1.
          4   -1    0    0  502    0 -0.00000000000E+00 -0.00000000000E+00 -0.18107564588E+04  0.18107564588E+04  0.00000000000E+00 0.  1.
        -13    1    1    2    0    0 -0.14368845255E+03 -0.25449779418E+03  0.39521293402E+03  0.49153715325E+03  0.10566000000E+00 0.  1.
         13    1    1    2    0    0 -0.27209689277E+03  0.27498628002E+02 -0.13209868183E+04  0.13489992880E+04  0.10566000000E+00 0. -1.
          4    1    1    2  501    0  0.41578534532E+03  0.22699916618E+03 -0.29640076129E+03  0.55880183081E+03  0.00000000000E+00 0.  1.
</event>
<event>
 5    1  0.7625606E-005  0.4548242E+03  0.7818608E-02  0.9779185E-01
         21   -1    0    0  501  502  0.00000000000E+00  0.00000000000E+00  0.86086125479E+03  0.86086125479E+03  0.00000000000E+00 0.  1.
          4   -1    0    0  502    0 -0.00000000000E+00 -0.00000000000E+00 -0.10080771979E+04  0.10080771979E+04  0.00000000000E+00 0.  1.
        -13    1    1    2    0    0 -0.28984629482E+03 -0.49638155531E+01 -0.14877386223E+03  0.32583613571E+03  0.10566000000E+00 0.  1.
         13    1    1    2    0    0 -0.22584307275E+03  0.37410988899E+02 -0.66293944038E+03  0.70135111633E+03  0.10566000000E+00 0. -1.
          4    1    1    2  501    0  0.51568936757E+03 -0.32447173346E+02  0.66449735954E+03  0.84175120061E+03  0.00000000000E+00 0.  1.
</event>
<event>
 5    1  0.7625606E-005  0.6839733E+03  0.7818608E-02  0.9146557E-01
         -4   -1    0    0    0  501 -0.00000000000E+00  0.00000000000E+00  0.15508127144E+04  0.15508127144E+04  0.00000000000E+00 0. -1.
         21   -1    0    0  501  502  0.00000000000E+00 -0.00000000000E+00 -0.80402744576E+03  0.80402744576E+03  0.00000000000E+00 0.  1.
        -13    1    1    2    0    0  0.44760764569E+03 -0.52868322185E+03 -0.48278447570E+03  0.84435739748E+03  0.10566000000E+00 0.  1.
         13    1    1    2    0    0 -0.41354211503E+03  0.54351479077E+03  0.12782416234E+04  0.14492505193E+04  0.10566000000E+00 0. -1.
         -4    1    1    2    0  502 -0.34065530655E+02 -0.14831568925E+02 -0.48671879080E+02  0.61232243375E+02  0.00000000000E+00 0. -1.
</event>
<event>
 5    1  0.7625606E-005  0.4457512E+03  0.7818608E-02  0.9662119E-01
          4   -1    0    0  502    0 -0.00000000000E+00  0.00000000000E+00  0.10433933410E+04  0.10433933410E+04  0.00000000000E+00 0.  1.
         21   -1    0    0  501  502  0.00000000000E+00 -0.00000000000E+00 -0.73971051206E+03  0.73971051206E+03  0.00000000000E+00 0.  1.
        -13    1    1    2    0    0 -0.11422127756E+03  0.35182238815E+03 -0.18785666075E+03  0.41486820703E+03  0.10566000000E+00 0.  1.
         13    1    1    2    0    0  0.17416163977E+03  0.32076374836E+03  0.58196785343E+03  0.68695578651E+03  0.10566000000E+00 0. -1.
          4    1    1    2  501    0 -0.59940362210E+02 -0.67258613651E+03 -0.90428363731E+02  0.68127985954E+03  0.00000000000E+00 0.  1.
</event>
<event>
 5    1  0.7625606E-005  0.1848506E+03  0.7818608E-02  0.1071049E+00
         -4   -1    0    0    0  501 -0.00000000000E+00  0.00000000000E+00  0.25551768821E+03  0.25551768821E+03  0.00000000000E+00 0. -1.
         21   -1    0    0  501  502  0.00000000000E+00 -0.00000000000E+00 -0.29793802308E+03  0.29793802308E+03  0.00000000000E+00 0. -1.
        -13    1    1    2    0    0  0.51857898969E+02 -0.18647954246E+03 -0.10361951494E+03  0.21954698013E+03  0.10566000000E+00 0.  1.
         13    1    1    2    0    0 -0.15164846349E+02  0.18260573835E+03  0.15060732301E+03  0.23718643543E+03  0.10566000000E+00 0. -1.
         -4    1    1    2    0  502 -0.36693052620E+02  0.38738041105E+01 -0.89408142935E+02  0.96722295733E+02  0.00000000000E+00 0. -1.
</event>
<event>
 5    1  0.7625606E-005  0.1280427E+02  0.7818608E-02  0.1647650E+00
          4   -1    0    0  502    0 -0.00000000000E+00  0.00000000000E+00  0.89660499854E+02  0.89660499854E+02  0.00000000000E+00 0.  1.
         21   -1    0    0  501  502  0.00000000000E+00 -0.00000000000E+00 -0.12974321365E+02  0.12974321365E+02  0.00000000000E+00 0.  1.
        -13    1    1    2    0    0 -0.68589646417E+01 -0.12253688476E+02  0.13248395831E+02  0.19306201940E+02  0.10566000000E+00 0.  1.
         13    1    1    2    0    0 -0.61482315420E+01  0.11949433186E+02  0.68171500562E+02  0.69483482623E+02  0.10566000000E+00 0. -1.
          4    1    1    2  501    0  0.13007196184E+02  0.30425529024E+00 -0.47337179036E+01  0.13845136656E+02  0.00000000000E+00 0.  1.
</event>
<event>
 5    1  0.7625606E-005  0.8411426E+02  0.7818608E-02  0.1193905E+00
         21   -1    0    0  501  502  0.00000000000E+00  0.00000000000E+00  0.13553253472E+03  0.13553253472E+03  0.00000000000E+00 0.  1.
         -4   -1    0    0    0  501 -0.00000000000E+00 -0.00000000000E+00 -0.12058915981E+03  0.12058915981E+03  0.00000000000E+00 0. -1.
        -13    1    1    2    0    0  0.82801183514E+02 -0.32794124463E+02  0.91660838979E+02  0.12780145209E+03  0.10566000000E+00 0.  1.
         13    1    1    2    0    0 -0.80506638230E+02  0.21768550822E+02 -0.81011845120E+02  0.11626744522E+03  0.10566000000E+00 0. -1.
         -4    1    1    2    0  502 -0.22945452837E+01  0.11025573642E+02  0.42943810466E+01  0.12052797217E+02  0.00000000000E+00 0. -1.
</event>
<event>
 5    1  0.7625606E-005  0.3888526E+03  0.7818608E-02  0.9761803E-01
         -4   -1    0    0    0  501 -0.00000000000E+00  0.00000000000E+00  0.22206521531E+04  0.22206521531E+04  0.00000000000E+00 0. -1.
         21   -1    0    0  501  502  0.00000000000E+00 -0.00000000000E+00 -0.36207668851E+03  0.36207668851E+03  0.00000000000E+00 0. -1.
        -13    1    1    2    0    0  0.42402317281E+03 -0.20223665586E+03  0.11567142482E+04  0.12484723382E+04  0.10566000000E+00 0.  1.
         13    1    1    2    0    0 -0.35688745610E+03 -0.13861426325E+03  0.86836166099E+03  0.94901767936E+03  0.10566000000E+00 0. -1.
         -4    1    1    2    0  502 -0.67135716707E+02  0.34085091911E+03 -0.16650044459E+03  0.38523882406E+03  0.00000000000E+00 0. -1.
</event>
<event>
 5    1  0.7625606E-005  0.3833511E+03  0.7818608E-02  0.1008729E+00
         -4   -1    0    0    0  501 -0.00000000000E+00  0.00000000000E+00  0.66879118284E+03  0.66879118284E+03  0.00000000000E+00 0. -1.
         21   -1    0    0  501  502  0.00000000000E+00 -0.00000000000E+00 -0.59967921877E+03  0.59967921877E+03  0.00000000000E+00 0. -1.
        -13    1    1    2    0    0  0.13688025475E+03  0.11069138645E+02  0.15164549339E+03  0.20458518226E+03  0.10566000000E+00 0.  1.
         13    1    1    2    0    0 -0.29586941553E+03  0.32883226824E+03  0.29491790438E+03  0.53164457410E+03  0.10566000000E+00 0. -1.
         -4    1    1    2    0  502  0.15898916078E+03 -0.33990140689E+03 -0.37745143370E+03  0.53224064525E+03  0.00000000000E+00 0. -1.
</event>
<event>
 5    1  0.7625606E-005  0.9152198E+02  0.7818608E-02  0.1200093E+00
         -4   -1    0    0    0  501 -0.00000000000E+00  0.00000000000E+00  0.59807444294E+02  0.59807444294E+02  0.00000000000E+00 0. -1.
         21   -1    0    0  501  502  0.00000000000E+00 -0.00000000000E+00 -0.48012984549E+03  0.48012984549E+03  0.00000000000E+00 0. -1.
        -13    1    1    2    0    0  0.92004507072E+01 -0.55926062089E+02 -0.64693868140E+02  0.86009769520E+02  0.10566000000E+00 0.  1.
         13    1    1    2    0    0  0.26577581604E+02  0.13363184762E+03 -0.64980456766E+02  0.15095134801E+03  0.10566000000E+00 0. -1.
         -4    1    1    2    0  502 -0.35778032311E+02 -0.77705785528E+02 -0.29064807629E+03  0.30297617225E+03  0.00000000000E+00 0. -1.
</event>
<event>
 5    1  0.7625606E-005  0.2686474E+03  0.7818608E-02  0.1021158E+00
         21   -1    0    0  501  502  0.00000000000E+00  0.00000000000E+00  0.24388991731E+03  0.24388991731E+03  0.00000000000E+00 0. -1.
         -4   -1    0    0    0  501 -0.00000000000E+00 -0.00000000000E+00 -0.24324028177E+04  0.24324028177E+04  0.00000000000E+00 0. -1.
        -13    1    1    2    0    0  0.10557758122E+03 -0.23185495534E+03 -0.12627532539E+04  0.12881960788E+04  0.10566000000E+00 0.  1.
         13    1    1    2    0    0 -0.68367047086E+02  0.28365564582E+03 -0.11336737079E+04  0.11706197785E+04  0.10566000000E+00 0. -1.
         -4    1    1    2    0  502 -0.37210534130E+02 -0.51800690477E+02  0.20791406147E+03  0.21747687772E+03  0.00000000000E+00 0. -1.
</event>
<event>
 5    1  0.7625606E-005  0.4988545E+03  0.7818608E-02  0.9480486E-01
         21   -1    0    0  501  502  0.00000000000E+00  0.00000000000E+00  0.31166125933E+03  0.31166125933E+03  0.00000000000E+00 0. -1.
         -4   -1    0    0    0  501 -0.00000000000E+00 -0.00000000000E+00 -0.22489724741E+04  0.22489724741E+04  0.00000000000E+00 0. -1.
        -13    1    1    2    0    0  0.15834571127E+03 -0.50033994545E+03 -0.62155616224E+03  0.81347741166E+03  0.10566000000E+00 0.  1.
         13    1    1    2    0    0 -0.38697129715E+03  0.31886138662E+03 -0.11903696119E+03  0.51535344957E+03  0.10566000000E+00 0. -1.
         -4    1    1    2    0  502  0.22862558588E+03  0.18147855883E+03 -0.11967180913E+04  0.12318028722E+04  0.00000000000E+00 0. -1.
</event>
<event>
 5    1  0.7625606E-005  0.1358000E+03  0.7818608E-02  0.1116027E+00
         -4   -1    0    0    0  501 -0.00000000000E+00  0.00000000000E+00  0.25267454596E+03  0.25267454596E+03  0.00000000000E+00 0. -1.
         21   -1    0    0  501  502  0.00000000000E+00 -0.00000000000E+00 -0.25008008065E+03  0.25008008065E+03  0.00000000000E+00 0. -1.
        -13    1    1    2    0    0 -0.12550318601E+03 -0.35761704961E+02  0.55724824481E+02  0.14189861334E+03  0.10566000000E+00 0.  1.
         13    1    1    2    0    0  0.13608395467E+03  0.31903799532E+02  0.12190076322E+03  0.18546294072E+03  0.10566000000E+00 0. -1.
         -4    1    1    2    0  502 -0.10580768660E+02  0.38579054289E+01 -0.17503112238E+03  0.17539307256E+03  0.00000000000E+00 0. -1.
</event>
<event>
 5    1  0.7625606E-005  0.3801180E+02  0.7818608E-02  0.1360064E+00
          4   -1    0    0  502    0 -0.00000000000E+00  0.00000000000E+00  0.10204440313E+03  0.10204440313E+03  0.00000000000E+00 0.  1.
         21   -1    0    0  501  502  0.00000000000E+00 -0.00000000000E+00 -0.11528680055E+03  0.11528680055E+03  0.00000000000E+00 0.  1.
        -13    1    1    2    0    0 -0.60401376984E+02 -0.25782127350E+02  0.70881426208E+02  0.96629354637E+02  0.10566000000E+00 0.  1.
         13    1    1    2    0    0  0.23913184204E+02  0.21010880150E+02 -0.34342343688E+01  0.32017223383E+02  0.10566000000E+00 0. -1.
          4    1    1    2  501    0  0.36488192780E+02  0.47712472008E+01 -0.80689589262E+02  0.88684625654E+02  0.00000000000E+00 0.  1.
</event>
<event>
 5    1  0.7625606E-005  0.4834328E+03  0.7818608E-02  0.9669876E-01
         21   -1    0    0  501  502  0.00000000000E+00  0.00000000000E+00  0.20839144547E+03  0.20839144547E+03  0.00000000000E+00 0.  1.
          4   -1    0    0  502    0 -0.00000000000E+00 -0.00000000000E+00 -0.28904321064E+04  0.28904321064E+04  0.00000000000E+00 0.  1.
        -13    1    1    2    0    0 -0.26120610425E+03 -0.24910982359E+03 -0.78108645493E+03  0.86045359802E+03  0.10566000000E+00 0.  1.
         13    1    1    2    0    0  0.28561030742E+02 -0.27697663868E+03 -0.15272076830E+04  0.15523836862E+04  0.10566000000E+00 0. -1.
          4    1    1    2  501    0  0.23264507351E+03  0.52608646227E+03 -0.37374652299E+03  0.68598626769E+03  0.00000000000E+00 0.  1.
</event>
<event>
 5    1  0.7625606E-005  0.3350456E+03  0.7818608E-02  0.9938070E-01
         21   -1    0    0  501  502  0.00000000000E+00  0.00000000000E+00  0.13478435399E+03  0.13478435399E+03  0.00000000000E+00 0. -1.
          4   -1    0    0  502    0 -0.00000000000E+00 -0.00000000000E+00 -0.12389914081E+04  0.12389914081E+04  0.00000000000E+00 0.  1.
        -13    1    1    2    0    0 -0.31390419947E+03  0.14150035430E+03 -0.82873824104E+03  0.89742146176E+03  0.10566000000E+00 0.  1.
         13    1    1    2    0    0  0.29922357980E+03 -0.10514487165E+03 -0.29447004213E+03  0.43278494847E+03  0.10566000000E+00 0. -1.
          4    1    1    2  501    0  0.14680619670E+02 -0.36355482650E+02  0.19001229088E+02  0.43569351837E+02  0.00000000000E+00 0.  1.
</event>
<event>
 5    1  0.7625606E-005  0.5561152E+02  0.7818608E-02  0.1270487E+00
         21   -1    0    0  501  502  0.00000000000E+00  0.00000000000E+00  0.15130837930E+03  0.15130837930E+03  0.00000000000E+00 0. -1.
          4   -1    0    0  502    0 -0.00000000000E+00 -0.00000000000E+00 -0.55962925056E+02  0.55962925056E+02  0.00000000000E+00 0.  1.
        -13    1    1    2    0    0 -0.22642120945E+02 -0.54307881569E+02 -0.27379554882E+02  0.64897325299E+02  0.10566000000E+00 0.  1.
         13    1    1    2    0    0  0.12013667901E+02  0.34036456887E+02  0.11086964565E+03  0.11659716164E+03  0.10566000000E+00 0. -1.
          4    1    1    2  501    0  0.10628453044E+02  0.20271424682E+02  0.11855363483E+02  0.25776817415E+02  0.00000000000E+00 0.  1.
</event>
<event>
 5    1  0.8655343E-005  0.4415127E+03  0.7818608E-02  0.9825925E-01
          4   -1    0    0  502    0 -0.00000000000E+00  0.00000000000E+00  0.96711457591E+03  0.96711457591E+03  0.00000000000E+00 0.  1.
         21   -1    0    0  501  502  0.00000000000E+00 -0.00000000000E+00 -0.50120178225E+03  0.50120178225E+03  0.00000000000E+00 0.  1.
        -13    1    1    2    0    0 -0.45037041948E+02 -0.29700401557E+03  0.36083244753E+03  0.46951015619E+03  0.10566000000E+00 0.  1.
         13    1    1    2    0    0 -0.14152363635E+03 -0.15967235855E+03  0.37871560515E+03  0.43468347390E+03  0.10566000000E+00 0. -1.
          4    1    1    2  501    0  0.18656067830E+03  0.45667637411E+03 -0.27363525901E+03  0.56412272808E+03  0.00000000000E+00 0.  1.
</event>
<event>
 5    1  0.7625606E-005  0.4819357E+03  0.7818608E-02  0.9598343E-01
         -4   -1    0    0    0  501 -0.00000000000E+00  0.00000000000E+00  0.15155566983E+04  0.15155566983E+04  0.00000000000E+00 0. -1.
         21   -1    0    0  501  502  0.00000000000E+00 -0.00000000000E+00 -0.33865976347E+03  0.33865976347E+03  0.00000000000E+00 0. -1.
        -13    1    1    2    0    0  0.58717227335E+02  0.35702565371E+03  0.28152410176E+03  0.45844395648E+03  0.10566000000E+00 0.  1.
         13    1    1    2    0    0  0.43706611058E+03 -0.31212049804E+03  0.64252448984E+03  0.83742684548E+03  0.10566000000E+00 0. -1.
         -4    1    1    2    0  502 -0.49578333792E+03 -0.44905155670E+02  0.25284834322E+03  0.55834565981E+03  0.00000000000E+00 0. -1.
</event>
<event>
 5    1  0.7625606E-005  0.3466562E+03  0.7818608E-02  0.9972899E-01
         21   -1    0    0  501  502  0.00000000000E+00  0.00000000000E+00  0.35746842745E+03  0.35746842745E+03  0.00000000000E+00 0. -1.
         -4   -1    0    0    0  501 -0.00000000000E+00 -0.00000000000E+00 -0.12375804861E+04  0.12375804861E+04  0.00000000000E+00 0. -1.
        -13    1    1    2    0    0  0.26203132042E+03  0.63348610627E+02 -0.25701873502E+03  0.37246758337E+03  0.10566000000E+00 0.  1.
         13    1    1    2    0    0  0.21674474024E+03  0.22961711880E+03  0.77245684576E+02  0.32506800922E+03  0.10566000000E+00 0. -1.
         -4    1    1    2    0  502 -0.47877606066E+03 -0.29296572943E+03 -0.70033900820E+03  0.89751332095E+03  0.00000000000E+00 0. -1.
</event>
<event>
 5    1  0.7625606E-005  0.5127732E+03  0.7818608E-02  0.9792363E-01
         21   -1    0    0  501  502  0.00000000000E+00  0.00000000000E+00  0.16328356953E+03  0.16328356953E+03  0.00000000000E+00 0. -1.
         -4   -1    0    0    0  501 -0.00000000000E+00 -0.00000000000E+00 -0.24276112706E+04  0.24276112706E+04  0.00000000000E+00 0. -1.
        -13    1    1    2    0    0 -0.39354291311E+02  0.14754370356E+03 -0.67870735257E+03  0.69567347679E+03  0.10566000000E+00 0.  1.
         13    1    1    2    0    0 -0.46583741132E+03 -0.23949262799E+03 -0.83841085721E+03  0.98858180708E+03  0.10566000000E+00 0. -1.
         -4    1    1    2    0  502  0.50519170263E+03  0.91948924427E+02 -0.74720949134E+03  0.90663955630E+03  0.00000000000E+00 0. -1.
</event>
<event>
 5    1  0.7625606E-005  0.1754216E+03  0.7818608E-02  0.1078430E+00
         21   -1    0    0  501  502  0.00000000000E+00  0.00000000000E+00  0.17906863357E+03  0.17906863357E+03  0.00000000000E+00 0. -1.
         -4   -1    0    0    0  501 -0.00000000000E+00 -0.00000000000E+00 -0.63462624302E+03  0.63462624302E+03  0.00000000000E+00 0. -1.
        -13    1    1    2    0    0 -0.16511644234E+03 -0.56447404138E+02  0.73036548269E+02  0.18916685098E+03  0.10566000000E+00 0.  1.
         13    1    1    2    0    0  0.17582580823E+03  0.10313700197E+02 -0.54628147852E+03  0.57397260578E+03  0.10566000000E+00 0. -1.
         -4    1    1    2    0  502 -0.10709365892E+02  0.46133703940E+02  0.17687320803E+02  0.50555419830E+02  0.00000000000E+00 0. -1.
</event>
<event>
 5    1  0.7625606E-005  0.4333517E+03  0.7818608E-02  0.9771410E-01
         21   -1    0    0  501  502  0.00000000000E+00  0.00000000000E+00  0.17115488812E+03  0.17115488812E+03  0.00000000000E+00 0. -1.
         -4   -1    0    0    0  501 -0.00000000000E+00 -0.00000000000E+00 -0.31549649361E+04  0.31549649361E+04  0.00000000000E+00 0. -1.
        -13    1    1    2    0    0  0.26793706836E+03  0.45768289745E+02 -0.18386389901E+03  0.32816299832E+03  0.10566000000E+00 0.  1.
         13    1    1    2    0    0  0.78363863521E+01 -0.41153636948E+03 -0.22254227290E+04  0.22631681171E+04  0.10566000000E+00 0. -1.
         -4    1    1    2    0  502 -0.27577345471E+03  0.36576807974E+03 -0.57452341997E+03  0.73478870879E+03  0.00000000000E+00 0. -1.
</event>
<event>
 5    1  0.7625606E-005  0.7339645E+02  0.7818608E-02  0.1218088E+00
         21   -1    0    0  501  502  0.00000000000E+00  0.00000000000E+00  0.46189050131E+03  0.46189050131E+03  0.00000000000E+00 0.  1.
         -4   -1    0    0    0  501 -0.00000000000E+00 -0.00000000000E+00 -0.15487342826E+03  0.15487342826E+03  0.00000000000E+00 0. -1.
        -13    1    1    2    0    0 -0.69268002480E+02 -0.49947488382E+02  0.32140933623E+03  0.33256094230E+03  0.10566000000E+00 0.  1.
         13    1    1    2    0    0  0.61421134721E+02  0.39582194626E+02 -0.14000127197E+03  0.15792299781E+03  0.10566000000E+00 0. -1.
         -4    1    1    2    0  502  0.78468677584E+01  0.10365293756E+02  0.12560900879E+03  0.12627998946E+03  0.00000000000E+00 0. -1.
</event>
<event>
 5    1  0.7625606E-005  0.4250354E+03  0.7818608E-02  0.1005373E+00
          4   -1    0    0  502    0 -0.00000000000E+00  0.00000000000E+00  0.59890900427E+03  0.59890900427E+03  0.00000000000E+00 0.  1.
         21   -1    0    0  501  502  0.00000000000E+00 -0.00000000000E+00 -0.81821708348E+03  0.81821708348E+03  0.00000000000E+00 0.  1.
        -13    1    1    2    0    0  0.28017016126E+03  0.28583964188E+03 -0.46725408067E+03  0.61524467264E+03  0.10566000000E+00 0.  1.
         13    1    1    2    0    0  0.46060873504E+02  0.10241744172E+03  0.27191921172E+03  0.29419552224E+03  0.10566000000E+00 0. -1.
          4    1    1    2  501    0 -0.32623103477E+03 -0.38825708361E+03 -0.23973210255E+02  0.50768589288E+03  0.00000000000E+00 0.  1.
</event>
<event>
 5    1  0.7625606E-005  0.3748282E+03  0.7818608E-02  0.9804697E-01
          4   -1    0    0  502    0 -0.00000000000E+00  0.00000000000E+00  0.66372385991E+03  0.66372385991E+03  0.00000000000E+00 0.  1.
         21   -1    0    0  501  502  0.00000000000E+00 -0.00000000000E+00 -0.81774395037E+03  0.81774395037E+03  0.00000000000E+00 0.  1.
        -13    1    1    2    0    0  0.43641303491E+03 -0.29257675872E+03 -0.49799801910E+03  0.72391956388E+03  0.10566000000E+00 0.  1.
         13    1    1    2    0    0 -0.35834223233E+03 -0.46167881232E+01  0.12234147057E+03  0.37867917396E+03  0.10566000000E+00 0. -1.
          4    1    1    2  501    0 -0.78070802578E+02  0.29719354684E+03  0.22163645808E+03  0.37886907244E+03  0.00000000000E+00 0.  1.
</event>
<event>
 5    1  0.7625606E-005  0.2244126E+03  0.7818608E-02  0.1044577E+00
          4   -1    0    0  502    0 -0.00000000000E+00  0.00000000000E+00  0.90392987193E+03  0.90392987193E+03  0.00000000000E+00 0.  1.
         21   -1    0    0  501  502  0.00000000000E+00 -0.00000000000E+00 -0.32632556654E+03  0.32632556654E+03  0.00000000000E+00 0.  1.
        -13    1    1    2    0    0 -0.19819044147E+03 -0.16292607537E+03  0.59474377002E+03  0.64772256427E+03  0.10566000000E+00 0.  1.
         13    1    1    2    0    0  0.55809180468E+02  0.19317321530E+03  0.22391122761E+03  0.30094319189E+03  0.10566000000E+00 0. -1.
          4    1    1    2  501    0  0.14238126100E+03 -0.30247139933E+02 -0.24105069223E+03  0.28158968231E+03  0.00000000000E+00 0.  1.
</event>
<event>
 5    1  0.7625606E-005  0.4673790E+02  0.7818608E-02  0.1353207E+00
          4   -1    0    0  502    0 -0.00000000000E+00  0.00000000000E+00  0.13987966522E+02  0.13987966522E+02  0.00000000000E+00 0.  1.
         21   -1    0    0  501  502  0.00000000000E+00 -0.00000000000E+00 -0.24850560443E+03  0.24850560443E+03  0.00000000000E+00 0. -1.
        -13    1    1    2    0    0 -0.51293580993E+02  0.19580259552E+02 -0.10977872566E+03  0.12274281155E+03  0.10566000000E+00 0.  1.
         13    1    1    2    0    0  0.11737202917E+02 -0.15381119343E+02 -0.66244802327E+02  0.69012504403E+02  0.10566000000E+00 0. -1.
          4    1    1    2  501    0  0.39556378076E+02 -0.41991402084E+01 -0.58494109917E+02  0.70738254997E+02  0.00000000000E+00 0.  1.
</event>
<event>
 5    1  0.7625606E-005  0.8528744E+02  0.7818608E-02  0.1203089E+00
         21   -1    0    0  501  502  0.00000000000E+00  0.00000000000E+00  0.24987144620E+03  0.24987144620E+03  0.00000000000E+00 0. -1.
         -4   -1    0    0    0  501 -0.00000000000E+00 -0.00000000000E+00 -0.22423601743E+03  0.22423601743E+03  0.00000000000E+00 0. -1.
        -13    1    1    2    0    0 -0.29648537096E+02  0.58328735615E+02  0.16637761959E+01  0.65452704036E+02  0.10566000000E+00 0.  1.
         13    1    1    2    0    0  0.11346157290E+03 -0.59242392104E+02 -0.16094014785E+03  0.20563300295E+03  0.10566000000E+00 0. -1.
         -4    1    1    2    0  502 -0.83813035800E+02  0.91365648882E+00  0.18491180042E+03  0.20302175665E+03  0.00000000000E+00 0. -1.
</event>
<event>
 5    1  0.7625606E-005  0.1088780E+03  0.7818608E-02  0.1150647E+00
         -4   -1    0    0    0  501 -0.00000000000E+00  0.00000000000E+00  0.19220046376E+02  0.19220046376E+02  0.00000000000E+00 0. -1.
         21   -1    0    0  501  502  0.00000000000E+00 -0.00000000000E+00 -0.79215303686E+03  0.79215303686E+03  0.00000000000E+00 0.  1.
        -13    1    1    2    0    0  0.10090465957E+03 -0.18212348162E+02 -0.31239028961E+03  0.32878738442E+03  0.10566000000E+00 0.  1.
         13    1    1    2    0    0 -0.11504015642E+03  0.89295746514E+01 -0.30449443038E+03  0.32562377707E+03  0.10566000000E+00 0. -1.
         -4    1    1    2    0  502  0.14135496859E+02  0.92827735110E+01 -0.15604827049E+03  0.15696192174E+03  0.00000000000E+00 0. -1.
</event>
<event>
 5    1  0.7625606E-005  0.9640678E+02  0.7818608E-02  0.1170641E+00
         21   -1    0    0  501  502  0.00000000000E+00  0.00000000000E+00  0.60453623387E+03  0.60453623387E+03  0.00000000000E+00 0.  1.
          4   -1    0    0  502    0 -0.00000000000E+00 -0.00000000000E+00 -0.41321709485E+02  0.41321709485E+02  0.00000000000E+00 0.  1.
        -13    1    1    2    0    0 -0.85252183999E+02 -0.60311145855E+02  0.76953761313E+02  0.12971993577E+03  0.10566000000E+00 0.  1.
         13    1    1    2    0    0  0.95839415544E+02 -0.13119655891E+02  0.23435126886E+03  0.25353076208E+03  0.10566000000E+00 0. -1.
          4    1    1    2  501    0 -0.10587231544E+02  0.73430801747E+02  0.25190949421E+03  0.26260724551E+03  0.00000000000E+00 0.  1.
</event>
<event>
 5    1  0.7625606E-005  0.5041190E+03  0.7818608E-02  0.9828112E-01
          4   -1    0    0  502    0 -0.00000000000E+00  0.00000000000E+00  0.21818553125E+04  0.21818553125E+04  0.00000000000E+00 0.  1.
         21   -1    0    0  501  502  0.00000000000E+00 -0.00000000000E+00 -0.15542041792E+03  0.15542041792E+03  0.00000000000E+00 0.  1.
        -13    1    1    2    0    0  0.52106299710E+03 -0.13738461223E+03  0.96785337028E+03  0.11077550885E+04  0.10566000000E+00 0.  1.
         13    1    1    2    0    0 -0.39863976340E+02  0.13657571681E+03  0.20281305354E+03  0.24774020441E+03  0.10566000000E+00 0. -1.
          4    1    1    2  501    0 -0.48119902076E+03  0.80889542455E+00  0.85576847080E+03  0.98178043752E+03  0.00000000000E+00 0.  1.
</event>
<event>
 5    1  0.7625606E-005  0.4253256E+03  0.7818608E-02  0.1011343E+00
         21   -1    0    0  501  502  0.00000000000E+00  0.00000000000E+00  0.76642151695E+03  0.76642151695E+03  0.00000000000E+00 0.  1.
          4   -1    0    0  502    0 -0.00000000000E+00 -0.00000000000E+00 -0.97764802772E+03  0.97764802772E+03  0.00000000000E+00 0.  1.
        -13    1    1    2    0    0  0.40162374016E+03 -0.12224539469E+03  0.58518213233E+03  0.72019698996E+03  0.10566000000E+00 0.  1.
         13    1    1    2    0    0  0.68050559729E+02  0.62578111575E+02 -0.38721418610E+03  0.39809764607E+03  0.10566000000E+00 0. -1.
          4    1    1    2  501    0 -0.46967429989E+03  0.59667283113E+02 -0.40919445699E+03  0.62577490864E+03  0.00000000000E+00 0.  1.
</event>
<event>
 5    1  0.7625606E-005  0.4124865E+03  0.7818608E-02  0.1009972E+00
         -4   -1    0    0    0  501 -0.00000000000E+00  0.00000000000E+00  0.24149095283E+03  0.24149095283E+03  0.00000000000E+00 0. -1.
         21   -1    0    0  501  502  0.00000000000E+00 -0.00000000000E+00 -0.13139490950E+04  0.13139490950E+04  0.00000000000E+00 0. -1.
        -13    1    1    2    0    0  0.50992281569E+02  0.92827452666E+02 -0.56270951662E+02  0.11993156346E+03  0.10566000000E+00 0.  1.
         13    1    1    2    0    0  0.34156069120E+03 -0.22942471427E+03 -0.91225181066E+02  0.42145159878E+03  0.10566000000E+00 0. -1.
         -4    1    1    2    0  502 -0.39255297277E+03  0.13659726160E+03 -0.92496200943E+03  0.10140568856E+04  0.00000000000E+00 0. -1.
</event>
<event>
 5    1  0.7625606E-005  0.5117061E+03  0.7818608E-02  0.9814697E-01
         21   -1    0    0  501  502  0.00000000000E+00  0.00000000000E+00  0.83769901496E+03  0.83769901496E+03  0.00000000000E+00 0. -1.
         -4   -1    0    0    0  501 -0.00000000000E+00 -0.00000000000E+00 -0.75764150687E+03  0.75764150687E+03  0.00000000000E+00 0. -1.
        -13    1    1    2    0    0  0.13826038680E+03 -0.34029177964E+02 -0.39708975228E+03  0.42184618292E+03  0.10566000000E+00 0.  1.
         13    1    1    2    0    0 -0.45457210829E+03  0.37834648918E+03  0.17486133294E+03  0.61673200374E+03  0.10566000000E+00 0. -1.
         -4    1    1    2    0  502  0.31631172149E+03 -0.34431731122E+03  0.30228592742E+03  0.55676233518E+03  0.00000000000E+00 0. -1.
</event>
<event>
 5    1  0.7625606E-005  0.1159129E+03  0.7818608E-02  0.1140619E+00
          4   -1    0    0  502    0 -0.00000000000E+00  0.00000000000E+00  0.22500712339E+03  0.22500712339E+03  0.00000000000E+00 0.  1.
         21   -1    0    0  501  502  0.00000000000E+00 -0.00000000000E+00 -0.16414332200E+03  0.16414332200E+03  0.00000000000E+00 0. -1.
        -13    1    1    2    0    0 -0.65973459003E+02 -0.92458671371E+02  0.16375533421E+03  0.19929105311E+03  0.10566000000E+00 0.  1.
         13    1    1    2    0    0  0.71573909935E+02  0.10716113471E+03 -0.56197890507E+02  0.14058644116E+03  0.10566000000E+00 0. -1.
          4    1    1    2  501    0 -0.56004509324E+01 -0.14702463341E+02 -0.46693642317E+02  0.49272951117E+02  0.00000000000E+00 0.  1.
</event>
<event>
 5    1  0.7625606E-005  0.3514503E+03  0.7818608E-02  0.1027786E+00
         -4   -1    0    0    0  501 -0.00000000000E+00  0.00000000000E+00  0.10346248569E+04  0.10346248569E+04  0.00000000000E+00 0. -1.
         21   -1    0    0  501  502  0.00000000000E+00 -0.00000000000E+00 -0.29191210038E+03  0.29191210038E+03  0.00000000000E+00 0. -1.
        -13    1    1    2    0    0  0.12092048814E+02 -0.96794003639E+02  0.98080047400E+02  0.13832933039E+03  0.10566000000E+00 0.  1.
         13    1    1    2    0    0  0.73125987151E+02  0.42399570752E+03  0.72280657841E+03  0.84117128514E+03  0.10566000000E+00 0. -1.
         -4    1    1    2    0  502 -0.85218035965E+02 -0.32720170389E+03 -0.78173869256E+02  0.34703634178E+03  0.00000000000E+00 0. -1.
</event>
<event>
 5    1  0.7625606E-005  0.2628870E+02  0.7818608E-02  0.1498037E+00
         21   -1    0    0  501  502  0.00000000000E+00  0.00000000000E+00  0.10198879822E+03  0.10198879822E+03  0.00000000000E+00 0. -1.
         -4   -1    0    0    0  501 -0.00000000000E+00 -0.00000000000E+00 -0.34021350971E+02  0.34021350971E+02  0.00000000000E+00 0. -1.
        -13    1    1    2    0    0  0.95201744036E+01  0.43125757135E+01 -0.99963650974E+01  0.14462728275E+02  0.10566000000E+00 0.  1.
         13    1    1    2    0    0 -0.34070701402E+02  0.28786087721E+01 -0.51570061413E+01  0.34578967001E+02  0.10566000000E+00 0. -1.
         -4    1    1    2    0  502  0.24550526998E+02 -0.71911844857E+01  0.83120818487E+02  0.86968453914E+02  0.00000000000E+00 0. -1.
</event>
<event>
 5    1  0.7625606E-005  0.2115115E+03  0.7818608E-02  0.1052518E+00
         21   -1    0    0  501  502  0.00000000000E+00  0.00000000000E+00  0.26764514597E+03  0.26764514597E+03  0.00000000000E+00 0.  1.
         -4   -1    0    0    0  501 -0.00000000000E+00 -0.00000000000E+00 -0.25249356881E+03  0.25249356881E+03  0.00000000000E+00 0. -1.
        -13    1    1    2    0    0  0.18978443321E+03 -0.82660175083E+02  0.53451642117E+02  0.21379411789E+03  0.10566000000E+00 0.  1.
         13    1    1    2    0    0 -0.21921086105E+03  0.11979238937E+02 -0.58430376329E+02  0.22718059734E+03  0.10566000000E+00 0. -1.
         -4    1    1    2    0  502  0.29426427832E+02  0.70680936146E+02  0.20130311373E+02  0.79163999554E+02  0.00000000000E+00 0. -1.
</event>
<event>
 5    1  0.7625606E-005  0.3905784E+03  0.7818608E-02  0.1032156E+00
         21   -1    0    0  501  502  0.00000000000E+00  0.00000000000E+00  0.96361173941E+03  0.96361173941E+03  0.00000000000E+00 0. -1.
         -4   -1    0    0    0  501 -0.00000000000E+00 -0.00000000000E+00 -0.32119160945E+03  0.32119160945E+03  0.00000000000E+00 0. -1.
        -13    1    1    2    0    0  0.34878595913E+02  0.51369088012E+02 -0.44633006732E+02  0.76468399421E+02  0.10566000000E+00 0.  1.
         13    1    1    2    0    0 -0.36980385270E+03 -0.23086087511E+03  0.14896421411E+02  0.43620356219E+03  0.10566000000E+00 0. -1.
         -4    1    1    2    0  502  0.33492525679E+03  0.17949178710E+03  0.67215671528E+03  0.77213138724E+03  0.00000000000E+00 0. -1.
</event>
<event>
 5    1  0.7625606E-005  0.2598660E+03  0.7818608E-02  0.1025403E+00
         -4   -1    0    0    0  501 -0.00000000000E+00  0.00000000000E+00  0.11353107703E+03  0.11353107703E+03  0.00000000000E+00 0. -1.
         21   -1    0    0  501  502  0.00000000000E+00 -0.00000000000E+00 -0.78345193412E+03  0.78345193412E+03  0.00000000000E+00 0.  1.
        -13    1    1    2    0    0  0.22831818201E+03  0.13314851462E+03 -0.33861257072E+03  0.42955349306E+03  0.10566000000E+00 0.  1.
         13    1    1    2    0    0 -0.19093080154E+03 -0.17534615171E+03 -0.20984639017E+03  0.33352115754E+03  0.10566000000E+00 0. -1.
         -4    1    1    2    0  502 -0.37387380470E+02  0.42197637086E+02 -0.12146189620E+03  0.13390836054E+03  0.00000000000E+00 0. -1.
</event>
<event>
 5    1  0.7625606E-005  0.6275480E+02  0.7818608E-02  0.1250365E+00
          4   -1    0    0  502    0 -0.00000000000E+00  0.00000000000E+00  0.54548388065E+02  0.54548388065E+02  0.00000000000E+00 0.  1.
         21   -1    0    0  501  502  0.00000000000E+00 -0.00000000000E+00 -0.53057244345E+03  0.53057244345E+03  0.00000000000E+00 0.  1.
        -13    1    1    2    0    0 -0.39568455820E+02 -0.27566389488E+02 -0.57729506636E+01  0.48568576763E+02  0.10566000000E+00 0.  1.
         13    1    1    2    0    0  0.36706849618E+02  0.90255912700E+02 -0.46111403594E+02  0.10779515430E+03  0.10566000000E+00 0. -1.
          4    1    1    2  501    0  0.28616062025E+01 -0.62689523212E+02 -0.42413970113E+03  0.42875710045E+03  0.00000000000E+00 0.  1.
</event>
<event>
 5    1  0.7625606E-005  0.1941265E+03  0.7818608E-02  0.1064239E+00
          4   -1    0    0  502    0 -0.00000000000E+00  0.00000000000E+00  0.16440012227E+03  0.16440012227E+03  0.00000000000E+00 0.  1.
         21   -1    0    0  501  502  0.00000000000E+00 -0.00000000000E+00 -0.37065178598E+03  0.37065178598E+03  0.00000000000E+00 0. -1.
        -13    1    1    2    0    0 -0.14414547613E+03 -0.13691912764E+03 -0.96483584369E+00  0.19881073380E+03  0.10566000000E+00 0.  1.
         13    1    1    2    0    0  0.13775458507E+03  0.12764277074E+03 -0.69901027981E+02  0.20038754329E+03  0.10566000000E+00 0. -1.
          4    1    1    2  501    0  0.63908910592E+01  0.92763568991E+01 -0.13538579988E+03  0.13585363115E+03  0.00000000000E+00 0.  1.
</event>
<event>
 5    1  0.7625606E-005  0.4619896E+03  0.7818608E-02  0.9640125E-01
         -4   -1    0    0    0  501 -0.00000000000E+00  0.00000000000E+00  0.13871850786E+04  0.13871850786E+04  0.00000000000E+00 0. -1.
         21   -1    0    0  501  502  0.00000000000E+00 -0.00000000000E+00 -0.36540218972E+03  0.36540218972E+03  0.00000000000E+00 0. -1.
        -13    1    1    2    0    0  0.35401227896E+03  0.12245659340E+02  0.36361746544E+03  0.50763404354E+03  0.10566000000E+00 0.  1.
         13    1    1    2    0    0  0.21200300044E+03  0.72010539042E+02  0.63379697397E+03  0.67218256844E+03  0.10566000000E+00 0. -1.
         -4    1    1    2    0  502 -0.56601527940E+03 -0.84256198381E+02  0.24368449514E+02  0.57277065638E+03  0.00000000000E+00 0. -1.
</event>
<event>
 5    1  0.7625606E-005  0.1039047E+03  0.7818608E-02  0.1162382E+00
          4   -1    0    0  502    0 -0.00000000000E+00  0.00000000000E+00  0.40297729167E+03  0.40297729167E+03  0.00000000000E+00 0.  1.
         21   -1    0    0  501  502  0.00000000000E+00 -0.00000000000E+00 -0.55167841235E+03  0.55167841235E+03  0.00000000000E+00 0.  1.
        -13    1    1    2    0    0 -0.13740353106E+03 -0.35695865494E+02  0.37168228509E+03  0.39787140809E+03  0.10566000000E+00 0.  1.
         13    1    1    2    0    0  0.79332643936E+02 -0.50352930465E+02 -0.26098248876E+03  0.27738232929E+03  0.10566000000E+00 0. -1.
          4    1    1    2  501    0  0.58070887119E+02  0.86048795958E+02 -0.25940091701E+03  0.27940196664E+03  0.00000000000E+00 0.  1.
</event>
<event>
 5    1  0.7625606E-005  0.2064985E+03  0.7818608E-02  0.1055770E+00
         21   -1    0    0  501  502  0.00000000000E+00  0.00000000000E+00  0.43608496193E+03  0.43608496193E+03  0.00000000000E+00 0. -1.
          4   -1    0    0  502    0 -0.00000000000E+00 -0.00000000000E+00 -0.13467551680E+03  0.13467551680E+03  0.00000000000E+00 0.  1.
        -13    1    1    2    0    0 -0.67667516361E+02 -0.20158967361E+03  0.34892680789E+02  0.21548735372E+03  0.10566000000E+00 0.  1.
         13    1    1    2    0    0  0.86710671598E+02  0.17596849275E+03  0.19333058025E+03  0.27542762286E+03  0.10566000000E+00 0. -1.
          4    1    1    2  501    0 -0.19043155238E+02  0.25621180868E+02  0.73186184093E+02  0.79845502144E+02  0.00000000000E+00 0.  1.
</event>
<event>
 5    1  0.7625606E-005  0.2163772E+03  0.7818608E-02  0.1058027E+00
         21   -1    0    0  501  502  0.00000000000E+00  0.00000000000E+00  0.58412850188E+03  0.58412850188E+03  0.00000000000E+00 0. -1.
         -4   -1    0    0    0  501 -0.00000000000E+00 -0.00000000000E+00 -0.49092018330E+03  0.49092018330E+03  0.00000000000E+00 0. -1.
        -13    1    1    2    0    0  0.58568001042E+02  0.15743784243E+03 -0.35872616254E+03  0.39610775785E+03  0.10566000000E+00 0.  1.
         13    1    1    2    0    0 -0.12010980554E+03  0.89524804725E+02 -0.11470999467E+02  0.15024197496E+03  0.10566000000E+00 0. -1.
         -4    1    1    2    0  502  0.61541804497E+02 -0.24696264716E+03  0.46340548059E+03  0.52869895237E+03  0.00000000000E+00 0. -1.
</event>
<event>
 5    1  0.7625606E-005  0.5543322E+03  0.7818608E-02  0.9497479E-01
         -4   -1    0    0    0  501 -0.00000000000E+00  0.00000000000E+00  0.67539648752E+03  0.67539648752E+03  0.00000000000E+00 0. -1.
         21   -1    0    0  501  502  0.00000000000E+00 -0.00000000000E+00 -0.99216941477E+03  0.99216941477E+03  0.00000000000E+00 0. -1.
        -13    1    1    2    0    0  0.18441624557E+03 -0.28772349212E+03  0.17516620285E+03  0.38402782365E+03  0.10566000000E+00 0.  1.
         13    1    1    2    0    0 -0.64604629300E+03  0.26096222253E+02 -0.19424995326E+03  0.67512212304E+03  0.10566000000E+00 0. -1.
         -4    1    1    2    0  502  0.46163004743E+03  0.26162726987E+03 -0.29768917684E+03  0.60841595561E+03  0.00000000000E+00 0. -1.
</event>
<event>
 5    1  0.7625606E-005  0.2311014E+03  0.7818608E-02  0.1067041E+00
         21   -1    0    0  501  502  0.00000000000E+00  0.00000000000E+00  0.22305959827E+03  0.22305959827E+03  0.00000000000E+00 0.  1.
          4   -1    0    0  502    0 -0.00000000000E+00 -0.00000000000E+00 -0.17236579192E+04  0.17236579192E+04  0.00000000000E+00 0.  1.
        -13    1    1    2    0    0  0.27321040580E+03  0.36796214503E+02 -0.10958256484E+04  0.11299698005E+04  0.10566000000E+00 0.  1.
         13    1    1    2    0    0 -0.73544874509E+02  0.76502900579E+02 -0.53998702736E+03  0.55031585771E+03  0.10566000000E+00 0. -1.
          4    1    1    2  501    0 -0.19966553129E+03 -0.11329911508E+03  0.13521435484E+03  0.26643185924E+03  0.00000000000E+00 0.  1.
</event>
<event>
 5    1  0.7625606E-005  0.3649895E+03  0.7818608E-02  0.1002204E+00
         21   -1    0    0  501  502  0.00000000000E+00  0.00000000000E+00  0.36057754914E+03  0.36057754914E+03  0.00000000000E+00 0. -1.
         -4   -1    0    0    0  501 -0.00000000000E+00 -0.00000000000E+00 -0.14728068639E+04  0.14728068639E+04  0.00000000000E+00 0. -1.
        -13    1    1    2    0    0 -0.97409435855E+02 -0.17076070680E+03 -0.70876114600E+03  0.73552035351E+03  0.10566000000E+00 0.  1.
         13    1    1    2    0    0  0.12335506046E+03  0.50651004222E+03 -0.52499414721E+03  0.73985658041E+03  0.10566000000E+00 0. -1.
         -4    1    1    2    0  502 -0.25945624607E+02 -0.33574933542E+03  0.12152597845E+03  0.35800747913E+03  0.00000000000E+00 0. -1.
</event>
<event>
 5    1  0.7625606E-005  0.4864553E+03  0.7818608E-02  0.1001943E+00
         -4   -1    0    0    0  501 -0.00000000000E+00  0.00000000000E+00  0.19036870678E+03  0.19036870678E+03  0.00000000000E+00 0. -1.
         21   -1    0    0  501  502  0.00000000000E+00 -0.00000000000E+00 -0.14973245805E+04  0.14973245805E+04  0.00000000000E+00 0. -1.
        -13    1    1    2    0    0 -0.39922524914E+02 -0.73621290603E+02 -0.61203176386E+02  0.10372917810E+03  0.10566000000E+00 0.  1.
         13    1    1    2    0    0  0.50457724929E+03  0.93391900195E+02 -0.64450858404E+03  0.82383953145E+03  0.10566000000E+00 0. -1.
         -4    1    1    2    0  502 -0.46465472437E+03 -0.19770609592E+02 -0.60124411326E+03  0.76012457770E+03  0.00000000000E+00 0. -1.
</event>
<event>
 5    1  0.7625606E-005  0.2627663E+03  0.7818608E-02  0.1023982E+00
          4   -1    0    0  502    0 -0.00000000000E+00  0.00000000000E+00  0.91758211084E+03  0.91758211084E+03  0.00000000000E+00 0.  1.
         21   -1    0    0  501  502  0.00000000000E+00 -0.00000000000E+00 -0.11922431412E+03  0.11922431412E+03  0.00000000000E+00 0. -1.
        -13    1    1    2    0    0 -0.25576899592E+03  0.78628386883E+02  0.50575078322E+03  0.57217485823E+03  0.10566000000E+00 0.  1.
         13    1    1    2    0    0  0.24697867233E+03 -0.69226094119E+02  0.33409037126E+03  0.42119722699E+03  0.10566000000E+00 0. -1.
          4    1    1    2  501    0  0.87903235938E+01 -0.94022927637E+01 -0.41483357755E+02  0.43434339740E+02  0.00000000000E+00 0.  1.
</event>
<event>
 5    1  0.7625606E-005  0.1705313E+03  0.7818608E-02  0.1082458E+00
         -4   -1    0    0    0  501 -0.00000000000E+00  0.00000000000E+00  0.71067567187E+03  0.71067567187E+03  0.00000000000E+00 0. -1.
         21   -1    0    0  501  502  0.00000000000E+00 -0.00000000000E+00 -0.90986525392E+02  0.90986525392E+02  0.00000000000E+00 0. -1.
        -13    1    1    2    0    0 -0.11363170084E+03 -0.14656703336E+03  0.16336554140E+03  0.24714847761E+03  0.10566000000E+00 0.  1.
         13    1    1    2    0    0  0.92340659641E+02  0.13765426249E+03  0.48796423006E+03  0.51534900251E+03  0.10566000000E+00 0. -1.
         -4    1    1    2    0  502  0.21291041198E+02  0.89127708656E+01 -0.31640624983E+02  0.39164717146E+02  0.00000000000E+00 0. -1.
</event>
<event>
 5    1  0.7625606E-005  0.7273737E+02  0.7818608E-02  0.1219723E+00
         -4   -1    0    0    0  501 -0.00000000000E+00  0.00000000000E+00  0.33360381200E+03  0.33360381200E+03  0.00000000000E+00 0. -1.
         21   -1    0    0  501  502  0.00000000000E+00 -0.00000000000E+00 -0.40483057324E+02  0.40483057324E+02  0.00000000000E+00 0. -1.
        -13    1    1    2    0    0  0.36783316477E+02  0.62294551400E+02  0.62371422887E+02  0.95518736707E+02  0.10566000000E+00 0.  1.
         13    1    1    2    0    0 -0.18817996327E+02 -0.71091098810E+02  0.24382274607E+03  0.25467156100E+03  0.10566000000E+00 0. -1.
         -4    1    1    2    0  502 -0.17965320150E+02  0.87965474098E+01 -0.13073414277E+02  0.23896571622E+02  0.00000000000E+00 0. -1.
</event>
<event>
 5    1  0.7625606E-005  0.2051907E+03  0.7818608E-02  0.1056635E+00
         21   -1    0    0  501  502  0.00000000000E+00  0.00000000000E+00  0.35547642054E+03  0.35547642054E+03  0.00000000000E+00 0.  1.
         -4   -1    0    0    0  501 -0.00000000000E+00 -0.00000000000E+00 -0.40887017833E+03  0.40887017833E+03  0.00000000000E+00 0. -1.
        -13    1    1    2    0    0 -0.36344695758E+02  0.18946647430E+03  0.23104261422E+03  0.30099698095E+03  0.10566000000E+00 0.  1.
         13    1    1    2    0    0  0.43235413331E+02 -0.20193655174E+03 -0.34447972221E+03  0.40163909430E+03  0.10566000000E+00 0. -1.
         -4    1    1    2    0  502 -0.68907175731E+01  0.12470077436E+02  0.60043350209E+02  0.61710523611E+02  0.00000000000E+00 0. -1.
</event>
<event>
 5    1  0.7625606E-005  0.8613184E+02  0.7818608E-02  0.1189795E+00
         21   -1    0    0  501  502  0.00000000000E+00  0.00000000000E+00  0.14686968727E+03  0.14686968727E+03  0.00000000000E+00 0. -1.
          4   -1    0    0  502    0 -0.00000000000E+00 -0.00000000000E+00 -0.99937661039E+02  0.99937661039E+02  0.00000000000E+00 0.  1.
        -13    1    1    2    0    0 -0.83964966660E+02 -0.43450017695E+02 -0.52360937626E+02  0.10807265434E+03  0.10566000000E+00 0.  1.
         13    1    1    2    0    0  0.50259569365E+02  0.35995917234E+02  0.70654447757E+02  0.93881800804E+02  0.10566000000E+00 0. -1.
          4    1    1    2  501    0  0.33705397295E+02  0.74541004610E+01  0.28638516102E+02  0.44852893162E+02  0.00000000000E+00 0.  1.
</event>
<event>
 5    1  0.7625606E-005  0.1564582E+03  0.7818608E-02  0.1101466E+00
         21   -1    0    0  501  502  0.00000000000E+00  0.00000000000E+00  0.94197414887E+03  0.94197414887E+03  0.00000000000E+00 0. -1.
          4   -1    0    0  502    0 -0.00000000000E+00 -0.00000000000E+00 -0.24055523124E+03  0.24055523124E+03  0.00000000000E+00 0.  1.
        -13    1    1    2    0    0  0.10438742189E+03  0.87956006931E+02 -0.15404227967E+03  0.20582037823E+03  0.10566000000E+00 0.  1.
         13    1    1    2    0    0 -0.26958501515E+03 -0.13227044658E+03  0.54436161676E+03  0.62169215244E+03  0.10566000000E+00 0. -1.
          4    1    1    2  501    0  0.16519759326E+03  0.44314439653E+02  0.31109958054E+03  0.35501684945E+03  0.00000000000E+00 0.  1.
</event>
<event>
 5    1  0.7625606E-005  0.3791691E+02  0.7818608E-02  0.1350680E+00
         21   -1    0    0  501  502  0.00000000000E+00  0.00000000000E+00  0.34621454568E+03  0.34621454568E+03  0.00000000000E+00 0.  1.
         -4   -1    0    0    0  501 -0.00000000000E+00 -0.00000000000E+00 -0.17065689293E+02  0.17065689293E+02  0.00000000000E+00 0. -1.
        -13    1    1    2    0    0  0.44758367533E+02 -0.20068012660E+02  0.17420197177E+03  0.18097617172E+03  0.10566000000E+00 0.  1.
         13    1    1    2    0    0 -0.29563731402E+02  0.21350222314E+02  0.11773083149E+02  0.38320527895E+02  0.10566000000E+00 0. -1.
         -4    1    1    2    0  502 -0.15194636131E+02 -0.12822096535E+01  0.14317380146E+03  0.14398353536E+03  0.00000000000E+00 0. -1.
</event>
<event>
 5    1  0.7625606E-005  0.4660291E+03  0.7818608E-02  0.9682028E-01
         -4   -1    0    0    0  501 -0.00000000000E+00  0.00000000000E+00  0.12049088758E+04  0.12049088758E+04  0.00000000000E+00 0. -1.
         21   -1    0    0  501  502  0.00000000000E+00 -0.00000000000E+00 -0.39139818937E+03  0.39139818937E+03  0.00000000000E+00 0. -1.
        -13    1    1    2    0    0  0.20301907961E+03  0.21797702156E+03  0.42285056429E+03  0.51723625115E+03  0.10566000000E+00 0.  1.
         13    1    1    2    0    0 -0.13082212037E+03 -0.54544740477E+03 -0.43301681838E+01  0.56093320465E+03  0.10566000000E+00 0. -1.
         -4    1    1    2    0  502 -0.72196959242E+02  0.32747038321E+03  0.39499029034E+03  0.51813760939E+03  0.00000000000E+00 0. -1.
</event>
<event>
 5    1  0.7625606E-005  0.4733895E+03  0.7818608E-02  0.9825612E-01
         21   -1    0    0  501  502  0.00000000000E+00  0.00000000000E+00  0.22857697216E+03  0.22857697216E+03  0.00000000000E+00 0.  1.
          4   -1    0    0  502    0 -0.00000000000E+00 -0.00000000000E+00 -0.17276015676E+04  0.17276015676E+04  0.00000000000E+00 0.  1.
        -13    1    1    2    0    0 -0.41517844779E+03 -0.69530941532E+02 -0.27775834320E+03  0.50433858044E+03  0.10566000000E+00 0.  1.
         13    1    1    2    0    0 -0.16845168186E+03 -0.40636437180E+02 -0.42087648034E+03  0.45515306438E+03  0.10566000000E+00 0. -1.
          4    1    1    2  501    0  0.58363012965E+03  0.11016737871E+03 -0.80038977189E+03  0.99668689493E+03  0.00000000000E+00 0.  1.
</event>
<event>
 5    1  0.7625606E-005  0.3155724E+03  0.7818608E-02  0.1001077E+00
         21   -1    0    0  501  502  0.00000000000E+00  0.00000000000E+00  0.22448187489E+03  0.22448187489E+03  0.00000000000E+00 0.  1.
          4   -1    0    0  502    0 -0.00000000000E+00 -0.00000000000E+00 -0.13991259885E+04  0.13991259885E+04  0.00000000000E+00 0.  1.
        -13    1    1    2    0    0 -0.31039056339E+03  0.79305365163E+02 -0.11091719695E+04  0.11545103342E+04  0.10566000000E+00 0.  1.
         13    1    1    2    0    0  0.28518762967E+03 -0.86985321338E+02 -0.18220788622E+03  0.34942546445E+03  0.10566000000E+00 0. -1.
          4    1    1    2  501    0  0.25202933717E+02  0.76799561751E+01  0.11673574208E+03  0.11967206472E+03  0.00000000000E+00 0.  1.
</event>
<event>
 5    1  0.7625606E-005  0.4695398E+02  0.7818608E-02  0.1304713E+00
         21   -1    0    0  501  502  0.00000000000E+00  0.00000000000E+00  0.14069781183E+03  0.14069781183E+03  0.00000000000E+00 0. -1.
          4   -1    0    0  502    0 -0.00000000000E+00 -0.00000000000E+00 -0.83763892494E+02  0.83763892494E+02  0.00000000000E+00 0.  1.
        -13    1    1    2    0    0  0.13149896397E+02  0.45153670467E+02 -0.59933090118E+02  0.76182413896E+02  0.10566000000E+00 0.  1.
         13    1    1    2    0    0 -0.65269188510E-01 -0.48165484667E+02  0.22854511489E+02  0.53312831783E+02  0.10566000000E+00 0. -1.
          4    1    1    2  501    0 -0.13084627209E+02  0.30118142002E+01  0.94012497966E+02  0.94966458646E+02  0.00000000000E+00 0.  1.
</event>
<event>
 5    1  0.7625606E-005  0.3707880E+03  0.7818608E-02  0.9817423E-01
         21   -1    0    0  501  502  0.00000000000E+00  0.00000000000E+00  0.10656341119E+04  0.10656341119E+04  0.00000000000E+00 0. -1.
         -4   -1    0    0    0  501 -0.00000000000E+00 -0.00000000000E+00 -0.11241624143E+04  0.11241624143E+04  0.00000000000E+00 0. -1.
        -13    1    1    2    0    0  0.28042463283E+03 -0.26575442009E+03  0.18286769970E+03  0.42743887663E+03  0.10566000000E+00 0.  1.
         13    1    1    2    0    0 -0.38179595428E+03 -0.51813397871E+02 -0.92487292011E+03  0.10019195119E+04  0.10566000000E+00 0. -1.
         -4    1    1    2    0  502  0.10137132145E+03  0.31756781796E+03  0.68347691799E+03  0.76043813768E+03  0.00000000000E+00 0. -1.
</event>
<event>
 5    1  0.7625606E-005  0.3070655E+02  0.7818608E-02  0.1399323E+00
         21   -1    0    0  501  502  0.00000000000E+00  0.00000000000E+00  0.12404182350E+03  0.12404182350E+03  0.00000000000E+00 0. -1.
         -4   -1    0    0    0  501 -0.00000000000E+00 -0.00000000000E+00 -0.77111959183E+02  0.77111959183E+02  0.00000000000E+00 0. -1.
        -13    1    1    2    0    0  0.22054540001E+02  0.53877292603E+00  0.28341241660E+00  0.22063193277E+02  0.10566000000E+00 0.  1.
         13    1    1    2    0    0 -0.34121428915E+02 -0.53816115226E+00 -0.61467540964E+02  0.70305272098E+02  0.10566000000E+00 0. -1.
         -4    1    1    2    0  502  0.12066888913E+02 -0.61177377053E-03  0.10811399286E+03  0.10878531730E+03  0.00000000000E+00 0. -1.
</event>
<event>
 5    1  0.7625606E-005  0.3848944E+03  0.7818608E-02  0.9773714E-01
          4   -1    0    0  502    0 -0.00000000000E+00  0.00000000000E+00  0.13168413806E+04  0.13168413806E+04  0.00000000000E+00 0.  1.
         21   -1    0    0  501  502  0.00000000000E+00 -0.00000000000E+00 -0.64390078365E+03  0.64390078365E+03  0.00000000000E+00 0.  1.
        -13    1    1    2    0    0  0.32581302233E+03 -0.10834056698E+03  0.42492094780E+03  0.54630543382E+03  0.10566000000E+00 0.  1.
         13    1    1    2    0    0 -0.26919694718E+03  0.40341365695E+03  0.71211191524E+03  0.86157586200E+03  0.10566000000E+00 0. -1.
          4    1    1    2  501    0 -0.56616075142E+02 -0.29507308998E+03 -0.46409226609E+03  0.55286086843E+03  0.00000000000E+00 0.  1.
</event>
<event>
 5    1  0.7625606E-005  0.7677725E+02  0.7818608E-02  0.1209991E+00
          4   -1    0    0  502    0 -0.00000000000E+00  0.00000000000E+00  0.12304414062E+03  0.12304414062E+03  0.00000000000E+00 0.  1.
         21   -1    0    0  501  502  0.00000000000E+00 -0.00000000000E+00 -0.10621816853E+04  0.10621816853E+04  0.00000000000E+00 0.  1.
        -13    1    1    2    0    0  0.70962371536E+02 -0.27985052964E+02  0.93793569502E+02  0.12089692390E+03  0.10566000000E+00 0.  1.
         13    1    1    2    0    0 -0.80479605332E+02  0.15461781844E+02 -0.91767314740E+02  0.12303367340E+03  0.10566000000E+00 0. -1.
          4    1    1    2  501    0  0.95172337962E+01  0.12523271119E+02 -0.94116379945E+03  0.94129522864E+03  0.00000000000E+00 0.  1.
</event>
<event>
 5    1  0.7625606E-005  0.5143569E+03  0.7818608E-02  0.1009616E+00
          4   -1    0    0  502    0 -0.00000000000E+00  0.00000000000E+00  0.18730999509E+04  0.18730999509E+04  0.00000000000E+00 0.  1.
         21   -1    0    0  501  502  0.00000000000E+00 -0.00000000000E+00 -0.15816604102E+03  0.15816604102E+03  0.00000000000E+00 0.  1.
        -13    1    1    2    0    0 -0.49303151384E+03  0.21466181576E+03  0.73811060807E+03  0.91321796395E+03  0.10566000000E+00 0.  1.
         13    1    1    2    0    0  0.36382691325E+02 -0.41582885365E+02  0.11129337849E+03  0.12425402948E+03  0.10566000000E+00 0. -1.
          4    1    1    2  501    0  0.45664882251E+03 -0.17307893040E+03  0.86552992329E+03  0.99379399846E+03  0.00000000000E+00 0.  1.
</event>
<event>
 5    1  0.7625606E-005  0.3888881E+03  0.7818608E-02  0.9774772E-01
         21   -1    0    0  501  502  0.00000000000E+00  0.00000000000E+00  0.28472438518E+03  0.28472438518E+03  0.00000000000E+00 0.  1.
          4   -1    0    0  502    0 -0.00000000000E+00 -0.00000000000E+00 -0.15924666217E+04  0.15924666217E+04  0.00000000000E+00 0.  1.
        -13    1    1    2    0    0 -0.19835710429E+03 -0.42010303221E+03 -0.58874955297E+03  0.74997209667E+03  0.10566000000E+00 0.  1.
         13    1    1    2    0    0  0.36825852465E+03  0.51226617981E+02 -0.59674493906E+03  0.70309532840E+03  0.10566000000E+00 0. -1.
          4    1    1    2  501    0 -0.16990142036E+03  0.36887641423E+03 -0.12224774450E+03  0.42412358181E+03  0.00000000000E+00 0.  1.
</event>
<event>
 5    1  0.7625606E-005  0.4216074E+03  0.7818608E-02  0.9798056E-01
         -4   -1    0    0    0  501 -0.00000000000E+00  0.00000000000E+00  0.23140464802E+04  0.23140464802E+04  0.00000000000E+00 0. -1.
         21   -1    0    0  501  502  0.00000000000E+00 -0.00000000000E+00 -0.21318719561E+03  0.21318719561E+03  0.00000000000E+00 0. -1.
        -13    1    1    2    0    0 -0.85081767532E+02 -0.25564499439E+03  0.93376625406E+03  0.97186043170E+03  0.10566000000E+00 0.  1.
         13    1    1    2    0    0  0.45368821722E+03  0.35842427063E+03  0.95892543067E+03  0.11197495028E+04  0.10566000000E+00 0. -1.
         -4    1    1    2    0  502 -0.36860644969E+03 -0.10277927624E+03  0.20816759984E+03  0.43562374132E+03  0.00000000000E+00 0. -1.
</event>
<event>
 5    1  0.7625606E-005  0.3696408E+03  0.7818608E-02  0.9821067E-01
          4   -1    0    0  502    0 -0.00000000000E+00  0.00000000000E+00  0.25288995124E+04  0.25288995124E+04  0.00000000000E+00 0.  1.
         21   -1    0    0  501  502  0.00000000000E+00 -0.00000000000E+00 -0.19067089718E+03  0.19067089718E+03  0.00000000000E+00 0.  1.
        -13    1    1    2    0    0 -0.68398104705E+02 -0.45941429276E+03  0.25920986335E+03  0.53191123089E+03  0.10566000000E+00 0.  1.
         13    1    1    2    0    0 -0.18597531387E+02  0.33620853557E+03  0.50828777312E+03  0.60970363213E+03  0.10566000000E+00 0. -1.
          4    1    1    2  501    0  0.86995636092E+02  0.12320575719E+03  0.15707309788E+04  0.15779555466E+04  0.00000000000E+00 0.  1.
</event>
<event>
 5    1  0.7625606E-005  0.2410937E+03  0.7818608E-02  0.1035114E+00
         -4   -1    0    0    0  501 -0.00000000000E+00  0.00000000000E+00  0.19092665527E+04  0.19092665527E+04  0.00000000000E+00 0. -1.
         21   -1    0    0  501  502  0.00000000000E+00 -0.00000000000E+00 -0.11763510410E+03  0.11763510410E+03  0.00000000000E+00 0. -1.
        -13    1    1    2    0    0 -0.11335263704E+03 -0.13662903251E+03  0.27598284710E+03  0.32815066038E+03  0.10566000000E+00 0.  1.
         13    1    1    2    0    0  0.24540112581E+03  0.12670898242E+03  0.15396053679E+04  0.15641808012E+04  0.10566000000E+00 0. -1.
         -4    1    1    2    0  502 -0.13204848877E+03  0.99200500888E+01 -0.23956766426E+02  0.13457019521E+03  0.00000000000E+00 0. -1.
</event>
<event>
 5    1  0.7625606E-005  0.5485708E+03  0.7818608E-02  0.9607410E-01
         21   -1    0    0  501  502  0.00000000000E+00  0.00000000000E+00  0.81719971442E+03  0.81719971442E+03  0.00000000000E+00 0. -1.
         -4   -1    0    0    0  501 -0.00000000000E+00 -0.00000000000E+00 -0.74015173934E+03  0.74015173934E+03  0.00000000000E+00 0. -1.
        -13    1    1    2    0    0 -0.22726526269E+03  0.69158238905E+02 -0.28806139066E+03  0.37337881245E+03  0.10566000000E+00 0.  1.
         13    1    1    2    0    0  0.43410817111E+03 -0.46999925651E+03  0.35736596148E+03  0.73284353510E+03  0.10566000000E+00 0. -1.
         -4    1    1    2    0  502 -0.20684290842E+03  0.40084101761E+03  0.77434042595E+01  0.45112910621E+03  0.00000000000E+00 0. -1.
</event>
<event>
 5    1  0.7625606E-005  0.3488528E+03  0.7818608E-02  0.9912076E-01
         21   -1    0    0  501  502  0.00000000000E+00  0.00000000000E+00  0.43348715652E+03  0.43348715652E+03  0.00000000000E+00 0.  1.
          4   -1    0    0  502    0 -0.00000000000E+00 -0.00000000000E+00 -0.13637004566E+04  0.13637004566E+04  0.00000000000E+00 0.  1.
        -13    1    1    2    0    0 -0.40308549611E+03  0.38975805040E+03 -0.47673752846E+03  0.73598093537E+03  0.10566000000E+00 0.  1.
         13    1    1    2    0    0  0.31400185793E+03 -0.78394858839E+02 -0.61825441420E+03  0.69784056382E+03  0.10566000000E+00 0. -1.
          4    1    1    2  501    0  0.89083638184E+02 -0.31136319156E+03  0.16477864262E+03  0.36336611388E+03  0.00000000000E+00 0.  1.
</event>
<event>
 5    1  0.7625606E-005  0.3616467E+03  0.7818608E-02  0.9884658E-01
         -4   -1    0    0    0  501 -0.00000000000E+00  0.00000000000E+00  0.89076732370E+03  0.89076732370E+03  0.00000000000E+00 0. -1.
         21   -1    0    0  501  502  0.00000000000E+00 -0.00000000000E+00 -0.67370728233E+03  0.67370728233E+03  0.00000000000E+00 0. -1.
        -13    1    1    2    0    0  0.87360460118E+02 -0.30618979810E+03 -0.71719998638E+02  0.32638598595E+03  0.10566000000E+00 0.  1.
         13    1    1    2    0    0  0.21250957581E+03  0.57262712330E+02  0.66251852363E+03  0.69811900371E+03  0.10566000000E+00 0. -1.
         -4    1    1    2    0  502 -0.29987003593E+03  0.24892708577E+03 -0.37373848362E+03  0.53996961638E+03  0.00000000000E+00 0. -1.
</event>
<event>
 5    1  0.7625606E-005  0.4984852E+03  0.7818608E-02  0.1029115E+00
         21   -1    0    0  501  502  0.00000000000E+00  0.00000000000E+00  0.35688553232E+03  0.35688553232E+03  0.00000000000E+00 0.  1.
          4   -1    0    0  502    0 -0.00000000000E+00 -0.00000000000E+00 -0.76476980298E+03  0.76476980298E+03  0.00000000000E+00 0.  1.
        -13    1    1    2    0    0  0.18412452114E+03 -0.48087453548E+03 -0.17047600689E+03  0.54240597181E+03  0.10566000000E+00 0.  1.
         13    1    1    2    0    0 -0.79543383268E+01  0.31827233580E+02 -0.54009990837E+02  0.63192836381E+02  0.10566000000E+00 0. -1.
          4    1    1    2  501    0 -0.17617018281E+03  0.44904730190E+03 -0.18339827293E+03  0.51605652711E+03  0.00000000000E+00 0.  1.
</event>
<event>
 5    1  0.7625606E-005  0.3544373E+03  0.7818608E-02  0.9870736E-01
         21   -1    0    0  501  502  0.00000000000E+00  0.00000000000E+00  0.50343731469E+03  0.50343731469E+03  0.00000000000E+00 0.  1.
         -4   -1    0    0    0  501 -0.00000000000E+00 -0.00000000000E+00 -0.33077460478E+03  0.33077460478E+03  0.00000000000E+00 0. -1.
        -13    1    1    2    0    0  0.12566732275E+03 -0.34349240735E+03  0.92742837961E+02  0.37733347992E+03  0.10566000000E+00 0.  1.
         13    1    1    2    0    0 -0.13926294143E+03  0.31777136986E+03 -0.25146975579E+02  0.34785800538E+03  0.10566000000E+00 0. -1.
         -4    1    1    2    0  502  0.13595618686E+02  0.25721037488E+02  0.10506684753E+03  0.10902043417E+03  0.00000000000E+00 0. -1.
</event>
<event>
 5    1  0.7625606E-005  0.4736821E+03  0.7818608E-02  0.9629099E-01
         21   -1    0    0  501  502  0.00000000000E+00  0.00000000000E+00  0.55651324490E+03  0.55651324490E+03  0.00000000000E+00 0. -1.
         -4   -1    0    0    0  501 -0.00000000000E+00 -0.00000000000E+00 -0.15920730603E+04  0.15920730603E+04  0.00000000000E+00 0. -1.
        -13    1    1    2    0    0  0.34013936846E+03 -0.32449943538E+02 -0.10100568549E+04  0.10662845071E+04  0.10566000000E+00 0.  1.
         13    1    1    2    0    0 -0.58174292119E+03  0.34583343889E+03 -0.85209263590E+02  0.68211892187E+03  0.10566000000E+00 0. -1.
         -4    1    1    2    0  502  0.24160355273E+03 -0.31338349536E+03  0.59706303013E+02  0.40018287629E+03  0.00000000000E+00 0. -1.
</event>
<event>
 5    1  0.7625606E-005  0.5029659E+03  0.7818608E-02  0.9751029E-01
         21   -1    0    0  501  502  0.00000000000E+00  0.00000000000E+00  0.90943584096E+03  0.90943584096E+03  0.00000000000E+00 0. -1.
         -4   -1    0    0    0  501 -0.00000000000E+00 -0.00000000000E+00 -0.40700888473E+03  0.40700888473E+03  0.00000000000E+00 0. -1.
        -13    1    1    2    0    0  0.44257226646E+02 -0.18115486080E+03  0.74945678838E+02  0.20097923187E+03  0.10566000000E+00 0.  1.
         13    1    1    2    0    0  0.73397122196E+01 -0.40046864602E+03  0.15475281535E+02  0.40083475812E+03  0.10566000000E+00 0. -1.
         -4    1    1    2    0  502 -0.51596938865E+02  0.58162350682E+03  0.41200599586E+03  0.71463073570E+03  0.00000000000E+00 0. -1.
</event>
<event>
 5    1  0.7625606E-005  0.3136264E+03  0.7818608E-02  0.1010471E+00
         21   -1    0    0  501  502  0.00000000000E+00  0.00000000000E+00  0.70211517880E+03  0.70211517880E+03  0.00000000000E+00 0.  1.
          4   -1    0    0  502    0 -0.00000000000E+00 -0.00000000000E+00 -0.59776203509E+03  0.59776203509E+03  0.00000000000E+00 0.  1.
        -13    1    1    2    0    0  0.28996424595E+03 -0.13344948316E+02  0.35245507839E+03  0.45659823151E+03  0.10566000000E+00 0.  1.
         13    1    1    2    0    0 -0.10929392269E+03  0.34373143945E+03 -0.29213414623E+03  0.46415389104E+03  0.10566000000E+00 0. -1.
          4    1    1    2  501    0 -0.18067032326E+03 -0.33038649114E+03  0.44032211556E+02  0.37912509134E+03  0.00000000000E+00 0.  1.
</event>
<event>
 5    1  0.7625606E-005  0.4887763E+03  0.7818608E-02  0.9771315E-01
         -4   -1    0    0    0  501 -0.00000000000E+00  0.00000000000E+00  0.20936417957E+04  0.20936417957E+04  0.00000000000E+00 0. -1.
         21   -1    0    0  501  502  0.00000000000E+00 -0.00000000000E+00 -0.19396426025E+03  0.19396426025E+03  0.00000000000E+00 0. -1.
        -13    1    1    2    0    0 -0.97445005298E+02  0.16252737112E+03  0.65057149852E+03  0.67760900324E+03  0.10566000000E+00 0.  1.
         13    1    1    2    0    0 -0.42476508361E+03  0.89672454073E+02  0.48846207726E+03  0.65349960778E+03  0.10566000000E+00 0. -1.
         -4    1    1    2    0  502  0.52221008891E+03 -0.25219982519E+03  0.76064395965E+03  0.95649744492E+03  0.00000000000E+00 0. -1.
</event>
<event>
 5    1  0.7625606E-005  0.6438198E+03  0.7818608E-02  0.9208720E-01
          4   -1    0    0  502    0 -0.00000000000E+00  0.00000000000E+00  0.17651541381E+04  0.17651541381E+04  0.00000000000E+00 0.  1.
         21   -1    0    0  501  502  0.00000000000E+00 -0.00000000000E+00 -0.38550082875E+03  0.38550082875E+03  0.00000000000E+00 0. -1.
        -13    1    1    2    0    0 -0.40827394288E+03 -0.68580398312E+03  0.88174233696E+03  0.11893209305E+04  0.10566000000E+00 0.  1.
         13    1    1    2    0    0  0.27498972938E+03  0.39422990144E+03  0.19008833287E+03  0.51688504710E+03  0.10566000000E+00 0. -1.
          4    1    1    2  501    0  0.13328421350E+03  0.29157408168E+03  0.30782263954E+03  0.44444898930E+03  0.00000000000E+00 0.  1.
</event>
<event>
 5    1  0.7625606E-005  0.4720925E+03  0.7818608E-02  0.9588424E-01
         21   -1    0    0  501  502  0.00000000000E+00  0.00000000000E+00  0.91583832450E+03  0.91583832450E+03  0.00000000000E+00 0. -1.
         -4   -1    0    0    0  501 -0.00000000000E+00 -0.00000000000E+00 -0.12012680653E+04  0.12012680653E+04  0.00000000000E+00 0. -1.
        -13    1    1    2    0    0 -0.30481419844E+03  0.25711704095E+03 -0.82848194146E+03  0.91945810498E+03  0.10566000000E+00 0.  1.
         13    1    1    2    0    0  0.13975693479E+01  0.37040796895E+03  0.18559017266E+03  0.41430392227E+03  0.10566000000E+00 0. -1.
         -4    1    1    2    0  502  0.30341662910E+03 -0.62752500989E+03  0.35746202801E+03  0.78334436254E+03  0.00000000000E+00 0. -1.
</event>
<event>
 5    1  0.7625606E-005  0.7928907E+02  0.7818608E-02  0.1204268E+00
         -4   -1    0    0    0  501 -0.00000000000E+00  0.00000000000E+00  0.58406441974E+02  0.58406441974E+02  0.00000000000E+00 0. -1.
         21   -1    0    0  501  502  0.00000000000E+00 -0.00000000000E+00 -0.24636935950E+03  0.24636935950E+03  0.00000000000E+00 0. -1.
        -13    1    1    2    0    0 -0.64526326234E+02  0.30759747634E+02 -0.13791645870E+02  0.72801301579E+02  0.10566000000E+00 0.  1.
         13    1    1    2    0    0  0.84390154210E+02 -0.39885636444E+02 -0.49991612492E+02  0.10588547873E+03  0.10566000000E+00 0. -1.
         -4    1    1    2    0  502 -0.19863827975E+02  0.91258888099E+01 -0.12417965917E+03  0.12608902117E+03  0.00000000000E+00 0. -1.
</event>
<event>
 5    1  0.7625606E-005  0.4634044E+03  0.7818608E-02  0.9717158E-01
         21   -1    0    0  501  502  0.00000000000E+00  0.00000000000E+00  0.30778020244E+03  0.30778020244E+03  0.00000000000E+00 0.  1.
         -4   -1    0    0    0  501 -0.00000000000E+00 -0.00000000000E+00 -0.22853375110E+04  0.22853375110E+04  0.00000000000E+00 0. -1.
        -13    1    1    2    0    0 -0.24766489566E+03  0.10260074566E+03 -0.13705703026E+04  0.13965413632E+04  0.10566000000E+00 0.  1.
         13    1    1    2    0    0  0.21534138790E+03  0.39103649563E+03 -0.53482160465E+03  0.69664597481E+03  0.10566000000E+00 0. -1.
         -4    1    1    2    0  502  0.32323507758E+02 -0.49363724130E+03 -0.72165401321E+02  0.49993037545E+03  0.00000000000E+00 0. -1.
</event>
<event>
 5    1  0.7625606E-005  0.4977118E+03  0.7818608E-02  0.9505782E-01
         21   -1    0    0  501  502  0.00000000000E+00  0.00000000000E+00  0.75692163454E+03  0.75692163454E+03  0.00000000000E+00 0. -1.
          4   -1    0    0  502    0 -0.00000000000E+00 -0.00000000000E+00 -0.88425818371E+03  0.88425818371E+03  0.00000000000E+00 0.  1.
        -13    1    1    2    0    0 -0.10536358498E+03 -0.31024567153E+03 -0.20353537266E+03  0.38572078092E+03  0.10566000000E+00 0.  1.
         13    1    1    2    0    0 -0.34354309013E+03 -0.30308832511E+03  0.17205697393E+03  0.48937511281E+03  0.10566000000E+00 0. -1.
          4    1    1    2  501    0  0.44890667511E+03  0.61333399665E+03 -0.95858150436E+02  0.76608392452E+03  0.00000000000E+00 0.  1.
</event>
<event>
 5    1  0.7625606E-005  0.1987979E+03  0.7818608E-02  0.1060963E+00
         21   -1    0    0  501  502  0.00000000000E+00  0.00000000000E+00  0.41011636864E+02  0.41011636864E+02  0.00000000000E+00 0. -1.
          4   -1    0    0  502    0 -0.00000000000E+00 -0.00000000000E+00 -0.10974960443E+04  0.10974960443E+04  0.00000000000E+00 0.  1.
        -13    1    1    2    0    0 -0.14048784022E+03  0.14083397060E+03 -0.65704622771E+03  0.68649894176E+03  0.10566000000E+00 0.  1.
         13    1    1    2    0    0  0.13242984783E+03 -0.14824008088E+03 -0.38919338023E+03  0.43701748769E+03  0.10566000000E+00 0. -1.
          4    1    1    2  501    0  0.80579923860E+01  0.74061102720E+01 -0.10244799462E+02  0.14991251671E+02  0.00000000000E+00 0.  1.
</event>
<event>
 5    1  0.7625606E-005  0.7052055E+03  0.7818608E-02  0.9115461E-01
         -4   -1    0    0    0  501 -0.00000000000E+00  0.00000000000E+00  0.17566563483E+04  0.17566563483E+04  0.00000000000E+00 0. -1.
         21   -1    0    0  501  502  0.00000000000E+00 -0.00000000000E+00 -0.55509299875E+03  0.55509299875E+03  0.00000000000E+00 0. -1.
        -13    1    1    2    0    0 -0.65610793148E+03 -0.23776957256E+03  0.78766189582E+03  0.10523417984E+04  0.10566000000E+00 0.  1.
         13    1    1    2    0    0  0.66999479343E+03  0.24578544907E+03  0.68418913915E+03  0.98864467808E+03  0.10566000000E+00 0. -1.
         -4    1    1    2    0  502 -0.13886861950E+02 -0.80158765103E+01 -0.27028768539E+03  0.27076287058E+03  0.00000000000E+00 0. -1.
</event>
<event>
 5    1  0.7625606E-005  0.1976798E+02  0.7818608E-02  0.1513108E+00
         21   -1    0    0  501  502  0.00000000000E+00  0.00000000000E+00  0.19597108798E+02  0.19597108798E+02  0.00000000000E+00 0.  1.
          4   -1    0    0  502    0 -0.00000000000E+00 -0.00000000000E+00 -0.41164623418E+02  0.41164623418E+02  0.00000000000E+00 0.  1.
        -13    1    1    2    0    0 -0.12137885822E+02 -0.17619384138E+02 -0.22024724144E+02  0.30706198190E+02  0.10566000000E+00 0.  1.
         13    1    1    2    0    0  0.14737793042E+01  0.18469849569E+02 -0.30901423614E+01  0.18784768095E+02  0.10566000000E+00 0. -1.
          4    1    1    2  501    0  0.10664106518E+02 -0.85046543112E+00  0.35473518861E+01  0.11270765931E+02  0.00000000000E+00 0.  1.
</event>
<event>
 5    1  0.7625606E-005  0.1124814E+03  0.7818608E-02  0.1172107E+00
          4   -1    0    0  502    0 -0.00000000000E+00  0.00000000000E+00  0.26019504044E+03  0.26019504044E+03  0.00000000000E+00 0.  1.
         21   -1    0    0  501  502  0.00000000000E+00 -0.00000000000E+00 -0.83851133341E+02  0.83851133341E+02  0.00000000000E+00 0.  1.
        -13    1    1    2    0    0 -0.85779830517E+02 -0.61719060880E+02  0.69117067938E+02  0.12627193688E+03  0.10566000000E+00 0.  1.
         13    1    1    2    0    0 -0.38224258751E+02  0.44430247842E+02  0.60230955928E+02  0.84041180955E+02  0.10566000000E+00 0. -1.
          4    1    1    2  501    0  0.12400408927E+03  0.17288813038E+02  0.46995883232E+02  0.13373305594E+03  0.00000000000E+00 0.  1.
</event>
<event>
 5    1  0.7625606E-005  0.4579499E+03  0.7818608E-02  0.9719034E-01
          4   -1    0    0  502    0 -0.00000000000E+00  0.00000000000E+00  0.21546376810E+04  0.21546376810E+04  0.00000000000E+00 0.  1.
         21   -1    0    0  501  502  0.00000000000E+00 -0.00000000000E+00 -0.19800710555E+03  0.19800710555E+03  0.00000000000E+00 0.  1.
        -13    1    1    2    0    0 -0.35251682925E+03  0.15664193308E+03  0.51854737430E+03  0.64629420597E+03  0.10566000000E+00 0.  1.
         13    1    1    2    0    0 -0.12335238714E+03  0.24686444172E+03  0.29418120221E+03  0.40336144448E+03  0.10566000000E+00 0. -1.
          4    1    1    2  501    0  0.47586921639E+03 -0.40350637481E+03  0.11439019989E+04  0.13029891361E+04  0.00000000000E+00 0.  1.
</event>
<event>
 5    1  0.7625606E-005  0.3295936E+03  0.7818608E-02  0.9957880E-01
         -4   -1    0    0    0  501 -0.00000000000E+00  0.00000000000E+00  0.14612912826E+04  0.14612912826E+04  0.00000000000E+00 0. -1.
         21   -1    0    0  501  502  0.00000000000E+00 -0.00000000000E+00 -0.80429619851E+03  0.80429619851E+03  0.00000000000E+00 0. -1.
        -13    1    1    2    0    0  0.96005594639E+02  0.30307661067E+03  0.95442578833E+03  0.10059826553E+04  0.10566000000E+00 0.  1.
         13    1    1    2    0    0 -0.13746270654E+03 -0.33407199484E+03  0.41219599555E+03  0.54809273242E+03  0.10566000000E+00 0. -1.
         -4    1    1    2    0  502  0.41457111897E+02  0.30995384175E+02 -0.70962669980E+03  0.71151209339E+03  0.00000000000E+00 0. -1.
</event>
<event>
 5    1  0.7625606E-005  0.3785902E+03  0.7818608E-02  0.1039785E+00
         21   -1    0    0  501  502  0.00000000000E+00  0.00000000000E+00  0.94422482992E+03  0.94422482992E+03  0.00000000000E+00 0. -1.
         -4   -1    0    0    0  501 -0.00000000000E+00 -0.00000000000E+00 -0.33570582781E+03  0.33570582781E+03  0.00000000000E+00 0. -1.
        -13    1    1    2    0    0  0.53793234904E+02  0.48266033145E+01 -0.36199971945E+02  0.65018899974E+02  0.10566000000E+00 0.  1.
         13    1    1    2    0    0 -0.28207318495E+03  0.26112855530E+03  0.75522019041E+03  0.84741427368E+03  0.10566000000E+00 0. -1.
         -4    1    1    2    0  502  0.22827995005E+03 -0.26595515862E+03 -0.11050121636E+03  0.36749748408E+03  0.00000000000E+00 0. -1.
</event>
<event>
 5    1  0.7625606E-005  0.4955402E+03  0.7818608E-02  0.9859947E-01
         -4   -1    0    0    0  501 -0.00000000000E+00  0.00000000000E+00  0.27309991555E+03  0.27309991555E+03  0.00000000000E+00 0. -1.
         21   -1    0    0  501  502  0.00000000000E+00 -0.00000000000E+00 -0.14332378786E+04  0.14332378786E+04  0.00000000000E+00 0. -1.
        -13    1    1    2    0    0  0.13118414668E+03 -0.29660839000E+02  0.42645154618E+02  0.14109452891E+03  0.10566000000E+00 0.  1.
         13    1    1    2    0    0 -0.27089089803E+03 -0.43699001404E+03 -0.59575130690E+03  0.78693187878E+03  0.10566000000E+00 0. -1.
         -4    1    1    2    0  502  0.13970675134E+03  0.46665085304E+03 -0.60703181078E+03  0.77831138647E+03  0.00000000000E+00 0. -1.
</event>
<event>
 5    1  0.7625606E-005  0.4636826E+03  0.7818608E-02  0.9725676E-01
          4   -1    0    0  502    0 -0.00000000000E+00  0.00000000000E+00  0.10837350286E+04  0.10837350286E+04  0.00000000000E+00 0.  1.
         21   -1    0    0  501  502  0.00000000000E+00 -0.00000000000E+00 -0.42979953277E+03  0.42979953277E+03  0.00000000000E+00 0.  1.
        -13    1    1    2    0    0  0.45251106073E+03  0.62125526873E+02 -0.15557453693E+02  0.45702066332E+03  0.10566000000E+00 0.  1.
         13    1    1    2    0    0  0.31985155878E+02 -0.25782797851E+03  0.37652411229E+03  0.45745899816E+03  0.10566000000E+00 0. -1.
          4    1    1    2  501    0 -0.48449621661E+03  0.19570245164E+03  0.29296883727E+03  0.59905489990E+03  0.00000000000E+00 0.  1.
</event>
<event>
 5    1  0.7625606E-005  0.4923783E+03  0.7818608E-02  0.9494836E-01
         21   -1    0    0  501  502  0.00000000000E+00  0.00000000000E+00  0.26585445733E+03  0.26585445733E+03  0.00000000000E+00 0. -1.
         -4   -1    0    0    0  501 -0.00000000000E+00 -0.00000000000E+00 -0.23429668253E+04  0.23429668253E+04  0.00000000000E+00 0. -1.
        -13    1    1    2    0    0  0.39675289351E+03 -0.33885370932E+03 -0.88473720700E+03  0.10271293158E+04  0.10566000000E+00 0.  1.
         13    1    1    2    0    0 -0.50162411770E+03  0.68098250637E+02 -0.11879383007E+04  0.12913022669E+04  0.10566000000E+00 0. -1.
         -4    1    1    2    0  502  0.10487122419E+03  0.27075545869E+03 -0.44368603099E+01  0.29038969989E+03  0.00000000000E+00 0. -1.
</event>
<event>
 5    1  0.7625606E-005  0.5061152E+03  0.7818608E-02  0.9464669E-01
          4   -1    0    0  502    0 -0.00000000000E+00  0.00000000000E+00  0.15663175589E+04  0.15663175589E+04  0.00000000000E+00 0.  1.
         21   -1    0    0  501  502  0.00000000000E+00 -0.00000000000E+00 -0.33557548798E+03  0.33557548798E+03  0.00000000000E+00 0. -1.
        -13    1    1    2    0    0 -0.36221768839E+03 -0.57367424738E+03  0.85652803604E+03  0.10926774838E+04  0.10566000000E+00 0.  1.
         13    1    1    2    0    0  0.16725890834E+03  0.34163306738E+03  0.32874170631E+03  0.50275224095E+03  0.10566000000E+00 0. -1.
          4    1    1    2  501    0  0.19495878005E+03  0.23204117999E+03  0.45472328528E+02  0.30646332210E+03  0.00000000000E+00 0.  1.
</event>
<event>
 5    1  0.7625606E-005  0.6140087E+03  0.7818608E-02  0.9258028E-01
         21   -1    0    0  501  502  0.00000000000E+00  0.00000000000E+00  0.58667312413E+03  0.58667312413E+03  0.00000000000E+00 0.  1.
         -4   -1    0    0    0  501 -0.00000000000E+00 -0.00000000000E+00 -0.12088264330E+04  0.12088264330E+04  0.00000000000E+00 0. -1.
        -13    1    1    2    0    0  0.53489347434E+03  0.12595887984E+02 -0.10129007330E+03  0.54454510869E+03  0.10566000000E+00 0.  1.
         13    1    1    2    0    0 -0.63931868202E+03 -0.20343493356E+03 -0.69967171301E+03  0.96935786298E+03  0.10566000000E+00 0. -1.
         -4    1    1    2    0  502  0.10442520767E+03  0.19083904557E+03  0.17880847747E+03  0.28159658543E+03  0.00000000000E+00 0. -1.
</event>
<event>
 5    1  0.7625606E-005  0.5673173E+02  0.7818608E-02  0.1266570E+00
         21   -1    0    0  501  502  0.00000000000E+00  0.00000000000E+00  0.43792088554E+03  0.43792088554E+03  0.00000000000E+00 0. -1.
          4   -1    0    0  502    0 -0.00000000000E+00 -0.00000000000E+00 -0.73402077554E+02  0.73402077554E+02  0.00000000000E+00 0.  1.
        -13    1    1    2    0    0 -0.17088147655E+02 -0.50610626689E+02 -0.43491366647E+02  0.68883600813E+02  0.10566000000E+00 0.  1.
         13    1    1    2    0    0  0.36091698328E+02  0.93350871802E+02  0.15066751484E+03  0.18088036694E+03  0.10566000000E+00 0. -1.
          4    1    1    2  501    0 -0.19003550674E+02 -0.42740245112E+02  0.25734265979E+03  0.26155899533E+03  0.00000000000E+00 0.  1.
</event>
<event>
 5    1  0.7625606E-005  0.1115926E+03  0.7818608E-02  0.1146681E+00
         21   -1    0    0  501  502  0.00000000000E+00  0.00000000000E+00  0.22591486576E+03  0.22591486576E+03  0.00000000000E+00 0. -1.
          4   -1    0    0  502    0 -0.00000000000E+00 -0.00000000000E+00 -0.20675425491E+03  0.20675425491E+03  0.00000000000E+00 0.  1.
        -13    1    1    2    0    0 -0.11106471998E+03  0.33363071128E+02 -0.16949711281E+03  0.20537222050E+03  0.10566000000E+00 0.  1.
         13    1    1    2    0    0  0.84622513518E+02 -0.90154882130E+01  0.98112833651E+02  0.12987835891E+03  0.10566000000E+00 0. -1.
          4    1    1    2  501    0  0.26442206464E+02 -0.24347582915E+02  0.90544890005E+02  0.97418541267E+02  0.00000000000E+00 0.  1.
</event>
<event>
 5    1  0.7625606E-005  0.4073920E+02  0.7818608E-02  0.1334887E+00
         21   -1    0    0  501  502  0.00000000000E+00  0.00000000000E+00  0.68367853801E+03  0.68367853801E+03  0.00000000000E+00 0.  1.
          4   -1    0    0  502    0 -0.00000000000E+00 -0.00000000000E+00 -0.32433581946E+02  0.32433581946E+02  0.00000000000E+00 0.  1.
        -13    1    1    2    0    0 -0.19383965670E+02  0.34922625335E+02 -0.15049741460E+02  0.42682944691E+02  0.10566000000E+00 0.  1.
         13    1    1    2    0    0  0.43514496073E+02 -0.40670889375E+02  0.27633071165E+03  0.28267703475E+03  0.10566000000E+00 0. -1.
          4    1    1    2  501    0 -0.24130530402E+02  0.57482640394E+01  0.38996398588E+03  0.39075214052E+03  0.00000000000E+00 0.  1.
</event>
<event>
 5    1  0.7625606E-005  0.2634677E+03  0.7818608E-02  0.1023641E+00
          4   -1    0    0  502    0 -0.00000000000E+00  0.00000000000E+00  0.11014798647E+04  0.11014798647E+04  0.00000000000E+00 0.  1.
         21   -1    0    0  501  502  0.00000000000E+00 -0.00000000000E+00 -0.12017590874E+03  0.12017590874E+03  0.00000000000E+00 0. -1.
        -13    1    1    2    0    0  0.15621383045E+03  0.19137091605E+03  0.28778910055E+03  0.37927320745E+03  0.10566000000E+00 0.  1.
         13    1    1    2    0    0 -0.96143920304E+02 -0.26117261924E+03  0.69670675931E+03  0.75023670271E+03  0.10566000000E+00 0. -1.
          4    1    1    2  501    0 -0.60069910141E+02  0.69801703193E+02 -0.31919038920E+01  0.92145863301E+02  0.00000000000E+00 0.  1.
</event>
<event>
 5    1  0.7625606E-005  0.2002305E+03  0.7818608E-02  0.1101948E+00
         21   -1    0    0  501  502  0.00000000000E+00  0.00000000000E+00  0.19433528218E+03  0.19433528218E+03  0.00000000000E+00 0. -1.
         -4   -1    0    0    0  501 -0.00000000000E+00 -0.00000000000E+00 -0.30681419410E+03  0.30681419410E+03  0.00000000000E+00 0. -1.
        -13    1    1    2    0    0 -0.32923312985E+02  0.52127412496E+02 -0.70615189363E+02  0.93742881353E+02  0.10566000000E+00 0.  1.
         13    1    1    2    0    0 -0.18354967389E+03 -0.11004036324E+02 -0.33482306220E+02  0.18690277578E+03  0.10566000000E+00 0. -1.
         -4    1    1    2    0  502  0.21647298688E+03 -0.41123376172E+02 -0.83814163451E+01  0.22050381914E+03  0.00000000000E+00 0. -1.
</event>
<event>
 5    1  0.7625606E-005  0.4188105E+03  0.7818608E-02  0.9959324E-01
         21   -1    0    0  501  502  0.00000000000E+00  0.00000000000E+00  0.23386978677E+03  0.23386978677E+03  0.00000000000E+00 0.  1.
          4   -1    0    0  502    0 -0.00000000000E+00 -0.00000000000E+00 -0.14469539394E+04  0.14469539394E+04  0.00000000000E+00 0.  1.
        -13    1    1    2    0    0  0.36303951794E+02 -0.50484530614E+03 -0.89949231076E+03  0.10321207237E+04  0.10566000000E+00 0.  1.
         13    1    1    2    0    0  0.92497438873E+02  0.13040421772E+03 -0.15335024113E+03  0.22153406919E+03  0.10566000000E+00 0. -1.
          4    1    1    2  501    0 -0.12880139067E+03  0.37444108842E+03 -0.16024160075E+03  0.42716893326E+03  0.00000000000E+00 0.  1.
</event>
<event>
 5    1  0.7625606E-005  0.3074320E+02  0.7818608E-02  0.1403569E+00
         -4   -1    0    0    0  501 -0.00000000000E+00  0.00000000000E+00  0.34406339972E+02  0.34406339972E+02  0.00000000000E+00 0. -1.
         21   -1    0    0  501  502  0.00000000000E+00 -0.00000000000E+00 -0.11905494350E+03  0.11905494350E+03  0.00000000000E+00 0. -1.
        -13    1    1    2    0    0 -0.12959652543E+02 -0.32637159873E+02  0.12029338218E+02  0.37119441545E+02  0.10566000000E+00 0.  1.
         13    1    1    2    0    0  0.27280369605E+02  0.41010765874E+01 -0.22551388300E+02  0.35631638655E+02  0.10566000000E+00 0. -1.
         -4    1    1    2    0  502 -0.14320717061E+02  0.28536083286E+02 -0.74126553445E+02  0.80710203271E+02  0.00000000000E+00 0. -1.
</event>
<event>
 5    1  0.7625606E-005  0.1563186E+03  0.7818608E-02  0.1170965E+00
         -4   -1    0    0    0  501 -0.00000000000E+00  0.00000000000E+00  0.23840248215E+03  0.23840248215E+03  0.00000000000E+00 0. -1.
         21   -1    0    0  501  502  0.00000000000E+00 -0.00000000000E+00 -0.15011436524E+03  0.15011436524E+03  0.00000000000E+00 0. -1.
        -13    1    1    2    0    0  0.18125854496E+02  0.13229487601E+02  0.65400601106E+02  0.69143443163E+02  0.10566000000E+00 0.  1.
         13    1    1    2    0    0 -0.14102635203E+03  0.78494243521E+02  0.36305664868E+02  0.16543243545E+03  0.10566000000E+00 0. -1.
         -4    1    1    2    0  502  0.12290049754E+03 -0.91723731122E+02 -0.13418149064E+02  0.15394096878E+03  0.00000000000E+00 0. -1.
</event>
<event>
 5    1  0.7625606E-005  0.4006104E+03  0.7818608E-02  0.9944411E-01
         21   -1    0    0  501  502  0.00000000000E+00  0.00000000000E+00  0.78907224671E+03  0.78907224671E+03  0.00000000000E+00 0. -1.
         -4   -1    0    0    0  501 -0.00000000000E+00 -0.00000000000E+00 -0.47018839481E+03  0.47018839481E+03  0.00000000000E+00 0. -1.
        -13    1    1    2    0    0  0.18952372539E+03 -0.30213738910E+02  0.27060710499E+02  0.19381539082E+03  0.10566000000E+00 0.  1.
         13    1    1    2    0    0 -0.54508363469E+03  0.10215959249E+03 -0.62828529869E+02  0.55812201755E+03  0.10566000000E+00 0. -1.
         -4    1    1    2    0  502  0.35555990930E+03 -0.71945853576E+02  0.35465167127E+03  0.50732323314E+03  0.00000000000E+00 0. -1.
</event>
<event>
 5    1  0.7625606E-005  0.2605671E+03  0.7818608E-02  0.1039333E+00
         21   -1    0    0  501  502  0.00000000000E+00  0.00000000000E+00  0.78038290288E+03  0.78038290288E+03  0.00000000000E+00 0. -1.
         -4   -1    0    0    0  501 -0.00000000000E+00 -0.00000000000E+00 -0.46794098023E+03  0.46794098023E+03  0.00000000000E+00 0. -1.
        -13    1    1    2    0    0 -0.83799733278E+01 -0.16774135318E+03 -0.32124806331E+02  0.17099532118E+03  0.10566000000E+00 0.  1.
         13    1    1    2    0    0 -0.25233523126E+03  0.14021042428E+03 -0.27864665555E+03  0.40121814742E+03  0.10566000000E+00 0. -1.
         -4    1    1    2    0  502  0.26071520459E+03  0.27530928901E+02  0.62321338453E+03  0.67611041451E+03  0.00000000000E+00 0. -1.
</event>
<event>
 5    1  0.7625606E-005  0.4771235E+02  0.7818608E-02  0.1301394E+00
         21   -1    0    0  501  502  0.00000000000E+00  0.00000000000E+00  0.20484239083E+03  0.20484239083E+03  0.00000000000E+00 0.  1.
          4   -1    0    0  502    0 -0.00000000000E+00 -0.00000000000E+00 -0.49620107631E+02  0.49620107631E+02  0.00000000000E+00 0.  1.
        -13    1    1    2    0    0  0.51579452072E+02  0.61110758066E+01 -0.16919994270E+02  0.54626756207E+02  0.10566000000E+00 0.  1.
         13    1    1    2    0    0 -0.37988641738E+02 -0.17323191979E+02  0.19327471501E+02  0.46008610065E+02  0.10566000000E+00 0. -1.
          4    1    1    2  501    0 -0.13590810334E+02  0.11212116173E+02  0.15281480596E+03  0.15382713219E+03  0.00000000000E+00 0.  1.
</event>
<event>
 5    1  0.7625606E-005  0.1199324E+03  0.7818608E-02  0.1135233E+00
          4   -1    0    0  502    0 -0.00000000000E+00  0.00000000000E+00  0.18452033091E+03  0.18452033091E+03  0.00000000000E+00 0.  1.
         21   -1    0    0  501  502  0.00000000000E+00 -0.00000000000E+00 -0.43083176141E+03  0.43083176141E+03  0.00000000000E+00 0. -1.
        -13    1    1    2    0    0 -0.69429635058E+02 -0.97436221773E+02  0.15179261192E+03  0.19327519172E+03  0.10566000000E+00 0.  1.
         13    1    1    2    0    0  0.65085832214E+02  0.10661540570E+03 -0.32338873319E+03  0.34667462296E+03  0.10566000000E+00 0. -1.
          4    1    1    2  501    0  0.43438028439E+01 -0.91791839273E+01 -0.74715309222E+02  0.75402277637E+02  0.00000000000E+00 0.  1.
</event>
<event>
 5    1  0.7625606E-005  0.4996827E+03  0.7818608E-02  0.9675347E-01
         -4   -1    0    0    0  501 -0.00000000000E+00  0.00000000000E+00  0.24098915113E+04  0.24098915113E+04  0.00000000000E+00 0. -1.
         21   -1    0    0  501  502  0.00000000000E+00 -0.00000000000E+00 -0.18793008503E+03  0.18793008503E+03  0.00000000000E+00 0. -1.
        -13    1    1    2    0    0  0.39281041758E+02 -0.24422870806E+03  0.82733211615E+03  0.86352133944E+03  0.10566000000E+00 0.  1.
         13    1    1    2    0    0 -0.41644786265E+03  0.41786540959E+03  0.62270334812E+03  0.85778773234E+03  0.10566000000E+00 0. -1.
         -4    1    1    2    0  502  0.37716682089E+03 -0.17363670152E+03  0.77192596200E+03  0.87651252455E+03  0.00000000000E+00 0. -1.
</event>
<event>
 5    1  0.7625606E-005  0.4036755E+03  0.7818608E-02  0.9956563E-01
         -4   -1    0    0    0  501 -0.00000000000E+00  0.00000000000E+00  0.25264624412E+04  0.25264624412E+04  0.00000000000E+00 0. -1.
         21   -1    0    0  501  502  0.00000000000E+00 -0.00000000000E+00 -0.13591061269E+03  0.13591061269E+03  0.00000000000E+00 0. -1.
        -13    1    1    2    0    0 -0.17526427711E+03 -0.41804579435E+02  0.57460251726E+03  0.60219037994E+03  0.10566000000E+00 0.  1.
         13    1    1    2    0    0  0.29788419370E+03  0.40126970260E+03  0.14462309788E+04  0.15301426150E+04  0.10566000000E+00 0. -1.
         -4    1    1    2    0  502 -0.12261991660E+03 -0.35946512317E+03  0.36971833245E+03  0.53004005893E+03  0.00000000000E+00 0. -1.
</event>
<event>
 5    1  0.7625606E-005  0.2196020E+03  0.7818608E-02  0.1052666E+00
         -4   -1    0    0    0  501 -0.00000000000E+00  0.00000000000E+00  0.12090287127E+04  0.12090287127E+04  0.00000000000E+00 0. -1.
         21   -1    0    0  501  502  0.00000000000E+00 -0.00000000000E+00 -0.44795283074E+03  0.44795283074E+03  0.00000000000E+00 0. -1.
        -13    1    1    2    0    0  0.17615080742E+03 -0.66142787416E+02  0.61111391800E+03  0.63942490350E+03  0.10566000000E+00 0.  1.
         13    1    1    2    0    0 -0.25791161394E+03  0.26259330919E+03  0.49217643857E+03  0.61458221946E+03  0.10566000000E+00 0. -1.
         -4    1    1    2    0  502  0.81760806522E+02 -0.19645052177E+03 -0.34221447457E+03  0.40297442052E+03  0.00000000000E+00 0. -1.
</event>
<event>
 5    1  0.7625606E-005  0.5168996E+03  0.7818608E-02  0.9441682E-01
          4   -1    0    0  502    0 -0.00000000000E+00  0.00000000000E+00  0.15891648304E+04  0.15891648304E+04  0.00000000000E+00 0.  1.
         21   -1    0    0  501  502  0.00000000000E+00 -0.00000000000E+00 -0.25340903738E+03  0.25340903738E+03  0.00000000000E+00 0. -1.
        -13    1    1    2    0    0 -0.55378215083E+03  0.22329391139E+03  0.84169407043E+03  0.10319805041E+04  0.10566000000E+00 0.  1.
         13    1    1    2    0    0  0.39117159457E+03 -0.20969153714E+03  0.46862914864E+03  0.64544484448E+03  0.10566000000E+00 0. -1.
          4    1    1    2  501    0  0.16261055626E+03 -0.13602374253E+02  0.25432573976E+02  0.16514851925E+03  0.00000000000E+00 0.  1.
</event>
<event>
 5    1  0.7625606E-005  0.4683973E+03  0.7818608E-02  0.9550065E-01
         -4   -1    0    0    0  501 -0.00000000000E+00  0.00000000000E+00  0.17512269505E+04  0.17512269505E+04  0.00000000000E+00 0. -1.
         21   -1    0    0  501  502  0.00000000000E+00 -0.00000000000E+00 -0.33271103957E+03  0.33271103957E+03  0.00000000000E+00 0. -1.
        -13    1    1    2    0    0  0.42136659708E+03  0.52136069015E+02  0.53253025345E+03  0.68107008511E+03  0.10566000000E+00 0.  1.
         13    1    1    2    0    0 -0.40850393471E+03 -0.40917275944E+03  0.87080820258E+03  0.10452773549E+04  0.10566000000E+00 0. -1.
         -4    1    1    2    0  502 -0.12862662375E+02  0.35703669043E+03  0.15177454910E+02  0.35759055012E+03  0.00000000000E+00 0. -1.
</event>
<event>
 5    1  0.7625606E-005  0.1354396E+03  0.7818608E-02  0.1120014E+00
         21   -1    0    0  501  502  0.00000000000E+00  0.00000000000E+00  0.41958593537E+03  0.41958593537E+03  0.00000000000E+00 0.  1.
         -4   -1    0    0    0  501 -0.00000000000E+00 -0.00000000000E+00 -0.13016019203E+03  0.13016019203E+03  0.00000000000E+00 0. -1.
        -13    1    1    2    0    0  0.85912033548E+02  0.11300203157E+03  0.18389517482E+03  0.23230967077E+03  0.10566000000E+00 0.  1.
         13    1    1    2    0    0 -0.13510491317E+03  0.30847068524E+02  0.12364591464E+02  0.13913221584E+03  0.10566000000E+00 0. -1.
         -4    1    1    2    0  502  0.49192879618E+02 -0.14384910010E+03  0.93165977063E+02  0.17830424080E+03  0.00000000000E+00 0. -1.
</event>
<event>
 5    1  0.7625606E-005  0.4582940E+03  0.7818608E-02  0.1005597E+00
         21   -1    0    0  501  502  0.00000000000E+00  0.00000000000E+00  0.14187806247E+04  0.14187806247E+04  0.00000000000E+00 0. -1.
         -4   -1    0    0    0  501 -0.00000000000E+00 -0.00000000000E+00 -0.24438909897E+03  0.24438909897E+03  0.00000000000E+00 0. -1.
        -13    1    1    2    0    0  0.17725210425E+02 -0.87147621535E+02  0.61116017927E+02  0.10790769127E+03  0.10566000000E+00 0.  1.
         13    1    1    2    0    0  0.27700553470E+03 -0.34152091110E+03  0.88284291349E+03  0.98629621313E+03  0.10566000000E+00 0. -1.
         -4    1    1    2    0  502 -0.29473074512E+03  0.42866853264E+03  0.23043259433E+03  0.56896581929E+03  0.00000000000E+00 0. -1.
</event>
<event>
 5    1  0.7625606E-005  0.7883018E+03  0.7818608E-02  0.9003878E-01
          4   -1    0    0  502    0 -0.00000000000E+00  0.00000000000E+00  0.27885384578E+04  0.27885384578E+04  0.00000000000E+00 0.  1.
         21   -1    0    0  501  502  0.00000000000E+00 -0.00000000000E+00 -0.40525545745E+03  0.40525545745E+03  0.00000000000E+00 0. -1.
        -13    1    1    2    0    0 -0.84832058999E+03 -0.19098205289E+03  0.73665632469E+03  0.11396422771E+04  0.10566000000E+00 0.  1.
         13    1    1    2    0    0  0.59755596640E+03  0.49841615705E+03  0.13521758030E+04  0.15600869245E+04  0.10566000000E+00 0. -1.
          4    1    1    2  501    0  0.25076462359E+03 -0.30743410416E+03  0.29445087265E+03  0.49406471363E+03  0.00000000000E+00 0.  1.
</event>
<event>
 5    1  0.7625606E-005  0.1871724E+03  0.7818608E-02  0.1069304E+00
         21   -1    0    0  501  502  0.00000000000E+00  0.00000000000E+00  0.14736669305E+03  0.14736669305E+03  0.00000000000E+00 0. -1.
          4   -1    0    0  502    0 -0.00000000000E+00 -0.00000000000E+00 -0.28116736289E+03  0.28116736289E+03  0.00000000000E+00 0.  1.
        -13    1    1    2    0    0 -0.10184396710E+03  0.15198581725E+03 -0.11796925581E+03  0.21768931706E+03  0.10566000000E+00 0.  1.
         13    1    1    2    0    0  0.10180945224E+03 -0.16589622767E+03 -0.21489047626E+02  0.19582776425E+03  0.10566000000E+00 0. -1.
          4    1    1    2  501    0  0.34514854195E-01  0.13910410411E+02  0.56576335942E+01  0.15016974628E+02  0.00000000000E+00 0.  1.
</event>
<event>
 5    1  0.7625606E-005  0.1324674E+03  0.7818608E-02  0.1119816E+00
         21   -1    0    0  501  502  0.00000000000E+00  0.00000000000E+00  0.81109645876E+03  0.81109645876E+03  0.00000000000E+00 0. -1.
          4   -1    0    0  502    0 -0.00000000000E+00 -0.00000000000E+00 -0.48426423747E+02  0.48426423747E+02  0.00000000000E+00 0.  1.
        -13    1    1    2    0    0  0.12299453363E+03 -0.42779669780E+02  0.74312866805E+02  0.14993388138E+03  0.10566000000E+00 0.  1.
         13    1    1    2    0    0 -0.13067957762E+03  0.57463531392E+02  0.48541668826E+03  0.50597290625E+03  0.10566000000E+00 0. -1.
          4    1    1    2  501    0  0.76850439949E+01 -0.14683861612E+02  0.20294047994E+03  0.20361609488E+03  0.00000000000E+00 0.  1.
</event>
<event>
 5    1  0.7625606E-005  0.4871400E+03  0.7818608E-02  0.9635931E-01
         -4   -1    0    0    0  501 -0.00000000000E+00  0.00000000000E+00  0.29546988834E+04  0.29546988834E+04  0.00000000000E+00 0. -1.
         21   -1    0    0  501  502  0.00000000000E+00 -0.00000000000E+00 -0.16094251031E+03  0.16094251031E+03  0.00000000000E+00 0. -1.
        -13    1    1    2    0    0  0.10540809588E+03  0.28796314712E+03  0.74997229503E+03  0.81024199795E+03  0.10566000000E+00 0.  1.
         13    1    1    2    0    0 -0.47767943340E+03 -0.45176542747E+03  0.13381583204E+04  0.14909518249E+04  0.10566000000E+00 0. -1.
         -4    1    1    2    0  502  0.37227133752E+03  0.16380228035E+03  0.70562575767E+03  0.81444757086E+03  0.00000000000E+00 0. -1.
</event>
<event>
 5    1  0.7625606E-005  0.1873657E+03  0.7818608E-02  0.1082334E+00
         21   -1    0    0  501  502  0.00000000000E+00  0.00000000000E+00  0.18226628197E+03  0.18226628197E+03  0.00000000000E+00 0.  1.
          4   -1    0    0  502    0 -0.00000000000E+00 -0.00000000000E+00 -0.13372782508E+04  0.13372782508E+04  0.00000000000E+00 0.  1.
        -13    1    1    2    0    0  0.30924630991E+03 -0.46745036471E+01 -0.94290986206E+03  0.99233771989E+03  0.10566000000E+00 0.  1.
         13    1    1    2    0    0 -0.12898238008E+03  0.31009970890E+01 -0.30006003860E+03  0.32662227187E+03  0.10566000000E+00 0. -1.
          4    1    1    2  501    0 -0.18026392983E+03  0.15735065581E+01  0.87957931833E+02  0.20058454102E+03  0.00000000000E+00 0.  1.
</event>
<event>
 5    1  0.7625606E-005  0.3606171E+03  0.7818608E-02  0.9850234E-01
         -4   -1    0    0    0  501 -0.00000000000E+00  0.00000000000E+00  0.30595864284E+03  0.30595864284E+03  0.00000000000E+00 0. -1.
         21   -1    0    0  501  502  0.00000000000E+00 -0.00000000000E+00 -0.82876329480E+03  0.82876329480E+03  0.00000000000E+00 0.  1.
        -13    1    1    2    0    0  0.12613782181E+03 -0.32015577493E+03 -0.23780604938E+03  0.41828482951E+03  0.10566000000E+00 0.  1.
         13    1    1    2    0    0 -0.15250525580E+03  0.33570377594E+03  0.56974756646E+02  0.37309651873E+03  0.10566000000E+00 0. -1.
         -4    1    1    2    0  502  0.26367433988E+02 -0.15548001012E+02 -0.34197335923E+03  0.34334058940E+03  0.00000000000E+00 0. -1.
</event>
<event>
 5    1  0.7625606E-005  0.4835371E+03  0.7818608E-02  0.9845878E-01
         21   -1    0    0  501  502  0.00000000000E+00  0.00000000000E+00  0.23585580553E+03  0.23585580553E+03  0.00000000000E+00 0.  1.
          4   -1    0    0  502    0 -0.00000000000E+00 -0.00000000000E+00 -0.22354693274E+04  0.22354693274E+04  0.00000000000E+00 0.  1.
        -13    1    1    2    0    0  0.16540596474E+03 -0.48156129324E+03 -0.14938654872E+03  0.53063807291E+03  0.10566000000E+00 0.  1.
         13    1    1    2    0    0  0.60624168277E+02  0.13917672459E+03 -0.77754389144E+03  0.79222469333E+03  0.10566000000E+00 0. -1.
          4    1    1    2  501    0 -0.22603013302E+03  0.34238456865E+03 -0.10726830817E+04  0.11484623667E+04  0.00000000000E+00 0.  1.
</event>
<event>
 5    1  0.7625606E-005  0.6158749E+02  0.7818608E-02  0.1333654E+00
         21   -1    0    0  501  502  0.00000000000E+00  0.00000000000E+00  0.28219939039E+03  0.28219939039E+03  0.00000000000E+00 0. -1.
         -4   -1    0    0    0  501 -0.00000000000E+00 -0.00000000000E+00 -0.79703571577E+02  0.79703571577E+02  0.00000000000E+00 0. -1.
        -13    1    1    2    0    0  0.28164989663E+01  0.11728603871E+02  0.73047742853E+01  0.14101904360E+02  0.10566000000E+00 0.  1.
         13    1    1    2    0    0  0.46870232167E+02 -0.40357625523E+02  0.25650099096E+03  0.26385284939E+03  0.10566000000E+00 0. -1.
         -4    1    1    2    0  502 -0.49686731133E+02  0.28629021653E+02 -0.61309946435E+02  0.83948208220E+02  0.00000000000E+00 0. -1.
</event>
<event>
 5    1  0.7625606E-005  0.3731226E+03  0.7818608E-02  0.9810049E-01
          4   -1    0    0  502    0 -0.00000000000E+00  0.00000000000E+00  0.25472603498E+03  0.25472603498E+03  0.00000000000E+00 0.  1.
         21   -1    0    0  501  502  0.00000000000E+00 -0.00000000000E+00 -0.81173953668E+03  0.81173953668E+03  0.00000000000E+00 0. -1.
        -13    1    1    2    0    0  0.34816938490E+03  0.13183236347E+03 -0.14000280594E+03  0.39774676551E+03  0.10566000000E+00 0.  1.
         13    1    1    2    0    0 -0.36379388140E+03 -0.92013542604E+02 -0.15960305184E+03  0.40778134519E+03  0.10566000000E+00 0. -1.
          4    1    1    2  501    0  0.15624496502E+02 -0.39818820865E+02 -0.25740764392E+03  0.26093746096E+03  0.00000000000E+00 0.  1.
</event>
<event>
 5    1  0.7625606E-005  0.4398599E+03  0.7818608E-02  0.9627922E-01
         21   -1    0    0  501  502  0.00000000000E+00  0.00000000000E+00  0.44894750085E+03  0.44894750085E+03  0.00000000000E+00 0.  1.
         -4   -1    0    0    0  501 -0.00000000000E+00 -0.00000000000E+00 -0.13572865413E+04  0.13572865413E+04  0.00000000000E+00 0. -1.
        -13    1    1    2    0    0 -0.42655509349E+03 -0.40751323230E+02 -0.58404804089E+02  0.43245930495E+03  0.10566000000E+00 0.  1.
         13    1    1    2    0    0  0.34283790345E+03 -0.40898698878E+03 -0.72373647788E+03  0.89922337915E+03  0.10566000000E+00 0. -1.
         -4    1    1    2    0  502  0.83717190046E+02  0.44973831201E+03 -0.12619775850E+03  0.47455135807E+03  0.00000000000E+00 0. -1.
</event>
<event>
 5    1  0.7625606E-005  0.2104692E+02  0.7818608E-02  0.1495793E+00
         21   -1    0    0  501  502  0.00000000000E+00  0.00000000000E+00  0.58154259569E+03  0.58154259569E+03  0.00000000000E+00 0.  1.
          4   -1    0    0  502    0 -0.00000000000E+00 -0.00000000000E+00 -0.73188790550E+02  0.73188790550E+02  0.00000000000E+00 0.  1.
        -13    1    1    2    0    0 -0.65677527857E+01  0.20954111517E+02 -0.68994427521E+02  0.72404781328E+02  0.10566000000E+00 0.  1.
         13    1    1    2    0    0 -0.37061685052E+01 -0.12792563024E+02  0.15970333275E+02  0.20795385610E+02  0.10566000000E+00 0. -1.
          4    1    1    2  501    0  0.10273921291E+02 -0.81615484931E+01  0.56137789939E+03  0.56153121930E+03  0.00000000000E+00 0.  1.
</event>
<event>
 5    1  0.7625606E-005  0.2966772E+03  0.7818608E-02  0.1008687E+00
         21   -1    0    0  501  502  0.00000000000E+00  0.00000000000E+00  0.20584910571E+03  0.20584910571E+03  0.00000000000E+00 0.  1.
          4   -1    0    0  502    0 -0.00000000000E+00 -0.00000000000E+00 -0.21961871845E+04  0.21961871845E+04  0.00000000000E+00 0.  1.
        -13    1    1    2    0    0 -0.35154602360E+03  0.40628276180E+02 -0.14069196493E+04  0.14507440072E+04  0.10566000000E+00 0.  1.
         13    1    1    2    0    0  0.17875923363E+03 -0.20310336050E+03 -0.65073819089E+03  0.70474537452E+03  0.10566000000E+00 0. -1.
          4    1    1    2  501    0  0.17278678997E+03  0.16247508432E+03  0.67319761441E+02  0.24654690851E+03  0.00000000000E+00 0.  1.
</event>
<event>
 5    1  0.7625606E-005  0.9375569E+02  0.7818608E-02  0.1232208E+00
         21   -1    0    0  501  502  0.00000000000E+00  0.00000000000E+00  0.29387457738E+02  0.29387457738E+02  0.00000000000E+00 0. -1.
          4   -1    0    0  502    0 -0.00000000000E+00 -0.00000000000E+00 -0.80331718468E+03  0.80331718468E+03  0.00000000000E+00 0.  1.
        -13    1    1    2    0    0  0.51544422887E+02 -0.96231460120E+02 -0.64537360055E+03  0.65454137906E+03  0.10566000000E+00 0.  1.
         13    1    1    2    0    0 -0.23993446551E+02  0.96720093380E+01 -0.77312919241E+01  0.27000320014E+02  0.10566000000E+00 0. -1.
          4    1    1    2  501    0 -0.27550976336E+02  0.86559450782E+02 -0.12082483446E+03  0.15116294334E+03  0.00000000000E+00 0.  1.
</event>
<event>
 5    1  0.7625606E-005  0.2991597E+03  0.7818608E-02  0.1007653E+00
          4   -1    0    0  502    0 -0.00000000000E+00  0.00000000000E+00  0.94443763622E+03  0.94443763622E+03  0.00000000000E+00 0.  1.
         21   -1    0    0  501  502  0.00000000000E+00 -0.00000000000E+00 -0.39447065259E+03  0.39447065259E+03  0.00000000000E+00 0. -1.
        -13    1    1    2    0    0 -0.20122875790E+03 -0.24007985964E+03  0.80306296622E+03  0.86199854460E+03  0.10566000000E+00 0.  1.
         13    1    1    2    0    0  0.17333497373E+03  0.16097392563E+03 -0.29854599401E+02  0.23843012838E+03  0.10566000000E+00 0. -1.
          4    1    1    2  501    0  0.27893784173E+02  0.79105934005E+02 -0.22324138319E+03  0.23847961582E+03  0.00000000000E+00 0.  1.
</event>
<event>
 5    1  0.7625606E-005  0.1744054E+02  0.7818608E-02  0.1548931E+00
         21   -1    0    0  501  502  0.00000000000E+00  0.00000000000E+00  0.27153103782E+02  0.27153103782E+02  0.00000000000E+00 0.  1.
          4   -1    0    0  502    0 -0.00000000000E+00 -0.00000000000E+00 -0.39195312326E+02  0.39195312326E+02  0.00000000000E+00 0.  1.
        -13    1    1    2    0    0  0.58226120928E+01  0.18819478124E+02 -0.26597673273E+02  0.33098685110E+02  0.10566000000E+00 0.  1.
         13    1    1    2    0    0  0.44254949235E+01 -0.13809248754E+02 -0.31871859117E+00  0.14504933714E+02  0.10566000000E+00 0. -1.
          4    1    1    2  501    0 -0.10248107016E+02 -0.50102293692E+01  0.14874183321E+02  0.18744797284E+02  0.00000000000E+00 0.  1.
</event>
<event>
 5    1  0.7625606E-005  0.4215074E+03  0.7818608E-02  0.9805616E-01
         -4   -1    0    0    0  501 -0.00000000000E+00  0.00000000000E+00  0.40144471861E+03  0.40144471861E+03  0.00000000000E+00 0. -1.
         21   -1    0    0  501  502  0.00000000000E+00 -0.00000000000E+00 -0.14619926187E+04  0.14619926187E+04  0.00000000000E+00 0. -1.
        -13    1    1    2    0    0  0.67739047036E+02  0.25387362407E+03 -0.45939563023E+03  0.52923033902E+03  0.10566000000E+00 0.  1.
         13    1    1    2    0    0 -0.24407964606E+03  0.16352353225E+03  0.23961143567E+03  0.37911537886E+03  0.10566000000E+00 0. -1.
         -4    1    1    2    0  502  0.17634059903E+03 -0.41739715632E+03 -0.84076370556E+03  0.95509161946E+03  0.00000000000E+00 0. -1.
</event>
<event>
 5    1  0.7625606E-005  0.2330691E+03  0.7818608E-02  0.1084794E+00
          4   -1    0    0  502    0 -0.00000000000E+00  0.00000000000E+00  0.22928706156E+03  0.22928706156E+03  0.00000000000E+00 0.  1.
         21   -1    0    0  501  502  0.00000000000E+00 -0.00000000000E+00 -0.47991747748E+03  0.47991747748E+03  0.00000000000E+00 0.  1.
        -13    1    1    2    0    0 -0.12200282845E+03 -0.20675213673E+03 -0.21850154799E+03  0.32461373019E+03  0.10566000000E+00 0.  1.
         13    1    1    2    0    0 -0.31237033286E+02  0.54226309862E+02 -0.13226173376E+03  0.14631958963E+03  0.10566000000E+00 0. -1.
          4    1    1    2  501    0  0.15323986174E+03  0.15252582687E+03  0.10013286583E+03  0.23827121922E+03  0.00000000000E+00 0.  1.
</event>
<event>
 5    1  0.7625606E-005  0.1100340E+03  0.7818608E-02  0.1148943E+00
          4   -1    0    0  502    0 -0.00000000000E+00  0.00000000000E+00  0.10963067299E+03  0.10963067299E+03  0.00000000000E+00 0.  1.
         21   -1    0    0  501  502  0.00000000000E+00 -0.00000000000E+00 -0.28974047081E+03  0.28974047081E+03  0.00000000000E+00 0. -1.
        -13    1    1    2    0    0 -0.86399895738E+02 -0.46842478785E+02 -0.13841982632E+02  0.99251052637E+02  0.10566000000E+00 0.  1.
         13    1    1    2    0    0  0.11850473421E+03  0.34535652425E+02  0.68465475959E+01  0.12362430868E+03  0.10566000000E+00 0. -1.
          4    1    1    2  501    0 -0.32104838476E+02  0.12306826361E+02 -0.17311436278E+03  0.17649578247E+03  0.00000000000E+00 0.  1.
</event>
<event>
 5    1  0.7625606E-005  0.4890414E+03  0.7818608E-02  0.9795250E-01
         -4   -1    0    0    0  501 -0.00000000000E+00  0.00000000000E+00  0.12740368064E+04  0.12740368064E+04  0.00000000000E+00 0. -1.
         21   -1    0    0  501  502  0.00000000000E+00 -0.00000000000E+00 -0.50603867877E+03  0.50603867877E+03  0.00000000000E+00 0. -1.
        -13    1    1    2    0    0  0.16420310418E+03  0.58463358053E+02  0.74520733053E+03  0.76531993330E+03  0.10566000000E+00 0.  1.
         13    1    1    2    0    0 -0.41529135719E+03 -0.40820634802E+03  0.41579001008E+02  0.58380489756E+03  0.10566000000E+00 0. -1.
         -4    1    1    2    0  502  0.25108825302E+03  0.34974298997E+03 -0.18788203930E+02  0.43095065430E+03  0.00000000000E+00 0. -1.
</event>
<event>
 5    1  0.7625606E-005  0.3058104E+03  0.7818608E-02  0.1007972E+00
          4   -1    0    0  502    0 -0.00000000000E+00  0.00000000000E+00  0.30328259835E+04  0.30328259835E+04  0.00000000000E+00 0.  1.
         21   -1    0    0  501  502  0.00000000000E+00 -0.00000000000E+00 -0.14229323946E+03  0.14229323946E+03  0.00000000000E+00 0.  1.
        -13    1    1    2    0    0 -0.21524074254E+03  0.48461320453E+03  0.20718244205E+04  0.21386058487E+04  0.10566000000E+00 0.  1.
         13    1    1    2    0    0  0.18787188396E+03 -0.20381717904E+03  0.65281311569E+03  0.70922652406E+03  0.10566000000E+00 0. -1.
          4    1    1    2  501    0  0.27368858576E+02 -0.28079602548E+03  0.16589520779E+03  0.32728685020E+03  0.00000000000E+00 0.  1.
</event>
<event>
 5    1  0.7625606E-005  0.4758013E+03  0.7818608E-02  0.9872331E-01
         21   -1    0    0  501  502  0.00000000000E+00  0.00000000000E+00  0.14622646061E+03  0.14622646061E+03  0.00000000000E+00 0.  1.
          4   -1    0    0  502    0 -0.00000000000E+00 -0.00000000000E+00 -0.22671316043E+04  0.22671316043E+04  0.00000000000E+00 0.  1.
        -13    1    1    2    0    0  0.45950162204E+03 -0.27458776926E+03 -0.12439084444E+04  0.13541965932E+04  0.10566000000E+00 0.  1.
         13    1    1    2    0    0 -0.31544820079E+02  0.14227512716E+03 -0.22759707430E+03  0.27025492942E+03  0.10566000000E+00 0. -1.
          4    1    1    2  501    0 -0.42795680196E+03  0.13231264210E+03 -0.64939962489E+03  0.78890654226E+03  0.00000000000E+00 0.  1.
</event>
<event>
 5    1  0.7625606E-005  0.4752685E+03  0.7818608E-02  0.9777075E-01
         -4   -1    0    0    0  501 -0.00000000000E+00  0.00000000000E+00  0.97245689134E+03  0.97245689134E+03  0.00000000000E+00 0. -1.
         21   -1    0    0  501  502  0.00000000000E+00 -0.00000000000E+00 -0.43397879681E+03  0.43397879681E+03  0.00000000000E+00 0. -1.
        -13    1    1    2    0    0  0.34253500614E+02 -0.19916374051E+03  0.28714166887E+03  0.35112653987E+03  0.10566000000E+00 0.  1.
         13    1    1    2    0    0 -0.28579315324E+03 -0.32088639218E+03  0.11627717194E+02  0.42986162668E+03  0.10566000000E+00 0. -1.
         -4    1    1    2    0  502  0.25153965263E+03  0.52005013268E+03  0.23970870847E+03  0.62544752159E+03  0.00000000000E+00 0. -1.
</event>
<event>
 5    1  0.7625606E-005  0.2644087E+03  0.7818608E-02  0.1032217E+00
          4   -1    0    0  502    0 -0.00000000000E+00  0.00000000000E+00  0.20461217517E+04  0.20461217517E+04  0.00000000000E+00 0.  1.
         21   -1    0    0  501  502  0.00000000000E+00 -0.00000000000E+00 -0.35091321583E+03  0.35091321583E+03  0.00000000000E+00 0.  1.
        -13    1    1    2    0    0 -0.26760161538E+03  0.26351614407E+03  0.16673978130E+04  0.17091713960E+04  0.10566000000E+00 0.  1.
         13    1    1    2    0    0  0.19950137820E+03 -0.10224506782E+02  0.26661495474E+03  0.33314994477E+03  0.10566000000E+00 0. -1.
          4    1    1    2  501    0  0.68100237171E+02 -0.25329163729E+03 -0.23880423193E+03  0.35471362676E+03  0.00000000000E+00 0.  1.
</event>
<event>
 5    1  0.7625606E-005  0.3752915E+03  0.7818608E-02  0.9803248E-01
         21   -1    0    0  501  502  0.00000000000E+00  0.00000000000E+00  0.31517772035E+03  0.31517772035E+03  0.00000000000E+00 0. -1.
         -4   -1    0    0    0  501 -0.00000000000E+00 -0.00000000000E+00 -0.19872242528E+04  0.19872242528E+04  0.00000000000E+00 0. -1.
        -13    1    1    2    0    0 -0.29322572524E+03 -0.28463185108E+03 -0.83027323003E+03  0.92539195169E+03  0.10566000000E+00 0.  1.
         13    1    1    2    0    0  0.51224483517E+01  0.40409903146E+03 -0.96146089094E+03  0.10429426267E+04  0.10566000000E+00 0. -1.
         -4    1    1    2    0  502  0.28810327689E+03 -0.11946718038E+03  0.11968758855E+03  0.33406739469E+03  0.00000000000E+00 0. -1.
</event>
<event>
 5    1  0.7625606E-005  0.4636357E+03  0.7818608E-02  0.9569798E-01
         -4   -1    0    0    0  501 -0.00000000000E+00  0.00000000000E+00  0.12289158730E+04  0.12289158730E+04  0.00000000000E+00 0. -1.
         21   -1    0    0  501  502  0.00000000000E+00 -0.00000000000E+00 -0.57895463006E+03  0.57895463006E+03  0.00000000000E+00 0.  1.
        -13    1    1    2    0    0  0.33801061269E+03  0.29701713048E+03  0.54793921646E+03  0.70901886166E+03  0.10566000000E+00 0.  1.
         13    1    1    2    0    0 -0.58558711197E+03  0.95789057735E+02  0.19642101616E+03  0.62503522784E+03  0.10566000000E+00 0. -1.
         -4    1    1    2    0  502  0.24757649928E+03 -0.39280618821E+03 -0.94398989701E+02  0.47381641355E+03  0.00000000000E+00 0. -1.
</event>
<event>
 5    1  0.7625606E-005  0.4468798E+03  0.7818608E-02  0.9604274E-01
         21   -1    0    0  501  502  0.00000000000E+00  0.00000000000E+00  0.45877002208E+03  0.45877002208E+03  0.00000000000E+00 0. -1.
         -4   -1    0    0    0  501 -0.00000000000E+00 -0.00000000000E+00 -0.15248425597E+04  0.15248425597E+04  0.00000000000E+00 0. -1.
        -13    1    1    2    0    0  0.41945128870E+03  0.14666653060E+03 -0.69966759223E+03  0.82884570673E+03  0.10566000000E+00 0.  1.
         13    1    1    2    0    0 -0.97315976519E+02  0.28980096286E+03 -0.50910779765E+03  0.59383984217E+03  0.10566000000E+00 0. -1.
         -4    1    1    2    0  502 -0.32213531219E+03 -0.43646749346E+03  0.14270285223E+03  0.56092703290E+03  0.00000000000E+00 0. -1.
</event>
<event>
 5    1  0.7625606E-005  0.4931746E+03  0.7818608E-02  0.9575235E-01
         21   -1    0    0  501  502  0.00000000000E+00  0.00000000000E+00  0.84215739693E+03  0.84215739693E+03  0.00000000000E+00 0. -1.
         -4   -1    0    0    0  501 -0.00000000000E+00 -0.00000000000E+00 -0.10211875387E+04  0.10211875387E+04  0.00000000000E+00 0. -1.
        -13    1    1    2    0    0  0.33870970983E+03 -0.14040421295E+03 -0.62096277065E+03  0.72113270918E+03  0.10566000000E+00 0.  1.
         13    1    1    2    0    0  0.76684434982E+02  0.49628360366E+03  0.16138279676E+03  0.52746785313E+03  0.10566000000E+00 0. -1.
         -4    1    1    2    0  502 -0.41539414481E+03 -0.35587939072E+03  0.28054983209E+03  0.61474437335E+03  0.00000000000E+00 0. -1.
</event>
<event>
 5    1  0.7625606E-005  0.2266811E+03  0.7818608E-02  0.1049703E+00
          4   -1    0    0  502    0 -0.00000000000E+00  0.00000000000E+00  0.31677444337E+03  0.31677444337E+03  0.00000000000E+00 0.  1.
         21   -1    0    0  501  502  0.00000000000E+00 -0.00000000000E+00 -0.15059700852E+04  0.15059700852E+04  0.00000000000E+00 0.  1.
        -13    1    1    2    0    0 -0.22311083049E+03 -0.30710285018E+02 -0.12912705800E+04  0.13107636271E+04  0.10566000000E+00 0.  1.
         13    1    1    2    0    0  0.26954769304E+01 -0.18678000824E+03  0.74481887991E+02  0.20110096935E+03  0.10566000000E+00 0. -1.
          4    1    1    2  501    0  0.22041535356E+03  0.21749029325E+03  0.27593050184E+02  0.31087993207E+03  0.00000000000E+00 0.  1.
</event>
<event>
 5    1  0.7625606E-005  0.4563880E+03  0.7818608E-02  0.9680355E-01
          4   -1    0    0  502    0 -0.00000000000E+00  0.00000000000E+00  0.27200491041E+03  0.27200491041E+03  0.00000000000E+00 0.  1.
         21   -1    0    0  501  502  0.00000000000E+00 -0.00000000000E+00 -0.19761828257E+04  0.19761828257E+04  0.00000000000E+00 0.  1.
        -13    1    1    2    0    0  0.49875837144E+03  0.11728855028E+03 -0.13903147346E+04  0.14817191331E+04  0.10566000000E+00 0.  1.
         13    1    1    2    0    0 -0.15574586692E+03 -0.27841532722E+03 -0.12048944232E+03  0.34101258975E+03  0.10566000000E+00 0. -1.
          4    1    1    2  501    0 -0.34301250452E+03  0.16112677694E+03 -0.19337373839E+03  0.42545601325E+03  0.00000000000E+00 0.  1.
</event>
<event>
 5    1  0.7625606E-005  0.4731281E+03  0.7818608E-02  0.9731646E-01
         21   -1    0    0  501  502  0.00000000000E+00  0.00000000000E+00  0.12874893754E+04  0.12874893754E+04  0.00000000000E+00 0.  1.
          4   -1    0    0  502    0 -0.00000000000E+00 -0.00000000000E+00 -0.51498528586E+03  0.51498528586E+03  0.00000000000E+00 0.  1.
        -13    1    1    2    0    0  0.34951300349E+03 -0.46983116811E+03  0.46776794641E+03  0.74947149978E+03  0.10566000000E+00 0.  1.
         13    1    1    2    0    0  0.98777227904E+01  0.23934539418E+03 -0.25444334984E+03  0.34946418496E+03  0.10566000000E+00 0. -1.
          4    1    1    2  501    0 -0.35939072628E+03  0.23048577393E+03  0.55917949302E+03  0.70353897655E+03  0.00000000000E+00 0.  1.
</event>
<event>
 5    1  0.7625606E-005  0.5035743E+03  0.7818608E-02  0.9598111E-01
          4   -1    0    0  502    0 -0.00000000000E+00  0.00000000000E+00  0.11956371884E+04  0.11956371884E+04  0.00000000000E+00 0.  1.
         21   -1    0    0  501  502  0.00000000000E+00 -0.00000000000E+00 -0.96005915909E+03  0.96005915909E+03  0.00000000000E+00 0.  1.
        -13    1    1    2    0    0  0.16691178171E+03  0.33567150044E+03 -0.12609755683E+03  0.39551928409E+03  0.10566000000E+00 0.  1.
         13    1    1    2    0    0  0.26014916737E+03  0.18186830556E+03  0.86499315717E+03  0.92139396730E+03  0.10566000000E+00 0. -1.
          4    1    1    2  501    0 -0.42706094908E+03 -0.51753980600E+03 -0.50331757103E+03  0.83878309612E+03  0.00000000000E+00 0.  1.
</event>
<event>
 5    1  0.7625606E-005  0.9699775E+02  0.7818608E-02  0.1169621E+00
         21   -1    0    0  501  502  0.00000000000E+00  0.00000000000E+00  0.28050252825E+02  0.28050252825E+02  0.00000000000E+00 0.  1.
         -4   -1    0    0    0  501 -0.00000000000E+00 -0.00000000000E+00 -0.97422226255E+03  0.97422226255E+03  0.00000000000E+00 0. -1.
        -13    1    1    2    0    0 -0.97040125547E+02  0.12431863966E+02 -0.50061069921E+03  0.51008079804E+03  0.10566000000E+00 0.  1.
         13    1    1    2    0    0  0.79123071996E+02 -0.72496991969E+02 -0.40144890554E+03  0.41554483427E+03  0.10566000000E+00 0. -1.
         -4    1    1    2    0  502  0.17917053551E+02  0.60065128003E+02 -0.44112404980E+02  0.76646883062E+02  0.00000000000E+00 0. -1.
</event>
<event>
 5    1  0.7625606E-005  0.4097055E+03  0.7818608E-02  0.9701427E-01
         21   -1    0    0  501  502  0.00000000000E+00  0.00000000000E+00  0.38300076774E+03  0.38300076774E+03  0.00000000000E+00 0.  1.
         -4   -1    0    0    0  501 -0.00000000000E+00 -0.00000000000E+00 -0.12526163051E+04  0.12526163051E+04  0.00000000000E+00 0. -1.
        -13    1    1    2    0    0 -0.30396956110E+03  0.20603685687E+01 -0.58154960602E+02  0.30948949869E+03  0.10566000000E+00 0.  1.
         13    1    1    2    0    0  0.59837087185E+03  0.29663388831E+02 -0.17497289282E+03  0.62413391295E+03  0.10566000000E+00 0. -1.
         -4    1    1    2    0  502 -0.29440131075E+03 -0.31723757399E+02 -0.63648768392E+03  0.70199366118E+03  0.00000000000E+00 0. -1.
</event>
<event>
 5    1  0.7625606E-005  0.3314965E+03  0.7818608E-02  0.1026466E+00
         21   -1    0    0  501  502  0.00000000000E+00  0.00000000000E+00  0.19242560236E+03  0.19242560236E+03  0.00000000000E+00 0.  1.
          4   -1    0    0  502    0 -0.00000000000E+00 -0.00000000000E+00 -0.17661775972E+04  0.17661775972E+04  0.00000000000E+00 0.  1.
        -13    1    1    2    0    0  0.24868797590E+03 -0.21058217014E+03 -0.12498371785E+04  0.12916205107E+04  0.10566000000E+00 0.  1.
         13    1    1    2    0    0  0.67623967236E+02  0.10047391676E+03 -0.30881409782E+03  0.33171398384E+03  0.10566000000E+00 0. -1.
          4    1    1    2  501    0 -0.31631194313E+03  0.11010825338E+03 -0.15100718450E+02  0.33526870496E+03  0.00000000000E+00 0.  1.
</event>
<event>
 5    1  0.7625606E-005  0.5082070E+03  0.7818608E-02  0.9839597E-01
         -4   -1    0    0    0  501 -0.00000000000E+00  0.00000000000E+00  0.18991331230E+04  0.18991331230E+04  0.00000000000E+00 0. -1.
         21   -1    0    0  501  502  0.00000000000E+00 -0.00000000000E+00 -0.17937036179E+03  0.17937036179E+03  0.00000000000E+00 0. -1.
        -13    1    1    2    0    0 -0.11898577304E+03  0.60679091142E+02  0.27361741873E+03  0.30447671386E+03  0.10566000000E+00 0.  1.
         13    1    1    2    0    0 -0.65906076676E-01 -0.53342546302E+03  0.65485674044E+03  0.84461831060E+03  0.10566000000E+00 0. -1.
         -4    1    1    2    0  502  0.11905167912E+03  0.47274637188E+03  0.79128860205E+03  0.92940846034E+03  0.00000000000E+00 0. -1.
</event>
<event>
 5    1  0.7625606E-005  0.4541846E+03  0.7818608E-02  0.1007267E+00
         -4   -1    0    0    0  501 -0.00000000000E+00  0.00000000000E+00  0.22453473953E+04  0.22453473953E+04  0.00000000000E+00 0. -1.
         21   -1    0    0  501  502  0.00000000000E+00 -0.00000000000E+00 -0.13454806059E+03  0.13454806059E+03  0.00000000000E+00 0. -1.
        -13    1    1    2    0    0 -0.34617536374E+02 -0.79337891680E+02  0.27438247995E+03  0.28771275841E+03  0.10566000000E+00 0.  1.
         13    1    1    2    0    0 -0.42941580604E+03  0.13761722769E+03  0.48551682008E+03  0.66261831364E+03  0.10566000000E+00 0. -1.
         -4    1    1    2    0  502  0.46403334241E+03 -0.58279336014E+02  0.13509000347E+04  0.14295643839E+04  0.00000000000E+00 0. -1.
</event>
<event>
 5    1  0.7625606E-005  0.3994077E+03  0.7818608E-02  0.9730758E-01
         21   -1    0    0  501  502  0.00000000000E+00  0.00000000000E+00  0.12295925817E+04  0.12295925817E+04  0.00000000000E+00 0.  1.
          4   -1    0    0  502    0 -0.00000000000E+00 -0.00000000000E+00 -0.41286344555E+03  0.41286344555E+03  0.00000000000E+00 0.  1.
        -13    1    1    2    0    0  0.12647457333E+03 -0.38163996997E+03 -0.70024858045E+02  0.40810338921E+03  0.10566000000E+00 0.  1.
         13    1    1    2    0    0 -0.11129017054E+03  0.38006024225E+03  0.51953601610E+02  0.39941266590E+03  0.10566000000E+00 0. -1.
          4    1    1    2  501    0 -0.15184402783E+02  0.15797277250E+01  0.83480039258E+03  0.83493997214E+03  0.00000000000E+00 0.  1.
</event>
<event>
 5    1  0.7625606E-005  0.3929695E+03  0.7818608E-02  0.1012883E+00
         21   -1    0    0  501  502  0.00000000000E+00  0.00000000000E+00  0.33121188691E+03  0.33121188691E+03  0.00000000000E+00 0.  1.
          4   -1    0    0  502    0 -0.00000000000E+00 -0.00000000000E+00 -0.13516229784E+04  0.13516229784E+04  0.00000000000E+00 0.  1.
        -13    1    1    2    0    0  0.46307022147E+03  0.10537570569E+03 -0.52350273532E+03  0.70681906766E+03  0.10566000000E+00 0.  1.
         13    1    1    2    0    0 -0.91758853465E+02 -0.63485213581E+02 -0.58215226391E+03  0.59274895957E+03  0.10566000000E+00 0. -1.
          4    1    1    2  501    0 -0.37131136801E+03 -0.41890492106E+02  0.85243907767E+02  0.38326683805E+03  0.00000000000E+00 0.  1.
</event>
<event>
 5    1  0.1061270E-004  0.4421719E+03  0.7818608E-02  0.1026327E+00
         -4   -1    0    0    0  501 -0.00000000000E+00  0.00000000000E+00  0.35333722449E+03  0.35333722449E+03  0.00000000000E+00 0. -1.
         21   -1    0    0  501  502  0.00000000000E+00 -0.00000000000E+00 -0.80761254800E+03  0.80761254800E+03  0.00000000000E+00 0. -1.
        -13    1    1    2    0    0  0.23930375883E+01 -0.51197151237E+02  0.21993046561E+02  0.55772575561E+02  0.10566000000E+00 0.  1.
         13    1    1    2    0    0  0.41306794808E+03  0.19049014225E+03  0.42071726188E+01  0.45489486202E+03  0.10566000000E+00 0. -1.
         -4    1    1    2    0  502 -0.41546098567E+03 -0.13929299101E+03 -0.48047554269E+03  0.65028233490E+03  0.00000000000E+00 0. -1.
</event>
<event>
 5    1  0.7625606E-005  0.2712659E+03  0.7818608E-02  0.1045826E+00
         21   -1    0    0  501  502  0.00000000000E+00  0.00000000000E+00  0.58139790750E+03  0.58139790750E+03  0.00000000000E+00 0.  1.
          4   -1    0    0  502    0 -0.00000000000E+00 -0.00000000000E+00 -0.29201272462E+03  0.29201272462E+03  0.00000000000E+00 0.  1.
        -13    1    1    2    0    0 -0.13659551776E+03 -0.12777395364E+03 -0.15423508336E+03  0.24243141464E+03  0.10566000000E+00 0.  1.
         13    1    1    2    0    0 -0.16833966182E+02 -0.12121911588E+03  0.32827799470E+02  0.12670884758E+03  0.10566000000E+00 0. -1.
          4    1    1    2  501    0  0.15342948394E+03  0.24899306952E+03  0.41079246677E+03  0.50427036991E+03  0.00000000000E+00 0.  1.
</event>
<event>
 5    1  0.7625606E-005  0.1660727E+03  0.7818608E-02  0.1086259E+00
         21   -1    0    0  501  502  0.00000000000E+00  0.00000000000E+00  0.22390295864E+02  0.22390295864E+02  0.00000000000E+00 0. -1.
          4   -1    0    0  502    0 -0.00000000000E+00 -0.00000000000E+00 -0.15762042977E+04  0.15762042977E+04  0.00000000000E+00 0.  1.
        -13    1    1    2    0    0 -0.13938005814E+03 -0.85742973036E+02 -0.75548190156E+03  0.77300166415E+03  0.10566000000E+00 0.  1.
         13    1    1    2    0    0  0.12665993296E+03  0.11360672634E+03 -0.74413958958E+03  0.76334328243E+03  0.10566000000E+00 0. -1.
          4    1    1    2  501    0  0.12720125184E+02 -0.27863753308E+02 -0.54192510668E+02  0.62249646952E+02  0.00000000000E+00 0.  1.
</event>
<event>
 5    1  0.7625606E-005  0.3230675E+03  0.7818608E-02  0.9982139E-01
         -4   -1    0    0    0  501 -0.00000000000E+00  0.00000000000E+00  0.31463985875E+03  0.31463985875E+03  0.00000000000E+00 0. -1.
         21   -1    0    0  501  502  0.00000000000E+00 -0.00000000000E+00 -0.86756560531E+03  0.86756560531E+03  0.00000000000E+00 0. -1.
        -13    1    1    2    0    0  0.32103524821E+03  0.10175004601E+01  0.23471110223E+02  0.32189372482E+03  0.10566000000E+00 0.  1.
         13    1    1    2    0    0 -0.32543283816E+03 -0.15004218698E+02 -0.45184529324E+02  0.32889711398E+03  0.10566000000E+00 0. -1.
         -4    1    1    2    0  502  0.43975899500E+01  0.13986718238E+02 -0.53121232747E+03  0.53141462526E+03  0.00000000000E+00 0. -1.
</event>
<event>
 5    1  0.7625606E-005  0.5337383E+03  0.7818608E-02  0.9406940E-01
         21   -1    0    0  501  502  0.00000000000E+00  0.00000000000E+00  0.33216337256E+03  0.33216337256E+03  0.00000000000E+00 0. -1.
         -4   -1    0    0    0  501 -0.00000000000E+00 -0.00000000000E+00 -0.16387429647E+04  0.16387429647E+04  0.00000000000E+00 0. -1.
        -13    1    1    2    0    0 -0.41021057031E+03 -0.35295935544E+02 -0.34362094314E+03  0.53627780001E+03  0.10566000000E+00 0.  1.
         13    1    1    2    0    0  0.66825756741E+03 -0.23911679731E+02 -0.95991111831E+03  0.11698586714E+04  0.10566000000E+00 0. -1.
         -4    1    1    2    0  502 -0.25804699710E+03  0.59207615275E+02 -0.30475306907E+01  0.26476986585E+03  0.00000000000E+00 0. -1.
</event>
<event>
 5    1  0.7625606E-005  0.1745884E+03  0.7818608E-02  0.1079107E+00
         21   -1    0    0  501  502  0.00000000000E+00  0.00000000000E+00  0.40544451587E+03  0.40544451587E+03  0.00000000000E+00 0.  1.
          4   -1    0    0  502    0 -0.00000000000E+00 -0.00000000000E+00 -0.12247473106E+03  0.12247473106E+03  0.00000000000E+00 0.  1.
        -13    1    1    2    0    0 -0.90521586497E+02 -0.16807164349E+03  0.19553663500E+02  0.19189734727E+03  0.10566000000E+00 0.  1.
         13    1    1    2    0    0  0.77825275546E+02  0.12669846895E+03  0.13618729413E+03  0.20163398968E+03  0.10566000000E+00 0. -1.
          4    1    1    2  501    0  0.12696310951E+02  0.41373174536E+02  0.12722882717E+03  0.13438790997E+03  0.00000000000E+00 0.  1.
</event>
<event>
 5    1  0.7625606E-005  0.6853765E+03  0.7818608E-02  0.9144466E-01
         21   -1    0    0  501  502  0.00000000000E+00  0.00000000000E+00  0.42158942841E+03  0.42158942841E+03  0.00000000000E+00 0.  1.
         -4   -1    0    0    0  501 -0.00000000000E+00 -0.00000000000E+00 -0.21045362056E+04  0.21045362056E+04  0.00000000000E+00 0. -1.
        -13    1    1    2    0    0  0.37324104992E+03  0.59434349753E+03 -0.26159867674E+03  0.74899062293E+03  0.10566000000E+00 0.  1.
         13    1    1    2    0    0 -0.33692568951E+03 -0.59138309137E+03 -0.15235301120E+04  0.16686512201E+04  0.10566000000E+00 0. -1.
         -4    1    1    2    0  502 -0.36315360410E+02 -0.29604061564E+01  0.10218201159E+03  0.10848379095E+03  0.00000000000E+00 0. -1.
</event>
<event>
 5    1  0.7625606E-005  0.1264738E+03  0.7818608E-02  0.1126945E+00
          4   -1    0    0  502    0 -0.00000000000E+00  0.00000000000E+00  0.37012147366E+02  0.37012147366E+02  0.00000000000E+00 0.  1.
         21   -1    0    0  501  502  0.00000000000E+00 -0.00000000000E+00 -0.60594300460E+03  0.60594300460E+03  0.00000000000E+00 0. -1.
        -13    1    1    2    0    0  0.46914318938E+02 -0.12285871866E+03 -0.20726881991E+03  0.24547014675E+03  0.10566000000E+00 0.  1.
         13    1    1    2    0    0 -0.25692075758E+02  0.11963289617E+03 -0.20041528308E+03  0.23481569253E+03  0.10566000000E+00 0. -1.
          4    1    1    2  501    0 -0.21222243181E+02  0.32258224927E+01 -0.16124675424E+03  0.16266931268E+03  0.00000000000E+00 0.  1.
</event>
<event>
 5    1  0.7625606E-005  0.4666663E+03  0.7818608E-02  0.9674977E-01
         21   -1    0    0  501  502  0.00000000000E+00  0.00000000000E+00  0.20044182616E+03  0.20044182616E+03  0.00000000000E+00 0.  1.
          4   -1    0    0  502    0 -0.00000000000E+00 -0.00000000000E+00 -0.27463707432E+04  0.27463707432E+04  0.00000000000E+00 0.  1.
        -13    1    1    2    0    0 -0.31362406366E+03 -0.32351836699E+03 -0.36188625312E+03  0.57791509623E+03  0.10566000000E+00 0.  1.
         13    1    1    2    0    0  0.20169975269E+03 -0.22753828997E+03 -0.11755052727E+04  0.12141948447E+04  0.10566000000E+00 0. -1.
          4    1    1    2  501    0  0.11192431097E+03  0.55105665696E+03 -0.10085373912E+04  0.11547026284E+04  0.00000000000E+00 0.  1.
</event>
<event>
 5    1  0.7625606E-005  0.3392135E+03  0.7818608E-02  0.9923195E-01
         21   -1    0    0  501  502  0.00000000000E+00  0.00000000000E+00  0.19732545494E+04  0.19732545494E+04  0.00000000000E+00 0. -1.
         -4   -1    0    0    0  501 -0.00000000000E+00 -0.00000000000E+00 -0.23417014451E+03  0.23417014451E+03  0.00000000000E+00 0. -1.
        -13    1    1    2    0    0  0.25972939754E+03 -0.17663887522E+03  0.44717888484E+03  0.54647014410E+03  0.10566000000E+00 0.  1.
         13    1    1    2    0    0 -0.25072367453E+03  0.24242899961E+03 -0.18135050090E+02  0.34923211769E+03  0.10566000000E+00 0. -1.
         -4    1    1    2    0  502 -0.90057230117E+01 -0.65790124394E+02  0.13100405701E+04  0.13117224321E+04  0.00000000000E+00 0. -1.
</event>
<event>
 5    1  0.7625606E-005  0.4800085E+03  0.7818608E-02  0.9699365E-01
         21   -1    0    0  501  502  0.00000000000E+00  0.00000000000E+00  0.26447082751E+03  0.26447082751E+03  0.00000000000E+00 0.  1.
          4   -1    0    0  502    0 -0.00000000000E+00 -0.00000000000E+00 -0.18778131927E+04  0.18778131927E+04  0.00000000000E+00 0.  1.
        -13    1    1    2    0    0 -0.45394234810E+03 -0.46336082692E+03 -0.72169787347E+03  0.97036835431E+03  0.10566000000E+00 0.  1.
         13    1    1    2    0    0  0.22531883088E+03  0.12278323269E+03 -0.64283631993E+03  0.69215810561E+03  0.10566000000E+00 0. -1.
          4    1    1    2  501    0  0.22862351722E+03  0.34057759423E+03 -0.24880817183E+03  0.47975756032E+03  0.00000000000E+00 0.  1.
</event>
<event>
 5    1  0.7625606E-005  0.2633644E+03  0.7818608E-02  0.1045631E+00
         21   -1    0    0  501  502  0.00000000000E+00  0.00000000000E+00  0.36309367333E+03  0.36309367333E+03  0.00000000000E+00 0. -1.
         -4   -1    0    0    0  501 -0.00000000000E+00 -0.00000000000E+00 -0.14302119480E+04  0.14302119480E+04  0.00000000000E+00 0. -1.
        -13    1    1    2    0    0  0.31852956675E+03  0.18530273386E+03 -0.22024106398E+03  0.42930679647E+03  0.10566000000E+00 0.  1.
         13    1    1    2    0    0  0.12275072520E+03 -0.13855855309E+03  0.17199776573E+03  0.25268449844E+03  0.10566000000E+00 0. -1.
         -4    1    1    2    0  502 -0.44128029194E+03 -0.46744180769E+02 -0.10188749764E+04  0.11113143264E+04  0.00000000000E+00 0. -1.
</event>
<event>
 5    1  0.7625606E-005  0.1424854E+03  0.7818608E-02  0.1108769E+00
          4   -1    0    0  502    0 -0.00000000000E+00  0.00000000000E+00  0.11071816247E+04  0.11071816247E+04  0.00000000000E+00 0.  1.
         21   -1    0    0  501  502  0.00000000000E+00 -0.00000000000E+00 -0.21653651110E+02  0.21653651110E+02  0.00000000000E+00 0. -1.
        -13    1    1    2    0    0  0.11160775943E+03  0.95675462500E+02  0.59594411644E+03  0.61380736977E+03  0.10566000000E+00 0.  1.
         13    1    1    2    0    0 -0.94924877453E+02 -0.99920862966E+02  0.46515192602E+03  0.48514042983E+03  0.10566000000E+00 0. -1.
          4    1    1    2  501    0 -0.16682881974E+02  0.42454004659E+01  0.24431931158E+02  0.29887476243E+02  0.00000000000E+00 0.  1.
</event>
<event>
 5    1  0.7625606E-005  0.1770101E+03  0.7818608E-02  0.1077152E+00
          4   -1    0    0  502    0 -0.00000000000E+00  0.00000000000E+00  0.24737454849E+03  0.24737454849E+03  0.00000000000E+00 0.  1.
         21   -1    0    0  501  502  0.00000000000E+00 -0.00000000000E+00 -0.45309396210E+03  0.45309396210E+03  0.00000000000E+00 0. -1.
        -13    1    1    2    0    0  0.17205772050E+03 -0.43572903603E+02  0.18940719789E+03  0.25957186844E+03  0.10566000000E+00 0.  1.
         13    1    1    2    0    0 -0.16993133454E+03  0.31356793403E+02 -0.31031607061E+03  0.35518443349E+03  0.10566000000E+00 0. -1.
          4    1    1    2  501    0 -0.21263859582E+01  0.12216110200E+02 -0.84810540893E+02  0.85712208653E+02  0.00000000000E+00 0.  1.
</event>
<event>
 5    1  0.7625606E-005  0.3991287E+02  0.7818608E-02  0.1346282E+00
          4   -1    0    0  502    0 -0.00000000000E+00  0.00000000000E+00  0.12344654226E+02  0.12344654226E+02  0.00000000000E+00 0.  1.
         21   -1    0    0  501  502  0.00000000000E+00 -0.00000000000E+00 -0.10777322094E+04  0.10777322094E+04  0.00000000000E+00 0.  1.
        -13    1    1    2    0    0  0.43331971958E+02  0.54970349050E+01 -0.48538901324E+02  0.65298646941E+02  0.10566000000E+00 0.  1.
         13    1    1    2    0    0 -0.20984695117E+02  0.28248642914E+02 -0.84279990708E+02  0.91331655265E+02  0.10566000000E+00 0. -1.
          4    1    1    2  501    0 -0.22347276841E+02 -0.33745677819E+02 -0.93256866317E+03  0.93344656145E+03  0.00000000000E+00 0.  1.
</event>
<event>
 5    1  0.7625606E-005  0.3278457E+03  0.7818608E-02  0.1021289E+00
         21   -1    0    0  501  502  0.00000000000E+00  0.00000000000E+00  0.34348008941E+03  0.34348008941E+03  0.00000000000E+00 0.  1.
          4   -1    0    0  502    0 -0.00000000000E+00 -0.00000000000E+00 -0.10310054098E+04  0.10310054098E+04  0.00000000000E+00 0.  1.
        -13    1    1    2    0    0  0.31623268812E+03  0.90657990842E+02 -0.80873196994E+03  0.87308040564E+03  0.10566000000E+00 0.  1.
         13    1    1    2    0    0  0.10620458344E+02 -0.14682479051E+03 -0.30708442673E+01  0.14724046486E+03  0.10566000000E+00 0. -1.
          4    1    1    2  501    0 -0.32685314646E+03  0.56166799665E+02  0.12427749385E+03  0.35416462869E+03  0.00000000000E+00 0.  1.
</event>
<event>
 5    1  0.7625606E-005  0.3936480E+03  0.7818608E-02  0.9939609E-01
          4   -1    0    0  502    0 -0.00000000000E+00  0.00000000000E+00  0.68881511713E+03  0.68881511713E+03  0.00000000000E+00 0.  1.
         21   -1    0    0  501  502  0.00000000000E+00 -0.00000000000E+00 -0.52803649729E+03  0.52803649729E+03  0.00000000000E+00 0.  1.
        -13    1    1    2    0    0 -0.29859213507E+02 -0.51510584625E+03  0.29101722393E+03  0.59238217501E+03  0.10566000000E+00 0.  1.
         13    1    1    2    0    0  0.12789012395E+03  0.16089250253E+03  0.55193967542E+02  0.21281133990E+03  0.10566000000E+00 0. -1.
          4    1    1    2  501    0 -0.98030910439E+02  0.35421334372E+03 -0.18543257163E+03  0.41165809951E+03  0.00000000000E+00 0.  1.
</event>
<event>
 5    1  0.7625606E-005  0.1844036E+03  0.7818608E-02  0.1071388E+00
         21   -1    0    0  501  502  0.00000000000E+00  0.00000000000E+00  0.23798449457E+03  0.23798449457E+03  0.00000000000E+00 0. -1.
          4   -1    0    0  502    0 -0.00000000000E+00 -0.00000000000E+00 -0.20457558028E+03  0.20457558028E+03  0.00000000000E+00 0.  1.
        -13    1    1    2    0    0  0.15323449019E+03  0.99498319649E+02 -0.88379193075E+02  0.20295718152E+03  0.10566000000E+00 0.  1.
         13    1    1    2    0    0 -0.16677209119E+03 -0.90377731077E+02  0.10828742167E+03  0.21841987440E+03  0.10566000000E+00 0. -1.
          4    1    1    2  501    0  0.13537601002E+02 -0.91205885715E+01  0.13500685699E+02  0.21183018933E+02  0.00000000000E+00 0.  1.
</event>
<event>
 5    1  0.7625606E-005  0.4663094E+03  0.7818608E-02  0.1012415E+00
         -4   -1    0    0    0  501 -0.00000000000E+00  0.00000000000E+00  0.75852269653E+03  0.75852269653E+03  0.00000000000E+00 0. -1.
         21   -1    0    0  501  502  0.00000000000E+00 -0.00000000000E+00 -0.44578651450E+03  0.44578651450E+03  0.00000000000E+00 0. -1.
        -13    1    1    2    0    0 -0.67390825063E+02 -0.73107807885E+01  0.18508569563E+03  0.19710833749E+03  0.10566000000E+00 0.  1.
         13    1    1    2    0    0 -0.16478602665E+03  0.42110282185E+03  0.25067852369E+03  0.51703167655E+03  0.10566000000E+00 0. -1.
         -4    1    1    2    0  502  0.23217685171E+03 -0.41379204106E+03 -0.12302803729E+03  0.49016919699E+03  0.00000000000E+00 0. -1.
</event>
<event>
 5    1  0.7625606E-005  0.5909242E+03  0.7818608E-02  0.9298278E-01
         21   -1    0    0  501  502  0.00000000000E+00  0.00000000000E+00  0.17598771146E+04  0.17598771146E+04  0.00000000000E+00 0. -1.
          4   -1    0    0  502    0 -0.00000000000E+00 -0.00000000000E+00 -0.50127894685E+03  0.50127894685E+03  0.00000000000E+00 0.  1.
        -13    1    1    2    0    0 -0.50978524428E+03  0.27310702176E+03  0.83650719025E+02  0.58435083176E+03  0.10566000000E+00 0.  1.
         13    1    1    2    0    0  0.64636212557E+03 -0.16555687028E+02  0.22693761128E+03  0.68524359079E+03  0.10566000000E+00 0. -1.
          4    1    1    2  501    0 -0.13657688129E+03 -0.25655133473E+03  0.94800983742E+03  0.99156163888E+03  0.00000000000E+00 0.  1.
</event>
<event>
 5    1  0.7625606E-005  0.5073407E+03  0.7818608E-02  0.9462027E-01
          4   -1    0    0  502    0 -0.00000000000E+00  0.00000000000E+00  0.11292093754E+04  0.11292093754E+04  0.00000000000E+00 0.  1.
         21   -1    0    0  501  502  0.00000000000E+00 -0.00000000000E+00 -0.29461545832E+03  0.29461545832E+03  0.00000000000E+00 0. -1.
        -13    1    1    2    0    0  0.51445229096E+03  0.55062546874E+02  0.72691028852E+03  0.89223966650E+03  0.10566000000E+00 0.  1.
         13    1    1    2    0    0 -0.48227060328E+03 -0.39453795824E+02  0.10812574987E+03  0.49581521330E+03  0.10566000000E+00 0. -1.
          4    1    1    2  501    0 -0.32181687686E+02 -0.15608751050E+02 -0.44212131308E+00  0.35769953912E+02  0.00000000000E+00 0.  1.
</event>
<event>
 5    1  0.7625606E-005  0.5562898E+03  0.7818608E-02  0.9362453E-01
          4   -1    0    0  502    0 -0.00000000000E+00  0.00000000000E+00  0.42064864760E+03  0.42064864760E+03  0.00000000000E+00 0.  1.
         21   -1    0    0  501  502  0.00000000000E+00 -0.00000000000E+00 -0.16713048375E+04  0.16713048375E+04  0.00000000000E+00 0.  1.
        -13    1    1    2    0    0 -0.47045132036E+03 -0.45402687128E+03 -0.10892203639E+04  0.12703802017E+04  0.10566000000E+00 0.  1.
         13    1    1    2    0    0  0.46522497011E+03  0.24799844839E+03 -0.26596379439E+03  0.59048645565E+03  0.10566000000E+00 0. -1.
          4    1    1    2  501    0  0.52263502564E+01  0.20602842289E+03  0.10452796837E+03  0.23108682772E+03  0.00000000000E+00 0.  1.
</event>
<event>
 5    1  0.7625606E-005  0.7225213E+03  0.7818608E-02  0.9090933E-01
         -4   -1    0    0    0  501 -0.00000000000E+00  0.00000000000E+00  0.15613765424E+04  0.15613765424E+04  0.00000000000E+00 0. -1.
         21   -1    0    0  501  502  0.00000000000E+00 -0.00000000000E+00 -0.49898202877E+03  0.49898202877E+03  0.00000000000E+00 0.  1.
        -13    1    1    2    0    0  0.20476425619E+03  0.56762756465E+03  0.25916527698E+03  0.65673137942E+03  0.10566000000E+00 0.  1.
         13    1    1    2    0    0 -0.38601123611E+03 -0.73606730989E+03  0.80373328970E+03  0.11561950403E+04  0.10566000000E+00 0. -1.
         -4    1    1    2    0  502  0.18124697992E+03  0.16843974524E+03 -0.50405303187E+00  0.24743215146E+03  0.00000000000E+00 0. -1.
</event>
<event>
 5    1  0.7625606E-005  0.2173387E+03  0.7818608E-02  0.1048858E+00
         -4   -1    0    0    0  501 -0.00000000000E+00  0.00000000000E+00  0.89136972706E+03  0.89136972706E+03  0.00000000000E+00 0. -1.
         21   -1    0    0  501  502  0.00000000000E+00 -0.00000000000E+00 -0.76145011433E+02  0.76145011433E+02  0.00000000000E+00 0. -1.
        -13    1    1    2    0    0 -0.12222473666E+03  0.15239491210E+03  0.21888652207E+03  0.29338441710E+03  0.10566000000E+00 0.  1.
         13    1    1    2    0    0  0.17367965211E+03 -0.15354174208E+03  0.57201600628E+03  0.61720499894E+03  0.10566000000E+00 0. -1.
         -4    1    1    2    0  502 -0.51454915450E+02  0.11468299764E+01  0.24322187275E+02  0.56925322457E+02  0.00000000000E+00 0. -1.
</event>
<event>
 5    1  0.7625606E-005  0.1328774E+03  0.7818608E-02  0.1119344E+00
         -4   -1    0    0    0  501 -0.00000000000E+00  0.00000000000E+00  0.20517101748E+03  0.20517101748E+03  0.00000000000E+00 0. -1.
         21   -1    0    0  501  502  0.00000000000E+00 -0.00000000000E+00 -0.44145772011E+03  0.44145772011E+03  0.00000000000E+00 0. -1.
        -13    1    1    2    0    0 -0.70129875470E+02 -0.12071491250E+03 -0.62745963513E+01  0.13974860020E+03  0.10566000000E+00 0.  1.
         13    1    1    2    0    0  0.45908541412E+02  0.12226140608E+03  0.10709965941E+03  0.16889580753E+03  0.10566000000E+00 0. -1.
         -4    1    1    2    0  502  0.24221334057E+02 -0.15464935843E+01 -0.33711176569E+03  0.33798432986E+03  0.00000000000E+00 0. -1.
</event>
<event>
 5    1  0.7625606E-005  0.3408539E+02  0.7818608E-02  0.1374820E+00
         21   -1    0    0  501  502  0.00000000000E+00  0.00000000000E+00  0.20353749669E+03  0.20353749669E+03  0.00000000000E+00 0.  1.
          4   -1    0    0  502    0 -0.00000000000E+00 -0.00000000000E+00 -0.13095959933E+03  0.13095959933E+03  0.00000000000E+00 0.  1.
        -13    1    1    2    0    0  0.30621063668E+02 -0.18579071794E+02 -0.11621169470E+03  0.12160592337E+03  0.10566000000E+00 0.  1.
         13    1    1    2    0    0 -0.79150996262E+01  0.27971882998E+02  0.76059609221E+01  0.30048907569E+02  0.10566000000E+00 0. -1.
          4    1    1    2  501    0 -0.22705964042E+02 -0.93928112037E+01  0.18118363114E+03  0.18284226508E+03  0.00000000000E+00 0.  1.
</event>
<event>
 5    1  0.7625606E-005  0.4576987E+03  0.7818608E-02  0.9692547E-01
         21   -1    0    0  501  502  0.00000000000E+00  0.00000000000E+00  0.40666213410E+03  0.40666213410E+03  0.00000000000E+00 0. -1.
         -4   -1    0    0    0  501 -0.00000000000E+00 -0.00000000000E+00 -0.18436692211E+04  0.18436692211E+04  0.00000000000E+00 0. -1.
        -13    1    1    2    0    0  0.15384927539E+03  0.26115091190E+03 -0.11200499487E+04  0.11603367171E+04  0.10566000000E+00 0.  1.
         13    1    1    2    0    0 -0.42952962757E+03 -0.50784978030E+03 -0.26685279105E+03  0.71667114045E+03  0.10566000000E+00 0. -1.
         -4    1    1    2    0  502  0.27568035218E+03  0.24669886840E+03 -0.50104347216E+02  0.37332349760E+03  0.00000000000E+00 0. -1.
</event>
<event>
 5    1  0.7625606E-005  0.2900931E+03  0.7818608E-02  0.1011481E+00
         -4   -1    0    0    0  501 -0.00000000000E+00  0.00000000000E+00  0.94613068946E+03  0.94613068946E+03  0.00000000000E+00 0. -1.
         21   -1    0    0  501  502  0.00000000000E+00 -0.00000000000E+00 -0.25168342275E+03  0.25168342275E+03  0.00000000000E+00 0.  1.
        -13    1    1    2    0    0  0.51425076614E+02  0.25275263784E+03  0.23329853423E+02  0.25898402975E+03  0.10566000000E+00 0.  1.
         13    1    1    2    0    0 -0.71221247931E+02 -0.28903957142E+03  0.77329170660E+03  0.82861113598E+03  0.10566000000E+00 0. -1.
         -4    1    1    2    0  502  0.19796171317E+02  0.36286933583E+02 -0.10217429331E+03  0.11021894647E+03  0.00000000000E+00 0. -1.
</event>
<event>
 5    1  0.7625606E-005  0.3886787E+03  0.7818608E-02  0.9762323E-01
         -4   -1    0    0    0  501 -0.00000000000E+00  0.00000000000E+00  0.13083722470E+04  0.13083722470E+04  0.00000000000E+00 0. -1.
         21   -1    0    0  501  502  0.00000000000E+00 -0.00000000000E+00 -0.35935622092E+03  0.35935622092E+03  0.00000000000E+00 0. -1.
        -13    1    1    2    0    0 -0.23903419589E+02 -0.31268642958E+03  0.40497962086E+03  0.51220374968E+03  0.10566000000E+00 0.  1.
         13    1    1    2    0    0  0.15320174309E+01  0.49460258238E+03  0.73815954354E+03  0.88854576948E+03  0.10566000000E+00 0. -1.
         -4    1    1    2    0  502  0.22371402158E+02 -0.18191615280E+03 -0.19412313828E+03  0.26697894879E+03  0.00000000000E+00 0. -1.
</event>
<event>
 5    1  0.7625606E-005  0.4798717E+03  0.7818608E-02  0.9954942E-01
         21   -1    0    0  501  502  0.00000000000E+00  0.00000000000E+00  0.15561004041E+03  0.15561004041E+03  0.00000000000E+00 0.  1.
          4   -1    0    0  502    0 -0.00000000000E+00 -0.00000000000E+00 -0.19530027391E+04  0.19530027391E+04  0.00000000000E+00 0.  1.
        -13    1    1    2    0    0 -0.12898021336E+03  0.47402620667E+03 -0.73561939355E+03  0.88457483763E+03  0.10566000000E+00 0.  1.
         13    1    1    2    0    0 -0.93128785911E+02 -0.54363296256E+02 -0.36701054845E+03  0.38252463004E+03  0.10566000000E+00 0. -1.
          4    1    1    2  501    0  0.22210899927E+03 -0.41966291041E+03 -0.69476275666E+03  0.84151331182E+03  0.00000000000E+00 0.  1.
</event>
<event>
 5    1  0.7625606E-005  0.4038434E+03  0.7818608E-02  0.1048943E+00
         21   -1    0    0  501  502  0.00000000000E+00  0.00000000000E+00  0.11377227282E+04  0.11377227282E+04  0.00000000000E+00 0. -1.
         -4   -1    0    0    0  501 -0.00000000000E+00 -0.00000000000E+00 -0.43428231582E+03  0.43428231582E+03  0.00000000000E+00 0. -1.
        -13    1    1    2    0    0 -0.80938553108E+01  0.32808153649E+02 -0.20399677229E+03  0.20677664208E+03  0.10566000000E+00 0.  1.
         13    1    1    2    0    0  0.12157919613E+03  0.37920704880E+03  0.84394523962E+03  0.93317901039E+03  0.10566000000E+00 0. -1.
         -4    1    1    2    0  502 -0.11348534082E+03 -0.41201520245E+03  0.63491945040E+02  0.43204939152E+03  0.00000000000E+00 0. -1.
</event>
<event>
 5    1  0.7625606E-005  0.2392547E+03  0.7818608E-02  0.1042520E+00
          4   -1    0    0  502    0 -0.00000000000E+00  0.00000000000E+00  0.25043059756E+04  0.25043059756E+04  0.00000000000E+00 0.  1.
         21   -1    0    0  501  502  0.00000000000E+00 -0.00000000000E+00 -0.15839985750E+03  0.15839985750E+03  0.00000000000E+00 0.  1.
        -13    1    1    2    0    0  0.22156583483E+03  0.35494813687E+03  0.16192788275E+04  0.16724663020E+04  0.10566000000E+00 0.  1.
         13    1    1    2    0    0 -0.13333379820E+03 -0.14503826033E+03  0.73643167609E+03  0.76232907817E+03  0.10566000000E+00 0. -1.
          4    1    1    2  501    0 -0.88232036631E+02 -0.20990987654E+03 -0.98043855374E+01  0.22791045288E+03  0.00000000000E+00 0.  1.
</event>
<event>
 5    1  0.7625606E-005  0.4598566E+03  0.7818608E-02  0.9891193E-01
         21   -1    0    0  501  502  0.00000000000E+00  0.00000000000E+00  0.25645085360E+03  0.25645085360E+03  0.00000000000E+00 0.  1.
          4   -1    0    0  502    0 -0.00000000000E+00 -0.00000000000E+00 -0.19210397446E+04  0.19210397446E+04  0.00000000000E+00 0.  1.
        -13    1    1    2    0    0  0.36698331793E+03  0.35056998487E+03 -0.61886577626E+03  0.80035675178E+03  0.10566000000E+00 0.  1.
         13    1    1    2    0    0 -0.14703522667E+03  0.36567091484E+02 -0.89398455107E+03  0.90673309126E+03  0.10566000000E+00 0. -1.
          4    1    1    2  501    0 -0.21994809126E+03 -0.38713707636E+03 -0.15173856366E+03  0.47040075515E+03  0.00000000000E+00 0.  1.
</event>
<event>
 5    1  0.7625606E-005  0.4024228E+03  0.7818608E-02  0.9819478E-01
          4   -1    0    0  502    0 -0.00000000000E+00  0.00000000000E+00  0.14405705121E+04  0.14405705121E+04  0.00000000000E+00 0.  1.
         21   -1    0    0  501  502  0.00000000000E+00 -0.00000000000E+00 -0.36778082560E+03  0.36778082560E+03  0.00000000000E+00 0.  1.
        -13    1    1    2    0    0 -0.50122018537E+02 -0.31129307531E+03  0.60900156450E+03  0.68578313789E+03  0.10566000000E+00 0.  1.
         13    1    1    2    0    0  0.28063826980E+03 -0.64779105916E+02  0.59611556508E+03  0.66204829819E+03  0.10566000000E+00 0. -1.
          4    1    1    2  501    0 -0.23051625126E+03  0.37607218123E+03 -0.13232744309E+03  0.46051990161E+03  0.00000000000E+00 0.  1.
</event>
<event>
 5    1  0.7625606E-005  0.4625235E+03  0.7818608E-02  0.9726266E-01
         21   -1    0    0  501  502  0.00000000000E+00  0.00000000000E+00  0.20632465668E+04  0.20632465668E+04  0.00000000000E+00 0. -1.
         -4   -1    0    0    0  501 -0.00000000000E+00 -0.00000000000E+00 -0.24127888194E+03  0.24127888194E+03  0.00000000000E+00 0. -1.
        -13    1    1    2    0    0 -0.81862176357E+02  0.24806979767E+03  0.82909976632E+03  0.86927928430E+03  0.10566000000E+00 0.  1.
         13    1    1    2    0    0 -0.43661821243E+03 -0.10312948263E+03  0.67363665838E+03  0.80935623324E+03  0.10566000000E+00 0. -1.
         -4    1    1    2    0  502  0.51848038879E+03 -0.14494031504E+03  0.31923126012E+03  0.62588993115E+03  0.00000000000E+00 0. -1.
</event>
<event>
 5    1  0.7625606E-005  0.5037583E+02  0.7818608E-02  0.1306218E+00
         -4   -1    0    0    0  501 -0.00000000000E+00  0.00000000000E+00  0.23621709359E+02  0.23621709359E+02  0.00000000000E+00 0. -1.
         21   -1    0    0  501  502  0.00000000000E+00 -0.00000000000E+00 -0.43834589851E+03  0.43834589851E+03  0.00000000000E+00 0. -1.
        -13    1    1    2    0    0 -0.81816925266E+01 -0.65720831881E+02 -0.70186662711E+02  0.96500500632E+02  0.10566000000E+00 0.  1.
         13    1    1    2    0    0 -0.20013378041E+02  0.23974430870E+02 -0.20094218545E+02  0.37136200925E+02  0.10566000000E+00 0. -1.
         -4    1    1    2    0  502  0.28195070568E+02  0.41746401011E+02 -0.32444330789E+03  0.32833090631E+03  0.00000000000E+00 0. -1.
</event>
<event>
 5    1  0.7625606E-005  0.4264917E+03  0.7818608E-02  0.9655513E-01
          4   -1    0    0  502    0 -0.00000000000E+00  0.00000000000E+00  0.25112567056E+04  0.25112567056E+04  0.00000000000E+00 0.  1.
         21   -1    0    0  501  502  0.00000000000E+00 -0.00000000000E+00 -0.25101506622E+03  0.25101506622E+03  0.00000000000E+00 0.  1.
        -13    1    1    2    0    0 -0.17793355975E+03 -0.44521180023E+03  0.16500094288E+03  0.50704952526E+03  0.10566000000E+00 0.  1.
         13    1    1    2    0    0 -0.19920456129E+03  0.40056180303E+03  0.98515524656E+03  0.10819718510E+04  0.10566000000E+00 0. -1.
          4    1    1    2  501    0  0.37713812104E+03  0.44649997202E+02  0.11100854500E+04  0.11732503956E+04  0.00000000000E+00 0.  1.
</event>
<event>
 5    1  0.7625606E-005  0.1130791E+03  0.7818608E-02  0.1144562E+00
          4   -1    0    0  502    0 -0.00000000000E+00  0.00000000000E+00  0.53038407547E+02  0.53038407547E+02  0.00000000000E+00 0.  1.
         21   -1    0    0  501  502  0.00000000000E+00 -0.00000000000E+00 -0.72563560676E+03  0.72563560676E+03  0.00000000000E+00 0.  1.
        -13    1    1    2    0    0 -0.11658358672E+03  0.92040611063E+02 -0.19011947853E+03  0.24126465563E+03  0.10566000000E+00 0.  1.
         13    1    1    2    0    0  0.89422507525E+02 -0.41326499084E+02 -0.69779248932E+02  0.12072041718E+03  0.10566000000E+00 0. -1.
          4    1    1    2  501    0  0.27161079195E+02 -0.50714111978E+02 -0.41269847175E+03  0.41668894149E+03  0.00000000000E+00 0.  1.
</event>
<event>
 5    1  0.7625606E-005  0.2034340E+03  0.7818608E-02  0.1057807E+00
          4   -1    0    0  502    0 -0.00000000000E+00  0.00000000000E+00  0.43849988878E+03  0.43849988878E+03  0.00000000000E+00 0.  1.
         21   -1    0    0  501  502  0.00000000000E+00 -0.00000000000E+00 -0.56735804942E+03  0.56735804942E+03  0.00000000000E+00 0. -1.
        -13    1    1    2    0    0 -0.73013930179E+02 -0.19006705115E+03  0.38855035674E+03  0.43866605615E+03  0.10566000000E+00 0.  1.
         13    1    1    2    0    0  0.97575822235E+02  0.17662159423E+03 -0.47803048359E+03  0.51887318589E+03  0.10566000000E+00 0. -1.
          4    1    1    2  501    0 -0.24561892056E+02  0.13445456923E+02 -0.39378033791E+02  0.48318696159E+02  0.00000000000E+00 0.  1.
</event>
<event>
 5    1  0.7625606E-005  0.5930948E+03  0.7818608E-02  0.9447413E-01
          4   -1    0    0  502    0 -0.00000000000E+00  0.00000000000E+00  0.24165145774E+04  0.24165145774E+04  0.00000000000E+00 0.  1.
         21   -1    0    0  501  502  0.00000000000E+00 -0.00000000000E+00 -0.25572504752E+03  0.25572504752E+03  0.00000000000E+00 0. -1.
        -13    1    1    2    0    0 -0.49630016094E+03 -0.60681099924E+02  0.78633426839E+03  0.93183562845E+03  0.10566000000E+00 0.  1.
         13    1    1    2    0    0 -0.13266688177E+03 -0.30766082161E+03  0.50205350240E+03  0.60358380786E+03  0.10566000000E+00 0. -1.
          4    1    1    2  501    0  0.62896704271E+03  0.36834192154E+03  0.87240175914E+03  0.11368201886E+04  0.00000000000E+00 0.  1.
</event>
<event>
 5    1  0.7625606E-005  0.4155321E+03  0.7818608E-02  0.9685229E-01
         21   -1    0    0  501  502  0.00000000000E+00  0.00000000000E+00  0.23147214655E+03  0.23147214655E+03  0.00000000000E+00 0.  1.
         -4   -1    0    0    0  501 -0.00000000000E+00 -0.00000000000E+00 -0.23124074273E+04  0.23124074273E+04  0.00000000000E+00 0. -1.
        -13    1    1    2    0    0 -0.12721675348E+03 -0.32401392324E+03  0.16321996324E+02  0.34847603009E+03  0.10566000000E+00 0.  1.
         13    1    1    2    0    0  0.14066057347E+03  0.39943085432E+03 -0.20718639407E+04  0.21146987030E+04  0.10566000000E+00 0. -1.
         -4    1    1    2    0  502 -0.13443819991E+02 -0.75416931082E+02 -0.25393336292E+02  0.80704840733E+02  0.00000000000E+00 0. -1.
</event>
<event>
 5    1  0.7625606E-005  0.1051566E+03  0.7818608E-02  0.1156295E+00
          4   -1    0    0  502    0 -0.00000000000E+00  0.00000000000E+00  0.13043039869E+03  0.13043039869E+03  0.00000000000E+00 0.  1.
         21   -1    0    0  501  502  0.00000000000E+00 -0.00000000000E+00 -0.24119819920E+03  0.24119819920E+03  0.00000000000E+00 0. -1.
        -13    1    1    2    0    0 -0.46283961619E+02  0.80541667589E+02  0.66741422307E+01  0.93132811939E+02  0.10566000000E+00 0.  1.
         13    1    1    2    0    0  0.47252827876E+02 -0.10801636885E+03  0.35479664311E+02  0.12312263572E+03  0.10566000000E+00 0. -1.
          4    1    1    2  501    0 -0.96886625755E+00  0.27474701265E+02 -0.15292160705E+03  0.15537315024E+03  0.00000000000E+00 0.  1.
</event>
<event>
 5    1  0.7625606E-005  0.6656520E+02  0.7818608E-02  0.1243137E+00
          4   -1    0    0  502    0 -0.00000000000E+00  0.00000000000E+00  0.26627591819E+03  0.26627591819E+03  0.00000000000E+00 0.  1.
         21   -1    0    0  501  502  0.00000000000E+00 -0.00000000000E+00 -0.40428289804E+02  0.40428289804E+02  0.00000000000E+00 0.  1.
        -13    1    1    2    0    0  0.82786640991E+02  0.24749783678E+01  0.50638746053E+02  0.97077531954E+02  0.10566000000E+00 0.  1.
         13    1    1    2    0    0 -0.40017388939E+02 -0.40885428959E+02  0.96039548343E+02  0.11178826293E+03  0.10566000000E+00 0. -1.
          4    1    1    2  501    0 -0.42769252052E+02  0.38410450591E+02  0.79169333991E+02  0.97838413112E+02  0.00000000000E+00 0.  1.
</event>
<event>
 5    1  0.7625606E-005  0.5497702E+03  0.7818608E-02  0.9410204E-01
          4   -1    0    0  502    0 -0.00000000000E+00  0.00000000000E+00  0.12633389737E+04  0.12633389737E+04  0.00000000000E+00 0.  1.
         21   -1    0    0  501  502  0.00000000000E+00 -0.00000000000E+00 -0.11395231978E+04  0.11395231978E+04  0.00000000000E+00 0.  1.
        -13    1    1    2    0    0  0.26950845214E+03  0.52253007062E+03 -0.30119443104E+03  0.66059865041E+03  0.10566000000E+00 0.  1.
         13    1    1    2    0    0  0.32584235447E+03 -0.48805182141E+03  0.83354882452E+03  0.10193976037E+04  0.10566000000E+00 0. -1.
          4    1    1    2  501    0 -0.59535080661E+03 -0.34478249205E+02 -0.40853861755E+03  0.72286591747E+03  0.00000000000E+00 0.  1.
</event>
<event>
 5    1  0.7625606E-005  0.4818288E+03  0.7818608E-02  0.9881500E-01
          4   -1    0    0  502    0 -0.00000000000E+00  0.00000000000E+00  0.79951099167E+03  0.79951099167E+03  0.00000000000E+00 0.  1.
         21   -1    0    0  501  502  0.00000000000E+00 -0.00000000000E+00 -0.45914490765E+03  0.45914490765E+03  0.00000000000E+00 0.  1.
        -13    1    1    2    0    0  0.42407613067E+03  0.18069705795E+03 -0.54754365796E+02  0.46420905107E+03  0.10566000000E+00 0.  1.
         13    1    1    2    0    0  0.35830132936E+01  0.13602331765E+03  0.16707533171E+03  0.21547472835E+03  0.10566000000E+00 0. -1.
          4    1    1    2  501    0 -0.42765914397E+03 -0.31672037560E+03  0.22804511810E+03  0.57897211990E+03  0.00000000000E+00 0.  1.
</event>
<event>
 5    1  0.7625606E-005  0.1817173E+02  0.7818608E-02  0.1559390E+00
         21   -1    0    0  501  502  0.00000000000E+00  0.00000000000E+00  0.68399139952E+02  0.68399139952E+02  0.00000000000E+00 0.  1.
          4   -1    0    0  502    0 -0.00000000000E+00 -0.00000000000E+00 -0.78962157689E+02  0.78962157689E+02  0.00000000000E+00 0.  1.
        -13    1    1    2    0    0  0.27836518025E+02  0.88037693308E+01 -0.53221403925E+02  0.60703435570E+02  0.10566000000E+00 0.  1.
         13    1    1    2    0    0 -0.98838849297E+01 -0.90155077586E+01 -0.18549782838E+02  0.22870858507E+02  0.10566000000E+00 0. -1.
          4    1    1    2  501    0 -0.17952633096E+02  0.21173842773E+00  0.61208169026E+02  0.63787003565E+02  0.00000000000E+00 0.  1.
</event>
<event>
 5    1  0.7625606E-005  0.1061285E+04  0.7818608E-02  0.8822066E-01
         21   -1    0    0  501  502  0.00000000000E+00  0.00000000000E+00  0.17224442368E+04  0.17224442368E+04  0.00000000000E+00 0. -1.
         -4   -1    0    0    0  501 -0.00000000000E+00 -0.00000000000E+00 -0.14376498221E+04  0.14376498221E+04  0.00000000000E+00 0. -1.
        -13    1    1    2    0    0 -0.13108954780E+03  0.67153096141E+03 -0.61410427481E+02  0.68695673331E+03  0.10566000000E+00 0.  1.
         13    1    1    2    0    0 -0.11538986640E+03  0.56026685463E+03 -0.65291162311E+03  0.86804802196E+03  0.10566000000E+00 0. -1.
         -4    1    1    2    0  502  0.24647941420E+03 -0.12317978160E+04  0.99911646534E+03  0.16050893036E+04  0.00000000000E+00 0. -1.
</event>
<event>
 5    1  0.7625606E-005  0.1943010E+03  0.7818608E-02  0.1071328E+00
         -4   -1    0    0    0  501 -0.00000000000E+00  0.00000000000E+00  0.21542183179E+03  0.21542183179E+03  0.00000000000E+00 0. -1.
         21   -1    0    0  501  502  0.00000000000E+00 -0.00000000000E+00 -0.47857590906E+03  0.47857590906E+03  0.00000000000E+00 0. -1.
        -13    1    1    2    0    0  0.15567564186E+03 -0.26444320117E+02 -0.14529942024E+03  0.21458364388E+03  0.10566000000E+00 0.  1.
         13    1    1    2    0    0 -0.15257956526E+03 -0.17104887654E+03  0.32065049590E+02  0.23144420595E+03  0.10566000000E+00 0. -1.
         -4    1    1    2    0  502 -0.30960765993E+01  0.19749319666E+03 -0.14991970662E+03  0.24796989102E+03  0.00000000000E+00 0. -1.
</event>
<event>
 5    1  0.7625606E-005  0.5187635E+02  0.7818608E-02  0.1284332E+00
         21   -1    0    0  501  502  0.00000000000E+00  0.00000000000E+00  0.30086898777E+02  0.30086898777E+02  0.00000000000E+00 0.  1.
         -4   -1    0    0    0  501 -0.00000000000E+00 -0.00000000000E+00 -0.14328345073E+03  0.14328345073E+03  0.00000000000E+00 0. -1.
        -13    1    1    2    0    0 -0.33074297269E+02 -0.31026793510E+02 -0.53302685871E+01  0.45661734336E+02  0.10566000000E+00 0.  1.
         13    1    1    2    0    0  0.45970357572E+02  0.29197577469E+02 -0.94341618058E+02  0.10893174178E+03  0.10566000000E+00 0. -1.
         -4    1    1    2    0  502 -0.12896060303E+02  0.18292160411E+01 -0.13524665312E+02  0.18776873394E+02  0.00000000000E+00 0. -1.
</event>
<event>
 5    1  0.7625606E-005  0.8228830E+02  0.7818608E-02  0.1197734E+00
         -4   -1    0    0    0  501 -0.00000000000E+00  0.00000000000E+00  0.16200794413E+03  0.16200794413E+03  0.00000000000E+00 0. -1.
         21   -1    0    0  501  502  0.00000000000E+00 -0.00000000000E+00 -0.68166234644E+02  0.68166234644E+02  0.00000000000E+00 0.  1.
        -13    1    1    2    0    0 -0.73500790051E+02 -0.41574335518E+02  0.23085662284E+02  0.87542849388E+02  0.10566000000E+00 0.  1.
         13    1    1    2    0    0  0.75890948935E+02  0.29723088784E+02  0.89040780993E+02  0.12071110132E+03  0.10566000000E+00 0. -1.
         -4    1    1    2    0  502 -0.23901588847E+01  0.11851246734E+02 -0.18284733793E+02  0.21920228067E+02  0.00000000000E+00 0. -1.
</event>
<event>
 5    1  0.7625606E-005  0.1146981E+02  0.7818608E-02  0.1707989E+00
         21   -1    0    0  501  502  0.00000000000E+00  0.00000000000E+00  0.27329816363E+02  0.27329816363E+02  0.00000000000E+00 0. -1.
          4   -1    0    0  502    0 -0.00000000000E+00 -0.00000000000E+00 -0.34614031217E+02  0.34614031217E+02  0.00000000000E+00 0.  1.
        -13    1    1    2    0    0 -0.56883350112E+00 -0.10055220448E+02 -0.26337293673E+02  0.28197433072E+02  0.10566000000E+00 0.  1.
         13    1    1    2    0    0 -0.12441633450E+02  0.73430163094E+01  0.11455784137E+02  0.18438011977E+02  0.10566000000E+00 0. -1.
          4    1    1    2  501    0  0.13010466951E+02  0.27122041388E+01  0.75972946819E+01  0.15308402531E+02  0.00000000000E+00 0.  1.
</event>
<event>
 5    1  0.7625606E-005  0.4926210E+03  0.7818608E-02  0.9504578E-01
         21   -1    0    0  501  502  0.00000000000E+00  0.00000000000E+00  0.40175491238E+03  0.40175491238E+03  0.00000000000E+00 0. -1.
         -4   -1    0    0    0  501 -0.00000000000E+00 -0.00000000000E+00 -0.15644632198E+04  0.15644632198E+04  0.00000000000E+00 0. -1.
        -13    1    1    2    0    0  0.15902801773E+03  0.44711060873E+03 -0.44409545063E+03  0.64993737183E+03  0.10566000000E+00 0.  1.
         13    1    1    2    0    0 -0.55322186266E+03 -0.10573503797E+03 -0.25399687730E+03  0.61785819766E+03  0.10566000000E+00 0. -1.
         -4    1    1    2    0  502  0.39419384493E+03 -0.34137557075E+03 -0.46461597948E+03  0.69842256269E+03  0.00000000000E+00 0. -1.
</event>
<event>
 5    1  0.7625606E-005  0.6858333E+02  0.7818608E-02  0.1230494E+00
          4   -1    0    0  502    0 -0.00000000000E+00  0.00000000000E+00  0.41714365771E+03  0.41714365771E+03  0.00000000000E+00 0.  1.
         21   -1    0    0  501  502  0.00000000000E+00 -0.00000000000E+00 -0.81874498996E+02  0.81874498996E+02  0.00000000000E+00 0. -1.
        -13    1    1    2    0    0  0.67425232189E+02 -0.14071208916E+02  0.38821554665E+03  0.39427843294E+03  0.10566000000E+00 0.  1.
         13    1    1    2    0    0 -0.63942192860E+02 -0.48005209749E+01 -0.56212728006E+02  0.85273272385E+02  0.10566000000E+00 0. -1.
          4    1    1    2  501    0 -0.34830393296E+01  0.18871729891E+02  0.32663400745E+01  0.19466451386E+02  0.00000000000E+00 0.  1.
</event>
<event>
 5    1  0.7625606E-005  0.4200564E+03  0.7818608E-02  0.9884387E-01
         21   -1    0    0  501  502  0.00000000000E+00  0.00000000000E+00  0.70597892333E+03  0.70597892333E+03  0.00000000000E+00 0. -1.
         -4   -1    0    0    0  501 -0.00000000000E+00 -0.00000000000E+00 -0.82512133513E+03  0.82512133513E+03  0.00000000000E+00 0. -1.
        -13    1    1    2    0    0  0.14813203401E+03 -0.13935834856E+03 -0.37618317926E+03  0.42764195811E+03  0.10566000000E+00 0.  1.
         13    1    1    2    0    0 -0.14771650688E+03  0.53079103497E+03 -0.11566078299E+03  0.56297132884E+03  0.10566000000E+00 0. -1.
         -4    1    1    2    0  502 -0.41552713164E+00 -0.39143268642E+03  0.37270155045E+03  0.54048697151E+03  0.00000000000E+00 0. -1.
</event>
<event>
 5    1  0.7625606E-005  0.8145441E+02  0.7818608E-02  0.1207032E+00
         21   -1    0    0  501  502  0.00000000000E+00  0.00000000000E+00  0.71432577356E+02  0.71432577356E+02  0.00000000000E+00 0. -1.
          4   -1    0    0  502    0 -0.00000000000E+00 -0.00000000000E+00 -0.43813195801E+03  0.43813195801E+03  0.00000000000E+00 0.  1.
        -13    1    1    2    0    0  0.48059077649E+02  0.40184709144E+02 -0.11793479772E+03  0.13354068096E+03  0.10566000000E+00 0.  1.
         13    1    1    2    0    0  0.13967195524E+02 -0.92982077214E+02 -0.27485519249E+03  0.29049292115E+03  0.10566000000E+00 0. -1.
          4    1    1    2  501    0 -0.62026273173E+02  0.52797368069E+02  0.26090609550E+02  0.85530933267E+02  0.00000000000E+00 0.  1.
</event>
<event>
 5    1  0.7625606E-005  0.4958383E+03  0.7818608E-02  0.9542836E-01
         21   -1    0    0  501  502  0.00000000000E+00  0.00000000000E+00  0.28126361708E+03  0.28126361708E+03  0.00000000000E+00 0.  1.
          4   -1    0    0  502    0 -0.00000000000E+00 -0.00000000000E+00 -0.25855148640E+04  0.25855148640E+04  0.00000000000E+00 0.  1.
        -13    1    1    2    0    0  0.32861616436E+02 -0.61066965645E+03 -0.31861496920E+03  0.68957437953E+03  0.10566000000E+00 0.  1.
         13    1    1    2    0    0 -0.29026753489E+03  0.28280818725E+03 -0.14060722073E+04  0.14633095284E+04  0.10566000000E+00 0. -1.
          4    1    1    2  501    0  0.25740591845E+03  0.32786146920E+03 -0.57956407036E+03  0.71389457309E+03  0.00000000000E+00 0.  1.
</event>
<event>
 5    1  0.7625606E-005  0.5588365E+02  0.7818608E-02  0.1269526E+00
         21   -1    0    0  501  502  0.00000000000E+00  0.00000000000E+00  0.97775519845E+02  0.97775519845E+02  0.00000000000E+00 0. -1.
         -4   -1    0    0    0  501 -0.00000000000E+00 -0.00000000000E+00 -0.18197827450E+03  0.18197827450E+03  0.00000000000E+00 0. -1.
        -13    1    1    2    0    0  0.39464674790E+02  0.15639374383E+02 -0.37340950053E+02  0.56536787160E+02  0.10566000000E+00 0.  1.
         13    1    1    2    0    0 -0.56956109641E+02 -0.39296138994E+02 -0.12325701678E+03  0.14135235518E+03  0.10566000000E+00 0. -1.
         -4    1    1    2    0  502  0.17491434851E+02  0.23656764611E+02  0.76395212176E+02  0.81864652008E+02  0.00000000000E+00 0. -1.
</event>
<event>
 5    1  0.7625606E-005  0.4408889E+03  0.7818608E-02  0.9701122E-01
         21   -1    0    0  501  502  0.00000000000E+00  0.00000000000E+00  0.14214774448E+04  0.14214774448E+04  0.00000000000E+00 0. -1.
         -4   -1    0    0    0  501 -0.00000000000E+00 -0.00000000000E+00 -0.34168055122E+03  0.34168055122E+03  0.00000000000E+00 0. -1.
        -13    1    1    2    0    0  0.21740766559E+03 -0.24709618925E+03  0.21183998426E+03  0.39140619552E+03  0.10566000000E+00 0.  1.
         13    1    1    2    0    0 -0.60259407425E+03  0.18295113338E+03  0.34182611104E+03  0.71654437188E+03  0.10566000000E+00 0. -1.
         -4    1    1    2    0  502  0.38518640866E+03  0.64145055871E+02  0.52613079831E+03  0.65520742863E+03  0.00000000000E+00 0. -1.
</event>
<event>
 5    1  0.7625606E-005  0.5355113E+03  0.7818608E-02  0.9829488E-01
         -4   -1    0    0    0  501 -0.00000000000E+00  0.00000000000E+00  0.99855748525E+03  0.99855748525E+03  0.00000000000E+00 0. -1.
         21   -1    0    0  501  502  0.00000000000E+00 -0.00000000000E+00 -0.36231761412E+03  0.36231761412E+03  0.00000000000E+00 0. -1.
        -13    1    1    2    0    0 -0.10736360314E+03 -0.49293443989E+02  0.10885322133E+03  0.16064190567E+03  0.10566000000E+00 0.  1.
         13    1    1    2    0    0 -0.10718724887E+03 -0.48756600517E+03  0.26751789243E+03  0.56637050564E+03  0.10566000000E+00 0. -1.
         -4    1    1    2    0  502  0.21455085201E+03  0.53685944916E+03  0.25986875737E+03  0.63386268806E+03  0.00000000000E+00 0. -1.
</event>
<event>
 5    1  0.7625606E-005  0.7458485E+03  0.7818608E-02  0.9058996E-01
         -4   -1    0    0    0  501 -0.00000000000E+00  0.00000000000E+00  0.74704550411E+03  0.74704550411E+03  0.00000000000E+00 0. -1.
         21   -1    0    0  501  502  0.00000000000E+00 -0.00000000000E+00 -0.12144955156E+04  0.12144955156E+04  0.00000000000E+00 0.  1.
        -13    1    1    2    0    0 -0.67946374932E+03 -0.12615244037E+03 -0.24331997098E+03  0.73265956917E+03  0.10566000000E+00 0.  1.
         13    1    1    2    0    0  0.81636798717E+03 -0.20947030321E+03 -0.19611122060E+03  0.86532890880E+03  0.10566000000E+00 0. -1.
         -4    1    1    2    0  502 -0.13690423784E+03  0.33562274358E+03 -0.28018819946E+02  0.36355254176E+03  0.00000000000E+00 0. -1.
</event>
<event>
 5    1  0.7625606E-005  0.2165982E+03  0.7818608E-02  0.1071680E+00
          4   -1    0    0  502    0 -0.00000000000E+00  0.00000000000E+00  0.17376535262E+04  0.17376535262E+04  0.00000000000E+00 0.  1.
         21   -1    0    0  501  502  0.00000000000E+00 -0.00000000000E+00 -0.21132269810E+03  0.21132269810E+03  0.00000000000E+00 0.  1.
        -13    1    1    2    0    0  0.16161387635E+03  0.28087246126E+03  0.12070252801E+04  0.12497673474E+04  0.10566000000E+00 0.  1.
         13    1    1    2    0    0 -0.58815754355E+02 -0.96307824865E+02  0.44113222877E+03  0.45533739635E+03  0.10566000000E+00 0. -1.
          4    1    1    2  501    0 -0.10279812199E+03 -0.18456463639E+03 -0.12182668080E+03  0.24387148059E+03  0.00000000000E+00 0.  1.
</event>
<event>
 5    1  0.7625606E-005  0.1525019E+03  0.7818608E-02  0.1098670E+00
          4   -1    0    0  502    0 -0.00000000000E+00  0.00000000000E+00  0.10459194724E+04  0.10459194724E+04  0.00000000000E+00 0.  1.
         21   -1    0    0  501  502  0.00000000000E+00 -0.00000000000E+00 -0.51934795674E+02  0.51934795674E+02  0.00000000000E+00 0. -1.
        -13    1    1    2    0    0  0.14874092912E+03  0.24133733706E+02  0.83762820855E+03  0.85107422004E+03  0.10566000000E+00 0.  1.
         13    1    1    2    0    0 -0.15980599677E+03 -0.22378160005E+02  0.16635766993E+03  0.23176199895E+03  0.10566000000E+00 0. -1.
          4    1    1    2  501    0  0.11065067649E+02 -0.17555737005E+01 -0.10001201767E+02  0.15018049071E+02  0.00000000000E+00 0.  1.
</event>
<event>
 5    1  0.7625606E-005  0.1677720E+03  0.7818608E-02  0.1084795E+00
          4   -1    0    0  502    0 -0.00000000000E+00  0.00000000000E+00  0.12882953087E+04  0.12882953087E+04  0.00000000000E+00 0.  1.
         21   -1    0    0  501  502  0.00000000000E+00 -0.00000000000E+00 -0.85195028512E+02  0.85195028512E+02  0.00000000000E+00 0. -1.
        -13    1    1    2    0    0  0.13042030991E+03  0.80485855112E+02  0.74159735999E+03  0.75726751258E+03  0.10566000000E+00 0.  1.
         13    1    1    2    0    0 -0.14487427722E+03 -0.16049761500E+03  0.48548378482E+03  0.53145325016E+03  0.10566000000E+00 0. -1.
          4    1    1    2  501    0  0.14453967310E+02  0.80011759885E+02 -0.23980864601E+02  0.84769574482E+02  0.00000000000E+00 0.  1.
</event>
<event>
 5    1  0.7625606E-005  0.2624049E+03  0.7818608E-02  0.1024158E+00
         21   -1    0    0  501  502  0.00000000000E+00  0.00000000000E+00  0.15206545691E+04  0.15206545691E+04  0.00000000000E+00 0. -1.
         -4   -1    0    0    0  501 -0.00000000000E+00 -0.00000000000E+00 -0.28528629770E+03  0.28528629770E+03  0.00000000000E+00 0. -1.
        -13    1    1    2    0    0  0.11122976785E+02  0.26227647329E+03  0.15523197684E+03  0.30497482987E+03  0.10566000000E+00 0.  1.
         13    1    1    2    0    0 -0.21277020095E+03 -0.19388529303E+03 -0.97739047204E+02  0.30399933845E+03  0.10566000000E+00 0. -1.
         -4    1    1    2    0  502  0.20164722417E+03 -0.68391180261E+02  0.11778753418E+04  0.11969666985E+04  0.00000000000E+00 0. -1.
</event>
<event>
 5    1  0.7625606E-005  0.3953368E+03  0.7818608E-02  0.1023899E+00
          4   -1    0    0  502    0 -0.00000000000E+00  0.00000000000E+00  0.44904713037E+03  0.44904713037E+03  0.00000000000E+00 0.  1.
         21   -1    0    0  501  502  0.00000000000E+00 -0.00000000000E+00 -0.10969239006E+04  0.10969239006E+04  0.00000000000E+00 0.  1.
        -13    1    1    2    0    0 -0.32142116859E+03 -0.89294236707E+02  0.54638681995E+02  0.33803908807E+03  0.10566000000E+00 0.  1.
         13    1    1    2    0    0 -0.77293834634E+02 -0.31311312240E+01  0.20136031137E+03  0.21570843055E+03  0.10566000000E+00 0. -1.
          4    1    1    2  501    0  0.39871500323E+03  0.92425367931E+02 -0.90387576359E+03  0.99222351234E+03  0.00000000000E+00 0.  1.
</event>
<event>
 5    1  0.7625606E-005  0.1783022E+03  0.7818608E-02  0.1076123E+00
          4   -1    0    0  502    0 -0.00000000000E+00  0.00000000000E+00  0.35066872927E+03  0.35066872927E+03  0.00000000000E+00 0.  1.
         21   -1    0    0  501  502  0.00000000000E+00 -0.00000000000E+00 -0.82261309085E+03  0.82261309085E+03  0.00000000000E+00 0.  1.
        -13    1    1    2    0    0 -0.10675209648E+03 -0.13500839807E+03  0.21653793654E+03  0.27660796586E+03  0.10566000000E+00 0.  1.
         13    1    1    2    0    0  0.12701960195E+03  0.15157118163E+03  0.97060985294E+01  0.19799500472E+03  0.10566000000E+00 0. -1.
          4    1    1    2  501    0 -0.20267505471E+02 -0.16562783560E+02 -0.69818839665E+03  0.69867884954E+03  0.00000000000E+00 0.  1.
</event>
<event>
 5    1  0.7625606E-005  0.3578555E+03  0.7818608E-02  0.1025333E+00
         21   -1    0    0  501  502  0.00000000000E+00  0.00000000000E+00  0.44179208904E+03  0.44179208904E+03  0.00000000000E+00 0. -1.
         -4   -1    0    0    0  501 -0.00000000000E+00 -0.00000000000E+00 -0.10829939990E+04  0.10829939990E+04  0.00000000000E+00 0. -1.
        -13    1    1    2    0    0 -0.93860097756E+02  0.33712971402E+02 -0.46217030832E+03  0.47280829883E+03  0.10566000000E+00 0.  1.
         13    1    1    2    0    0  0.52892096055E+02  0.35092452613E+03  0.27974937153E+03  0.45189082631E+03  0.10566000000E+00 0. -1.
         -4    1    1    2    0  502  0.40968001701E+02 -0.38463749753E+03 -0.45878097315E+03  0.60008696286E+03  0.00000000000E+00 0. -1.
</event>
<event>
 5    1  0.7625606E-005  0.4061536E+03  0.7818608E-02  0.9939274E-01
         21   -1    0    0  501  502  0.00000000000E+00  0.00000000000E+00  0.23064294938E+03  0.23064294938E+03  0.00000000000E+00 0.  1.
          4   -1    0    0  502    0 -0.00000000000E+00 -0.00000000000E+00 -0.19831962333E+04  0.19831962333E+04  0.00000000000E+00 0.  1.
        -13    1    1    2    0    0  0.29251531505E+03 -0.22987203962E+03 -0.11411891682E+03  0.38913943835E+03  0.10566000000E+00 0.  1.
         13    1    1    2    0    0  0.40064104074E+02 -0.18299626173E+03 -0.87760186135E+03  0.89737272215E+03  0.10566000000E+00 0. -1.
          4    1    1    2  501    0 -0.33257941912E+03  0.41286830135E+03 -0.76083250576E+03  0.92732702220E+03  0.00000000000E+00 0.  1.
</event>
<event>
 5    1  0.7625606E-005  0.7866013E+02  0.7818608E-02  0.1273571E+00
         21   -1    0    0  501  502  0.00000000000E+00  0.00000000000E+00  0.84808742527E+02  0.84808742527E+02  0.00000000000E+00 0.  1.
          4   -1    0    0  502    0 -0.00000000000E+00 -0.00000000000E+00 -0.10418027990E+03  0.10418027990E+03  0.00000000000E+00 0.  1.
        -13    1    1    2    0    0 -0.77379610501E+02 -0.13368509898E+02 -0.37620669894E+02  0.87072654407E+02  0.10566000000E+00 0.  1.
         13    1    1    2    0    0  0.43881124432E+01 -0.17932240230E+02 -0.50677511872E+01  0.19144556318E+02  0.10566000000E+00 0. -1.
          4    1    1    2  501    0  0.72991498058E+02  0.31300750128E+02  0.23316883705E+02  0.82771811706E+02  0.00000000000E+00 0.  1.
</event>
<event>
 5    1  0.7625606E-005  0.4864991E+03  0.7818608E-02  0.9817249E-01
          4   -1    0    0  502    0 -0.00000000000E+00  0.00000000000E+00  0.22070036937E+03  0.22070036937E+03  0.00000000000E+00 0.  1.
         21   -1    0    0  501  502  0.00000000000E+00 -0.00000000000E+00 -0.23581507871E+04  0.23581507871E+04  0.00000000000E+00 0.  1.
        -13    1    1    2    0    0  0.14757174417E+02  0.41655724762E+03 -0.89188402274E+03  0.98447693519E+03  0.10566000000E+00 0.  1.
         13    1    1    2    0    0  0.30369598660E+02  0.16142117035E+03  0.52738633492E+02  0.17251226445E+03  0.10566000000E+00 0. -1.
          4    1    1    2  501    0 -0.45126773077E+02 -0.57797841797E+03 -0.12983050285E+04  0.14218619569E+04  0.00000000000E+00 0.  1.
</event>
<event>
 5    1  0.7625606E-005  0.1847253E+03  0.7818608E-02  0.1086647E+00
         -4   -1    0    0    0  501 -0.00000000000E+00  0.00000000000E+00  0.70364871063E+02  0.70364871063E+02  0.00000000000E+00 0. -1.
         21   -1    0    0  501  502  0.00000000000E+00 -0.00000000000E+00 -0.12691799699E+04  0.12691799699E+04  0.00000000000E+00 0. -1.
        -13    1    1    2    0    0  0.75703778368E+02  0.92306800183E+02 -0.58956181377E+03  0.60152701588E+03  0.10566000000E+00 0.  1.
         13    1    1    2    0    0 -0.12156322485E+03  0.10759639264E+03 -0.10418803425E+03  0.19289831257E+03  0.10566000000E+00 0. -1.
         -4    1    1    2    0  502  0.45859446486E+02 -0.19990319283E+03 -0.50506525081E+03  0.54511951250E+03  0.00000000000E+00 0. -1.
</event>
<event>
 5    1  0.7625606E-005  0.1686128E+03  0.7818608E-02  0.1084078E+00
         21   -1    0    0  501  502  0.00000000000E+00  0.00000000000E+00  0.66570340736E+03  0.66570340736E+03  0.00000000000E+00 0.  1.
          4   -1    0    0  502    0 -0.00000000000E+00 -0.00000000000E+00 -0.25852883739E+03  0.25852883739E+03  0.00000000000E+00 0.  1.
        -13    1    1    2    0    0  0.17205868001E+03  0.67486110957E+02  0.51056886747E+02  0.19174300870E+03  0.10566000000E+00 0.  1.
         13    1    1    2    0    0 -0.16626842860E+03 -0.31512939767E+01 -0.14898385554E+03  0.22327409473E+03  0.10566000000E+00 0. -1.
          4    1    1    2  501    0 -0.57902514055E+01 -0.64334816980E+02  0.50510153876E+03  0.50921514131E+03  0.00000000000E+00 0.  1.
</event>
<event>
 5    1  0.7625606E-005  0.4571060E+03  0.7818608E-02  0.9784314E-01
         -4   -1    0    0    0  501 -0.00000000000E+00  0.00000000000E+00  0.23408124693E+03  0.23408124693E+03  0.00000000000E+00 0. -1.
         21   -1    0    0  501  502  0.00000000000E+00 -0.00000000000E+00 -0.20465780856E+04  0.20465780856E+04  0.00000000000E+00 0. -1.
        -13    1    1    2    0    0  0.15595542755E+03  0.15740414833E+03 -0.28447947127E+02  0.22339977205E+03  0.10566000000E+00 0.  1.
         13    1    1    2    0    0 -0.43026936220E+03 -0.43639080883E+03 -0.88194606237E+03  0.10739634678E+04  0.10566000000E+00 0. -1.
         -4    1    1    2    0  502  0.27431393466E+03  0.27898666050E+03 -0.90210282920E+03  0.98329609271E+03  0.00000000000E+00 0. -1.
</event>
<event>
 5    1  0.7625606E-005  0.1133778E+03  0.7818608E-02  0.1144140E+00
         21   -1    0    0  501  502  0.00000000000E+00  0.00000000000E+00  0.36067394513E+02  0.36067394513E+02  0.00000000000E+00 0. -1.
          4   -1    0    0  502    0 -0.00000000000E+00 -0.00000000000E+00 -0.45073421333E+03  0.45073421333E+03  0.00000000000E+00 0.  1.
        -13    1    1    2    0    0  0.11281257923E+03  0.14139492127E+02 -0.26428075149E+03  0.28769937442E+03  0.10566000000E+00 0.  1.
         13    1    1    2    0    0 -0.10982050098E+03 -0.28382677193E+02 -0.14373418036E+03  0.18310009440E+03  0.10566000000E+00 0. -1.
          4    1    1    2  501    0 -0.29920782535E+01  0.14243185066E+02 -0.66518869632E+01  0.16002139022E+02  0.00000000000E+00 0.  1.
</event>
<event>
 5    1  0.7625606E-005  0.9373465E+02  0.7818608E-02  0.1175360E+00
         21   -1    0    0  501  502  0.00000000000E+00  0.00000000000E+00  0.43495543345E+03  0.43495543345E+03  0.00000000000E+00 0. -1.
         -4   -1    0    0    0  501 -0.00000000000E+00 -0.00000000000E+00 -0.31115585970E+03  0.31115585970E+03  0.00000000000E+00 0. -1.
        -13    1    1    2    0    0  0.25888098952E+02  0.12463817806E+03  0.68097447369E+02  0.14436808027E+03  0.10566000000E+00 0.  1.
         13    1    1    2    0    0 -0.30627009262E+02 -0.86101378616E+02 -0.26416628286E+03  0.27952691688E+03  0.10566000000E+00 0. -1.
         -4    1    1    2    0  502  0.47389103091E+01 -0.38536799445E+02  0.31986840924E+03  0.32221629601E+03  0.00000000000E+00 0. -1.
</event>
<event>
 5    1  0.7625606E-005  0.4608666E+03  0.7818608E-02  0.9568133E-01
         21   -1    0    0  501  502  0.00000000000E+00  0.00000000000E+00  0.14450452486E+04  0.14450452486E+04  0.00000000000E+00 0. -1.
         -4   -1    0    0    0  501 -0.00000000000E+00 -0.00000000000E+00 -0.39193991878E+03  0.39193991878E+03  0.00000000000E+00 0. -1.
        -13    1    1    2    0    0 -0.19951295993E+03 -0.34080633637E+03  0.85572836695E+02  0.40407561376E+03  0.10566000000E+00 0.  1.
         13    1    1    2    0    0  0.48171345574E+03  0.52300387920E+03  0.74570303706E+03  0.10303659261E+04  0.10566000000E+00 0. -1.
         -4    1    1    2    0  502 -0.28220049580E+03 -0.18219754282E+03  0.22182945602E+03  0.40254362745E+03  0.00000000000E+00 0. -1.
</event>
<event>
 5    1  0.7625606E-005  0.1811944E+03  0.7818608E-02  0.1073853E+00
         -4   -1    0    0    0  501 -0.00000000000E+00  0.00000000000E+00  0.22391458900E+03  0.22391458900E+03  0.00000000000E+00 0. -1.
         21   -1    0    0  501  502  0.00000000000E+00 -0.00000000000E+00 -0.23159588894E+03  0.23159588894E+03  0.00000000000E+00 0.  1.
        -13    1    1    2    0    0  0.73517932018E+02 -0.17100659073E+03  0.64431438559E+02  0.19697604383E+03  0.10566000000E+00 0.  1.
         13    1    1    2    0    0 -0.10734268173E+03  0.14135534011E+03 -0.47779571500E+01  0.17755738097E+03  0.10566000000E+00 0. -1.
         -4    1    1    2    0  502  0.33824749710E+02  0.29651250625E+02 -0.67334781348E+02  0.80977053143E+02  0.00000000000E+00 0. -1.
</event>
<event>
 5    1  0.7625606E-005  0.4647979E+03  0.7818608E-02  0.9820684E-01
         21   -1    0    0  501  502  0.00000000000E+00  0.00000000000E+00  0.48226431429E+03  0.48226431429E+03  0.00000000000E+00 0. -1.
         -4   -1    0    0    0  501 -0.00000000000E+00 -0.00000000000E+00 -0.14765285892E+04  0.14765285892E+04  0.00000000000E+00 0. -1.
        -13    1    1    2    0    0  0.16808202670E+03 -0.80032561180E+02 -0.91406610258E+03  0.93283097591E+03  0.10566000000E+00 0.  1.
         13    1    1    2    0    0 -0.50454698729E+03  0.31055494695E+03 -0.15242664832E+03  0.61175643171E+03  0.10566000000E+00 0. -1.
         -4    1    1    2    0  502  0.33646496059E+03 -0.23052238577E+03  0.72228476024E+02  0.41420549585E+03  0.00000000000E+00 0. -1.
</event>
<event>
 5    1  0.7625606E-005  0.4340714E+03  0.7818608E-02  0.9960017E-01
         -4   -1    0    0    0  501 -0.00000000000E+00  0.00000000000E+00  0.13583386574E+04  0.13583386574E+04  0.00000000000E+00 0. -1.
         21   -1    0    0  501  502  0.00000000000E+00 -0.00000000000E+00 -0.25623546029E+03  0.25623546029E+03  0.00000000000E+00 0. -1.
        -13    1    1    2    0    0  0.14326164852E+03  0.17814465940E+01  0.20768037656E+03  0.25230581337E+03  0.10566000000E+00 0.  1.
         13    1    1    2    0    0 -0.41689491826E+03  0.20455756343E+03  0.70222266513E+02  0.46965556262E+03  0.10566000000E+00 0. -1.
         -4    1    1    2    0  502  0.27363326973E+03 -0.20633901002E+03  0.82420055405E+03  0.89261274171E+03  0.00000000000E+00 0. -1.
</event>
<event>
 5    1  0.7625606E-005  0.4742550E+02  0.7818608E-02  0.1302641E+00
          4   -1    0    0  502    0 -0.00000000000E+00  0.00000000000E+00  0.58505800562E+02  0.58505800562E+02  0.00000000000E+00 0.  1.
         21   -1    0    0  501  502  0.00000000000E+00 -0.00000000000E+00 -0.63187203773E+02  0.63187203773E+02  0.00000000000E+00 0. -1.
        -13    1    1    2    0    0  0.40895612111E+02  0.22642460419E+02  0.23295839926E+02  0.52228722228E+02  0.10566000000E+00 0.  1.
         13    1    1    2    0    0 -0.36335985906E+02 -0.34877034877E+02 -0.20191199922E+02  0.54262391690E+02  0.10566000000E+00 0. -1.
          4    1    1    2  501    0 -0.45596262043E+01  0.12234574459E+02 -0.77860432147E+01  0.15201890417E+02  0.00000000000E+00 0.  1.
</event>
<event>
 5    1  0.7625606E-005  0.4231284E+03  0.7818608E-02  0.9739074E-01
         21   -1    0    0  501  502  0.00000000000E+00  0.00000000000E+00  0.83264672921E+03  0.83264672921E+03  0.00000000000E+00 0. -1.
         -4   -1    0    0    0  501 -0.00000000000E+00 -0.00000000000E+00 -0.11858824095E+04  0.11858824095E+04  0.00000000000E+00 0. -1.
        -13    1    1    2    0    0 -0.13408739539E+03  0.29759278138E+03 -0.81242304075E+03  0.87554103356E+03  0.10566000000E+00 0.  1.
         13    1    1    2    0    0  0.91965283119E+02  0.34819429318E+03  0.31837508455E+03  0.48068657640E+03  0.10566000000E+00 0. -1.
         -4    1    1    2    0  502  0.42122112273E+02 -0.64578707456E+03  0.14081227586E+03  0.66230152880E+03  0.00000000000E+00 0. -1.
</event>
<event>
 5    1  0.7625606E-005  0.4886417E+02  0.7818608E-02  0.1318382E+00
          4   -1    0    0  502    0 -0.00000000000E+00  0.00000000000E+00  0.16440963622E+03  0.16440963622E+03  0.00000000000E+00 0.  1.
         21   -1    0    0  501  502  0.00000000000E+00 -0.00000000000E+00 -0.64137416680E+02  0.64137416680E+02  0.00000000000E+00 0.  1.
        -13    1    1    2    0    0 -0.33097462118E+02  0.66412117058E+02  0.12584633492E+03  0.14609354013E+03  0.10566000000E+00 0.  1.
         13    1    1    2    0    0  0.23182888584E+01 -0.32023734550E+02 -0.81793528578E+01  0.33133170916E+02  0.10566000000E+00 0. -1.
          4    1    1    2  501    0  0.30779173260E+02 -0.34388382508E+02 -0.17394762517E+02  0.49320341859E+02  0.00000000000E+00 0.  1.
</event>
<event>
 5    1  0.7625606E-005  0.4969944E+03  0.7818608E-02  0.9511158E-01
          4   -1    0    0  502    0 -0.00000000000E+00  0.00000000000E+00  0.35399739338E+04  0.35399739338E+04  0.00000000000E+00 0.  1.
         21   -1    0    0  501  502  0.00000000000E+00 -0.00000000000E+00 -0.16846898220E+03  0.16846898220E+03  0.00000000000E+00 0.  1.
        -13    1    1    2    0    0  0.26697436429E+03  0.10079835987E+03  0.11607938285E+04  0.11953568270E+04  0.10566000000E+00 0.  1.
         13    1    1    2    0    0  0.43313221477E+03  0.12652372835E+03  0.98298217866E+03  0.10816033210E+04  0.10566000000E+00 0. -1.
          4    1    1    2  501    0 -0.70010657906E+03 -0.22732208822E+03  0.12277289444E+04  0.14314827679E+04  0.00000000000E+00 0.  1.
</event>
<event>
 5    1  0.7625606E-005  0.4408314E+03  0.7818608E-02  0.9618985E-01
          4   -1    0    0  502    0 -0.00000000000E+00  0.00000000000E+00  0.15167480608E+04  0.15167480608E+04  0.00000000000E+00 0.  1.
         21   -1    0    0  501  502  0.00000000000E+00 -0.00000000000E+00 -0.46991838451E+03  0.46991838451E+03  0.00000000000E+00 0.  1.
        -13    1    1    2    0    0 -0.30880348567E+02  0.36330132894E+03  0.24785275529E+02  0.36545283223E+03  0.10566000000E+00 0.  1.
         13    1    1    2    0    0  0.35388309415E+03  0.26410927084E+03  0.73903232596E+03  0.86090402557E+03  0.10566000000E+00 0. -1.
          4    1    1    2  501    0 -0.32300274558E+03 -0.62741059978E+03  0.28301207479E+03  0.76030958750E+03  0.00000000000E+00 0.  1.
</event>
<event>
 5    1  0.7625606E-005  0.7066710E+02  0.7818608E-02  0.1224988E+00
         21   -1    0    0  501  502  0.00000000000E+00  0.00000000000E+00  0.29137305144E+02  0.29137305144E+02  0.00000000000E+00 0. -1.
          4   -1    0    0  502    0 -0.00000000000E+00 -0.00000000000E+00 -0.39689983008E+03  0.39689983008E+03  0.00000000000E+00 0.  1.
        -13    1    1    2    0    0  0.56362254830E+02  0.37591803091E+02 -0.15239483011E+03  0.16677542636E+03  0.10566000000E+00 0.  1.
         13    1    1    2    0    0 -0.85006743853E+02  0.78486957306E+01 -0.16425229663E+03  0.18511233519E+03  0.10566000000E+00 0. -1.
          4    1    1    2  501    0  0.28644489023E+02 -0.45440498822E+02 -0.51115398200E+02  0.74149373684E+02  0.00000000000E+00 0.  1.
</event>
<event>
 5    1  0.7625606E-005  0.4697393E+02  0.7818608E-02  0.1304625E+00
          4   -1    0    0  502    0 -0.00000000000E+00  0.00000000000E+00  0.14805665672E+03  0.14805665672E+03  0.00000000000E+00 0.  1.
         21   -1    0    0  501  502  0.00000000000E+00 -0.00000000000E+00 -0.95158155546E+02  0.95158155546E+02  0.00000000000E+00 0.  1.
        -13    1    1    2    0    0  0.45188072828E+02  0.16630384945E+02  0.12829781666E+03  0.13703602648E+03  0.10566000000E+00 0.  1.
         13    1    1    2    0    0 -0.39437272612E+02 -0.76074864650E+01 -0.12051266885E+02  0.41933477305E+02  0.10566000000E+00 0. -1.
          4    1    1    2  501    0 -0.57508002160E+01 -0.90228984803E+01 -0.63348048602E+02  0.64245308481E+02  0.00000000000E+00 0.  1.
</event>
<event>
 5    1  0.7625606E-005  0.8187471E+02  0.7818608E-02  0.1247641E+00
         -4   -1    0    0    0  501 -0.00000000000E+00  0.00000000000E+00  0.99916126631E+03  0.99916126631E+03  0.00000000000E+00 0. -1.
         21   -1    0    0  501  502  0.00000000000E+00 -0.00000000000E+00 -0.96230815420E+01  0.96230815420E+01  0.00000000000E+00 0. -1.
        -13    1    1    2    0    0 -0.24794137846E+02  0.12906284064E+02  0.15590073269E+03  0.15838677677E+03  0.10566000000E+00 0.  1.
         13    1    1    2    0    0 -0.13903253013E+01 -0.86479609361E+02  0.35201310508E+03  0.36248295567E+03  0.10566000000E+00 0. -1.
         -4    1    1    2    0  502  0.26184463148E+02  0.73573325297E+02  0.48162434700E+03  0.48791461541E+03  0.00000000000E+00 0. -1.
</event>
<event>
 5    1  0.7625606E-005  0.5018464E+03  0.7818608E-02  0.9737303E-01
          4   -1    0    0  502    0 -0.00000000000E+00  0.00000000000E+00  0.43587600838E+04  0.43587600838E+04  0.00000000000E+00 0.  1.
         21   -1    0    0  501  502  0.00000000000E+00 -0.00000000000E+00 -0.89734112557E+02  0.89734112557E+02  0.00000000000E+00 0.  1.
        -13    1    1    2    0    0 -0.33174559779E+03  0.27847369665E+03  0.20814350415E+04  0.21260231853E+04  0.10566000000E+00 0.  1.
         13    1    1    2    0    0 -0.18366922995E+03 -0.70802013025E+02  0.87925926356E+03  0.90102395906E+03  0.10566000000E+00 0. -1.
          4    1    1    2  501    0  0.51541482774E+03 -0.20767168362E+03  0.13083316662E+04  0.14214470520E+04  0.00000000000E+00 0.  1.
</event>
<event>
 5    1  0.7625606E-005  0.2554891E+03  0.7818608E-02  0.1027587E+00
          4   -1    0    0  502    0 -0.00000000000E+00  0.00000000000E+00  0.16130824064E+04  0.16130824064E+04  0.00000000000E+00 0.  1.
         21   -1    0    0  501  502  0.00000000000E+00 -0.00000000000E+00 -0.11549061895E+03  0.11549061895E+03  0.00000000000E+00 0.  1.
        -13    1    1    2    0    0  0.33483110238E+01 -0.28139040250E+03  0.79338953615E+03  0.84181870795E+03  0.10566000000E+00 0.  1.
         13    1    1    2    0    0 -0.15821500195E+03  0.20333346975E+03  0.65894511654E+03  0.70752043401E+03  0.10566000000E+00 0. -1.
          4    1    1    2  501    0  0.15486669093E+03  0.78056932743E+02  0.45257134763E+02  0.17923388339E+03  0.00000000000E+00 0.  1.
</event>
<event>
 5    1  0.7625606E-005  0.2446773E+03  0.7818608E-02  0.1033188E+00
         -4   -1    0    0    0  501 -0.00000000000E+00  0.00000000000E+00  0.86976270358E+03  0.86976270358E+03  0.00000000000E+00 0. -1.
         21   -1    0    0  501  502  0.00000000000E+00 -0.00000000000E+00 -0.16205010760E+03  0.16205010760E+03  0.00000000000E+00 0.  1.
        -13    1    1    2    0    0  0.15060036941E+03  0.15148791033E+03  0.13714607422E+03  0.25384663693E+03  0.10566000000E+00 0.  1.
         13    1    1    2    0    0 -0.29129175113E+03 -0.17987309826E+02  0.48487128928E+03  0.56592809253E+03  0.10566000000E+00 0. -1.
         -4    1    1    2    0  502  0.14069138172E+03 -0.13350060050E+03  0.85695232481E+02  0.21203808171E+03  0.00000000000E+00 0. -1.
</event>
<event>
 5    1  0.7625606E-005  0.6057417E+03  0.7818608E-02  0.9272225E-01
         21   -1    0    0  501  502  0.00000000000E+00  0.00000000000E+00  0.68433093660E+03  0.68433093660E+03  0.00000000000E+00 0.  1.
          4   -1    0    0  502    0 -0.00000000000E+00 -0.00000000000E+00 -0.11533683338E+04  0.11533683338E+04  0.00000000000E+00 0.  1.
        -13    1    1    2    0    0  0.57503587654E+03 -0.49107973683E+03 -0.11923921054E+03  0.76553482463E+03  0.10566000000E+00 0.  1.
         13    1    1    2    0    0 -0.55005550840E+03  0.12362766929E+03 -0.41249236613E+03  0.69856626473E+03  0.10566000000E+00 0. -1.
          4    1    1    2  501    0 -0.24980368133E+02  0.36745206754E+03  0.62694179476E+02  0.37359818103E+03  0.00000000000E+00 0.  1.
</event>
<event>
 5    1  0.7625606E-005  0.2505508E+03  0.7818608E-02  0.1030108E+00
         21   -1    0    0  501  502  0.00000000000E+00  0.00000000000E+00  0.35153859251E+02  0.35153859251E+02  0.00000000000E+00 0.  1.
         -4   -1    0    0    0  501 -0.00000000000E+00 -0.00000000000E+00 -0.23314216586E+04  0.23314216586E+04  0.00000000000E+00 0. -1.
        -13    1    1    2    0    0 -0.28454935725E+02 -0.24086911680E+03 -0.80190139191E+03  0.83777888986E+03  0.10566000000E+00 0.  1.
         13    1    1    2    0    0  0.34471949444E+02  0.25306700250E+03 -0.14934857260E+04  0.15151669373E+04  0.10566000000E+00 0. -1.
         -4    1    1    2    0  502 -0.60170137192E+01 -0.12197885704E+02 -0.88068152651E+00  0.13629690741E+02  0.00000000000E+00 0. -1.
</event>
<event>
 5    1  0.7625606E-005  0.4367254E+03  0.7818608E-02  0.9628611E-01
         -4   -1    0    0    0  501 -0.00000000000E+00  0.00000000000E+00  0.19040137064E+04  0.19040137064E+04  0.00000000000E+00 0. -1.
         21   -1    0    0  501  502  0.00000000000E+00 -0.00000000000E+00 -0.22181729292E+03  0.22181729292E+03  0.00000000000E+00 0.  1.
        -13    1    1    2    0    0 -0.19733299395E+03  0.30488305024E+03  0.20477414936E+03  0.41692499114E+03  0.10566000000E+00 0.  1.
         13    1    1    2    0    0  0.27638727368E+03 -0.36831534232E+03  0.15278228405E+04  0.15957094847E+04  0.10566000000E+00 0. -1.
         -4    1    1    2    0  502 -0.79054279728E+02  0.63432292083E+02 -0.50400576399E+02  0.11319652346E+03  0.00000000000E+00 0. -1.
</event>
<event>
 5    1  0.7625606E-005  0.6690434E+03  0.7818608E-02  0.9169136E-01
          4   -1    0    0  502    0 -0.00000000000E+00  0.00000000000E+00  0.10479578363E+04  0.10479578363E+04  0.00000000000E+00 0.  1.
         21   -1    0    0  501  502  0.00000000000E+00 -0.00000000000E+00 -0.90096545911E+03  0.90096545911E+03  0.00000000000E+00 0. -1.
        -13    1    1    2    0    0  0.39822014765E+03  0.54596487888E+03  0.43821059788E+03  0.80541012796E+03  0.10566000000E+00 0.  1.
         13    1    1    2    0    0 -0.62711920584E+03 -0.32271325710E+03  0.83930900733E+01  0.70533169485E+03  0.10566000000E+00 0. -1.
          4    1    1    2  501    0  0.22889905819E+03 -0.22325162178E+03 -0.29961131072E+03  0.43818147265E+03  0.00000000000E+00 0.  1.
</event>
<event>
 5    1  0.7625606E-005  0.1472966E+03  0.7818608E-02  0.1103809E+00
         21   -1    0    0  501  502  0.00000000000E+00  0.00000000000E+00  0.29446671190E+02  0.29446671190E+02  0.00000000000E+00 0.  1.
         -4   -1    0    0    0  501 -0.00000000000E+00 -0.00000000000E+00 -0.11098930476E+04  0.11098930476E+04  0.00000000000E+00 0. -1.
        -13    1    1    2    0    0  0.94761862904E+02 -0.10827717808E+03 -0.35053773130E+03  0.37892013695E+03  0.10566000000E+00 0.  1.
         13    1    1    2    0    0 -0.10625850920E+03  0.10479153900E+03 -0.73298093682E+03  0.74801952002E+03  0.10566000000E+00 0. -1.
         -4    1    1    2    0  502  0.11496646300E+02  0.34856390790E+01  0.30722917429E+01  0.12400061794E+02  0.00000000000E+00 0. -1.
</event>
<event>
 5    1  0.7625606E-005  0.1370972E+03  0.7818608E-02  0.1114584E+00
          4   -1    0    0  502    0 -0.00000000000E+00  0.00000000000E+00  0.67091305330E+02  0.67091305330E+02  0.00000000000E+00 0.  1.
         21   -1    0    0  501  502  0.00000000000E+00 -0.00000000000E+00 -0.44737678920E+03  0.44737678920E+03  0.00000000000E+00 0. -1.
        -13    1    1    2    0    0 -0.12417349446E+03  0.60543005438E+02 -0.55326919466E+02  0.14881394899E+03  0.10566000000E+00 0.  1.
         13    1    1    2    0    0  0.12794920231E+03 -0.44281469926E+02 -0.21253585915E+03  0.25199870939E+03  0.10566000000E+00 0. -1.
          4    1    1    2  501    0 -0.37757078479E+01 -0.16261535512E+02 -0.11242270526E+03  0.11365543614E+03  0.00000000000E+00 0.  1.
</event>
<event>
 5    1  0.7625606E-005  0.7451169E+03  0.7818608E-02  0.9212672E-01
          4   -1    0    0  502    0 -0.00000000000E+00  0.00000000000E+00  0.11974830908E+04  0.11974830908E+04  0.00000000000E+00 0.  1.
         21   -1    0    0  501  502  0.00000000000E+00 -0.00000000000E+00 -0.90391541937E+03  0.90391541937E+03  0.00000000000E+00 0. -1.
        -13    1    1    2    0    0  0.34016406595E+03  0.21833817153E+03  0.37304745205E+03  0.55004323608E+03  0.10566000000E+00 0.  1.
         13    1    1    2    0    0  0.14563697631E+03 -0.78331295197E+03  0.34950411975E+02  0.79750288529E+03  0.10566000000E+00 0. -1.
          4    1    1    2  501    0 -0.48580104226E+03  0.56497478044E+03 -0.11443019256E+03  0.75385238884E+03  0.00000000000E+00 0.  1.
</event>
<event>
 5    1  0.7625606E-005  0.3895067E+03  0.7818608E-02  0.9959782E-01
         21   -1    0    0  501  502  0.00000000000E+00  0.00000000000E+00  0.28379574716E+03  0.28379574716E+03  0.00000000000E+00 0. -1.
         -4   -1    0    0    0  501 -0.00000000000E+00 -0.00000000000E+00 -0.13500267089E+04  0.13500267089E+04  0.00000000000E+00 0. -1.
        -13    1    1    2    0    0  0.19616194132E+03  0.30016768274E+02 -0.28276335716E+03  0.34544991087E+03  0.10566000000E+00 0.  1.
         13    1    1    2    0    0 -0.36504517907E+03  0.30663463854E+03 -0.77709715116E+03  0.91168129180E+03  0.10566000000E+00 0. -1.
         -4    1    1    2    0  502  0.16888323775E+03 -0.33665140681E+03 -0.63704533984E+01  0.37669125338E+03  0.00000000000E+00 0. -1.
</event>
<event>
 5    1  0.7625606E-005  0.2529817E+03  0.7818608E-02  0.1028859E+00
         21   -1    0    0  501  502  0.00000000000E+00  0.00000000000E+00  0.86427326126E+03  0.86427326126E+03  0.00000000000E+00 0.  1.
          4   -1    0    0  502    0 -0.00000000000E+00 -0.00000000000E+00 -0.51542996107E+03  0.51542996107E+03  0.00000000000E+00 0.  1.
        -13    1    1    2    0    0 -0.86327680134E+02  0.23453985351E+03 -0.34371231457E+03  0.42497009023E+03  0.10566000000E+00 0.  1.
         13    1    1    2    0    0  0.60419468659E+02 -0.25756925581E+03  0.32746758616E+01  0.26458111875E+03  0.10566000000E+00 0. -1.
          4    1    1    2  501    0  0.25908211476E+02  0.23029402302E+02  0.68928093891E+03  0.69015201335E+03  0.00000000000E+00 0.  1.
</event>
<event>
 5    1  0.7625606E-005  0.4197937E+03  0.7818608E-02  0.1009930E+00
         -4   -1    0    0    0  501 -0.00000000000E+00  0.00000000000E+00  0.13711200001E+04  0.13711200001E+04  0.00000000000E+00 0. -1.
         21   -1    0    0  501  502  0.00000000000E+00 -0.00000000000E+00 -0.22873315540E+03  0.22873315540E+03  0.00000000000E+00 0. -1.
        -13    1    1    2    0    0  0.93948184183E+02 -0.36011562275E+02  0.14306856400E+03  0.17490488586E+03  0.10566000000E+00 0.  1.
         13    1    1    2    0    0  0.30765641018E+03  0.26938316062E+03  0.11293005069E+03  0.42423220229E+03  0.10566000000E+00 0. -1.
         -4    1    1    2    0  502 -0.40160459436E+03 -0.23337159834E+03  0.88638823002E+03  0.10007160673E+04  0.00000000000E+00 0. -1.
</event>
<event>
 5    1  0.7625606E-005  0.4032852E+03  0.7818608E-02  0.9719606E-01
         21   -1    0    0  501  502  0.00000000000E+00  0.00000000000E+00  0.29243741206E+03  0.29243741206E+03  0.00000000000E+00 0.  1.
          4   -1    0    0  502    0 -0.00000000000E+00 -0.00000000000E+00 -0.18443428323E+04  0.18443428323E+04  0.00000000000E+00 0.  1.
        -13    1    1    2    0    0  0.58796463205E+02 -0.41607246540E+03 -0.11017611408E+04  0.11791738392E+04  0.10566000000E+00 0.  1.
         13    1    1    2    0    0 -0.10339638599E+02  0.38181484072E+03 -0.64736798891E+03  0.75164805924E+03  0.10566000000E+00 0. -1.
          4    1    1    2  501    0 -0.48456824607E+02  0.34257624674E+02  0.19722370944E+03  0.20595834595E+03  0.00000000000E+00 0.  1.
</event>
<event>
 5    1  0.7625606E-005  0.5238920E+03  0.7818608E-02  0.9780641E-01
          4   -1    0    0  502    0 -0.00000000000E+00  0.00000000000E+00  0.84336656548E+03  0.84336656548E+03  0.00000000000E+00 0.  1.
         21   -1    0    0  501  502  0.00000000000E+00 -0.00000000000E+00 -0.45785048408E+03  0.45785048408E+03  0.00000000000E+00 0.  1.
        -13    1    1    2    0    0 -0.40027256619E+03 -0.30165907741E+03  0.33804701872E+03  0.60455944642E+03  0.10566000000E+00 0.  1.
         13    1    1    2    0    0 -0.10716332588E+03  0.10359031429E+03  0.27547340159E+02  0.15157110127E+03  0.10566000000E+00 0. -1.
          4    1    1    2  501    0  0.50743589207E+03  0.19806876313E+03  0.19921722528E+02  0.54508650186E+03  0.00000000000E+00 0.  1.
</event>
<event>
 5    1  0.7625606E-005  0.4507689E+03  0.7818608E-02  0.9592941E-01
         -4   -1    0    0    0  501 -0.00000000000E+00  0.00000000000E+00  0.20554970934E+04  0.20554970934E+04  0.00000000000E+00 0. -1.
         21   -1    0    0  501  502  0.00000000000E+00 -0.00000000000E+00 -0.32054414866E+03  0.32054414866E+03  0.00000000000E+00 0.  1.
        -13    1    1    2    0    0 -0.32958319747E+03  0.33943756649E+03  0.31963647794E+03  0.57097323475E+03  0.10566000000E+00 0.  1.
         13    1    1    2    0    0  0.48094681754E+03  0.28631253201E+01  0.13394521240E+04  0.14231830671E+04  0.10566000000E+00 0. -1.
         -4    1    1    2    0  502 -0.15136362007E+03 -0.34230069181E+03  0.75864342860E+02  0.38188494028E+03  0.00000000000E+00 0. -1.
</event>
<event>
 5    1  0.7625606E-005  0.5514874E+03  0.7818608E-02  0.9371740E-01
         21   -1    0    0  501  502  0.00000000000E+00  0.00000000000E+00  0.16709265928E+04  0.16709265928E+04  0.00000000000E+00 0.  1.
         -4   -1    0    0    0  501 -0.00000000000E+00 -0.00000000000E+00 -0.37212900157E+03  0.37212900157E+03  0.00000000000E+00 0. -1.
        -13    1    1    2    0    0 -0.46446332365E+03  0.10123214497E+03  0.43925038301E+03  0.64723646091E+03  0.10566000000E+00 0.  1.
         13    1    1    2    0    0  0.48190746624E+03 -0.44182874990E+03  0.25510630971E+03  0.70180245845E+03  0.10566000000E+00 0. -1.
         -4    1    1    2    0  502 -0.17444142594E+02  0.34059660493E+03  0.60444089850E+03  0.69401667500E+03  0.00000000000E+00 0. -1.
</event>
<event>
 5    1  0.7625606E-005  0.4805494E+03  0.7818608E-02  0.9531466E-01
          4   -1    0    0  502    0 -0.00000000000E+00  0.00000000000E+00  0.22472671608E+04  0.22472671608E+04  0.00000000000E+00 0.  1.
         21   -1    0    0  501  502  0.00000000000E+00 -0.00000000000E+00 -0.32305028895E+03  0.32305028895E+03  0.00000000000E+00 0.  1.
        -13    1    1    2    0    0  0.18409366072E+03 -0.20146207974E+03  0.60846811127E+03  0.66686647770E+03  0.10566000000E+00 0.  1.
         13    1    1    2    0    0 -0.13129123958E+03 -0.44484079534E+03  0.11412927630E+04  0.12319374598E+04  0.10566000000E+00 0. -1.
          4    1    1    2  501    0 -0.52802421139E+02  0.64630287507E+03  0.17445599752E+03  0.67151351221E+03  0.00000000000E+00 0.  1.
</event>
<event>
 5    1  0.7625606E-005  0.4314545E+03  0.7818608E-02  0.9943747E-01
          4   -1    0    0  502    0 -0.00000000000E+00  0.00000000000E+00  0.95411042400E+03  0.95411042400E+03  0.00000000000E+00 0.  1.
         21   -1    0    0  501  502  0.00000000000E+00 -0.00000000000E+00 -0.46191938367E+03  0.46191938367E+03  0.00000000000E+00 0.  1.
        -13    1    1    2    0    0 -0.37324714845E+03 -0.36309142584E+03  0.58318634715E+03  0.78182807829E+03  0.10566000000E+00 0.  1.
         13    1    1    2    0    0  0.15164857732E+03  0.26624446985E+02 -0.16378713413E+03  0.22479410279E+03  0.10566000000E+00 0. -1.
          4    1    1    2  501    0  0.22159857113E+03  0.33646697885E+03  0.72791827318E+02  0.40940762659E+03  0.00000000000E+00 0.  1.
</event>
<event>
 5    1  0.7625606E-005  0.4275440E+03  0.7818608E-02  0.9936704E-01
         21   -1    0    0  501  502  0.00000000000E+00  0.00000000000E+00  0.17162505163E+03  0.17162505163E+03  0.00000000000E+00 0. -1.
         -4   -1    0    0    0  501 -0.00000000000E+00 -0.00000000000E+00 -0.20277624727E+04  0.20277624727E+04  0.00000000000E+00 0. -1.
        -13    1    1    2    0    0  0.24441877900E+02  0.16011812889E+03 -0.39870912417E+03  0.43035357260E+03  0.10566000000E+00 0.  1.
         13    1    1    2    0    0  0.34231237466E+03  0.20806642666E+03 -0.30057051842E+03  0.50081138910E+03  0.10566000000E+00 0. -1.
         -4    1    1    2    0  502 -0.36675425256E+03 -0.36818455554E+03 -0.11568577785E+04  0.12682225627E+04  0.00000000000E+00 0. -1.
</event>
<event>
 5    1  0.7625606E-005  0.5011287E+03  0.7818608E-02  0.9777416E-01
          4   -1    0    0  502    0 -0.00000000000E+00  0.00000000000E+00  0.13394969110E+04  0.13394969110E+04  0.00000000000E+00 0.  1.
         21   -1    0    0  501  502  0.00000000000E+00 -0.00000000000E+00 -0.31249658422E+03  0.31249658422E+03  0.00000000000E+00 0.  1.
        -13    1    1    2    0    0 -0.53518897262E+03  0.21923395093E+03  0.52308223220E+03  0.77981138390E+03  0.10566000000E+00 0.  1.
         13    1    1    2    0    0  0.11296857321E+03 -0.12994850787E+03 -0.41069693472E+02  0.17701763787E+03  0.10566000000E+00 0. -1.
          4    1    1    2  501    0  0.42222039940E+03 -0.89285443060E+02  0.54498778803E+03  0.69516447343E+03  0.00000000000E+00 0.  1.
</event>
<event>
 5    1  0.7625606E-005  0.3872857E+03  0.7818608E-02  0.9833452E-01
          4   -1    0    0  502    0 -0.00000000000E+00  0.00000000000E+00  0.31202616637E+03  0.31202616637E+03  0.00000000000E+00 0.  1.
         21   -1    0    0  501  502  0.00000000000E+00 -0.00000000000E+00 -0.16159793989E+04  0.16159793989E+04  0.00000000000E+00 0.  1.
        -13    1    1    2    0    0 -0.98199261234E+02  0.16523354050E+03  0.93838482049E+02  0.21389457611E+03  0.10566000000E+00 0.  1.
         13    1    1    2    0    0  0.14309410673E+03  0.27291318918E+03 -0.71138465038E+02  0.31625658029E+03  0.10566000000E+00 0. -1.
          4    1    1    2  501    0 -0.44894845492E+02 -0.43814672967E+03 -0.13266532495E+04  0.13978544089E+04  0.00000000000E+00 0.  1.
</event>
<event>
 5    1  0.8818384E-005  0.3733069E+03  0.7818608E-02  0.1039894E+00
         -4   -1    0    0    0  501 -0.00000000000E+00  0.00000000000E+00  0.18614800081E+04  0.18614800081E+04  0.00000000000E+00 0. -1.
         21   -1    0    0  501  502  0.00000000000E+00 -0.00000000000E+00 -0.15142994594E+03  0.15142994594E+03  0.00000000000E+00 0. -1.
        -13    1    1    2    0    0  0.34707322422E+02  0.44138637919E+02  0.18887847344E+03  0.19704798015E+03  0.10566000000E+00 0.  1.
         13    1    1    2    0    0  0.57786573176E+02  0.32657468424E+03  0.13622691145E+04  0.14020582955E+04  0.10566000000E+00 0. -1.
         -4    1    1    2    0  502 -0.92493895599E+02 -0.37071332216E+03  0.15890247420E+03  0.41380367840E+03  0.00000000000E+00 0. -1.
</event>
<event>
 5    1  0.7625606E-005  0.5352111E+02  0.7818608E-02  0.1278081E+00
         21   -1    0    0  501  502  0.00000000000E+00  0.00000000000E+00  0.40623222477E+03  0.40623222477E+03  0.00000000000E+00 0.  1.
         -4   -1    0    0    0  501 -0.00000000000E+00 -0.00000000000E+00 -0.31118701956E+02  0.31118701956E+02  0.00000000000E+00 0. -1.
        -13    1    1    2    0    0 -0.34660896063E+02 -0.64115730129E+02  0.16633076890E+03  0.18159884474E+03  0.10566000000E+00 0.  1.
         13    1    1    2    0    0  0.27432744990E+02  0.42339581108E+02  0.50173168628E+01  0.50698917726E+02  0.10566000000E+00 0. -1.
         -4    1    1    2    0  502  0.72281510733E+01  0.21776149020E+02  0.20376543706E+03  0.20505316426E+03  0.00000000000E+00 0. -1.
</event>
<event>
 5    1  0.7625606E-005  0.3440501E+03  0.7818608E-02  0.9906216E-01
         21   -1    0    0  501  502  0.00000000000E+00  0.00000000000E+00  0.81271140155E+03  0.81271140155E+03  0.00000000000E+00 0.  1.
         -4   -1    0    0    0  501 -0.00000000000E+00 -0.00000000000E+00 -0.23625855542E+03  0.23625855542E+03  0.00000000000E+00 0. -1.
        -13    1    1    2    0    0 -0.34049814284E+03  0.53184671555E+02  0.49299341551E+02  0.34813507552E+03  0.10566000000E+00 0.  1.
         13    1    1    2    0    0  0.33479936623E+03 -0.77373541160E+02  0.25589021761E+03  0.42843563709E+03  0.10566000000E+00 0. -1.
         -4    1    1    2    0  502  0.56987766096E+01  0.24188869604E+02  0.27126328697E+03  0.27239924436E+03  0.00000000000E+00 0. -1.
</event>
<event>
 5    1  0.7625606E-005  0.4369009E+03  0.7818608E-02  0.9654505E-01
          4   -1    0    0  502    0 -0.00000000000E+00  0.00000000000E+00  0.24408906512E+04  0.24408906512E+04  0.00000000000E+00 0.  1.
         21   -1    0    0  501  502  0.00000000000E+00 -0.00000000000E+00 -0.24141345728E+03  0.24141345728E+03  0.00000000000E+00 0.  1.
        -13    1    1    2    0    0  0.13449617573E+03 -0.44410250585E+03  0.22472491308E+03  0.51557497486E+03  0.10566000000E+00 0.  1.
         13    1    1    2    0    0 -0.39690066323E+03  0.31358841627E+02  0.99450109653E+03  0.10712357143E+04  0.10566000000E+00 0. -1.
          4    1    1    2  501    0  0.26240448750E+03  0.41274366422E+03  0.98025118430E+03  0.10954934193E+04  0.00000000000E+00 0.  1.
</event>
<event>
 5    1  0.7625606E-005  0.3850162E+03  0.7818608E-02  0.1003369E+00
         -4   -1    0    0    0  501 -0.00000000000E+00  0.00000000000E+00  0.54669498222E+03  0.54669498222E+03  0.00000000000E+00 0. -1.
         21   -1    0    0  501  502  0.00000000000E+00 -0.00000000000E+00 -0.68016334704E+03  0.68016334704E+03  0.00000000000E+00 0. -1.
        -13    1    1    2    0    0 -0.12442000971E+03 -0.10256346912E+03 -0.16941999669E+03  0.23388619125E+03  0.10566000000E+00 0.  1.
         13    1    1    2    0    0 -0.28433314305E+03  0.89054172256E+02  0.36277641391E+03  0.46944937904E+03  0.10566000000E+00 0. -1.
         -4    1    1    2    0  502  0.40875315276E+03  0.13509296864E+02 -0.32682478205E+03  0.52352275896E+03  0.00000000000E+00 0. -1.
</event>
<event>
 5    1  0.7625606E-005  0.2744469E+03  0.7818608E-02  0.1037332E+00
          4   -1    0    0  502    0 -0.00000000000E+00  0.00000000000E+00  0.21403105934E+04  0.21403105934E+04  0.00000000000E+00 0.  1.
         21   -1    0    0  501  502  0.00000000000E+00 -0.00000000000E+00 -0.15324785729E+03  0.15324785729E+03  0.00000000000E+00 0.  1.
        -13    1    1    2    0    0 -0.30686072801E+03 -0.71443154824E+02  0.17452889556E+04  0.17734996985E+04  0.10566000000E+00 0.  1.
         13    1    1    2    0    0  0.10358312789E+03 -0.11225922164E+03  0.18560164512E+03  0.24037383190E+03  0.10566000000E+00 0. -1.
          4    1    1    2  501    0  0.20327760013E+03  0.18370237646E+03  0.56172135314E+02  0.27968492025E+03  0.00000000000E+00 0.  1.
</event>
<event>
 5    1  0.7625606E-005  0.4770551E+03  0.7818608E-02  0.1003683E+00
         21   -1    0    0  501  502  0.00000000000E+00  0.00000000000E+00  0.68089935424E+03  0.68089935424E+03  0.00000000000E+00 0. -1.
         -4   -1    0    0    0  501 -0.00000000000E+00 -0.00000000000E+00 -0.49838224579E+03  0.49838224579E+03  0.00000000000E+00 0. -1.
        -13    1    1    2    0    0  0.76091864869E+02 -0.35348341431E+02 -0.90337744724E+02  0.12328988777E+03  0.10566000000E+00 0.  1.
         13    1    1    2    0    0  0.68930728817E+02 -0.45616537352E+03  0.28700848447E+03  0.54333431209E+03  0.10566000000E+00 0. -1.
         -4    1    1    2    0  502 -0.14502259369E+03  0.49151371495E+03 -0.14153631300E+02  0.51265740017E+03  0.00000000000E+00 0. -1.
</event>
<event>
 5    1  0.7625606E-005  0.3283734E+03  0.7818608E-02  0.9962370E-01
         21   -1    0    0  501  502  0.00000000000E+00  0.00000000000E+00  0.46079785656E+03  0.46079785656E+03  0.00000000000E+00 0. -1.
         -4   -1    0    0    0  501 -0.00000000000E+00 -0.00000000000E+00 -0.83921961113E+03  0.83921961113E+03  0.00000000000E+00 0. -1.
        -13    1    1    2    0    0 -0.31783642790E+03  0.40920634045E+02 -0.31922645853E+03  0.45232735511E+03  0.10566000000E+00 0.  1.
         13    1    1    2    0    0  0.33624278961E+03 -0.12386175411E+02 -0.39003547962E+03  0.51511194650E+03  0.10566000000E+00 0. -1.
         -4    1    1    2    0  502 -0.18406361713E+02 -0.28534458634E+02  0.33084018358E+03  0.33257816608E+03  0.00000000000E+00 0. -1.
</event>
<event>
 5    1  0.7625606E-005  0.4864493E+03  0.7818608E-02  0.9712376E-01
          4   -1    0    0  502    0 -0.00000000000E+00  0.00000000000E+00  0.10346618568E+04  0.10346618568E+04  0.00000000000E+00 0.  1.
         21   -1    0    0  501  502  0.00000000000E+00 -0.00000000000E+00 -0.42996215166E+03  0.42996215166E+03  0.00000000000E+00 0.  1.
        -13    1    1    2    0    0  0.19337716877E+03 -0.52136932511E+03  0.75965880182E+01  0.55612806249E+03  0.10566000000E+00 0.  1.
         13    1    1    2    0    0 -0.21136277883E+03  0.10415772291E+03  0.35411558989E+03  0.42534799598E+03  0.10566000000E+00 0. -1.
          4    1    1    2  501    0  0.17985610055E+02  0.41721160221E+03  0.24298752721E+03  0.48314794998E+03  0.00000000000E+00 0.  1.
</event>
<event>
 5    1  0.7625606E-005  0.4958854E+03  0.7818608E-02  0.9574529E-01
          4   -1    0    0  502    0 -0.00000000000E+00  0.00000000000E+00  0.39264104697E+04  0.39264104697E+04  0.00000000000E+00 0.  1.
         21   -1    0    0  501  502  0.00000000000E+00 -0.00000000000E+00 -0.20232337269E+03  0.20232337269E+03  0.00000000000E+00 0. -1.
        -13    1    1    2    0    0 -0.31142474012E+03  0.18209616673E+03  0.44251959019E+03  0.57093605733E+03  0.10566000000E+00 0.  1.
         13    1    1    2    0    0 -0.43486691336E+03 -0.38486646322E+03  0.17168181628E+04  0.18123730417E+04  0.10566000000E+00 0. -1.
          4    1    1    2  501    0  0.74629165349E+03  0.20277029649E+03  0.15647493440E+04  0.17454247434E+04  0.00000000000E+00 0.  1.
</event>
<event>
 5    1  0.7625606E-005  0.4618809E+03  0.7818608E-02  0.1017376E+00
         21   -1    0    0  501  502  0.00000000000E+00  0.00000000000E+00  0.43373454600E+03  0.43373454600E+03  0.00000000000E+00 0.  1.
          4   -1    0    0  502    0 -0.00000000000E+00 -0.00000000000E+00 -0.75711555699E+03  0.75711555699E+03  0.00000000000E+00 0.  1.
        -13    1    1    2    0    0 -0.96614589332E+02  0.48576611045E+03 -0.21539198680E+03  0.54008963337E+03  0.10566000000E+00 0.  1.
         13    1    1    2    0    0 -0.20977934812E+02 -0.55747489593E+02 -0.18854839658E+03  0.19773306593E+03  0.10566000000E+00 0. -1.
          4    1    1    2  501    0  0.11759252414E+03 -0.43001862086E+03  0.80559372394E+02  0.45302740369E+03  0.00000000000E+00 0.  1.
</event>
<event>
 5    1  0.7625606E-005  0.4583723E+03  0.7818608E-02  0.9736258E-01
          4   -1    0    0  502    0 -0.00000000000E+00  0.00000000000E+00  0.20349504105E+04  0.20349504105E+04  0.00000000000E+00 0.  1.
         21   -1    0    0  501  502  0.00000000000E+00 -0.00000000000E+00 -0.23937475316E+03  0.23937475316E+03  0.00000000000E+00 0.  1.
        -13    1    1    2    0    0  0.48283279778E+01 -0.40526155798E+03  0.75685158667E+03  0.85853630007E+03  0.10566000000E+00 0.  1.
         13    1    1    2    0    0  0.25824459001E+03 -0.22997066075E+02  0.83351067256E+03  0.87290273556E+03  0.10566000000E+00 0. -1.
          4    1    1    2  501    0 -0.26307291798E+03  0.42825862405E+03  0.20521339813E+03  0.54288612805E+03  0.00000000000E+00 0.  1.
</event>
<event>
 5    1  0.7625606E-005  0.4886523E+03  0.7818608E-02  0.1005578E+00
         21   -1    0    0  501  502  0.00000000000E+00  0.00000000000E+00  0.16895913695E+03  0.16895913695E+03  0.00000000000E+00 0. -1.
         -4   -1    0    0    0  501 -0.00000000000E+00 -0.00000000000E+00 -0.17422294553E+04  0.17422294553E+04  0.00000000000E+00 0. -1.
        -13    1    1    2    0    0 -0.29594971306E+02  0.67182149298E+02 -0.12069471945E+03  0.14126758290E+03  0.10566000000E+00 0.  1.
         13    1    1    2    0    0  0.12731684933E+03  0.44935142654E+03 -0.51661434736E+03  0.69643138910E+03  0.10566000000E+00 0. -1.
         -4    1    1    2    0  502 -0.97721878021E+02 -0.51653357584E+03 -0.93596125156E+03  0.10734896203E+04  0.00000000000E+00 0. -1.
</event>
<event>
 5    1  0.7625606E-005  0.3161863E+03  0.7818608E-02  0.1000839E+00
         21   -1    0    0  501  502  0.00000000000E+00  0.00000000000E+00  0.18880513481E+03  0.18880513481E+03  0.00000000000E+00 0.  1.
          4   -1    0    0  502    0 -0.00000000000E+00 -0.00000000000E+00 -0.22368260302E+04  0.22368260302E+04  0.00000000000E+00 0.  1.
        -13    1    1    2    0    0  0.26810641083E+03 -0.24430325830E+03 -0.16652644855E+04  0.17043095222E+04  0.10566000000E+00 0.  1.
         13    1    1    2    0    0 -0.15306926532E+03  0.19567180829E+03 -0.49471692078E+03  0.55359055214E+03  0.10566000000E+00 0. -1.
          4    1    1    2  501    0 -0.11503714551E+03  0.48631450005E+02  0.11196051090E+03  0.16773109067E+03  0.00000000000E+00 0.  1.
</event>
<event>
 5    1  0.7625606E-005  0.2865835E+03  0.7818608E-02  0.1032488E+00
         -4   -1    0    0    0  501 -0.00000000000E+00  0.00000000000E+00  0.17872290175E+04  0.17872290175E+04  0.00000000000E+00 0. -1.
         21   -1    0    0  501  502  0.00000000000E+00 -0.00000000000E+00 -0.18507900404E+03  0.18507900404E+03  0.00000000000E+00 0. -1.
        -13    1    1    2    0    0  0.14404819371E+03 -0.58793193111E+02  0.14969974732E+03  0.21590865471E+03  0.10566000000E+00 0.  1.
         13    1    1    2    0    0 -0.75968396979E+02  0.33456735444E+03  0.14309828390E+04  0.14715360712E+04  0.10566000000E+00 0. -1.
         -4    1    1    2    0  502 -0.68079796728E+02 -0.27577416132E+03  0.21467427082E+02  0.28486329564E+03  0.00000000000E+00 0. -1.
</event>
<event>
 5    1  0.7625606E-005  0.7376778E+02  0.7818608E-02  0.1265949E+00
         21   -1    0    0  501  502  0.00000000000E+00  0.00000000000E+00  0.11434434952E+03  0.11434434952E+03  0.00000000000E+00 0. -1.
          4   -1    0    0  502    0 -0.00000000000E+00 -0.00000000000E+00 -0.18243204799E+03  0.18243204799E+03  0.00000000000E+00 0.  1.
        -13    1    1    2    0    0  0.13231315111E+01  0.76722324386E+02 -0.14885112763E+03  0.16746562363E+03  0.10566000000E+00 0.  1.
         13    1    1    2    0    0  0.24986053311E+02 -0.76621839453E+01  0.29261855309E+02  0.39233649627E+02  0.10566000000E+00 0. -1.
          4    1    1    2  501    0 -0.26309184822E+02 -0.69060140441E+02  0.51501573854E+02  0.90077124250E+02  0.00000000000E+00 0.  1.
</event>
<event>
 5    1  0.7625606E-005  0.2806647E+03  0.7818608E-02  0.1015622E+00
          4   -1    0    0  502    0 -0.00000000000E+00  0.00000000000E+00  0.71725317953E+03  0.71725317953E+03  0.00000000000E+00 0.  1.
         21   -1    0    0  501  502  0.00000000000E+00 -0.00000000000E+00 -0.62731365922E+03  0.62731365922E+03  0.00000000000E+00 0.  1.
        -13    1    1    2    0    0  0.22871172419E+03  0.38860792595E+03 -0.43722622189E+03  0.62808594409E+03  0.10566000000E+00 0.  1.
         13    1    1    2    0    0 -0.12195217658E+03 -0.22757588671E+03  0.16619766887E+03  0.30705829070E+03  0.10566000000E+00 0. -1.
          4    1    1    2  501    0 -0.10675954761E+03 -0.16103203924E+03  0.36096807334E+03  0.40942260396E+03  0.00000000000E+00 0.  1.
</event>
<event>
 5    1  0.7625606E-005  0.6137929E+02  0.7818608E-02  0.1251344E+00
         21   -1    0    0  501  502  0.00000000000E+00  0.00000000000E+00  0.14299536656E+03  0.14299536656E+03  0.00000000000E+00 0. -1.
         -4   -1    0    0    0  501 -0.00000000000E+00 -0.00000000000E+00 -0.73030338443E+02  0.73030338443E+02  0.00000000000E+00 0. -1.
        -13    1    1    2    0    0  0.10406089660E+02 -0.66605362193E+02 -0.24363324196E+02  0.71680846150E+02  0.10566000000E+00 0.  1.
         13    1    1    2    0    0 -0.83060214360E+01  0.53190242198E+02  0.50851764140E+01  0.54074596996E+02  0.10566000000E+00 0. -1.
         -4    1    1    2    0  502 -0.21000682236E+01  0.13415119996E+02  0.89243175900E+02  0.90270261857E+02  0.00000000000E+00 0. -1.
</event>
<event>
 5    1  0.7625606E-005  0.6621150E+03  0.7818608E-02  0.9208333E-01
         -4   -1    0    0    0  501 -0.00000000000E+00  0.00000000000E+00  0.24361998080E+04  0.24361998080E+04  0.00000000000E+00 0. -1.
         21   -1    0    0  501  502  0.00000000000E+00 -0.00000000000E+00 -0.56044793219E+03  0.56044793219E+03  0.00000000000E+00 0. -1.
        -13    1    1    2    0    0 -0.42415760710E+03  0.55655165844E+03  0.99386293487E+03  0.12154928912E+04  0.10566000000E+00 0.  1.
         13    1    1    2    0    0  0.39426076160E+03  0.40322682486E+03  0.18083439266E+03  0.59222842650E+03  0.10566000000E+00 0. -1.
         -4    1    1    2    0  502  0.29896845501E+02 -0.95977848331E+03  0.70105454833E+03  0.11889264225E+04  0.00000000000E+00 0. -1.
</event>
<event>
 5    1  0.7625606E-005  0.1505936E+03  0.7818608E-02  0.1100528E+00
         21   -1    0    0  501  502  0.00000000000E+00  0.00000000000E+00  0.21720259194E+03  0.21720259194E+03  0.00000000000E+00 0.  1.
          4   -1    0    0  502    0 -0.00000000000E+00 -0.00000000000E+00 -0.48708253566E+03  0.48708253566E+03  0.00000000000E+00 0.  1.
        -13    1    1    2    0    0  0.24716203440E+00  0.15213530356E+03 -0.40166477477E+03  0.42951113388E+03  0.10566000000E+00 0.  1.
         13    1    1    2    0    0 -0.40260204084E+01 -0.14266893918E+03  0.13064371901E+00  0.14272583256E+03  0.10566000000E+00 0. -1.
          4    1    1    2  501    0  0.37788583740E+01 -0.94663643789E+01  0.13165418733E+03  0.13204816116E+03  0.00000000000E+00 0.  1.
</event>
<event>
 5    1  0.7625606E-005  0.4715562E+03  0.7818608E-02  0.9833702E-01
         -4   -1    0    0    0  501 -0.00000000000E+00  0.00000000000E+00  0.83605289491E+03  0.83605289491E+03  0.00000000000E+00 0. -1.
         21   -1    0    0  501  502  0.00000000000E+00 -0.00000000000E+00 -0.42378174786E+03  0.42378174786E+03  0.00000000000E+00 0. -1.
        -13    1    1    2    0    0 -0.16521301811E+03  0.42391069507E+02  0.13842823572E+02  0.17112562360E+03  0.10566000000E+00 0.  1.
         13    1    1    2    0    0 -0.37132734700E+03 -0.21483733045E+03  0.65010926254E+02  0.43389573503E+03  0.10566000000E+00 0. -1.
         -4    1    1    2    0  502  0.53654036510E+03  0.17244626095E+03  0.33341739723E+03  0.65481328413E+03  0.00000000000E+00 0. -1.
</event>
<event>
 5    1  0.7625606E-005  0.5037151E+03  0.7818608E-02  0.9812986E-01
         21   -1    0    0  501  502  0.00000000000E+00  0.00000000000E+00  0.44626705316E+03  0.44626705316E+03  0.00000000000E+00 0. -1.
         -4   -1    0    0    0  501 -0.00000000000E+00 -0.00000000000E+00 -0.98007043226E+03  0.98007043226E+03  0.00000000000E+00 0. -1.
        -13    1    1    2    0    0  0.11024240826E+03 -0.10192950471E+03 -0.34675955538E+03  0.37786930667E+03  0.10566000000E+00 0.  1.
         13    1    1    2    0    0 -0.54859566386E+03  0.53564562680E+01  0.30896871659E+02  0.54949114813E+03  0.10566000000E+00 0. -1.
         -4    1    1    2    0  502  0.43835325560E+03  0.96573048447E+02 -0.21794069539E+03  0.49897703062E+03  0.00000000000E+00 0. -1.
</event>
<event>
 5    1  0.7625606E-005  0.3017926E+03  0.7818608E-02  0.1060684E+00
         21   -1    0    0  501  502  0.00000000000E+00  0.00000000000E+00  0.34500690451E+04  0.34500690451E+04  0.00000000000E+00 0. -1.
         -4   -1    0    0    0  501 -0.00000000000E+00 -0.00000000000E+00 -0.89078050396E+02  0.89078050396E+02  0.00000000000E+00 0. -1.
        -13    1    1    2    0    0  0.47269345184E+02  0.32362936104E+02  0.26645627831E+02  0.63180307643E+02  0.10566000000E+00 0.  1.
         13    1    1    2    0    0 -0.42173400534E+02  0.27285971071E+03  0.23773818508E+03  0.36434938350E+03  0.10566000000E+00 0. -1.
         -4    1    1    2    0  502 -0.50959446495E+01 -0.30522264682E+03  0.30966071818E+04  0.31116174044E+04  0.00000000000E+00 0. -1.
</event>
<event>
 5    1  0.7625606E-005  0.5044560E+03  0.7818608E-02  0.9821986E-01
         21   -1    0    0  501  502  0.00000000000E+00  0.00000000000E+00  0.12585518733E+04  0.12585518733E+04  0.00000000000E+00 0. -1.
         -4   -1    0    0    0  501 -0.00000000000E+00 -0.00000000000E+00 -0.32972811840E+03  0.32972811840E+03  0.00000000000E+00 0. -1.
        -13    1    1    2    0    0  0.33911177895E+02  0.14095344308E+03 -0.28956355068E+02  0.14783884051E+03  0.10566000000E+00 0.  1.
         13    1    1    2    0    0 -0.27774632619E+03 -0.47616781719E+03  0.84835592808E+03  0.10117245691E+04  0.10566000000E+00 0. -1.
         -4    1    1    2    0  502  0.24383514830E+03  0.33521437412E+03  0.10942418186E+03  0.42871658206E+03  0.00000000000E+00 0. -1.
</event>
<event>
 5    1  0.7625606E-005  0.5136774E+03  0.7818608E-02  0.9491358E-01
          4   -1    0    0  502    0 -0.00000000000E+00  0.00000000000E+00  0.10527052667E+04  0.10527052667E+04  0.00000000000E+00 0.  1.
         21   -1    0    0  501  502  0.00000000000E+00 -0.00000000000E+00 -0.68632410724E+03  0.68632410724E+03  0.00000000000E+00 0.  1.
        -13    1    1    2    0    0  0.27527987401E+03  0.67840637016E+02  0.17084983472E+03  0.33101516318E+03  0.10566000000E+00 0.  1.
         13    1    1    2    0    0  0.54703856303E+03  0.96894697341E+02  0.88390898901E+02  0.56254131759E+03  0.10566000000E+00 0. -1.
          4    1    1    2  501    0 -0.82231843704E+03 -0.16473533436E+03  0.10714042586E+03  0.84547289320E+03  0.00000000000E+00 0.  1.
</event>
<event>
 5    1  0.7625606E-005  0.1549255E+03  0.7818608E-02  0.1096353E+00
         21   -1    0    0  501  502  0.00000000000E+00  0.00000000000E+00  0.47355932801E+03  0.47355932801E+03  0.00000000000E+00 0.  1.
         -4   -1    0    0    0  501 -0.00000000000E+00 -0.00000000000E+00 -0.11118220903E+03  0.11118220903E+03  0.00000000000E+00 0. -1.
        -13    1    1    2    0    0 -0.24683543258E+02 -0.11757492188E+03  0.16912381854E+03  0.20745123939E+03  0.10566000000E+00 0.  1.
         13    1    1    2    0    0 -0.49007877028E+02  0.17172229538E+03  0.17834681845E+02  0.17946700471E+03  0.10566000000E+00 0. -1.
         -4    1    1    2    0  502  0.73691420287E+02 -0.54147373503E+02  0.17541861859E+03  0.19782329294E+03  0.00000000000E+00 0. -1.
</event>
<event>
 5    1  0.7625606E-005  0.3037397E+03  0.7818608E-02  0.1032454E+00
          4   -1    0    0  502    0 -0.00000000000E+00  0.00000000000E+00  0.22996839474E+04  0.22996839474E+04  0.00000000000E+00 0.  1.
         21   -1    0    0  501  502  0.00000000000E+00 -0.00000000000E+00 -0.16451606802E+03  0.16451606802E+03  0.00000000000E+00 0.  1.
        -13    1    1    2    0    0 -0.10669960055E+03 -0.36497198571E+03  0.14318633157E+04  0.14814931391E+04  0.10566000000E+00 0.  1.
         13    1    1    2    0    0  0.11160517398E+03  0.68247060069E+02  0.67163484421E+03  0.68425634903E+03  0.10566000000E+00 0. -1.
          4    1    1    2  501    0 -0.49055734287E+01  0.29672492564E+03  0.31669719520E+02  0.29845052736E+03  0.00000000000E+00 0.  1.
</event>
<event>
 5    1  0.7625606E-005  0.1955737E+03  0.7818608E-02  0.1063213E+00
         -4   -1    0    0    0  501 -0.00000000000E+00  0.00000000000E+00  0.13318991768E+04  0.13318991768E+04  0.00000000000E+00 0. -1.
         21   -1    0    0  501  502  0.00000000000E+00 -0.00000000000E+00 -0.61256161186E+02  0.61256161186E+02  0.00000000000E+00 0.  1.
        -13    1    1    2    0    0  0.12905427659E+03  0.13956317703E+03  0.12896431010E+03  0.22970566195E+03  0.10566000000E+00 0.  1.
         13    1    1    2    0    0 -0.11826112763E+03 -0.15714670322E+03  0.10933959391E+04  0.11109435050E+04  0.10566000000E+00 0. -1.
         -4    1    1    2    0  502 -0.10793148959E+02  0.17583526192E+02  0.48282766429E+02  0.52506170988E+02  0.00000000000E+00 0. -1.
</event>
<event>
 5    1  0.7625606E-005  0.4470600E+03  0.7818608E-02  0.9778382E-01
         -4   -1    0    0    0  501 -0.00000000000E+00  0.00000000000E+00  0.80714928027E+03  0.80714928027E+03  0.00000000000E+00 0. -1.
         21   -1    0    0  501  502  0.00000000000E+00 -0.00000000000E+00 -0.58163158761E+03  0.58163158761E+03  0.00000000000E+00 0. -1.
        -13    1    1    2    0    0  0.22725313449E+03 -0.82368721309E+02  0.23386623736E+03  0.33633617339E+03  0.10566000000E+00 0.  1.
         13    1    1    2    0    0  0.36013785694E+03 -0.13658080886E+03 -0.14374977244E+03  0.41111750339E+03  0.10566000000E+00 0. -1.
         -4    1    1    2    0  502 -0.58739099143E+03  0.21894953017E+03  0.13540122773E+03  0.64132719110E+03  0.00000000000E+00 0. -1.
</event>
<event>
 5    1  0.7625606E-005  0.4656108E+03  0.7818608E-02  0.9673178E-01
         21   -1    0    0  501  502  0.00000000000E+00  0.00000000000E+00  0.23442622686E+03  0.23442622686E+03  0.00000000000E+00 0.  1.
         -4   -1    0    0    0  501 -0.00000000000E+00 -0.00000000000E+00 -0.20839139640E+04  0.20839139640E+04  0.00000000000E+00 0. -1.
        -13    1    1    2    0    0 -0.28403119373E+03  0.11931350925E+03 -0.73933820222E+03  0.80095594194E+03  0.10566000000E+00 0.  1.
         13    1    1    2    0    0  0.47096610084E+02  0.36386996993E+03 -0.83699042209E+03  0.91387768522E+03  0.10566000000E+00 0. -1.
         -4    1    1    2    0  502  0.23693458364E+03 -0.48318347919E+03 -0.27315911279E+03  0.60350656366E+03  0.00000000000E+00 0. -1.
</event>
<event>
 5    1  0.7625606E-005  0.2953932E+03  0.7818608E-02  0.1014789E+00
         21   -1    0    0  501  502  0.00000000000E+00  0.00000000000E+00  0.29830048119E+03  0.29830048119E+03  0.00000000000E+00 0. -1.
         -4   -1    0    0    0  501 -0.00000000000E+00 -0.00000000000E+00 -0.18293521069E+04  0.18293521069E+04  0.00000000000E+00 0. -1.
        -13    1    1    2    0    0  0.49202054893E+02 -0.24225775060E+03 -0.87711311273E+03  0.91128320714E+03  0.10566000000E+00 0.  1.
         13    1    1    2    0    0 -0.31875655709E+03  0.10913591637E+03 -0.81026305254E+03  0.87752072135E+03  0.10566000000E+00 0. -1.
         -4    1    1    2    0  502  0.26955450219E+03  0.13312183423E+03  0.15632453960E+03  0.33884865955E+03  0.00000000000E+00 0. -1.
</event>
<event>
 5    1  0.1838348E-004  0.4893873E+03  0.7818608E-02  0.1020537E+00
         21   -1    0    0  501  502  0.00000000000E+00  0.00000000000E+00  0.16029338578E+03  0.16029338578E+03  0.00000000000E+00 0. -1.
         -4   -1    0    0    0  501 -0.00000000000E+00 -0.00000000000E+00 -0.18116928790E+04  0.18116928790E+04  0.00000000000E+00 0. -1.
        -13    1    1    2    0    0 -0.16087359526E+02  0.42365886493E+02 -0.21883599456E+03  0.22347902620E+03  0.10566000000E+00 0.  1.
         13    1    1    2    0    0 -0.46441820621E+03  0.95438718165E+02 -0.90537630549E+03  0.10220073801E+04  0.10566000000E+00 0. -1.
         -4    1    1    2    0  502  0.48050556574E+03 -0.13780460466E+03 -0.52718719315E+03  0.72649985849E+03  0.00000000000E+00 0. -1.
</event>
<event>
 5    1  0.7625606E-005  0.4944661E+03  0.7818608E-02  0.1033526E+00
         -4   -1    0    0    0  501 -0.00000000000E+00  0.00000000000E+00  0.18196090594E+04  0.18196090594E+04  0.00000000000E+00 0. -1.
         21   -1    0    0  501  502  0.00000000000E+00 -0.00000000000E+00 -0.14996866834E+03  0.14996866834E+03  0.00000000000E+00 0. -1.
        -13    1    1    2    0    0 -0.22309130306E+02 -0.19055669123E+02  0.15629550288E+03  0.15902550489E+03  0.10566000000E+00 0.  1.
         13    1    1    2    0    0  0.10751564657E+03  0.49563632939E+03  0.83986968193E+03  0.98111980872E+03  0.10566000000E+00 0. -1.
         -4    1    1    2    0  502 -0.85206516264E+02 -0.47658066027E+03  0.67347520621E+03  0.82943241409E+03  0.00000000000E+00 0. -1.
</event>
<event>
 5    1  0.7625606E-005  0.3691747E+03  0.7818608E-02  0.9822553E-01
         -4   -1    0    0    0  501 -0.00000000000E+00  0.00000000000E+00  0.26254391315E+03  0.26254391315E+03  0.00000000000E+00 0. -1.
         21   -1    0    0  501  502  0.00000000000E+00 -0.00000000000E+00 -0.87340416467E+03  0.87340416467E+03  0.00000000000E+00 0. -1.
        -13    1    1    2    0    0  0.23196695525E+02 -0.29397671575E+03 -0.25588625735E+03  0.39043332843E+03  0.10566000000E+00 0.  1.
         13    1    1    2    0    0 -0.44471417105E+02  0.42508727709E+03 -0.72692930653E+02  0.43354489204E+03  0.10566000000E+00 0. -1.
         -4    1    1    2    0  502  0.21274721580E+02 -0.13111056135E+03 -0.28228106352E+03  0.31196985735E+03  0.00000000000E+00 0. -1.
</event>
<event>
 5    1  0.7625606E-005  0.6831664E+03  0.7818608E-02  0.9147762E-01
         21   -1    0    0  501  502  0.00000000000E+00  0.00000000000E+00  0.48070887262E+03  0.48070887262E+03  0.00000000000E+00 0.  1.
          4   -1    0    0  502    0 -0.00000000000E+00 -0.00000000000E+00 -0.39413083442E+04  0.39413083442E+04  0.00000000000E+00 0.  1.
        -13    1    1    2    0    0  0.76078479232E+03 -0.30118741125E+03 -0.23499724203E+03  0.85131138360E+03  0.10566000000E+00 0.  1.
         13    1    1    2    0    0 -0.42841814075E+03  0.52540030463E+03 -0.30645595480E+04  0.31386482469E+04  0.10566000000E+00 0. -1.
          4    1    1    2  501    0 -0.33236665157E+03 -0.22421289338E+03 -0.16104268158E+03  0.43205758635E+03  0.00000000000E+00 0.  1.
</event>
<event>
 5    1  0.7625606E-005  0.8893752E+02  0.7818608E-02  0.1184282E+00
         21   -1    0    0  501  502  0.00000000000E+00  0.00000000000E+00  0.37657653802E+02  0.37657653802E+02  0.00000000000E+00 0. -1.
          4   -1    0    0  502    0 -0.00000000000E+00 -0.00000000000E+00 -0.32172116809E+03  0.32172116809E+03  0.00000000000E+00 0.  1.
        -13    1    1    2    0    0 -0.23468719286E+02 -0.81627932938E+02 -0.18144873335E+03  0.20034359041E+03  0.10566000000E+00 0.  1.
         13    1    1    2    0    0  0.30903993781E+02  0.91771059881E+02 -0.10826094208E+03  0.14524953358E+03  0.10566000000E+00 0. -1.
          4    1    1    2  501    0 -0.74352744949E+01 -0.10143126943E+02  0.56461611350E+01  0.13785697899E+02  0.00000000000E+00 0.  1.
</event>
<event>
 5    1  0.7625606E-005  0.4426515E+03  0.7818608E-02  0.9720323E-01
         21   -1    0    0  501  502  0.00000000000E+00  0.00000000000E+00  0.98690684997E+03  0.98690684997E+03  0.00000000000E+00 0.  1.
          4   -1    0    0  502    0 -0.00000000000E+00 -0.00000000000E+00 -0.60509976033E+03  0.60509976033E+03  0.00000000000E+00 0.  1.
        -13    1    1    2    0    0 -0.51383584821E+01 -0.40620620772E+03  0.42777960732E+03  0.58993668264E+03  0.10566000000E+00 0.  1.
         13    1    1    2    0    0 -0.28620149004E+03 -0.10313213669E+03 -0.23629084384E+03  0.38520242025E+03  0.10566000000E+00 0. -1.
          4    1    1    2  501    0  0.29133984852E+03  0.50933834441E+03  0.19031832616E+03  0.61686750741E+03  0.00000000000E+00 0.  1.
</event>
<event>
 5    1  0.7625606E-005  0.3660484E+03  0.7818608E-02  0.9832572E-01
          4   -1    0    0  502    0 -0.00000000000E+00  0.00000000000E+00  0.19795976906E+04  0.19795976906E+04  0.00000000000E+00 0.  1.
         21   -1    0    0  501  502  0.00000000000E+00 -0.00000000000E+00 -0.28029530177E+03  0.28029530177E+03  0.00000000000E+00 0.  1.
        -13    1    1    2    0    0 -0.17696375117E+03 -0.43902539470E+03  0.47833948351E+03  0.67295478233E+03  0.10566000000E+00 0.  1.
         13    1    1    2    0    0  0.10650803878E+03  0.32573447894E+03  0.13550928416E+04  0.13977566074E+04  0.10566000000E+00 0. -1.
          4    1    1    2  501    0  0.70455712396E+02  0.11329091575E+03 -0.13412993621E+03  0.18918160267E+03  0.00000000000E+00 0.  1.
</event>
<event>
 5    1  0.7625606E-005  0.4641849E+03  0.7818608E-02  0.1001359E+00
         -4   -1    0    0    0  501 -0.00000000000E+00  0.00000000000E+00  0.11800869410E+04  0.11800869410E+04  0.00000000000E+00 0. -1.
         21   -1    0    0  501  502  0.00000000000E+00 -0.00000000000E+00 -0.32666293390E+03  0.32666293390E+03  0.00000000000E+00 0. -1.
        -13    1    1    2    0    0 -0.19137566592E+02  0.96364235586E+02  0.34494156652E+03  0.35866001706E+03  0.10566000000E+00 0.  1.
         13    1    1    2    0    0  0.47416839659E+03 -0.12654862965E+03  0.48724924663E+03  0.69156493803E+03  0.10566000000E+00 0. -1.
         -4    1    1    2    0  502 -0.45503083000E+03  0.30184394067E+02  0.21233193960E+02  0.45652491983E+03  0.00000000000E+00 0. -1.
</event>
<event>
 5    1  0.7625606E-005  0.7866316E+02  0.7818608E-02  0.1259945E+00
         -4   -1    0    0    0  501 -0.00000000000E+00  0.00000000000E+00  0.30782585781E+02  0.30782585781E+02  0.00000000000E+00 0. -1.
         21   -1    0    0  501  502  0.00000000000E+00 -0.00000000000E+00 -0.41782781645E+03  0.41782781645E+03  0.00000000000E+00 0. -1.
        -13    1    1    2    0    0  0.14603232670E+02  0.19526448533E+02 -0.22512080209E+02  0.33186465857E+02  0.10566000000E+00 0.  1.
         13    1    1    2    0    0 -0.88641737161E+02  0.80403006454E+00 -0.75730556093E+02  0.11658958925E+03  0.10566000000E+00 0. -1.
         -4    1    1    2    0  502  0.74038504491E+02 -0.20330478597E+02 -0.28880259437E+03  0.29883434712E+03  0.00000000000E+00 0. -1.
</event>
<event>
 5    1  0.7625606E-005  0.2917982E+02  0.7818608E-02  0.1411618E+00
         21   -1    0    0  501  502  0.00000000000E+00  0.00000000000E+00  0.23785212193E+03  0.23785212193E+03  0.00000000000E+00 0.  1.
         -4   -1    0    0    0  501 -0.00000000000E+00 -0.00000000000E+00 -0.26221256052E+02  0.26221256052E+02  0.00000000000E+00 0. -1.
        -13    1    1    2    0    0 -0.95442836889E+01 -0.38033171676E+02  0.19891864111E+03  0.20274676926E+03  0.10566000000E+00 0.  1.
         13    1    1    2    0    0  0.14569593964E+02  0.24829017226E+02 -0.13310179506E+02  0.31716323986E+02  0.10566000000E+00 0. -1.
         -4    1    1    2    0  502 -0.50253102748E+01  0.13204154450E+02  0.26022404273E+02  0.29610284738E+02  0.00000000000E+00 0. -1.
</event>
<event>
 5    1  0.7625606E-005  0.3020255E+03  0.7818608E-02  0.1070190E+00
         -4   -1    0    0    0  501 -0.00000000000E+00  0.00000000000E+00  0.43651232528E+03  0.43651232528E+03  0.00000000000E+00 0. -1.
         21   -1    0    0  501  502  0.00000000000E+00 -0.00000000000E+00 -0.13574473857E+04  0.13574473857E+04  0.00000000000E+00 0. -1.
        -13    1    1    2    0    0 -0.40530608572E+02 -0.15608304596E+02  0.25052847989E+03  0.25426537280E+03  0.10566000000E+00 0.  1.
         13    1    1    2    0    0  0.31368175671E+02  0.30238583136E+03 -0.12123378533E+04  0.12498736877E+04  0.10566000000E+00 0. -1.
         -4    1    1    2    0  502  0.91624329014E+01 -0.28677752676E+03  0.40874312932E+02  0.28982065056E+03  0.00000000000E+00 0. -1.
</event>
<event>
 5    1  0.7625606E-005  0.4781779E+03  0.7818608E-02  0.9664940E-01
          4   -1    0    0  502    0 -0.00000000000E+00  0.00000000000E+00  0.17153323242E+04  0.17153323242E+04  0.00000000000E+00 0.  1.
         21   -1    0    0  501  502  0.00000000000E+00 -0.00000000000E+00 -0.27629439213E+03  0.27629439213E+03  0.00000000000E+00 0.  1.
        -13    1    1    2    0    0 -0.30860459885E+03  0.86749170705E+02  0.67258770478E+03  0.74507479412E+03  0.10566000000E+00 0.  1.
         13    1    1    2    0    0 -0.26657730114E+03 -0.12099230787E+03  0.56466282878E+03  0.63603987093E+03  0.10566000000E+00 0. -1.
          4    1    1    2  501    0  0.57518189999E+03  0.34243137162E+02  0.20178739847E+03  0.61051205123E+03  0.00000000000E+00 0.  1.
</event>
<event>
 5    1  0.7625606E-005  0.3943580E+03  0.7818608E-02  0.9855525E-01
         21   -1    0    0  501  502  0.00000000000E+00  0.00000000000E+00  0.71676566502E+03  0.71676566502E+03  0.00000000000E+00 0. -1.
         -4   -1    0    0    0  501 -0.00000000000E+00 -0.00000000000E+00 -0.58558497363E+03  0.58558497363E+03  0.00000000000E+00 0. -1.
        -13    1    1    2    0    0 -0.75983526240E+02 -0.25998864826E+03 -0.47131919111E+02  0.27493457849E+03  0.10566000000E+00 0.  1.
         13    1    1    2    0    0  0.60394045978E+02 -0.33822533121E+03  0.24973955544E+03  0.42475130627E+03  0.10566000000E+00 0. -1.
         -4    1    1    2    0  502  0.15589480261E+02  0.59821397947E+03 -0.71426944934E+02  0.60266475390E+03  0.00000000000E+00 0. -1.
</event>
<event>
 5    1  0.7625606E-005  0.4083248E+03  0.7818608E-02  0.9792219E-01
         21   -1    0    0  501  502  0.00000000000E+00  0.00000000000E+00  0.67404183824E+03  0.67404183824E+03  0.00000000000E+00 0.  1.
          4   -1    0    0  502    0 -0.00000000000E+00 -0.00000000000E+00 -0.10098181905E+04  0.10098181905E+04  0.00000000000E+00 0.  1.
        -13    1    1    2    0    0 -0.17363259019E+03  0.38278216356E+03  0.38625936080E+03  0.57084741051E+03  0.10566000000E+00 0.  1.
         13    1    1    2    0    0 -0.23436730084E+03 -0.19135629982E+03 -0.55549576332E+03  0.63255104095E+03  0.10566000000E+00 0. -1.
          4    1    1    2  501    0  0.40799989103E+03 -0.19142586374E+03 -0.16653994977E+03  0.48046157730E+03  0.00000000000E+00 0.  1.
</event>
<event>
 5    1  0.7625606E-005  0.1634717E+03  0.7818608E-02  0.1090903E+00
         -4   -1    0    0    0  501 -0.00000000000E+00  0.00000000000E+00  0.99279189360E+03  0.99279189360E+03  0.00000000000E+00 0. -1.
         21   -1    0    0  501  502  0.00000000000E+00 -0.00000000000E+00 -0.81088803680E+02  0.81088803680E+02  0.00000000000E+00 0.  1.
        -13    1    1    2    0    0  0.14186721694E+03 -0.57641906355E+02  0.15451907264E+03  0.21754321774E+03  0.10566000000E+00 0.  1.
         13    1    1    2    0    0 -0.17590006022E+03 -0.10455332436E+03  0.57363929319E+03  0.60904374119E+03  0.10566000000E+00 0. -1.
         -4    1    1    2    0  502  0.34032843284E+02  0.16219523072E+03  0.18354472408E+03  0.24729373835E+03  0.00000000000E+00 0. -1.
</event>
<event>
 5    1  0.7625606E-005  0.1874443E+02  0.7818608E-02  0.1528105E+00
         21   -1    0    0  501  502  0.00000000000E+00  0.00000000000E+00  0.19104525410E+02  0.19104525410E+02  0.00000000000E+00 0.  1.
         -4   -1    0    0    0  501 -0.00000000000E+00 -0.00000000000E+00 -0.10331033971E+03  0.10331033971E+03  0.00000000000E+00 0. -1.
        -13    1    1    2    0    0 -0.27130672714E+02  0.30808401737E+01  0.52364799666E+01  0.27802821162E+02  0.10566000000E+00 0.  1.
         13    1    1    2    0    0  0.16153591946E+02 -0.83610738644E+01 -0.61418735270E+02  0.64055587541E+02  0.10566000000E+00 0. -1.
         -4    1    1    2    0  502  0.10977080768E+02  0.52802336907E+01 -0.28023559001E+02  0.30556456422E+02  0.00000000000E+00 0. -1.
</event>
<event>
 5    1  0.7625606E-005  0.1952602E+03  0.7818608E-02  0.1063435E+00
         21   -1    0    0  501  502  0.00000000000E+00  0.00000000000E+00  0.38234109982E+03  0.38234109982E+03  0.00000000000E+00 0.  1.
         -4   -1    0    0    0  501 -0.00000000000E+00 -0.00000000000E+00 -0.54378035670E+03  0.54378035670E+03  0.00000000000E+00 0. -1.
        -13    1    1    2    0    0 -0.63618483276E+02  0.18760714333E+03  0.75511824505E+02  0.21200424158E+03  0.10566000000E+00 0.  1.
         13    1    1    2    0    0  0.79681967152E+02 -0.17794598257E+03 -0.45513046981E+03  0.49513406701E+03  0.10566000000E+00 0. -1.
         -4    1    1    2    0  502 -0.16063483876E+02 -0.96611607598E+01  0.21817938843E+03  0.21898314793E+03  0.00000000000E+00 0. -1.
</event>
<event>
 5    1  0.7625606E-005  0.4076863E+03  0.7818608E-02  0.9752558E-01
         -4   -1    0    0    0  501 -0.00000000000E+00  0.00000000000E+00  0.22362421438E+04  0.22362421438E+04  0.00000000000E+00 0. -1.
         21   -1    0    0  501  502  0.00000000000E+00 -0.00000000000E+00 -0.26544637641E+03  0.26544637641E+03  0.00000000000E+00 0. -1.
        -13    1    1    2    0    0  0.88583772739E+02  0.33687482798E+03  0.10857731886E+04  0.11402785461E+04  0.10566000000E+00 0.  1.
         13    1    1    2    0    0  0.30496154199E+03 -0.42404196294E+03  0.79036845990E+03  0.94736236045E+03  0.10566000000E+00 0. -1.
         -4    1    1    2    0  502 -0.39354531473E+03  0.87167134963E+02  0.94654118941E+02  0.41404761368E+03  0.00000000000E+00 0. -1.
</event>
<event>
 5    1  0.7625606E-005  0.8647748E+02  0.7818608E-02  0.1189103E+00
         21   -1    0    0  501  502  0.00000000000E+00  0.00000000000E+00  0.68802566750E+03  0.68802566750E+03  0.00000000000E+00 0. -1.
          4   -1    0    0  502    0 -0.00000000000E+00 -0.00000000000E+00 -0.76899408634E+02  0.76899408634E+02  0.00000000000E+00 0.  1.
        -13    1    1    2    0    0 -0.56641734076E+02  0.64718472805E+02 -0.42161457731E+02  0.95782913108E+02  0.10566000000E+00 0.  1.
         13    1    1    2    0    0  0.32919493882E+02 -0.94079445492E+02  0.36391255862E+03  0.37731551337E+03  0.10566000000E+00 0. -1.
          4    1    1    2  501    0  0.23722240194E+02  0.29360972687E+02  0.28937515798E+03  0.29182664966E+03  0.00000000000E+00 0.  1.
</event>
<event>
 5    1  0.7625606E-005  0.4951501E+03  0.7818608E-02  0.9526863E-01
         -4   -1    0    0    0  501 -0.00000000000E+00  0.00000000000E+00  0.88677262466E+03  0.88677262466E+03  0.00000000000E+00 0. -1.
         21   -1    0    0  501  502  0.00000000000E+00 -0.00000000000E+00 -0.10303852001E+04  0.10303852001E+04  0.00000000000E+00 0. -1.
        -13    1    1    2    0    0 -0.48941601268E+03  0.20513815893E+03  0.37824096355E+03  0.65167164691E+03  0.10566000000E+00 0.  1.
         13    1    1    2    0    0 -0.31597114394E+02  0.11386641851E+03  0.25272190023E+03  0.27898442416E+03  0.10566000000E+00 0. -1.
         -4    1    1    2    0  502  0.52101312707E+03 -0.31900457745E+03 -0.77457543927E+03  0.98650175374E+03  0.00000000000E+00 0. -1.
</event>
<event>
 5    1  0.7625606E-005  0.2096833E+03  0.7818608E-02  0.1054639E+00
          4   -1    0    0  502    0 -0.00000000000E+00  0.00000000000E+00  0.17777375663E+04  0.17777375663E+04  0.00000000000E+00 0.  1.
         21   -1    0    0  501  502  0.00000000000E+00 -0.00000000000E+00 -0.22102099530E+03  0.22102099530E+03  0.00000000000E+00 0.  1.
        -13    1    1    2    0    0 -0.18486536044E+03 -0.85918831636E+02 -0.99684392587E+02  0.22692341529E+03  0.10566000000E+00 0.  1.
         13    1    1    2    0    0 -0.18506902334E+03  0.85614585944E+02  0.27869976734E+03  0.34533168433E+03  0.10566000000E+00 0. -1.
          4    1    1    2  501    0  0.36993438377E+03  0.30424569134E+00  0.13777011962E+04  0.14265034620E+04  0.00000000000E+00 0.  1.
</event>
<event>
 5    1  0.7625606E-005  0.4812354E+03  0.7818608E-02  0.9530177E-01
          4   -1    0    0  502    0 -0.00000000000E+00  0.00000000000E+00  0.24068035575E+04  0.24068035575E+04  0.00000000000E+00 0.  1.
         21   -1    0    0  501  502  0.00000000000E+00 -0.00000000000E+00 -0.36297437148E+03  0.36297437148E+03  0.00000000000E+00 0.  1.
        -13    1    1    2    0    0 -0.24267588143E+03  0.38732469229E+02  0.63463591947E+03  0.68055458932E+03  0.10566000000E+00 0.  1.
         13    1    1    2    0    0 -0.15434973672E+03  0.43755881927E+03  0.13937631135E+04  0.14689646657E+04  0.10566000000E+00 0. -1.
          4    1    1    2  501    0  0.39702561815E+03 -0.47629128850E+03  0.15430153102E+02  0.62025867394E+03  0.00000000000E+00 0.  1.
</event>
<event>
 5    1  0.7625606E-005  0.5014019E+03  0.7818608E-02  0.9711944E-01
         21   -1    0    0  501  502  0.00000000000E+00  0.00000000000E+00  0.14923080433E+04  0.14923080433E+04  0.00000000000E+00 0.  1.
          4   -1    0    0  502    0 -0.00000000000E+00 -0.00000000000E+00 -0.40536576624E+03  0.40536576624E+03  0.00000000000E+00 0.  1.
        -13    1    1    2    0    0 -0.58877658502E+03 -0.10940122031E+02  0.92430804597E+03  0.10959575395E+04  0.10566000000E+00 0.  1.
         13    1    1    2    0    0  0.18959544318E+03  0.10243488235E+03 -0.16970825428E+03  0.27429954418E+03  0.10566000000E+00 0. -1.
          4    1    1    2  501    0  0.39918114184E+03 -0.91494760324E+02  0.33234248541E+03  0.52741672592E+03  0.00000000000E+00 0.  1.
</event>
<event>
 5    1  0.7625606E-005  0.3277529E+03  0.7818608E-02  0.9964661E-01
         21   -1    0    0  501  502  0.00000000000E+00  0.00000000000E+00  0.22034682186E+03  0.22034682186E+03  0.00000000000E+00 0.  1.
          4   -1    0    0  502    0 -0.00000000000E+00 -0.00000000000E+00 -0.21516667455E+04  0.21516667455E+04  0.00000000000E+00 0.  1.
        -13    1    1    2    0    0 -0.29717523113E+03 -0.16141337779E+03 -0.18318223674E+04  0.18627776553E+04  0.10566000000E+00 0.  1.
         13    1    1    2    0    0  0.30021219610E+03 -0.11718772388E+02 -0.13991523889E+03  0.33142265697E+03  0.10566000000E+00 0. -1.
          4    1    1    2  501    0 -0.30369649718E+01  0.17313215018E+03  0.40417682656E+02  0.17781325500E+03  0.00000000000E+00 0.  1.
</event>
<event>
 5    1  0.7625606E-005  0.1151668E+03  0.7818608E-02  0.1141645E+00
          4   -1    0    0  502    0 -0.00000000000E+00  0.00000000000E+00  0.53251969315E+02  0.53251969315E+02  0.00000000000E+00 0.  1.
         21   -1    0    0  501  502  0.00000000000E+00 -0.00000000000E+00 -0.47010637587E+03  0.47010637587E+03  0.00000000000E+00 0. -1.
        -13    1    1    2    0    0 -0.13968425221E+02 -0.11467893158E+03 -0.46290284987E+02  0.12445551776E+03  0.10566000000E+00 0.  1.
         13    1    1    2    0    0 -0.12796382830E+02  0.11549924380E+03 -0.33358957780E+03  0.35325039323E+03  0.10566000000E+00 0. -1.
          4    1    1    2  501    0  0.26764808051E+02 -0.82031221942E+00 -0.36974543767E+02  0.45652434206E+02  0.00000000000E+00 0.  1.
</event>
<event>
 5    1  0.7625606E-005  0.4874105E+03  0.7818608E-02  0.9627523E-01
         21   -1    0    0  501  502  0.00000000000E+00  0.00000000000E+00  0.33644200332E+03  0.33644200332E+03  0.00000000000E+00 0.  1.
          4   -1    0    0  502    0 -0.00000000000E+00 -0.00000000000E+00 -0.14191317983E+04  0.14191317983E+04  0.00000000000E+00 0.  1.
        -13    1    1    2    0    0 -0.24124989354E+03  0.61471428474E+03 -0.54881106974E+03  0.85864356076E+03  0.10566000000E+00 0.  1.
         13    1    1    2    0    0  0.20232500915E+03 -0.24191390759E+03 -0.11713226659E+03  0.33641897546E+03  0.10566000000E+00 0. -1.
          4    1    1    2  501    0  0.38924884390E+02 -0.37280037716E+03 -0.41674645860E+03  0.56051126536E+03  0.00000000000E+00 0.  1.
</event>
<event>
 5    1  0.7625606E-005  0.6100486E+03  0.7818608E-02  0.9264799E-01
         21   -1    0    0  501  502  0.00000000000E+00  0.00000000000E+00  0.47397343787E+03  0.47397343787E+03  0.00000000000E+00 0. -1.
          4   -1    0    0  502    0 -0.00000000000E+00 -0.00000000000E+00 -0.17879316683E+04  0.17879316683E+04  0.00000000000E+00 0.  1.
        -13    1    1    2    0    0 -0.70402570235E+03  0.38029694611E+03 -0.49705340221E+03  0.94198728898E+03  0.10566000000E+00 0.  1.
         13    1    1    2    0    0  0.48682316340E+03 -0.24508153517E+03 -0.89891632447E+03  0.10512432263E+04  0.10566000000E+00 0. -1.
          4    1    1    2  501    0  0.21720253895E+03 -0.13521541093E+03  0.82011496231E+02  0.26867459090E+03  0.00000000000E+00 0.  1.
</event>
<event>
 5    1  0.7625606E-005  0.2772760E+03  0.7818608E-02  0.1017153E+00
         -4   -1    0    0    0  501 -0.00000000000E+00  0.00000000000E+00  0.29763512062E+03  0.29763512062E+03  0.00000000000E+00 0. -1.
         21   -1    0    0  501  502  0.00000000000E+00 -0.00000000000E+00 -0.45230291138E+03  0.45230291138E+03  0.00000000000E+00 0.  1.
        -13    1    1    2    0    0  0.20811564368E+03 -0.17799310310E+03 -0.20960860621E+03  0.34486148648E+03  0.10566000000E+00 0.  1.
         13    1    1    2    0    0 -0.19247478476E+03  0.20150265463E+03  0.14256922268E+03  0.31301095350E+03  0.10566000000E+00 0. -1.
         -4    1    1    2    0  502 -0.15640858914E+02 -0.23509551528E+02 -0.87628407230E+02  0.92065592021E+02  0.00000000000E+00 0. -1.
</event>
<event>
 5    1  0.7625606E-005  0.2258641E+03  0.7818608E-02  0.1043719E+00
         21   -1    0    0  501  502  0.00000000000E+00  0.00000000000E+00  0.82498429657E+02  0.82498429657E+02  0.00000000000E+00 0. -1.
          4   -1    0    0  502    0 -0.00000000000E+00 -0.00000000000E+00 -0.10914818025E+04  0.10914818025E+04  0.00000000000E+00 0.  1.
        -13    1    1    2    0    0 -0.19054954606E+03  0.21974371049E+03 -0.55044897140E+03  0.62256767430E+03  0.10566000000E+00 0.  1.
         13    1    1    2    0    0  0.88547334296E+02 -0.14421599548E+03 -0.19027827237E+03  0.25464625633E+03  0.10566000000E+00 0. -1.
          4    1    1    2  501    0  0.10200221176E+03 -0.75527715009E+02 -0.26825612910E+03  0.29676630155E+03  0.00000000000E+00 0.  1.
</event>
<event>
 5    1  0.7625606E-005  0.2956687E+03  0.7818608E-02  0.1009110E+00
         -4   -1    0    0    0  501 -0.00000000000E+00  0.00000000000E+00  0.19439033112E+04  0.19439033112E+04  0.00000000000E+00 0. -1.
         21   -1    0    0  501  502  0.00000000000E+00 -0.00000000000E+00 -0.30431792487E+03  0.30431792487E+03  0.00000000000E+00 0. -1.
        -13    1    1    2    0    0 -0.22743410875E+03  0.33785528446E+03  0.69730387884E+03  0.80753029521E+03  0.10566000000E+00 0.  1.
         13    1    1    2    0    0  0.20385058231E+03 -0.17318469394E+03  0.11465028315E+04  0.11772921268E+04  0.10566000000E+00 0. -1.
         -4    1    1    2    0  502  0.23583526440E+02 -0.16467059053E+03 -0.20422132396E+03  0.26339881409E+03  0.00000000000E+00 0. -1.
</event>
<event>
 5    1  0.7625606E-005  0.1734393E+03  0.7818608E-02  0.1084272E+00
          4   -1    0    0  502    0 -0.00000000000E+00  0.00000000000E+00  0.12385787265E+03  0.12385787265E+03  0.00000000000E+00 0.  1.
         21   -1    0    0  501  502  0.00000000000E+00 -0.00000000000E+00 -0.10733954239E+04  0.10733954239E+04  0.00000000000E+00 0.  1.
        -13    1    1    2    0    0 -0.14320327675E+03 -0.25504008209E+03 -0.12997357855E+03  0.32007149862E+03  0.10566000000E+00 0.  1.
         13    1    1    2    0    0  0.22877452238E+02  0.15238067332E+03 -0.38189464366E+03  0.41180915172E+03  0.10566000000E+00 0. -1.
          4    1    1    2  501    0  0.12032582451E+03  0.10265940878E+03 -0.43766932908E+03  0.46537264625E+03  0.00000000000E+00 0.  1.
</event>
<event>
 5    1  0.7625606E-005  0.3536204E+03  0.7818608E-02  0.9873479E-01
          4   -1    0    0  502    0 -0.00000000000E+00  0.00000000000E+00  0.27985152140E+04  0.27985152140E+04  0.00000000000E+00 0.  1.
         21   -1    0    0  501  502  0.00000000000E+00 -0.00000000000E+00 -0.21927177892E+03  0.21927177892E+03  0.00000000000E+00 0.  1.
        -13    1    1    2    0    0  0.57215426407E+03 -0.17044575895E+03  0.10942496790E+04  0.12465129883E+04  0.10566000000E+00 0.  1.
         13    1    1    2    0    0 -0.29111201107E+03  0.84907796336E+02  0.14429978163E+04  0.14745162752E+04  0.10566000000E+00 0. -1.
          4    1    1    2  501    0 -0.28104225300E+03  0.85537962609E+02  0.41995939700E+02  0.29675772942E+03  0.00000000000E+00 0.  1.
</event>
<event>
 5    1  0.7625606E-005  0.4907332E+03  0.7818608E-02  0.9688882E-01
         21   -1    0    0  501  502  0.00000000000E+00  0.00000000000E+00  0.14479694077E+04  0.14479694077E+04  0.00000000000E+00 0. -1.
         -4   -1    0    0    0  501 -0.00000000000E+00 -0.00000000000E+00 -0.32578576120E+03  0.32578576120E+03  0.00000000000E+00 0. -1.
        -13    1    1    2    0    0 -0.18532541686E+03 -0.16642190873E+03  0.22773087059E+00  0.24908196415E+03  0.10566000000E+00 0.  1.
         13    1    1    2    0    0 -0.26589815337E+03  0.41386464897E+03  0.37944004058E+03  0.62125721822E+03  0.10566000000E+00 0. -1.
         -4    1    1    2    0  502  0.45122357023E+03 -0.24744274024E+03  0.74251587501E+03  0.90341598650E+03  0.00000000000E+00 0. -1.
</event>
<event>
 5    1  0.7625606E-005  0.6359666E+03  0.7818608E-02  0.9221433E-01
          4   -1    0    0  502    0 -0.00000000000E+00  0.00000000000E+00  0.16307406996E+04  0.16307406996E+04  0.00000000000E+00 0.  1.
         21   -1    0    0  501  502  0.00000000000E+00 -0.00000000000E+00 -0.43105277752E+03  0.43105277752E+03  0.00000000000E+00 0. -1.
        -13    1    1    2    0    0  0.39555680047E+03  0.64313325407E+03  0.81875038294E+03  0.11137494178E+04  0.10566000000E+00 0.  1.
         13    1    1    2    0    0 -0.17114885244E+03 -0.51010496103E+03  0.42220350656E+03  0.68392602895E+03  0.10566000000E+00 0. -1.
          4    1    1    2  501    0 -0.22440794803E+03 -0.13302829304E+03 -0.41265967454E+02  0.26411803035E+03  0.00000000000E+00 0.  1.
</event>
<event>
 5    1  0.7625606E-005  0.4801453E+03  0.7818608E-02  0.9540843E-01
          4   -1    0    0  502    0 -0.00000000000E+00  0.00000000000E+00  0.24517855292E+04  0.24517855292E+04  0.00000000000E+00 0.  1.
         21   -1    0    0  501  502  0.00000000000E+00 -0.00000000000E+00 -0.24223847229E+03  0.24223847229E+03  0.00000000000E+00 0.  1.
        -13    1    1    2    0    0 -0.17700065651E+03  0.17838340077E+03  0.10684364461E+04  0.10975911446E+04  0.10566000000E+00 0.  1.
         13    1    1    2    0    0 -0.44609045414E+03 -0.55457864006E+02  0.66501925933E+03  0.80269726198E+03  0.10566000000E+00 0. -1.
          4    1    1    2  501    0  0.62309111065E+03 -0.12292553676E+03  0.47609135148E+03  0.79373559497E+03  0.00000000000E+00 0.  1.
</event>
<event>
 5    1  0.7625606E-005  0.4839288E+03  0.7818608E-02  0.9642695E-01
         21   -1    0    0  501  502  0.00000000000E+00  0.00000000000E+00  0.61993958738E+03  0.61993958738E+03  0.00000000000E+00 0.  1.
          4   -1    0    0  502    0 -0.00000000000E+00 -0.00000000000E+00 -0.11809407962E+04  0.11809407962E+04  0.00000000000E+00 0.  1.
        -13    1    1    2    0    0 -0.36776666159E+03 -0.75832484815E+02  0.34676990217E+02  0.37710129666E+03  0.10566000000E+00 0.  1.
         13    1    1    2    0    0 -0.27435536898E+03 -0.13419887208E+03 -0.67758112627E+03  0.74323374493E+03  0.10566000000E+00 0. -1.
          4    1    1    2  501    0  0.64212203056E+03  0.21003135689E+03  0.81902927239E+02  0.68054534199E+03  0.00000000000E+00 0.  1.
</event>
<event>
 5    1  0.7625606E-005  0.1430835E+03  0.7818608E-02  0.1172670E+00
         21   -1    0    0  501  502  0.00000000000E+00  0.00000000000E+00  0.15707119190E+04  0.15707119190E+04  0.00000000000E+00 0.  1.
          4   -1    0    0  502    0 -0.00000000000E+00 -0.00000000000E+00 -0.16906741675E+02  0.16906741675E+02  0.00000000000E+00 0.  1.
        -13    1    1    2    0    0 -0.14938708816E+03  0.10315301828E+02  0.68576551967E+03  0.70192397501E+03  0.10566000000E+00 0.  1.
         13    1    1    2    0    0  0.14547257692E+02  0.24034504750E+02  0.66878978001E+02  0.72540257702E+02  0.10566000000E+00 0. -1.
          4    1    1    2  501    0  0.13483983047E+03 -0.34349806578E+02  0.80116067965E+03  0.81315442796E+03  0.00000000000E+00 0.  1.
</event>
<event>
 5    1  0.7625606E-005  0.4747719E+03  0.7818608E-02  0.9797300E-01
         -4   -1    0    0    0  501 -0.00000000000E+00  0.00000000000E+00  0.22568924034E+04  0.22568924034E+04  0.00000000000E+00 0. -1.
         21   -1    0    0  501  502  0.00000000000E+00 -0.00000000000E+00 -0.16620556131E+03  0.16620556131E+03  0.00000000000E+00 0. -1.
        -13    1    1    2    0    0 -0.18520574169E+03  0.38496484098E+02  0.67605991349E+03  0.70202575724E+03  0.10566000000E+00 0.  1.
         13    1    1    2    0    0 -0.34105958463E+03 -0.17828269137E+03  0.86813684611E+03  0.94961463397E+03  0.10566000000E+00 0. -1.
         -4    1    1    2    0  502  0.52626532632E+03  0.13978620727E+03  0.54649008245E+03  0.77145757345E+03  0.00000000000E+00 0. -1.
</event>
<event>
 5    1  0.7625606E-005  0.1737009E+03  0.7818608E-02  0.1093403E+00
         21   -1    0    0  501  502  0.00000000000E+00  0.00000000000E+00  0.93913810992E+03  0.93913810992E+03  0.00000000000E+00 0.  1.
          4   -1    0    0  502    0 -0.00000000000E+00 -0.00000000000E+00 -0.38879031180E+03  0.38879031180E+03  0.00000000000E+00 0.  1.
        -13    1    1    2    0    0 -0.99962367373E+02  0.26287739334E+03 -0.18194139003E+03  0.33496220591E+03  0.10566000000E+00 0.  1.
         13    1    1    2    0    0  0.72032555511E+02 -0.94924782876E+02 -0.92460735393E+02  0.15082573458E+03  0.10566000000E+00 0. -1.
          4    1    1    2  501    0  0.27929811863E+02 -0.16795261046E+03  0.82474992354E+03  0.84214048123E+03  0.00000000000E+00 0.  1.
</event>
<event>
 5    1  0.7625606E-005  0.4419569E+03  0.7818608E-02  0.1013462E+00
         21   -1    0    0  501  502  0.00000000000E+00  0.00000000000E+00  0.78525692745E+03  0.78525692745E+03  0.00000000000E+00 0.  1.
          4   -1    0    0  502    0 -0.00000000000E+00 -0.00000000000E+00 -0.68262101021E+03  0.68262101021E+03  0.00000000000E+00 0.  1.
        -13    1    1    2    0    0 -0.44257016566E+03 -0.13010507304E+03  0.53622744362E+03  0.70734402098E+03  0.10566000000E+00 0.  1.
         13    1    1    2    0    0  0.76961340249E+02 -0.24325530449E+01 -0.35567504791E+03  0.36391443511E+03  0.10566000000E+00 0. -1.
          4    1    1    2  501    0  0.36560882541E+03  0.13253762609E+03 -0.77916478468E+02  0.39661948157E+03  0.00000000000E+00 0.  1.
</event>
<event>
 5    1  0.7625606E-005  0.4832271E+03  0.7818608E-02  0.9770440E-01
         -4   -1    0    0    0  501 -0.00000000000E+00  0.00000000000E+00  0.18283841415E+04  0.18283841415E+04  0.00000000000E+00 0. -1.
         21   -1    0    0  501  502  0.00000000000E+00 -0.00000000000E+00 -0.21105762391E+03  0.21105762391E+03  0.00000000000E+00 0. -1.
        -13    1    1    2    0    0 -0.18389633516E+03 -0.69793144357E+02  0.44280345745E+03  0.48452436283E+03  0.10566000000E+00 0.  1.
         13    1    1    2    0    0  0.45498622889E+02  0.52196332969E+03  0.77701591560E+03  0.93716038461E+03  0.10566000000E+00 0. -1.
         -4    1    1    2    0  502  0.13839771227E+03 -0.45217018533E+03  0.39750714449E+03  0.61775701792E+03  0.00000000000E+00 0. -1.
</event>
<event>
 5    1  0.7625606E-005  0.3427771E+03  0.7818608E-02  0.9910656E-01
         -4   -1    0    0    0  501 -0.00000000000E+00  0.00000000000E+00  0.19653735022E+04  0.19653735022E+04  0.00000000000E+00 0. -1.
         21   -1    0    0  501  502  0.00000000000E+00 -0.00000000000E+00 -0.34927888954E+03  0.34927888954E+03  0.00000000000E+00 0. -1.
        -13    1    1    2    0    0  0.20417221988E+03  0.29595091108E+03  0.11004248964E+04  0.11576736159E+04  0.10566000000E+00 0.  1.
         13    1    1    2    0    0 -0.34644846023E+03 -0.11155264521E+03  0.74560288279E+03  0.82969524420E+03  0.10566000000E+00 0. -1.
         -4    1    1    2    0  502  0.14227624035E+03 -0.18439826587E+03 -0.22993316653E+03  0.32728353166E+03  0.00000000000E+00 0. -1.
</event>
<event>
 5    1  0.7625606E-005  0.4644728E+03  0.7818608E-02  0.9839920E-01
         21   -1    0    0  501  502  0.00000000000E+00  0.00000000000E+00  0.85109519691E+03  0.85109519691E+03  0.00000000000E+00 0.  1.
          4   -1    0    0  502    0 -0.00000000000E+00 -0.00000000000E+00 -0.54857788572E+03  0.54857788572E+03  0.00000000000E+00 0.  1.
        -13    1    1    2    0    0 -0.25815960028E+03  0.34686879286E+03 -0.88508968065E+01  0.43248432136E+03  0.10566000000E+00 0.  1.
         13    1    1    2    0    0  0.12480919262E+03  0.12233526282E+03 -0.19652564271E+03  0.26299351798E+03  0.10566000000E+00 0. -1.
          4    1    1    2  501    0  0.13335040766E+03 -0.46920405568E+03  0.50789385071E+03  0.70419524330E+03  0.00000000000E+00 0.  1.
</event>
<event>
 5    1  0.7625606E-005  0.1410899E+03  0.7818608E-02  0.1110247E+00
         21   -1    0    0  501  502  0.00000000000E+00  0.00000000000E+00  0.53417241701E+03  0.53417241701E+03  0.00000000000E+00 0.  1.
         -4   -1    0    0    0  501 -0.00000000000E+00 -0.00000000000E+00 -0.10415295001E+03  0.10415295001E+03  0.00000000000E+00 0. -1.
        -13    1    1    2    0    0  0.14128700711E+03 -0.27875045536E+01  0.41047877920E+03  0.43412282582E+03  0.10566000000E+00 0.  1.
         13    1    1    2    0    0 -0.14079283742E+03 -0.96547033177E+01 -0.37335916052E+02  0.14597882777E+03  0.10566000000E+00 0. -1.
         -4    1    1    2    0  502 -0.49416968837E+00  0.12442207871E+02  0.56876603854E+02  0.58223713437E+02  0.00000000000E+00 0. -1.
</event>
<event>
 5    1  0.7625606E-005  0.1305100E+03  0.7818608E-02  0.1122098E+00
         21   -1    0    0  501  502  0.00000000000E+00  0.00000000000E+00  0.25070111642E+03  0.25070111642E+03  0.00000000000E+00 0.  1.
         -4   -1    0    0    0  501 -0.00000000000E+00 -0.00000000000E+00 -0.25533690954E+03  0.25533690954E+03  0.00000000000E+00 0. -1.
        -13    1    1    2    0    0  0.13792026862E+03  0.30748000598E+02  0.10696057890E+03  0.17722307028E+03  0.10566000000E+00 0.  1.
         13    1    1    2    0    0 -0.12093104090E+03 -0.45547335617E+02 -0.19970696043E+03  0.23786920281E+03  0.10566000000E+00 0. -1.
         -4    1    1    2    0  502 -0.16989227722E+02  0.14799335018E+02  0.88110588414E+02  0.90945752877E+02  0.00000000000E+00 0. -1.
</event>
<event>
 5    1  0.7625606E-005  0.4104487E+03  0.7818608E-02  0.9929189E-01
         21   -1    0    0  501  502  0.00000000000E+00  0.00000000000E+00  0.10351671673E+03  0.10351671673E+03  0.00000000000E+00 0.  1.
         -4   -1    0    0    0  501 -0.00000000000E+00 -0.00000000000E+00 -0.27426151825E+04  0.27426151825E+04  0.00000000000E+00 0. -1.
        -13    1    1    2    0    0  0.33288525630E+02 -0.18471958291E+03 -0.27239563064E+03  0.33080030382E+03  0.10566000000E+00 0.  1.
         13    1    1    2    0    0 -0.10905285207E+03  0.47738463248E+03 -0.97366867627E+03  0.10898712374E+04  0.10566000000E+00 0. -1.
         -4    1    1    2    0  502  0.75764326444E+02 -0.29266504957E+03 -0.13930341589E+04  0.14254603580E+04  0.00000000000E+00 0. -1.
</event>
<event>
 5    1  0.7625606E-005  0.3451340E+03  0.7818608E-02  0.1054516E+00
         21   -1    0    0  501  502  0.00000000000E+00  0.00000000000E+00  0.12401442206E+03  0.12401442206E+03  0.00000000000E+00 0. -1.
         -4   -1    0    0    0  501 -0.00000000000E+00 -0.00000000000E+00 -0.22263900742E+04  0.22263900742E+04  0.00000000000E+00 0. -1.
        -13    1    1    2    0    0 -0.17420930198E+02 -0.42457522005E+02 -0.45143475007E+02  0.64374486278E+02  0.10566000000E+00 0.  1.
         13    1    1    2    0    0  0.96437241155E+02  0.33801277760E+03 -0.20131988126E+03  0.40507096299E+03  0.10566000000E+00 0. -1.
         -4    1    1    2    0  502 -0.79016310957E+02 -0.29555525560E+03 -0.18559122958E+04  0.18809590469E+04  0.00000000000E+00 0. -1.
</event>
<event>
 5    1  0.7625606E-005  0.4846429E+03  0.7818608E-02  0.9885594E-01
         -4   -1    0    0    0  501 -0.00000000000E+00  0.00000000000E+00  0.10284346104E+04  0.10284346104E+04  0.00000000000E+00 0. -1.
         21   -1    0    0  501  502  0.00000000000E+00 -0.00000000000E+00 -0.38343196565E+03  0.38343196565E+03  0.00000000000E+00 0. -1.
        -13    1    1    2    0    0  0.12885178786E+03  0.28141432878E+02  0.33025635263E+03  0.35561776262E+03  0.10566000000E+00 0.  1.
         13    1    1    2    0    0 -0.30942812586E+03  0.39788852495E+03  0.13725121813E+02  0.50423152767E+03  0.10566000000E+00 0. -1.
         -4    1    1    2    0  502  0.18057633801E+03 -0.42602995783E+03  0.30102117034E+03  0.55201728579E+03  0.00000000000E+00 0. -1.
</event>
<event>
 5    1  0.7625606E-005  0.3404124E+02  0.7818608E-02  0.1375119E+00
         21   -1    0    0  501  502  0.00000000000E+00  0.00000000000E+00  0.28539460395E+03  0.28539460395E+03  0.00000000000E+00 0. -1.
         -4   -1    0    0    0  501 -0.00000000000E+00 -0.00000000000E+00 -0.16898126407E+02  0.16898126407E+02  0.00000000000E+00 0. -1.
        -13    1    1    2    0    0 -0.37075044903E+02 -0.21300040825E+02  0.87351277504E+02  0.97254858692E+02  0.10566000000E+00 0.  1.
         13    1    1    2    0    0  0.25437322817E+02  0.19487420891E+02  0.10115137880E+02  0.33602740118E+02  0.10566000000E+00 0. -1.
         -4    1    1    2    0  502  0.11637722086E+02  0.18126199340E+01  0.17103006216E+03  0.17143513154E+03  0.00000000000E+00 0. -1.
</event>
<event>
 5    1  0.7625606E-005  0.2509214E+03  0.7818608E-02  0.1029916E+00
         -4   -1    0    0    0  501 -0.00000000000E+00  0.00000000000E+00  0.65855652324E+03  0.65855652324E+03  0.00000000000E+00 0. -1.
         21   -1    0    0  501  502  0.00000000000E+00 -0.00000000000E+00 -0.35479865109E+03  0.35479865109E+03  0.00000000000E+00 0. -1.
        -13    1    1    2    0    0  0.61992446038E+02  0.17778471444E+03  0.20924171818E+02  0.18944207606E+03  0.10566000000E+00 0.  1.
         13    1    1    2    0    0 -0.10882970189E+03 -0.25505053676E+03  0.50940533492E+03  0.57999007468E+03  0.10566000000E+00 0. -1.
         -4    1    1    2    0  502  0.46837255856E+02  0.77265822327E+02 -0.22657163458E+03  0.24392302358E+03  0.00000000000E+00 0. -1.
</event>
<event>
 5    1  0.7625606E-005  0.5511368E+03  0.7818608E-02  0.9372422E-01
          4   -1    0    0  502    0 -0.00000000000E+00  0.00000000000E+00  0.20600209938E+04  0.20600209938E+04  0.00000000000E+00 0.  1.
         21   -1    0    0  501  502  0.00000000000E+00 -0.00000000000E+00 -0.82461035879E+03  0.82461035879E+03  0.00000000000E+00 0.  1.
        -13    1    1    2    0    0  0.41373153458E+03 -0.49314622498E+03  0.13599222609E+03  0.65792163563E+03  0.10566000000E+00 0.  1.
         13    1    1    2    0    0 -0.48141996618E+03  0.24960030092E+03  0.15872225347E+04  0.16773016664E+04  0.10566000000E+00 0. -1.
          4    1    1    2  501    0  0.67688431600E+02  0.24354592406E+03 -0.48780412581E+03  0.54940805059E+03  0.00000000000E+00 0.  1.
</event>
<event>
 5    1  0.7625606E-005  0.4686210E+03  0.7818608E-02  0.1015496E+00
         21   -1    0    0  501  502  0.00000000000E+00  0.00000000000E+00  0.39982876495E+03  0.39982876495E+03  0.00000000000E+00 0. -1.
         -4   -1    0    0    0  501 -0.00000000000E+00 -0.00000000000E+00 -0.65303698918E+03  0.65303698918E+03  0.00000000000E+00 0. -1.
        -13    1    1    2    0    0  0.44552831960E+02  0.40985731538E+02 -0.31731682215E+01  0.60620666327E+02  0.10566000000E+00 0.  1.
         13    1    1    2    0    0  0.24131488029E+03  0.35949146396E+03 -0.25047750643E+03  0.50020593409E+03  0.10566000000E+00 0. -1.
         -4    1    1    2    0  502 -0.28586771225E+03 -0.40047719549E+03  0.44245042579E+00  0.49203915371E+03  0.00000000000E+00 0. -1.
</event>
<event>
 5    1  0.7625606E-005  0.6838853E+03  0.7818608E-02  0.9146688E-01
         -4   -1    0    0    0  501 -0.00000000000E+00  0.00000000000E+00  0.30855203626E+04  0.30855203626E+04  0.00000000000E+00 0. -1.
         21   -1    0    0  501  502  0.00000000000E+00 -0.00000000000E+00 -0.69214592874E+03  0.69214592874E+03  0.00000000000E+00 0. -1.
        -13    1    1    2    0    0 -0.48861885664E+03 -0.46926794664E+03  0.24825802354E+04  0.25733568407E+04  0.10566000000E+00 0.  1.
         13    1    1    2    0    0  0.32725977213E+03  0.69589666929E+03  0.20857645290E+03  0.79679061280E+03  0.10566000000E+00 0. -1.
         -4    1    1    2    0  502  0.16135908451E+03 -0.22662872264E+03 -0.29778225453E+03  0.40751883783E+03  0.00000000000E+00 0. -1.
</event>
<event>
 5    1  0.7625606E-005  0.4889981E+03  0.7818608E-02  0.9601057E-01
         21   -1    0    0  501  502  0.00000000000E+00  0.00000000000E+00  0.34769749222E+03  0.34769749222E+03  0.00000000000E+00 0. -1.
         -4   -1    0    0    0  501 -0.00000000000E+00 -0.00000000000E+00 -0.18941755582E+04  0.18941755582E+04  0.00000000000E+00 0. -1.
        -13    1    1    2    0    0 -0.13546377695E+03  0.31516263331E+03 -0.97970336855E+03  0.10380253474E+04  0.10566000000E+00 0.  1.
         13    1    1    2    0    0 -0.14955981609E+03  0.32428578087E+03 -0.24680249256E+03  0.43409778594E+03  0.10566000000E+00 0. -1.
         -4    1    1    2    0  502  0.28502359305E+03 -0.63944841418E+03 -0.31997220490E+03  0.76974991711E+03  0.00000000000E+00 0. -1.
</event>
<event>
 5    1  0.7625606E-005  0.3167458E+03  0.7818608E-02  0.1021490E+00
         -4   -1    0    0    0  501 -0.00000000000E+00  0.00000000000E+00  0.67479545989E+03  0.67479545989E+03  0.00000000000E+00 0. -1.
         21   -1    0    0  501  502  0.00000000000E+00 -0.00000000000E+00 -0.12699853244E+04  0.12699853244E+04  0.00000000000E+00 0. -1.
        -13    1    1    2    0    0 -0.42549878182E+03  0.12192616519E+03  0.28203198875E+03  0.52484022039E+03  0.10566000000E+00 0.  1.
         13    1    1    2    0    0 -0.94180172970E+02  0.18838073060E+03 -0.77872703606E+03  0.80670503438E+03  0.10566000000E+00 0. -1.
         -4    1    1    2    0  502  0.51967895479E+03 -0.31030689579E+03 -0.98494817187E+02  0.61323552950E+03  0.00000000000E+00 0. -1.
</event>
<event>
 5    1  0.7625606E-005  0.4074561E+03  0.7818608E-02  0.9707756E-01
         21   -1    0    0  501  502  0.00000000000E+00  0.00000000000E+00  0.28061012017E+03  0.28061012017E+03  0.00000000000E+00 0.  1.
          4   -1    0    0  502    0 -0.00000000000E+00 -0.00000000000E+00 -0.10113217276E+04  0.10113217276E+04  0.00000000000E+00 0.  1.
        -13    1    1    2    0    0  0.49162419643E+03 -0.10461829106E+03 -0.28347576109E+03  0.57705966384E+03  0.10566000000E+00 0.  1.
         13    1    1    2    0    0 -0.34234398452E+03 -0.79254018003E+00 -0.16848634002E+03  0.38155954947E+03  0.10566000000E+00 0. -1.
          4    1    1    2  501    0 -0.14928021191E+03  0.10541083124E+03 -0.27874950629E+03  0.33331263442E+03  0.00000000000E+00 0.  1.
</event>
<event>
 5    1  0.7625606E-005  0.5678088E+03  0.7818608E-02  0.9340574E-01
         21   -1    0    0  501  502  0.00000000000E+00  0.00000000000E+00  0.21191538635E+03  0.21191538635E+03  0.00000000000E+00 0. -1.
          4   -1    0    0  502    0 -0.00000000000E+00 -0.00000000000E+00 -0.18302914746E+04  0.18302914746E+04  0.00000000000E+00 0.  1.
        -13    1    1    2    0    0 -0.33231997465E+02 -0.56535550532E+03 -0.97920907051E+03  0.11311859387E+04  0.10566000000E+00 0.  1.
         13    1    1    2    0    0  0.21226301988E+02  0.56952945083E+03 -0.66884780421E+03  0.87873303547E+03  0.10566000000E+00 0. -1.
          4    1    1    2  501    0  0.12005695477E+02 -0.41739455131E+01  0.29680786471E+02  0.32287886746E+02  0.00000000000E+00 0.  1.
</event>
<event>
 5    1  0.7625606E-005  0.4893033E+03  0.7818608E-02  0.9554263E-01
         21   -1    0    0  501  502  0.00000000000E+00  0.00000000000E+00  0.11195100694E+04  0.11195100694E+04  0.00000000000E+00 0.  1.
          4   -1    0    0  502    0 -0.00000000000E+00 -0.00000000000E+00 -0.50626264590E+03  0.50626264590E+03  0.00000000000E+00 0.  1.
        -13    1    1    2    0    0 -0.42458268369E+03  0.17452554850E+03  0.26418251632E+03  0.52964330966E+03  0.10566000000E+00 0.  1.
         13    1    1    2    0    0 -0.15459631128E+03 -0.37404662826E+03  0.31065407279E+02  0.40592606503E+03  0.10566000000E+00 0. -1.
          4    1    1    2  501    0  0.57917899497E+03  0.19952107976E+03  0.31799949993E+03  0.69020334064E+03  0.00000000000E+00 0.  1.
</event>
<event>
 5    1  0.7625606E-005  0.6996511E+02  0.7818608E-02  0.1226819E+00
         -4   -1    0    0    0  501 -0.00000000000E+00  0.00000000000E+00  0.22878368024E+03  0.22878368024E+03  0.00000000000E+00 0. -1.
         21   -1    0    0  501  502  0.00000000000E+00 -0.00000000000E+00 -0.30351292923E+03  0.30351292923E+03  0.00000000000E+00 0.  1.
        -13    1    1    2    0    0 -0.71668390222E+01 -0.61729122804E+02 -0.21364207130E+03  0.22249672802E+03  0.10566000000E+00 0.  1.
         13    1    1    2    0    0 -0.21612628910E+02  0.66900821490E+02  0.21610579881E+03  0.22725437969E+03  0.10566000000E+00 0. -1.
         -4    1    1    2    0  502  0.28779467932E+02 -0.51716986865E+01 -0.77192976498E+02  0.82545501770E+02  0.00000000000E+00 0. -1.
</event>
<event>
 5    1  0.7625606E-005  0.5696016E+03  0.7818608E-02  0.9407679E-01
         -4   -1    0    0    0  501 -0.00000000000E+00  0.00000000000E+00  0.80799878546E+03  0.80799878546E+03  0.00000000000E+00 0. -1.
         21   -1    0    0  501  502  0.00000000000E+00 -0.00000000000E+00 -0.15002692605E+04  0.15002692605E+04  0.00000000000E+00 0. -1.
        -13    1    1    2    0    0 -0.12683854697E+03  0.63710460346E+03  0.33838582753E+03  0.73245837574E+03  0.10566000000E+00 0.  1.
         13    1    1    2    0    0 -0.41941142391E+03 -0.17221262955E+03 -0.25855001906E+03  0.52193031700E+03  0.10566000000E+00 0. -1.
         -4    1    1    2    0  502  0.54624997087E+03 -0.46489197391E+03 -0.77210628348E+03  0.10538793532E+04  0.00000000000E+00 0. -1.
</event>
<event>
 5    1  0.7625606E-005  0.5232869E+03  0.7818608E-02  0.9428342E-01
          4   -1    0    0  502    0 -0.00000000000E+00  0.00000000000E+00  0.13923481946E+04  0.13923481946E+04  0.00000000000E+00 0.  1.
         21   -1    0    0  501  502  0.00000000000E+00 -0.00000000000E+00 -0.42051359493E+03  0.42051359493E+03  0.00000000000E+00 0.  1.
        -13    1    1    2    0    0  0.38419547726E+03 -0.43215469949E+03  0.98125054354E+03  0.11389541209E+04  0.10566000000E+00 0.  1.
         13    1    1    2    0    0 -0.29467550402E+03  0.30024405294E+03  0.15174439607E+03  0.44722088156E+03  0.10566000000E+00 0. -1.
          4    1    1    2  501    0 -0.89519973235E+02  0.13191064654E+03 -0.16116033995E+03  0.22668678712E+03  0.00000000000E+00 0.  1.
</event>
<event>
 5    1  0.7625606E-005  0.8276927E+03  0.7818608E-02  0.8955897E-01
         21   -1    0    0  501  502  0.00000000000E+00  0.00000000000E+00  0.14609492867E+04  0.14609492867E+04  0.00000000000E+00 0. -1.
          4   -1    0    0  502    0 -0.00000000000E+00 -0.00000000000E+00 -0.72361651652E+03  0.72361651652E+03  0.00000000000E+00 0.  1.
        -13    1    1    2    0    0 -0.77121067291E+03 -0.47826414644E+03  0.26235886472E+03  0.94463468115E+03  0.10566000000E+00 0.  1.
         13    1    1    2    0    0  0.77229073095E+03  0.14830422914E+03  0.20261707339E+03  0.81208423645E+03  0.10566000000E+00 0. -1.
          4    1    1    2  501    0 -0.10800580387E+01  0.32995991730E+03  0.27235683204E+03  0.42784688559E+03  0.00000000000E+00 0.  1.
</event>
<event>
 5    1  0.7625606E-005  0.1351970E+03  0.7818608E-02  0.1120572E+00
         -4   -1    0    0    0  501 -0.00000000000E+00  0.00000000000E+00  0.33173721928E+03  0.33173721928E+03  0.00000000000E+00 0. -1.
         21   -1    0    0  501  502  0.00000000000E+00 -0.00000000000E+00 -0.28738851862E+04  0.28738851862E+04  0.00000000000E+00 0. -1.
        -13    1    1    2    0    0  0.12012860575E+03 -0.22226566474E+02  0.23227967560E+03  0.26244763485E+03  0.10566000000E+00 0.  1.
         13    1    1    2    0    0 -0.16769144787E+03  0.14743321861E+03 -0.67966933195E+02  0.23340199402E+03  0.10566000000E+00 0. -1.
         -4    1    1    2    0  502  0.47562842120E+02 -0.12520665214E+03 -0.27064607093E+04  0.27097727766E+04  0.00000000000E+00 0. -1.
</event>
<event>
 5    1  0.7625606E-005  0.2753876E+03  0.7818608E-02  0.1018016E+00
          4   -1    0    0  502    0 -0.00000000000E+00  0.00000000000E+00  0.53046258667E+03  0.53046258667E+03  0.00000000000E+00 0.  1.
         21   -1    0    0  501  502  0.00000000000E+00 -0.00000000000E+00 -0.94427021596E+03  0.94427021596E+03  0.00000000000E+00 0.  1.
        -13    1    1    2    0    0 -0.10818924741E+03 -0.31043162339E+03  0.19191427280E+03  0.38066232454E+03  0.10566000000E+00 0.  1.
         13    1    1    2    0    0  0.15644184963E+02  0.24392901134E+03  0.17783030295E+03  0.30227426438E+03  0.10566000000E+00 0. -1.
          4    1    1    2  501    0  0.92545062446E+02  0.66502612049E+02 -0.78355220505E+03  0.79179621370E+03  0.00000000000E+00 0.  1.
</event>
<event>
 5    1  0.7625606E-005  0.2699259E+03  0.7818608E-02  0.1020555E+00
         21   -1    0    0  501  502  0.00000000000E+00  0.00000000000E+00  0.35668757337E+03  0.35668757337E+03  0.00000000000E+00 0.  1.
         -4   -1    0    0    0  501 -0.00000000000E+00 -0.00000000000E+00 -0.13075255293E+04  0.13075255293E+04  0.00000000000E+00 0. -1.
        -13    1    1    2    0    0 -0.91508194343E+02 -0.24547046940E+03  0.89884604833E+00  0.26197389196E+03  0.10566000000E+00 0.  1.
         13    1    1    2    0    0  0.22704488571E+03  0.15743146109E+03 -0.11290250437E+04  0.11623388514E+04  0.10566000000E+00 0. -1.
         -4    1    1    2    0  502 -0.13553669136E+03  0.88039008313E+02  0.17728824178E+03  0.23990035924E+03  0.00000000000E+00 0. -1.
</event>
<event>
 5    1  0.7625606E-005  0.3253569E+03  0.7818608E-02  0.1005587E+00
         21   -1    0    0  501  502  0.00000000000E+00  0.00000000000E+00  0.19406808199E+03  0.19406808199E+03  0.00000000000E+00 0. -1.
         -4   -1    0    0    0  501 -0.00000000000E+00 -0.00000000000E+00 -0.20939666946E+04  0.20939666946E+04  0.00000000000E+00 0. -1.
        -13    1    1    2    0    0 -0.66115995846E+02 -0.23968011476E+03 -0.38144355736E+03  0.45532085493E+03  0.10566000000E+00 0.  1.
         13    1    1    2    0    0 -0.26291845123E+03  0.26362766200E+03 -0.14483524197E+04  0.14954432116E+04  0.10566000000E+00 0. -1.
         -4    1    1    2    0  502  0.32903444708E+03 -0.23947547233E+02 -0.70102635546E+02  0.33727071010E+03  0.00000000000E+00 0. -1.
</event>
<event>
 5    1  0.7625606E-005  0.2093662E+03  0.7818608E-02  0.1053898E+00
         -4   -1    0    0    0  501 -0.00000000000E+00  0.00000000000E+00  0.10793205892E+03  0.10793205892E+03  0.00000000000E+00 0. -1.
         21   -1    0    0  501  502  0.00000000000E+00 -0.00000000000E+00 -0.76725010730E+03  0.76725010730E+03  0.00000000000E+00 0.  1.
        -13    1    1    2    0    0 -0.20871570042E+03 -0.11812565930E+03 -0.41289024896E+03  0.47748746982E+03  0.10566000000E+00 0.  1.
         13    1    1    2    0    0  0.18876570528E+03  0.67744461476E+02 -0.68864943434E+02  0.21204762471E+03  0.10566000000E+00 0. -1.
         -4    1    1    2    0  502  0.19949995146E+02  0.50381197819E+02 -0.17756285599E+03  0.18564707169E+03  0.00000000000E+00 0. -1.
</event>
<event>
 5    1  0.7625606E-005  0.1908570E+03  0.7818608E-02  0.1066591E+00
         -4   -1    0    0    0  501 -0.00000000000E+00  0.00000000000E+00  0.30497351560E+03  0.30497351560E+03  0.00000000000E+00 0. -1.
         21   -1    0    0  501  502  0.00000000000E+00 -0.00000000000E+00 -0.16324512700E+03  0.16324512700E+03  0.00000000000E+00 0.  1.
        -13    1    1    2    0    0 -0.16365009278E+03 -0.87938415433E+02  0.12285096154E+03  0.22272603730E+03  0.10566000000E+00 0.  1.
         13    1    1    2    0    0  0.16993672922E+03  0.10298472185E+03  0.54729738969E+02  0.20610604155E+03  0.10566000000E+00 0. -1.
         -4    1    1    2    0  502 -0.62866364328E+01 -0.15046306420E+02 -0.35852311905E+02  0.39386563743E+02  0.00000000000E+00 0. -1.
</event>
<event>
 5    1  0.7625606E-005  0.1437983E+03  0.7818608E-02  0.1107394E+00
         21   -1    0    0  501  502  0.00000000000E+00  0.00000000000E+00  0.24234560555E+03  0.24234560555E+03  0.00000000000E+00 0. -1.
          4   -1    0    0  502    0 -0.00000000000E+00 -0.00000000000E+00 -0.19522469932E+03  0.19522469932E+03  0.00000000000E+00 0.  1.
        -13    1    1    2    0    0  0.47369476606E+02 -0.13242410407E+03 -0.99214870646E+02  0.17211511373E+03  0.10566000000E+00 0.  1.
         13    1    1    2    0    0 -0.42366428264E+02  0.14654029247E+03  0.39497501521E+02  0.15757231785E+03  0.10566000000E+00 0. -1.
          4    1    1    2  501    0 -0.50030483422E+01 -0.14116188398E+02  0.10683827535E+03  0.10788287328E+03  0.00000000000E+00 0.  1.
</event>
<event>
 5    1  0.7625606E-005  0.6485971E+02  0.7818608E-02  0.1240896E+00
         21   -1    0    0  501  502  0.00000000000E+00  0.00000000000E+00  0.62413922348E+02  0.62413922348E+02  0.00000000000E+00 0. -1.
         -4   -1    0    0    0  501 -0.00000000000E+00 -0.00000000000E+00 -0.13885545202E+03  0.13885545202E+03  0.00000000000E+00 0. -1.
        -13    1    1    2    0    0  0.58689026645E+02 -0.37675878329E+02 -0.21611927851E+02  0.73013425107E+02  0.10566000000E+00 0.  1.
         13    1    1    2    0    0 -0.62101556995E+02  0.14740637322E+02 -0.74319136638E+02  0.97965478637E+02  0.10566000000E+00 0. -1.
         -4    1    1    2    0  502  0.34125303500E+01  0.22935241007E+02  0.19489534816E+02  0.30290470627E+02  0.00000000000E+00 0. -1.
</event>
<event>
 5    1  0.7625606E-005  0.9092690E+02  0.7818608E-02  0.1180508E+00
         21   -1    0    0  501  502  0.00000000000E+00  0.00000000000E+00  0.67542223657E+03  0.67542223657E+03  0.00000000000E+00 0.  1.
          4   -1    0    0  502    0 -0.00000000000E+00 -0.00000000000E+00 -0.50211027970E+03  0.50211027970E+03  0.00000000000E+00 0.  1.
        -13    1    1    2    0    0  0.83398666779E+02  0.39045337659E+02 -0.49074538044E+03  0.49931044011E+03  0.10566000000E+00 0.  1.
         13    1    1    2    0    0 -0.55613816106E+02 -0.14049259465E+02  0.12129372163E+03  0.13417323245E+03  0.10566000000E+00 0. -1.
          4    1    1    2  501    0 -0.27784850672E+02 -0.24996078194E+02  0.54276361567E+03  0.54404884372E+03  0.00000000000E+00 0.  1.
</event>
<event>
 5    1  0.7625606E-005  0.7617893E+03  0.7818608E-02  0.9037860E-01
         21   -1    0    0  501  502  0.00000000000E+00  0.00000000000E+00  0.82626333870E+03  0.82626333870E+03  0.00000000000E+00 0.  1.
          4   -1    0    0  502    0 -0.00000000000E+00 -0.00000000000E+00 -0.17950800842E+04  0.17950800842E+04  0.00000000000E+00 0.  1.
        -13    1    1    2    0    0  0.76421812471E+03 -0.89643211723E+02 -0.25819140752E+03  0.81162063898E+03  0.10566000000E+00 0.  1.
         13    1    1    2    0    0 -0.74462267245E+03  0.14877403276E+03 -0.11433526011E+04  0.13725348151E+04  0.10566000000E+00 0. -1.
          4    1    1    2  501    0 -0.19595452255E+02 -0.59130821035E+02  0.43272726316E+03  0.43718796876E+03  0.00000000000E+00 0.  1.
</event>
<event>
 5    1  0.7625606E-005  0.2521321E+03  0.7818608E-02  0.1050286E+00
         21   -1    0    0  501  502  0.00000000000E+00  0.00000000000E+00  0.14973418584E+03  0.14973418584E+03  0.00000000000E+00 0. -1.
         -4   -1    0    0    0  501 -0.00000000000E+00 -0.00000000000E+00 -0.13693098187E+04  0.13693098187E+04  0.00000000000E+00 0. -1.
        -13    1    1    2    0    0  0.13262798159E+03  0.14484811671E+02 -0.27864604324E+03  0.30893950839E+03  0.10566000000E+00 0.  1.
         13    1    1    2    0    0 -0.32683817875E+03 -0.14987688561E+03 -0.90089297663E+03  0.96999713527E+03  0.10566000000E+00 0. -1.
         -4    1    1    2    0  502  0.19421019716E+03  0.13539207394E+03 -0.40036612997E+02  0.24010736087E+03  0.00000000000E+00 0. -1.
</event>
<event>
 5    1  0.7625606E-005  0.2554944E+03  0.7818608E-02  0.1027584E+00
          4   -1    0    0  502    0 -0.00000000000E+00  0.00000000000E+00  0.74400646692E+03  0.74400646692E+03  0.00000000000E+00 0.  1.
         21   -1    0    0  501  502  0.00000000000E+00 -0.00000000000E+00 -0.66934942485E+03  0.66934942485E+03  0.00000000000E+00 0.  1.
        -13    1    1    2    0    0 -0.20088867030E+03  0.18519378178E+03  0.52000392996E+03  0.58741560500E+03  0.10566000000E+00 0.  1.
         13    1    1    2    0    0  0.20733024867E+03 -0.93372034146E+02  0.11726918763E+03  0.25584417583E+03  0.10566000000E+00 0. -1.
          4    1    1    2  501    0 -0.64415783678E+01 -0.91821747630E+02 -0.56261607552E+03  0.57009611094E+03  0.00000000000E+00 0.  1.
</event>
<event>
 5    1  0.7625606E-005  0.4869995E+03  0.7818608E-02  0.9772424E-01
          4   -1    0    0  502    0 -0.00000000000E+00  0.00000000000E+00  0.28504174333E+04  0.28504174333E+04  0.00000000000E+00 0.  1.
         21   -1    0    0  501  502  0.00000000000E+00 -0.00000000000E+00 -0.12968523081E+03  0.12968523081E+03  0.00000000000E+00 0.  1.
        -13    1    1    2    0    0  0.43676994336E+03  0.39642383454E+03  0.13570487529E+04  0.14796963097E+04  0.10566000000E+00 0.  1.
         13    1    1    2    0    0 -0.18350985417E+03 -0.52436517834E+02  0.53654814500E+03  0.56948167490E+03  0.10566000000E+00 0. -1.
          4    1    1    2  501    0 -0.25326008919E+03 -0.34398731670E+03  0.82713530462E+03  0.93092467954E+03  0.00000000000E+00 0.  1.
</event>
<event>
 5    1  0.7625606E-005  0.4687636E+03  0.7818608E-02  0.9642469E-01
         21   -1    0    0  501  502  0.00000000000E+00  0.00000000000E+00  0.33139029665E+03  0.33139029665E+03  0.00000000000E+00 0. -1.
         -4   -1    0    0    0  501 -0.00000000000E+00 -0.00000000000E+00 -0.15690648461E+04  0.15690648461E+04  0.00000000000E+00 0. -1.
        -13    1    1    2    0    0 -0.25760260979E+03  0.21618677978E+03 -0.53250275608E+03  0.62980554516E+03  0.10566000000E+00 0.  1.
         13    1    1    2    0    0 -0.10214809922E+03  0.36059256980E+03 -0.20961902155E+03  0.42941981897E+03  0.10566000000E+00 0. -1.
         -4    1    1    2    0  502  0.35975070901E+03 -0.57677934958E+03 -0.49555277180E+03  0.84122977858E+03  0.00000000000E+00 0. -1.
</event>
<event>
 5    1  0.7625606E-005  0.4773270E+03  0.7818608E-02  0.9809547E-01
          4   -1    0    0  502    0 -0.00000000000E+00  0.00000000000E+00  0.21544612284E+04  0.21544612284E+04  0.00000000000E+00 0.  1.
         21   -1    0    0  501  502  0.00000000000E+00 -0.00000000000E+00 -0.17730955520E+03  0.17730955520E+03  0.00000000000E+00 0.  1.
        -13    1    1    2    0    0 -0.45772898291E+03  0.27322980678E+03  0.41377670457E+03  0.67481962147E+03  0.10566000000E+00 0.  1.
         13    1    1    2    0    0  0.17535181370E+03 -0.33510689010E+02  0.51449039940E+03  0.54458388434E+03  0.10566000000E+00 0. -1.
          4    1    1    2  501    0  0.28237716921E+03 -0.23971911777E+03  0.10488845692E+04  0.11123672778E+04  0.00000000000E+00 0.  1.
</event>
<event>
 5    1  0.7625606E-005  0.2776692E+03  0.7818608E-02  0.1062793E+00
         21   -1    0    0  501  502  0.00000000000E+00  0.00000000000E+00  0.95236035807E+03  0.95236035807E+03  0.00000000000E+00 0.  1.
          4   -1    0    0  502    0 -0.00000000000E+00 -0.00000000000E+00 -0.30741946860E+03  0.30741946860E+03  0.00000000000E+00 0.  1.
        -13    1    1    2    0    0 -0.30440304772E+03 -0.76786562452E+02 -0.17409582098E+03  0.35898016336E+03  0.10566000000E+00 0.  1.
         13    1    1    2    0    0  0.55900891045E+02 -0.40747869509E+02  0.53643888626E+02  0.87538428362E+02  0.10566000000E+00 0. -1.
          4    1    1    2  501    0  0.24850215668E+03  0.11753443196E+03  0.76539282183E+03  0.81326123495E+03  0.00000000000E+00 0.  1.
</event>
<event>
 5    1  0.7625606E-005  0.4738711E+02  0.7818608E-02  0.1302809E+00
         21   -1    0    0  501  502  0.00000000000E+00  0.00000000000E+00  0.53840651409E+02  0.53840651409E+02  0.00000000000E+00 0.  1.
         -4   -1    0    0    0  501 -0.00000000000E+00 -0.00000000000E+00 -0.12259306328E+03  0.12259306328E+03  0.00000000000E+00 0. -1.
        -13    1    1    2    0    0 -0.24296122317E+02  0.26060195507E+02  0.29458886611E+02  0.46230644749E+02  0.10566000000E+00 0.  1.
         13    1    1    2    0    0  0.11534675013E+02 -0.48794375059E+02 -0.89728142675E+02  0.10278662616E+03  0.10566000000E+00 0. -1.
         -4    1    1    2    0  502  0.12761447304E+02  0.22734179552E+02 -0.84831558094E+01  0.27416443783E+02  0.00000000000E+00 0. -1.
</event>
<event>
 5    1  0.7625606E-005  0.8070655E+02  0.7818608E-02  0.1228875E+00
         21   -1    0    0  501  502  0.00000000000E+00  0.00000000000E+00  0.10079108526E+03  0.10079108526E+03  0.00000000000E+00 0. -1.
          4   -1    0    0  502    0 -0.00000000000E+00 -0.00000000000E+00 -0.15845786490E+03  0.15845786490E+03  0.00000000000E+00 0.  1.
        -13    1    1    2    0    0 -0.56469266697E+02 -0.62080841710E+02 -0.87825065071E+02  0.12147453316E+03  0.10566000000E+00 0.  1.
         13    1    1    2    0    0  0.39289026443E+02 -0.18879004626E+02  0.33451972701E+02  0.54946246970E+02  0.10566000000E+00 0. -1.
          4    1    1    2  501    0  0.17180240254E+02  0.80959846336E+02 -0.32936872707E+01  0.82828170026E+02  0.00000000000E+00 0.  1.
</event>
<event>
 5    1  0.7625606E-005  0.3407395E+03  0.7818608E-02  0.9918555E-01
         -4   -1    0    0    0  501 -0.00000000000E+00  0.00000000000E+00  0.69433266102E+03  0.69433266102E+03  0.00000000000E+00 0. -1.
         21   -1    0    0  501  502  0.00000000000E+00 -0.00000000000E+00 -0.68912834099E+03  0.68912834099E+03  0.00000000000E+00 0. -1.
        -13    1    1    2    0    0 -0.14659810240E+03 -0.30806266038E+03 -0.82877297341E+02  0.35108725971E+03  0.10566000000E+00 0.  1.
         13    1    1    2    0    0 -0.20828660827E+03  0.19770759618E+03  0.43679490930E+03  0.52274411401E+03  0.10566000000E+00 0. -1.
         -4    1    1    2    0  502  0.35488471067E+03  0.11035506421E+03 -0.34871329193E+03  0.50962962829E+03  0.00000000000E+00 0. -1.
</event>
<event>
 5    1  0.7625606E-005  0.5019256E+03  0.7818608E-02  0.9723140E-01
          4   -1    0    0  502    0 -0.00000000000E+00  0.00000000000E+00  0.17758198372E+04  0.17758198372E+04  0.00000000000E+00 0.  1.
         21   -1    0    0  501  502  0.00000000000E+00 -0.00000000000E+00 -0.21741376182E+03  0.21741376182E+03  0.00000000000E+00 0.  1.
        -13    1    1    2    0    0  0.49996413302E+03 -0.44230200819E+02  0.57654450869E+03  0.76441090170E+03  0.10566000000E+00 0.  1.
         13    1    1    2    0    0 -0.24514331792E+01  0.20662279831E+03  0.36895647061E+03  0.42288045435E+03  0.10566000000E+00 0. -1.
          4    1    1    2  501    0 -0.49751269984E+03 -0.16239259749E+03  0.61290509612E+03  0.80594224302E+03  0.00000000000E+00 0.  1.
</event>
<event>
 5    1  0.7625606E-005  0.4428551E+03  0.7818608E-02  0.9753887E-01
         -4   -1    0    0    0  501 -0.00000000000E+00  0.00000000000E+00  0.19741953960E+04  0.19741953960E+04  0.00000000000E+00 0. -1.
         21   -1    0    0  501  502  0.00000000000E+00 -0.00000000000E+00 -0.22476088274E+03  0.22476088274E+03  0.00000000000E+00 0. -1.
        -13    1    1    2    0    0 -0.25610471475E+03  0.87111631228E+02  0.61169103299E+03  0.66883779216E+03  0.10566000000E+00 0.  1.
         13    1    1    2    0    0 -0.34655176084E+03  0.12144691379E+03  0.28261480521E+03  0.46337740029E+03  0.10566000000E+00 0. -1.
         -4    1    1    2    0  502  0.60265647559E+03 -0.20855854502E+03  0.85512867507E+03  0.10667410863E+04  0.00000000000E+00 0. -1.
</event>
<event>
 5    1  0.7625606E-005  0.4796095E+03  0.7818608E-02  0.1008671E+00
          4   -1    0    0  502    0 -0.00000000000E+00  0.00000000000E+00  0.74426097753E+02  0.74426097753E+02  0.00000000000E+00 0.  1.
         21   -1    0    0  501  502  0.00000000000E+00 -0.00000000000E+00 -0.38733193848E+04  0.38733193848E+04  0.00000000000E+00 0.  1.
        -13    1    1    2    0    0  0.41910655396E+03 -0.14661194660E+03 -0.10544498657E+04  0.11441197039E+04  0.10566000000E+00 0.  1.
         13    1    1    2    0    0  0.66605654554E+02  0.22354786468E+02 -0.40701935661E+03  0.41303851820E+03  0.10566000000E+00 0. -1.
          4    1    1    2  501    0 -0.48571220851E+03  0.12425716013E+03 -0.23374240647E+04  0.23905872604E+04  0.00000000000E+00 0.  1.
</event>
<event>
 5    1  0.7625606E-005  0.7664833E+03  0.7818608E-02  0.9031738E-01
          4   -1    0    0  502    0 -0.00000000000E+00  0.00000000000E+00  0.19173441022E+04  0.19173441022E+04  0.00000000000E+00 0.  1.
         21   -1    0    0  501  502  0.00000000000E+00 -0.00000000000E+00 -0.15957114844E+04  0.15957114844E+04  0.00000000000E+00 0.  1.
        -13    1    1    2    0    0 -0.28697318910E+03 -0.72160900381E+03  0.12301436433E+04  0.14547599664E+04  0.10566000000E+00 0.  1.
         13    1    1    2    0    0  0.38485745321E+03  0.64483659504E+03  0.32518996959E+03  0.81833857362E+03  0.10566000000E+00 0. -1.
          4    1    1    2  501    0 -0.97884264104E+02  0.76772408770E+02 -0.12337009951E+04  0.12399570465E+04  0.00000000000E+00 0.  1.
</event>
<event>
 5    1  0.7625606E-005  0.3015918E+03  0.7818608E-02  0.1006651E+00
         -4   -1    0    0    0  501 -0.00000000000E+00  0.00000000000E+00  0.24156437705E+04  0.24156437705E+04  0.00000000000E+00 0. -1.
         21   -1    0    0  501  502  0.00000000000E+00 -0.00000000000E+00 -0.10435538568E+03  0.10435538568E+03  0.00000000000E+00 0. -1.
        -13    1    1    2    0    0 -0.28825747428E+03 -0.98579520924E+02  0.11611180389E+04  0.12004188456E+04  0.10566000000E+00 0.  1.
         13    1    1    2    0    0  0.29026348520E+03  0.72876128823E+02  0.12142089478E+04  0.12505467608E+04  0.10566000000E+00 0. -1.
         -4    1    1    2    0  502 -0.20060109261E+01  0.25703392101E+02 -0.64038601930E+02  0.69033549687E+02  0.00000000000E+00 0. -1.
</event>
<event>
 5    1  0.7625606E-005  0.4837168E+03  0.7818608E-02  0.9637911E-01
         -4   -1    0    0    0  501 -0.00000000000E+00  0.00000000000E+00  0.30136452757E+04  0.30136452757E+04  0.00000000000E+00 0. -1.
         21   -1    0    0  501  502  0.00000000000E+00 -0.00000000000E+00 -0.16050470710E+03  0.16050470710E+03  0.00000000000E+00 0. -1.
        -13    1    1    2    0    0 -0.63631051747E+02 -0.30444474406E+03  0.11209155832E+04  0.11632657773E+04  0.10566000000E+00 0.  1.
         13    1    1    2    0    0  0.49851563126E+03  0.25050947058E+03  0.74483509139E+03  0.93061923147E+03  0.10566000000E+00 0. -1.
         -4    1    1    2    0  502 -0.43488457951E+03  0.53935273487E+02  0.98738989400E+03  0.10802649740E+04  0.00000000000E+00 0. -1.
</event>
<event>
 5    1  0.7625606E-005  0.3252317E+03  0.7818608E-02  0.1011490E+00
         21   -1    0    0  501  502  0.00000000000E+00  0.00000000000E+00  0.20537851699E+03  0.20537851699E+03  0.00000000000E+00 0. -1.
         -4   -1    0    0    0  501 -0.00000000000E+00 -0.00000000000E+00 -0.19095914394E+04  0.19095914394E+04  0.00000000000E+00 0. -1.
        -13    1    1    2    0    0 -0.54624117286E+02 -0.19841340123E+03 -0.42849416126E+03  0.47535137464E+03  0.10566000000E+00 0.  1.
         13    1    1    2    0    0 -0.27188534521E+03  0.23271729503E+03 -0.12611972561E+04  0.13109910413E+04  0.10566000000E+00 0. -1.
         -4    1    1    2    0  502  0.32650946250E+03 -0.34303893803E+02 -0.14521505031E+02  0.32862754045E+03  0.00000000000E+00 0. -1.
</event>
<event>
 5    1  0.7625606E-005  0.3423907E+03  0.7818608E-02  0.9912008E-01
          4   -1    0    0  502    0 -0.00000000000E+00  0.00000000000E+00  0.14477471248E+04  0.14477471248E+04  0.00000000000E+00 0.  1.
         21   -1    0    0  501  502  0.00000000000E+00 -0.00000000000E+00 -0.15942310186E+03  0.15942310186E+03  0.00000000000E+00 0.  1.
        -13    1    1    2    0    0 -0.51710318005E+02 -0.37164979429E+03  0.46339572567E+03  0.59626599460E+03  0.10566000000E+00 0.  1.
         13    1    1    2    0    0  0.62411888889E+02  0.32191490339E+03  0.87809232646E+03  0.93732096630E+03  0.10566000000E+00 0. -1.
          4    1    1    2  501    0 -0.10701570884E+02  0.49734890894E+02 -0.53164029230E+02  0.73583265730E+02  0.00000000000E+00 0.  1.
</event>
<event>
 5    1  0.7625606E-005  0.2492609E+03  0.7818608E-02  0.1030776E+00
         -4   -1    0    0    0  501 -0.00000000000E+00  0.00000000000E+00  0.36100695715E+03  0.36100695715E+03  0.00000000000E+00 0. -1.
         21   -1    0    0  501  502  0.00000000000E+00 -0.00000000000E+00 -0.35714699208E+03  0.35714699208E+03  0.00000000000E+00 0.  1.
        -13    1    1    2    0    0 -0.23311702740E+03 -0.11339579382E+03 -0.19245404914E+03  0.32286332513E+03  0.10566000000E+00 0.  1.
         13    1    1    2    0    0  0.21495476274E+03  0.12234902503E+03  0.24155674624E+03  0.34572316494E+03  0.10566000000E+00 0. -1.
         -4    1    1    2    0  502  0.18162264654E+02 -0.89532312149E+01 -0.45242732027E+02  0.49567459162E+02  0.00000000000E+00 0. -1.
</event>
<event>
 5    1  0.7625606E-005  0.7546574E+02  0.7818608E-02  0.1213076E+00
          4   -1    0    0  502    0 -0.00000000000E+00  0.00000000000E+00  0.88209542111E+02  0.88209542111E+02  0.00000000000E+00 0.  1.
         21   -1    0    0  501  502  0.00000000000E+00 -0.00000000000E+00 -0.28940899278E+03  0.28940899278E+03  0.00000000000E+00 0.  1.
        -13    1    1    2    0    0  0.70057464868E+02 -0.34046901153E+02  0.59222941584E+02  0.97849925068E+02  0.10566000000E+00 0.  1.
         13    1    1    2    0    0 -0.42890724552E+02  0.47181298267E+02 -0.11740479177E+03  0.13360234074E+03  0.10566000000E+00 0. -1.
          4    1    1    2  501    0 -0.27166740316E+02 -0.13134397114E+02 -0.14301760049E+03  0.14616626908E+03  0.00000000000E+00 0.  1.
</event>
<event>
 5    1  0.7625606E-005  0.1743718E+03  0.7818608E-02  0.1079283E+00
         21   -1    0    0  501  502  0.00000000000E+00  0.00000000000E+00  0.17297335839E+03  0.17297335839E+03  0.00000000000E+00 0. -1.
         -4   -1    0    0    0  501 -0.00000000000E+00 -0.00000000000E+00 -0.14385582907E+04  0.14385582907E+04  0.00000000000E+00 0. -1.
        -13    1    1    2    0    0 -0.10452573301E+03 -0.14250408738E+03 -0.46012331481E+03  0.49289605372E+03  0.10566000000E+00 0.  1.
         13    1    1    2    0    0  0.11540256740E+03  0.12955660190E+03 -0.95374160918E+03  0.96939451922E+03  0.10566000000E+00 0. -1.
         -4    1    1    2    0  502 -0.10876834396E+02  0.12947485482E+02  0.14827999163E+03  0.14924107620E+03  0.00000000000E+00 0. -1.
</event>
<event>
 5    1  0.7625606E-005  0.5073753E+03  0.7818608E-02  0.9821852E-01
          4   -1    0    0  502    0 -0.00000000000E+00  0.00000000000E+00  0.62821582366E+03  0.62821582366E+03  0.00000000000E+00 0.  1.
         21   -1    0    0  501  502  0.00000000000E+00 -0.00000000000E+00 -0.61037859479E+03  0.61037859479E+03  0.00000000000E+00 0.  1.
        -13    1    1    2    0    0 -0.37479695145E+03 -0.41647048687E+03 -0.13343635677E+03  0.57595632970E+03  0.10566000000E+00 0.  1.
         13    1    1    2    0    0  0.10767460655E+03  0.93419424402E+02 -0.99798765947E+02  0.17401383451E+03  0.10566000000E+00 0. -1.
          4    1    1    2  501    0  0.26712234490E+03  0.32305106247E+03  0.25107235158E+03  0.48862425425E+03  0.00000000000E+00 0.  1.
</event>
<event>
 5    1  0.7625606E-005  0.1119351E+03  0.7818608E-02  0.1189893E+00
         21   -1    0    0  501  502  0.00000000000E+00  0.00000000000E+00  0.98792829521E+03  0.98792829521E+03  0.00000000000E+00 0. -1.
         -4   -1    0    0    0  501 -0.00000000000E+00 -0.00000000000E+00 -0.50765831326E+02  0.50765831326E+02  0.00000000000E+00 0. -1.
        -13    1    1    2    0    0 -0.65732459256E+01 -0.38597504322E+02 -0.22357730265E+02  0.45087184082E+02  0.10566000000E+00 0.  1.
         13    1    1    2    0    0  0.72138554395E+02 -0.76949153295E+02  0.62203370367E+03  0.63091289643E+03  0.10566000000E+00 0. -1.
         -4    1    1    2    0  502 -0.65565308469E+02  0.11554665762E+03  0.33748649049E+03  0.36269404602E+03  0.00000000000E+00 0. -1.
</event>
<event>
 5    1  0.7625606E-005  0.4978315E+02  0.7818608E-02  0.1292674E+00
         -4   -1    0    0    0  501 -0.00000000000E+00  0.00000000000E+00  0.17339000529E+02  0.17339000529E+02  0.00000000000E+00 0. -1.
         21   -1    0    0  501  502  0.00000000000E+00 -0.00000000000E+00 -0.36012968217E+03  0.36012968217E+03  0.00000000000E+00 0.  1.
        -13    1    1    2    0    0 -0.52306858121E+01  0.55575073593E+02 -0.14307189449E+03  0.15357580225E+03  0.10566000000E+00 0.  1.
         13    1    1    2    0    0  0.13956367362E+02 -0.45992373399E+02 -0.36991506436E+02  0.60650319976E+02  0.10566000000E+00 0. -1.
         -4    1    1    2    0  502 -0.87256815494E+01 -0.95827001940E+01 -0.16272728071E+03  0.16324256047E+03  0.00000000000E+00 0. -1.
</event>
<event>
 5    1  0.7625606E-005  0.1514267E+03  0.7818608E-02  0.1114381E+00
         -4   -1    0    0    0  501 -0.00000000000E+00  0.00000000000E+00  0.14811973390E+04  0.14811973390E+04  0.00000000000E+00 0. -1.
         21   -1    0    0  501  502  0.00000000000E+00 -0.00000000000E+00 -0.36753474015E+02  0.36753474015E+02  0.00000000000E+00 0. -1.
        -13    1    1    2    0    0 -0.64532185418E+02  0.79364452306E+02  0.49363788272E+03  0.50412447834E+03  0.10566000000E+00 0.  1.
         13    1    1    2    0    0  0.19613899594E+03 -0.79298460165E+02  0.68985090042E+03  0.72156290612E+03  0.10566000000E+00 0. -1.
         -4    1    1    2    0  502 -0.13160681052E+03 -0.65992141361E-01  0.26095508186E+03  0.29226342857E+03  0.00000000000E+00 0. -1.
</event>
<event>
 5    1  0.7625606E-005  0.1044479E+03  0.7818608E-02  0.1157399E+00
          4   -1    0    0  502    0 -0.00000000000E+00  0.00000000000E+00  0.66727355525E+02  0.66727355525E+02  0.00000000000E+00 0.  1.
         21   -1    0    0  501  502  0.00000000000E+00 -0.00000000000E+00 -0.35884498627E+03  0.35884498627E+03  0.00000000000E+00 0. -1.
        -13    1    1    2    0    0 -0.15874990169E+02 -0.10182355925E+03 -0.14005907770E+01  0.10306321046E+03  0.10566000000E+00 0.  1.
         13    1    1    2    0    0  0.39771233300E+02  0.10502993046E+03 -0.20841898272E+03  0.23675202388E+03  0.10566000000E+00 0. -1.
          4    1    1    2  501    0 -0.23896243131E+02 -0.32063712034E+01 -0.82298057250E+02  0.85757107456E+02  0.00000000000E+00 0.  1.
</event>
<event>
 5    1  0.7625606E-005  0.4691191E+03  0.7818608E-02  0.9902742E-01
         21   -1    0    0  501  502  0.00000000000E+00  0.00000000000E+00  0.78684590786E+03  0.78684590786E+03  0.00000000000E+00 0.  1.
          4   -1    0    0  502    0 -0.00000000000E+00 -0.00000000000E+00 -0.68071144950E+03  0.68071144950E+03  0.00000000000E+00 0.  1.
        -13    1    1    2    0    0 -0.26636999985E+03  0.34833844593E+03  0.35419562116E+03  0.56369069439E+03  0.10566000000E+00 0.  1.
         13    1    1    2    0    0 -0.13626179086E+03  0.16879940808E+02 -0.32691769725E+03  0.35458059731E+03  0.10566000000E+00 0. -1.
          4    1    1    2  501    0  0.40263179070E+03 -0.36521838674E+03  0.78856534447E+02  0.54928606565E+03  0.00000000000E+00 0.  1.
</event>
<event>
 5    1  0.7625606E-005  0.5085578E+03  0.7818608E-02  0.9631494E-01
         21   -1    0    0  501  502  0.00000000000E+00  0.00000000000E+00  0.12870806562E+03  0.12870806562E+03  0.00000000000E+00 0.  1.
          4   -1    0    0  502    0 -0.00000000000E+00 -0.00000000000E+00 -0.36009401356E+04  0.36009401356E+04  0.00000000000E+00 0.  1.
        -13    1    1    2    0    0 -0.22479143527E+03 -0.42966744271E+03 -0.17774303311E+04  0.18423908092E+04  0.10566000000E+00 0.  1.
         13    1    1    2    0    0  0.24448706425E+03 -0.12319281127E+03 -0.48405320769E+03  0.55610962262E+03  0.10566000000E+00 0. -1.
          4    1    1    2  501    0 -0.19695628977E+02  0.55286025398E+03 -0.12107485312E+04  0.13311477694E+04  0.00000000000E+00 0.  1.
</event>
<event>
 5    1  0.7625606E-005  0.1711142E+02  0.7818608E-02  0.1557372E+00
         21   -1    0    0  501  502  0.00000000000E+00  0.00000000000E+00  0.93948167988E+02  0.93948167988E+02  0.00000000000E+00 0. -1.
         -4   -1    0    0    0  501 -0.00000000000E+00 -0.00000000000E+00 -0.31644877276E+02  0.31644877276E+02  0.00000000000E+00 0. -1.
        -13    1    1    2    0    0  0.70494869350E+01 -0.14879440281E+02  0.22359532346E+02  0.27767838589E+02  0.10566000000E+00 0.  1.
         13    1    1    2    0    0  0.77050233829E+01  0.23414649683E+02 -0.22330235410E+02  0.33260543931E+02  0.10566000000E+00 0. -1.
         -4    1    1    2    0  502 -0.14754510318E+02 -0.85352094012E+01  0.62273993777E+02  0.64564662744E+02  0.00000000000E+00 0. -1.
</event>
<event>
 5    1  0.7625606E-005  0.4777090E+03  0.7818608E-02  0.9837665E-01
          4   -1    0    0  502    0 -0.00000000000E+00  0.00000000000E+00  0.11898225348E+04  0.11898225348E+04  0.00000000000E+00 0.  1.
         21   -1    0    0  501  502  0.00000000000E+00 -0.00000000000E+00 -0.39216691011E+03  0.39216691011E+03  0.00000000000E+00 0.  1.
        -13    1    1    2    0    0  0.41174052022E+03  0.33169791673E+03 -0.61295300279E+02  0.53226956418E+03  0.10566000000E+00 0.  1.
         13    1    1    2    0    0 -0.15538941904E+03 -0.45342338484E+02  0.49350857026E+03  0.51937704925E+03  0.10566000000E+00 0. -1.
          4    1    1    2  501    0 -0.25635110117E+03 -0.28635557824E+03  0.36544235468E+03  0.53034283144E+03  0.00000000000E+00 0.  1.
</event>
<event>
 5    1  0.7625606E-005  0.1842408E+03  0.7818608E-02  0.1071512E+00
          4   -1    0    0  502    0 -0.00000000000E+00  0.00000000000E+00  0.15218068796E+04  0.15218068796E+04  0.00000000000E+00 0.  1.
         21   -1    0    0  501  502  0.00000000000E+00 -0.00000000000E+00 -0.55463067184E+02  0.55463067184E+02  0.00000000000E+00 0. -1.
        -13    1    1    2    0    0 -0.14444770741E+03  0.11245653861E+03  0.10977109428E+04  0.11128705847E+04  0.10566000000E+00 0.  1.
         13    1    1    2    0    0  0.15718998116E+03 -0.10314420285E+03  0.39283413056E+03  0.43550669577E+03  0.10566000000E+00 0. -1.
          4    1    1    2  501    0 -0.12742273749E+02 -0.93123357576E+01 -0.24201260910E+02  0.28892666323E+02  0.00000000000E+00 0.  1.
</event>
<event>
 5    1  0.7625606E-005  0.6514183E+02  0.7818608E-02  0.1240081E+00
         -4   -1    0    0    0  501 -0.00000000000E+00  0.00000000000E+00  0.73716753557E+03  0.73716753557E+03  0.00000000000E+00 0. -1.
         21   -1    0    0  501  502  0.00000000000E+00 -0.00000000000E+00 -0.37485342134E+02  0.37485342134E+02  0.00000000000E+00 0. -1.
        -13    1    1    2    0    0  0.59047574232E+02 -0.18939447672E+02  0.30956121944E+03  0.31571106798E+03  0.10566000000E+00 0.  1.
         13    1    1    2    0    0 -0.71352295727E+02 -0.14155785463E+02  0.41135681206E+03  0.41773912237E+03  0.10566000000E+00 0. -1.
         -4    1    1    2    0  502  0.12304721495E+02  0.33095233135E+02 -0.21235838059E+02  0.41202687356E+02  0.00000000000E+00 0. -1.
</event>
<event>
 5    1  0.7625606E-005  0.5004983E+03  0.7818608E-02  0.9993386E-01
         -4   -1    0    0    0  501 -0.00000000000E+00  0.00000000000E+00  0.17529982720E+04  0.17529982720E+04  0.00000000000E+00 0. -1.
         21   -1    0    0  501  502  0.00000000000E+00 -0.00000000000E+00 -0.20749872366E+03  0.20749872366E+03  0.00000000000E+00 0. -1.
        -13    1    1    2    0    0 -0.82680601135E+02 -0.13256708692E+02  0.50650886967E+03  0.51338393854E+03  0.10566000000E+00 0.  1.
         13    1    1    2    0    0 -0.26267611640E+03 -0.38807797005E+03  0.58578831427E+03  0.75016745681E+03  0.10566000000E+00 0. -1.
         -4    1    1    2    0  502  0.34535671753E+03  0.40133467874E+03  0.45320236442E+03  0.69694560033E+03  0.00000000000E+00 0. -1.
</event>
<event>
 5    1  0.7625606E-005  0.4987548E+03  0.7818608E-02  0.9630788E-01
         -4   -1    0    0    0  501 -0.00000000000E+00  0.00000000000E+00  0.11605302211E+04  0.11605302211E+04  0.00000000000E+00 0. -1.
         21   -1    0    0  501  502  0.00000000000E+00 -0.00000000000E+00 -0.40203037994E+03  0.40203037994E+03  0.00000000000E+00 0. -1.
        -13    1    1    2    0    0  0.22685317510E+03 -0.18219347387E+03  0.32345251262E+03  0.43506133367E+03  0.10566000000E+00 0.  1.
         13    1    1    2    0    0 -0.11473091585E+03  0.59421474840E+03  0.18577884909E+03  0.63306251050E+03  0.10566000000E+00 0. -1.
         -4    1    1    2    0  502 -0.11212225925E+03 -0.41202127453E+03  0.24926847946E+03  0.49443675686E+03  0.00000000000E+00 0. -1.
</event>
<event>
 5    1  0.7625606E-005  0.2984239E+03  0.7818608E-02  0.1007958E+00
         21   -1    0    0  501  502  0.00000000000E+00  0.00000000000E+00  0.79958661453E+03  0.79958661453E+03  0.00000000000E+00 0.  1.
          4   -1    0    0  502    0 -0.00000000000E+00 -0.00000000000E+00 -0.70661714789E+03  0.70661714789E+03  0.00000000000E+00 0.  1.
        -13    1    1    2    0    0 -0.32963790771E+03  0.10146026911E+03  0.69210967922E+03  0.77328594688E+03  0.10566000000E+00 0.  1.
         13    1    1    2    0    0  0.29088669501E+03 -0.47000007410E+02 -0.27870831062E+03  0.40558895893E+03  0.10566000000E+00 0. -1.
          4    1    1    2  501    0  0.38751212707E+02 -0.54460261696E+02 -0.32043190195E+03  0.32732885662E+03  0.00000000000E+00 0.  1.
</event>
<event>
 5    1  0.7625606E-005  0.4820204E+03  0.7818608E-02  0.9716062E-01
         -4   -1    0    0    0  501 -0.00000000000E+00  0.00000000000E+00  0.10590186096E+04  0.10590186096E+04  0.00000000000E+00 0. -1.
         21   -1    0    0  501  502  0.00000000000E+00 -0.00000000000E+00 -0.42764767001E+03  0.42764767001E+03  0.00000000000E+00 0. -1.
        -13    1    1    2    0    0  0.55651965968E+02 -0.23254138462E+03  0.35103784203E+03  0.42473546423E+03  0.10566000000E+00 0.  1.
         13    1    1    2    0    0 -0.33304440788E+03 -0.28017688934E+03  0.62846798339E+02  0.43973560030E+03  0.10566000000E+00 0. -1.
         -4    1    1    2    0  502  0.27739244191E+03  0.51271827397E+03  0.21748629919E+03  0.62219521504E+03  0.00000000000E+00 0. -1.
</event>
<event>
 5    1  0.7625606E-005  0.3805792E+03  0.7818608E-02  0.9808535E-01
          4   -1    0    0  502    0 -0.00000000000E+00  0.00000000000E+00  0.21626594976E+04  0.21626594976E+04  0.00000000000E+00 0.  1.
         21   -1    0    0  501  502  0.00000000000E+00 -0.00000000000E+00 -0.37205891559E+03  0.37205891559E+03  0.00000000000E+00 0.  1.
        -13    1    1    2    0    0 -0.33418339020E+03  0.20723827227E+03 -0.13972347116E+03  0.41731151355E+03  0.10566000000E+00 0.  1.
         13    1    1    2    0    0  0.26524161573E+03  0.23358876389E+03  0.12859405472E+04  0.13336266072E+04  0.10566000000E+00 0. -1.
          4    1    1    2  501    0  0.68941774475E+02 -0.44082703616E+03  0.64438350603E+03  0.78378029250E+03  0.00000000000E+00 0.  1.
</event>
<event>
 5    1  0.7625606E-005  0.2491012E+02  0.7818608E-02  0.1457070E+00
          4   -1    0    0  502    0 -0.00000000000E+00  0.00000000000E+00  0.55860466618E+02  0.55860466618E+02  0.00000000000E+00 0.  1.
         21   -1    0    0  501  502  0.00000000000E+00 -0.00000000000E+00 -0.15124096333E+03  0.15124096333E+03  0.00000000000E+00 0. -1.
        -13    1    1    2    0    0 -0.32308383693E+02  0.21308053062E+02  0.39094377408E+02  0.55011328752E+02  0.10566000000E+00 0.  1.
         13    1    1    2    0    0  0.22729225354E+02  0.69019085713E-01 -0.12462081599E+03  0.12667668054E+03  0.10566000000E+00 0. -1.
          4    1    1    2  501    0  0.95791583387E+01 -0.21377072148E+02 -0.98540581295E+01  0.25413420662E+02  0.00000000000E+00 0.  1.
</event>
<event>
 5    1  0.7625606E-005  0.4971183E+03  0.7818608E-02  0.9596152E-01
         -4   -1    0    0    0  501 -0.00000000000E+00  0.00000000000E+00  0.12497899303E+04  0.12497899303E+04  0.00000000000E+00 0. -1.
         21   -1    0    0  501  502  0.00000000000E+00 -0.00000000000E+00 -0.38333815432E+03  0.38333815432E+03  0.00000000000E+00 0. -1.
        -13    1    1    2    0    0 -0.14825643551E+03  0.29734225521E+03  0.18545903102E+03  0.38050946211E+03  0.10566000000E+00 0.  1.
         13    1    1    2    0    0  0.52248254996E+03 -0.33857524775E+03  0.22666696495E+03  0.66257010012E+03  0.10566000000E+00 0. -1.
         -4    1    1    2    0  502 -0.37422611446E+03  0.41232992541E+02  0.45432578004E+03  0.59004852243E+03  0.00000000000E+00 0. -1.
</event>
<event>
 5    1  0.7625606E-005  0.4401837E+03  0.7818608E-02  0.1004475E+00
         21   -1    0    0  501  502  0.00000000000E+00  0.00000000000E+00  0.14624093236E+03  0.14624093236E+03  0.00000000000E+00 0.  1.
          4   -1    0    0  502    0 -0.00000000000E+00 -0.00000000000E+00 -0.21313866920E+04  0.21313866920E+04  0.00000000000E+00 0.  1.
        -13    1    1    2    0    0  0.42868401553E+03  0.20845804614E+03 -0.13912800212E+04  0.14706749643E+04  0.10566000000E+00 0.  1.
         13    1    1    2    0    0 -0.88541021168E+02  0.54723556699E+02 -0.19172859734E+03  0.21816059747E+03  0.10566000000E+00 0. -1.
          4    1    1    2  501    0 -0.34014299437E+03 -0.26318160284E+03 -0.40213714112E+03  0.58879206258E+03  0.00000000000E+00 0.  1.
</event>
<event>
 5    1  0.7625606E-005  0.4513638E+03  0.7818608E-02  0.9864763E-01
         21   -1    0    0  501  502  0.00000000000E+00  0.00000000000E+00  0.39440670372E+03  0.39440670372E+03  0.00000000000E+00 0.  1.
          4   -1    0    0  502    0 -0.00000000000E+00 -0.00000000000E+00 -0.12282886857E+04  0.12282886857E+04  0.00000000000E+00 0.  1.
        -13    1    1    2    0    0  0.40440960437E+03 -0.19221258099E+03  0.68737149005E+02  0.45300950455E+03  0.10566000000E+00 0.  1.
         13    1    1    2    0    0 -0.72296075295E+02 -0.15949004011E+03 -0.53264420442E+03  0.56069033795E+03  0.10566000000E+00 0. -1.
          4    1    1    2  501    0 -0.33211352908E+03  0.35170262110E+03 -0.36997492658E+03  0.60899554693E+03  0.00000000000E+00 0.  1.
</event>
<event>
 5    1  0.7625606E-005  0.4138412E+02  0.7818608E-02  0.1331482E+00
         21   -1    0    0  501  502  0.00000000000E+00  0.00000000000E+00  0.11594527396E+03  0.11594527396E+03  0.00000000000E+00 0.  1.
          4   -1    0    0  502    0 -0.00000000000E+00 -0.00000000000E+00 -0.65460384051E+02  0.65460384051E+02  0.00000000000E+00 0.  1.
        -13    1    1    2    0    0  0.42141377834E+02 -0.60907327172E+01 -0.47272906610E+02  0.63621785688E+02  0.10566000000E+00 0.  1.
         13    1    1    2    0    0 -0.36880586351E+02 -0.39141521508E+01  0.26370740201E+02  0.45507420708E+02  0.10566000000E+00 0. -1.
          4    1    1    2  501    0 -0.52607914828E+01  0.10004884868E+02  0.71387056318E+02  0.72276451614E+02  0.00000000000E+00 0.  1.
</event>
<event>
 5    1  0.7625606E-005  0.4927707E+03  0.7818608E-02  0.9790761E-01
         21   -1    0    0  501  502  0.00000000000E+00  0.00000000000E+00  0.21002158799E+03  0.21002158799E+03  0.00000000000E+00 0. -1.
         -4   -1    0    0    0  501 -0.00000000000E+00 -0.00000000000E+00 -0.16811607026E+04  0.16811607026E+04  0.00000000000E+00 0. -1.
        -13    1    1    2    0    0 -0.30433436536E+02  0.17031009159E+03 -0.13242497229E+03  0.21787176460E+03  0.10566000000E+00 0.  1.
         13    1    1    2    0    0  0.48839605080E+03  0.49646431813E+02 -0.74087488733E+03  0.88875816760E+03  0.10566000000E+00 0. -1.
         -4    1    1    2    0  502 -0.45796261426E+03 -0.21995652340E+03 -0.59783925495E+03  0.78455235836E+03  0.00000000000E+00 0. -1.
</event>
<event>
 5    1  0.9233970E-005  0.5802513E+03  0.7818608E-02  0.9317548E-01
         -4   -1    0    0    0  501 -0.00000000000E+00  0.00000000000E+00  0.16694539722E+04  0.16694539722E+04  0.00000000000E+00 0. -1.
         21   -1    0    0  501  502  0.00000000000E+00 -0.00000000000E+00 -0.59680165175E+03  0.59680165175E+03  0.00000000000E+00 0.  1.
        -13    1    1    2    0    0  0.39258404871E+03 -0.54358746854E+03  0.34860583473E+02  0.67143491323E+03  0.10566000000E+00 0.  1.
         13    1    1    2    0    0 -0.24831832048E+03  0.50670411879E+03  0.12290706899E+04  0.13524148122E+04  0.10566000000E+00 0. -1.
         -4    1    1    2    0  502 -0.14426572823E+03  0.36883349749E+02 -0.19127895290E+03  0.24240589855E+03  0.00000000000E+00 0. -1.
</event>
<event>
 5    1  0.7625606E-005  0.5007773E+03  0.7818608E-02  0.9782518E-01
          4   -1    0    0  502    0 -0.00000000000E+00  0.00000000000E+00  0.17211267555E+04  0.17211267555E+04  0.00000000000E+00 0.  1.
         21   -1    0    0  501  502  0.00000000000E+00 -0.00000000000E+00 -0.22665561474E+03  0.22665561474E+03  0.00000000000E+00 0.  1.
        -13    1    1    2    0    0  0.23195248897E+03 -0.36764956722E+03  0.42299843315E+03  0.60654418390E+03  0.10566000000E+00 0.  1.
         13    1    1    2    0    0  0.42520236601E+02 -0.16414078015E+03  0.43855530158E+03  0.47019243926E+03  0.10566000000E+00 0. -1.
          4    1    1    2  501    0 -0.27447272557E+03  0.53179034737E+03  0.63291740604E+03  0.87104574708E+03  0.00000000000E+00 0.  1.
</event>
<event>
 5    1  0.7625606E-005  0.2236959E+03  0.7818608E-02  0.1045003E+00
         -4   -1    0    0    0  501 -0.00000000000E+00  0.00000000000E+00  0.15692296632E+03  0.15692296632E+03  0.00000000000E+00 0. -1.
         21   -1    0    0  501  502  0.00000000000E+00 -0.00000000000E+00 -0.80916981193E+03  0.80916981193E+03  0.00000000000E+00 0. -1.
        -13    1    1    2    0    0  0.17768185784E+03 -0.89677290162E+01 -0.15185730643E+03  0.23390578328E+03  0.10566000000E+00 0.  1.
         13    1    1    2    0    0 -0.25904396381E+03  0.88307337457E+01 -0.37134173825E+02  0.26184101106E+03  0.10566000000E+00 0. -1.
         -4    1    1    2    0  502  0.81362105966E+02  0.13699527055E+00 -0.46325536534E+03  0.47034598390E+03  0.00000000000E+00 0. -1.
</event>
<event>
 5    1  0.7625606E-005  0.7115315E+03  0.7818608E-02  0.9106416E-01
         21   -1    0    0  501  502  0.00000000000E+00  0.00000000000E+00  0.50240892736E+03  0.50240892736E+03  0.00000000000E+00 0.  1.
          4   -1    0    0  502    0 -0.00000000000E+00 -0.00000000000E+00 -0.26131896498E+04  0.26131896498E+04  0.00000000000E+00 0.  1.
        -13    1    1    2    0    0 -0.54059494753E+03 -0.35868734670E+03 -0.63117596034E+03  0.90514231702E+03  0.10566000000E+00 0.  1.
         13    1    1    2    0    0  0.52055616515E+03  0.54478188041E+03 -0.17363108549E+04  0.18927602633E+04  0.10566000000E+00 0. -1.
          4    1    1    2  501    0  0.20038782381E+02 -0.18609453371E+03  0.25670609285E+03  0.31769599680E+03  0.00000000000E+00 0.  1.
</event>
<event>
 5    1  0.7625606E-005  0.1295848E+03  0.7818608E-02  0.1129861E+00
         21   -1    0    0  501  502  0.00000000000E+00  0.00000000000E+00  0.55229847262E+02  0.55229847262E+02  0.00000000000E+00 0.  1.
          4   -1    0    0  502    0 -0.00000000000E+00 -0.00000000000E+00 -0.94786231133E+03  0.94786231133E+03  0.00000000000E+00 0.  1.
        -13    1    1    2    0    0 -0.52720880486E+02 -0.18867120399E+03 -0.56921002862E+03  0.60197706127E+03  0.10566000000E+00 0.  1.
         13    1    1    2    0    0  0.80495440272E+02  0.73604635416E+02 -0.21267410150E+03  0.23901347843E+03  0.10566000000E+00 0. -1.
          4    1    1    2  501    0 -0.27774559786E+02  0.11506656857E+03 -0.11074833395E+03  0.16210161889E+03  0.00000000000E+00 0.  1.
</event>
<event>
 5    1  0.7625606E-005  0.9230886E+02  0.7818608E-02  0.1177949E+00
          4   -1    0    0  502    0 -0.00000000000E+00  0.00000000000E+00  0.53665311984E+03  0.53665311984E+03  0.00000000000E+00 0.  1.
         21   -1    0    0  501  502  0.00000000000E+00 -0.00000000000E+00 -0.22323832237E+02  0.22323832237E+02  0.00000000000E+00 0. -1.
        -13    1    1    2    0    0  0.26956272669E+02 -0.99427031339E+02  0.20427678080E+03  0.22878240652E+03  0.10566000000E+00 0.  1.
         13    1    1    2    0    0 -0.34478911383E+02  0.77643243407E+02  0.19262823386E+03  0.21053008388E+03  0.10566000000E+00 0. -1.
          4    1    1    2  501    0  0.75226387140E+01  0.21783787932E+02  0.11742427294E+03  0.11966446167E+03  0.00000000000E+00 0.  1.
</event>
<event>
 5    1  0.7625606E-005  0.4964468E+03  0.7818608E-02  0.9810673E-01
         -4   -1    0    0    0  501 -0.00000000000E+00  0.00000000000E+00  0.18799478670E+04  0.18799478670E+04  0.00000000000E+00 0. -1.
         21   -1    0    0  501  502  0.00000000000E+00 -0.00000000000E+00 -0.21788710884E+03  0.21788710884E+03  0.00000000000E+00 0. -1.
        -13    1    1    2    0    0  0.14481519075E+03 -0.63374014134E+02  0.64585829312E+03  0.66492153754E+03  0.10566000000E+00 0.  1.
         13    1    1    2    0    0 -0.54840779001E+03  0.14261425376E+03  0.40618708847E+03  0.69719286537E+03  0.10566000000E+00 0. -1.
         -4    1    1    2    0  502  0.40359259927E+03 -0.79240239621E+02  0.61001537654E+03  0.73572057289E+03  0.00000000000E+00 0. -1.
</event>
<event>
 5    1  0.7625606E-005  0.4724184E+03  0.7818608E-02  0.9540564E-01
         21   -1    0    0  501  502  0.00000000000E+00  0.00000000000E+00  0.70857519645E+03  0.70857519645E+03  0.00000000000E+00 0.  1.
          4   -1    0    0  502    0 -0.00000000000E+00 -0.00000000000E+00 -0.98673610588E+03  0.98673610588E+03  0.00000000000E+00 0.  1.
        -13    1    1    2    0    0 -0.47167833031E+03 -0.18117736040E+02 -0.43202095723E+03  0.63988344118E+03  0.10566000000E+00 0.  1.
         13    1    1    2    0    0  0.45435715482E+03 -0.24205559490E+03 -0.25187892954E+03  0.57312681098E+03  0.10566000000E+00 0. -1.
          4    1    1    2  501    0  0.17321175492E+02  0.26017333094E+03  0.40573897734E+03  0.48230105016E+03  0.00000000000E+00 0.  1.
</event>
<event>
 5    1  0.7625606E-005  0.8343399E+02  0.7818608E-02  0.1220899E+00
         21   -1    0    0  501  502  0.00000000000E+00  0.00000000000E+00  0.31759378169E+02  0.31759378169E+02  0.00000000000E+00 0.  1.
         -4   -1    0    0    0  501 -0.00000000000E+00 -0.00000000000E+00 -0.59049079318E+03  0.59049079318E+03  0.00000000000E+00 0. -1.
        -13    1    1    2    0    0 -0.40070733368E+02  0.24492517996E+02 -0.16512084597E+02  0.49781595115E+02  0.10566000000E+00 0.  1.
         13    1    1    2    0    0  0.80064657841E+02  0.47853501285E+02 -0.36792705382E+03  0.37956637775E+03  0.10566000000E+00 0. -1.
         -4    1    1    2    0  502 -0.39993924473E+02 -0.72346019281E+02 -0.17429227660E+03  0.19290219849E+03  0.00000000000E+00 0. -1.
</event>
<event>
 5    1  0.7625606E-005  0.2947571E+03  0.7818608E-02  0.1009493E+00
         21   -1    0    0  501  502  0.00000000000E+00  0.00000000000E+00  0.86857173778E+02  0.86857173778E+02  0.00000000000E+00 0.  1.
         -4   -1    0    0    0  501 -0.00000000000E+00 -0.00000000000E+00 -0.18383518934E+04  0.18383518934E+04  0.00000000000E+00 0. -1.
        -13    1    1    2    0    0 -0.12214206277E+03 -0.27588408272E+03 -0.69235743903E+03  0.75524138203E+03  0.10566000000E+00 0.  1.
         13    1    1    2    0    0  0.10759562181E+03  0.26998802590E+03 -0.10938863320E+04  0.11318381821E+04  0.10566000000E+00 0. -1.
         -4    1    1    2    0  502  0.14546440959E+02  0.58960568175E+01  0.34749051394E+02  0.38129503057E+02  0.00000000000E+00 0. -1.
</event>
<event>
 5    1  0.7625606E-005  0.8632988E+02  0.7818608E-02  0.1189398E+00
         -4   -1    0    0    0  501 -0.00000000000E+00  0.00000000000E+00  0.88924954076E+02  0.88924954076E+02  0.00000000000E+00 0. -1.
         21   -1    0    0  501  502  0.00000000000E+00 -0.00000000000E+00 -0.36194241270E+03  0.36194241270E+03  0.00000000000E+00 0. -1.
        -13    1    1    2    0    0  0.96183740376E+00  0.81646546072E+02 -0.12290984530E+02  0.82572168928E+02  0.10566000000E+00 0.  1.
         13    1    1    2    0    0  0.33888276034E+02 -0.87003661505E+02  0.11247147425E+02  0.94045530766E+02  0.10566000000E+00 0. -1.
         -4    1    1    2    0  502 -0.34850113438E+02  0.53571154328E+01 -0.27197362152E+03  0.27424966708E+03  0.00000000000E+00 0. -1.
</event>
<event>
 5    1  0.7625606E-005  0.2573402E+03  0.7818608E-02  0.1056004E+00
         21   -1    0    0  501  502  0.00000000000E+00  0.00000000000E+00  0.33056235892E+03  0.33056235892E+03  0.00000000000E+00 0. -1.
         -4   -1    0    0    0  501 -0.00000000000E+00 -0.00000000000E+00 -0.80988238912E+03  0.80988238912E+03  0.00000000000E+00 0. -1.
        -13    1    1    2    0    0  0.96703698277E+02 -0.43320390490E+02 -0.23453661535E+03  0.25736296664E+03  0.10566000000E+00 0.  1.
         13    1    1    2    0    0  0.50768039418E+02 -0.17879980730E+03 -0.48799783235E+03  0.52219599812E+03  0.10566000000E+00 0. -1.
         -4    1    1    2    0  502 -0.14747173770E+03  0.22212019779E+03  0.24321441750E+03  0.36088578327E+03  0.00000000000E+00 0. -1.
</event>
<event>
 5    1  0.7625606E-005  0.3392130E+03  0.7818608E-02  0.9923197E-01
         21   -1    0    0  501  502  0.00000000000E+00  0.00000000000E+00  0.36937749616E+03  0.36937749616E+03  0.00000000000E+00 0. -1.
         -4   -1    0    0    0  501 -0.00000000000E+00 -0.00000000000E+00 -0.83944098817E+03  0.83944098817E+03  0.00000000000E+00 0. -1.
        -13    1    1    2    0    0 -0.24355302703E+03 -0.44836878945E+02 -0.41942389653E+02  0.25117244654E+03  0.10566000000E+00 0.  1.
         13    1    1    2    0    0  0.38355933040E+03  0.62618436982E+02 -0.61253668865E+03  0.72542403785E+03  0.10566000000E+00 0. -1.
         -4    1    1    2    0  502 -0.14000630337E+03 -0.17781558037E+02  0.18441558629E+03  0.23222199994E+03  0.00000000000E+00 0. -1.
</event>
<event>
 5    1  0.7625606E-005  0.1283869E+03  0.7818608E-02  0.1128391E+00
         21   -1    0    0  501  502  0.00000000000E+00  0.00000000000E+00  0.19686597020E+03  0.19686597020E+03  0.00000000000E+00 0.  1.
          4   -1    0    0  502    0 -0.00000000000E+00 -0.00000000000E+00 -0.94488600944E+03  0.94488600944E+03  0.00000000000E+00 0.  1.
        -13    1    1    2    0    0 -0.21202490412E+03  0.75355590751E+02 -0.76098940402E+03  0.79356027447E+03  0.10566000000E+00 0.  1.
         13    1    1    2    0    0  0.11631530611E+03  0.61410693390E+01 -0.11859418656E+03  0.16622742077E+03  0.10566000000E+00 0. -1.
          4    1    1    2  501    0  0.95709598012E+02 -0.81496660090E+02  0.13156355133E+03  0.18196428440E+03  0.00000000000E+00 0.  1.
</event>
<event>
 5    1  0.7625606E-005  0.4737402E+03  0.7818608E-02  0.9657603E-01
         -4   -1    0    0    0  501 -0.00000000000E+00  0.00000000000E+00  0.17084769529E+04  0.17084769529E+04  0.00000000000E+00 0. -1.
         21   -1    0    0  501  502  0.00000000000E+00 -0.00000000000E+00 -0.26697967681E+03  0.26697967681E+03  0.00000000000E+00 0. -1.
        -13    1    1    2    0    0  0.14771001171E+03  0.27130625151E+03  0.44459489497E+03  0.54137783614E+03  0.10566000000E+00 0.  1.
         13    1    1    2    0    0 -0.34417674020E+03  0.23004289944E+03  0.71520580570E+03  0.82637565293E+03  0.10566000000E+00 0. -1.
         -4    1    1    2    0  502  0.19646672849E+03 -0.50134915096E+03  0.28169657547E+03  0.60770314068E+03  0.00000000000E+00 0. -1.
</event>
<event>
 5    1  0.7625606E-005  0.4115111E+02  0.7818608E-02  0.1332704E+00
         21   -1    0    0  501  502  0.00000000000E+00  0.00000000000E+00  0.58537722884E+02  0.58537722884E+02  0.00000000000E+00 0.  1.
         -4   -1    0    0    0  501 -0.00000000000E+00 -0.00000000000E+00 -0.93644097809E+02  0.93644097809E+02  0.00000000000E+00 0. -1.
        -13    1    1    2    0    0 -0.53008291013E+01 -0.38863846388E+02 -0.14022261162E+02  0.41654919486E+02  0.10566000000E+00 0.  1.
         13    1    1    2    0    0  0.37662910688E+02  0.29332608249E+02 -0.47753175209E+02  0.67522393728E+02  0.10566000000E+00 0. -1.
         -4    1    1    2    0  502 -0.32362081586E+02  0.95312381394E+01  0.26669061446E+02  0.43004507479E+02  0.00000000000E+00 0. -1.
</event>
<event>
 5    1  0.7625606E-005  0.5293791E+02  0.7818608E-02  0.1280268E+00
         -4   -1    0    0    0  501 -0.00000000000E+00  0.00000000000E+00  0.13706116429E+03  0.13706116429E+03  0.00000000000E+00 0. -1.
         21   -1    0    0  501  502  0.00000000000E+00 -0.00000000000E+00 -0.41867475407E+02  0.41867475407E+02  0.00000000000E+00 0.  1.
        -13    1    1    2    0    0 -0.47736639029E+02 -0.44886317474E+02  0.45521935545E+02  0.79786126500E+02  0.10566000000E+00 0.  1.
         13    1    1    2    0    0  0.39709520639E+02  0.25536803032E+02  0.59539382556E+02  0.75986338099E+02  0.10566000000E+00 0. -1.
         -4    1    1    2    0  502  0.80271183899E+01  0.19349514442E+02 -0.98676292183E+01  0.23156175098E+02  0.00000000000E+00 0. -1.
</event>
<event>
 5    1  0.7625606E-005  0.4527459E+03  0.7818608E-02  0.9763784E-01
          4   -1    0    0  502    0 -0.00000000000E+00  0.00000000000E+00  0.22506630385E+03  0.22506630385E+03  0.00000000000E+00 0.  1.
         21   -1    0    0  501  502  0.00000000000E+00 -0.00000000000E+00 -0.19865582593E+04  0.19865582593E+04  0.00000000000E+00 0.  1.
        -13    1    1    2    0    0  0.27425952684E+03  0.44619133052E+03 -0.95573650784E+03  0.10898335997E+04  0.10566000000E+00 0.  1.
         13    1    1    2    0    0 -0.20412045172E+03 -0.13493813861E+03 -0.76129242496E+03  0.79964969051E+03  0.10566000000E+00 0. -1.
          4    1    1    2  501    0 -0.70139075113E+02 -0.31125319191E+03 -0.44463022624E+02  0.32214127291E+03  0.00000000000E+00 0.  1.
</event>
<event>
 5    1  0.7625606E-005  0.2453005E+03  0.7818608E-02  0.1032857E+00
         21   -1    0    0  501  502  0.00000000000E+00  0.00000000000E+00  0.14750465712E+03  0.14750465712E+03  0.00000000000E+00 0. -1.
         -4   -1    0    0    0  501 -0.00000000000E+00 -0.00000000000E+00 -0.75511970922E+03  0.75511970922E+03  0.00000000000E+00 0. -1.
        -13    1    1    2    0    0  0.20029673555E+03  0.54024482041E+02 -0.18628850348E+03  0.27882045231E+03  0.10566000000E+00 0.  1.
         13    1    1    2    0    0 -0.27722174333E+03 -0.28666773237E+02 -0.45701683884E+03  0.53529251910E+03  0.10566000000E+00 0. -1.
         -4    1    1    2    0  502  0.76925007778E+02 -0.25357708804E+02  0.35690290224E+02  0.88511394937E+02  0.00000000000E+00 0. -1.
</event>
<event>
 5    1  0.7625606E-005  0.4199454E+02  0.7818608E-02  0.1328322E+00
         21   -1    0    0  501  502  0.00000000000E+00  0.00000000000E+00  0.88269805683E+03  0.88269805683E+03  0.00000000000E+00 0. -1.
         -4   -1    0    0    0  501 -0.00000000000E+00 -0.00000000000E+00 -0.99292629517E+01  0.99292629517E+01  0.00000000000E+00 0. -1.
        -13    1    1    2    0    0 -0.36471142394E+02  0.19504875215E+02  0.15893465732E+03  0.16422795391E+03  0.10566000000E+00 0.  1.
         13    1    1    2    0    0  0.43144700072E+02 -0.33632990570E+01  0.58166774242E+02  0.72499391133E+02  0.10566000000E+00 0. -1.
         -4    1    1    2    0  502 -0.66735576782E+01 -0.16141576158E+02  0.65566736232E+03  0.65589997474E+03  0.00000000000E+00 0. -1.
</event>
<event>
 5    1  0.7625606E-005  0.3359546E+03  0.7818608E-02  0.1032576E+00
         21   -1    0    0  501  502  0.00000000000E+00  0.00000000000E+00  0.81556717747E+03  0.81556717747E+03  0.00000000000E+00 0.  1.
          4   -1    0    0  502    0 -0.00000000000E+00 -0.00000000000E+00 -0.36757808391E+03  0.36757808391E+03  0.00000000000E+00 0.  1.
        -13    1    1    2    0    0  0.97259683652E+02  0.30276120084E+03  0.10057449178E+03  0.33352515701E+03  0.10566000000E+00 0.  1.
         13    1    1    2    0    0  0.95393540393E+02 -0.13302906011E+02 -0.18798338073E+03  0.21122182049E+03  0.10566000000E+00 0. -1.
          4    1    1    2  501    0 -0.19265322405E+03 -0.28945829483E+03  0.53539798251E+03  0.63839828388E+03  0.00000000000E+00 0.  1.
</event>
<event>
 5    1  0.7625606E-005  0.4847043E+03  0.7818608E-02  0.9602100E-01
         21   -1    0    0  501  502  0.00000000000E+00  0.00000000000E+00  0.55910757026E+03  0.55910757026E+03  0.00000000000E+00 0. -1.
         -4   -1    0    0    0  501 -0.00000000000E+00 -0.00000000000E+00 -0.10230194891E+04  0.10230194891E+04  0.00000000000E+00 0. -1.
        -13    1    1    2    0    0  0.13174796427E+03 -0.32526618384E+03 -0.40969242654E+03  0.53944741353E+03  0.10566000000E+00 0.  1.
         13    1    1    2    0    0 -0.53964696073E+03  0.46575819655E+02 -0.82291398814E+02  0.54786862904E+03  0.10566000000E+00 0. -1.
         -4    1    1    2    0  502  0.40789899646E+03  0.27869036418E+03  0.28071906506E+02  0.49481101679E+03  0.00000000000E+00 0. -1.
</event>
<event>
 5    1  0.1350178E-004  0.2227639E+03  0.7818608E-02  0.1117224E+00
         -4   -1    0    0    0  501 -0.00000000000E+00  0.00000000000E+00  0.27231054075E+03  0.27231054075E+03  0.00000000000E+00 0. -1.
         21   -1    0    0  501  502  0.00000000000E+00 -0.00000000000E+00 -0.10084455573E+04  0.10084455573E+04  0.00000000000E+00 0. -1.
        -13    1    1    2    0    0  0.68819620559E+01  0.29007273260E+02  0.42565553596E+01  0.30114991803E+02  0.10566000000E+00 0.  1.
         13    1    1    2    0    0 -0.18727550751E+03  0.10269477441E+03  0.19484276771E+03  0.28910559956E+03  0.10566000000E+00 0. -1.
         -4    1    1    2    0  502  0.18039354545E+03 -0.13170204767E+03 -0.93523433960E+03  0.96153550666E+03  0.00000000000E+00 0. -1.
</event>
<event>
 5    1  0.7625606E-005  0.7636398E+02  0.7818608E-02  0.1211748E+00
         21   -1    0    0  501  502  0.00000000000E+00  0.00000000000E+00  0.25696659892E+03  0.25696659892E+03  0.00000000000E+00 0. -1.
         -4   -1    0    0    0  501 -0.00000000000E+00 -0.00000000000E+00 -0.16925180705E+03  0.16925180705E+03  0.00000000000E+00 0. -1.
        -13    1    1    2    0    0 -0.38438271570E+02  0.66511832581E+02 -0.58966678786E+02  0.96842165226E+02  0.10566000000E+00 0.  1.
         13    1    1    2    0    0  0.91979734914E+02 -0.12062138270E+02 -0.59024716388E+02  0.10995314967E+03  0.10566000000E+00 0. -1.
         -4    1    1    2    0  502 -0.53541463344E+02 -0.54449694312E+02  0.20570618704E+03  0.21942309107E+03  0.00000000000E+00 0. -1.
</event>
<event>
 5    1  0.7625606E-005  0.4924226E+03  0.7818608E-02  0.9836420E-01
          4   -1    0    0  502    0 -0.00000000000E+00  0.00000000000E+00  0.53440347353E+03  0.53440347353E+03  0.00000000000E+00 0.  1.
         21   -1    0    0  501  502  0.00000000000E+00 -0.00000000000E+00 -0.64209857573E+03  0.64209857573E+03  0.00000000000E+00 0.  1.
        -13    1    1    2    0    0 -0.30329062857E+03 -0.28873446517E+03  0.16377690016E+02  0.41907163665E+03  0.10566000000E+00 0.  1.
         13    1    1    2    0    0 -0.13536289082E+03 -0.60857110258E+02  0.69723658489E+02  0.16397591225E+03  0.10566000000E+00 0. -1.
          4    1    1    2  501    0  0.43865351939E+03  0.34959157543E+03 -0.19379645071E+03  0.59345450035E+03  0.00000000000E+00 0.  1.
</event>
<event>
 5    1  0.7625606E-005  0.4596237E+03  0.7818608E-02  0.9571150E-01
         21   -1    0    0  501  502  0.00000000000E+00  0.00000000000E+00  0.28374619035E+03  0.28374619035E+03  0.00000000000E+00 0.  1.
         -4   -1    0    0    0  501 -0.00000000000E+00 -0.00000000000E+00 -0.30865029210E+04  0.30865029210E+04  0.00000000000E+00 0. -1.
        -13    1    1    2    0    0  0.57331940851E+03 -0.33075297854E+03 -0.98288643782E+03  0.11849719144E+04  0.10566000000E+00 0.  1.
         13    1    1    2    0    0 -0.42643659586E+03 -0.12229460751E+02 -0.17555769583E+04  0.18066677053E+04  0.10566000000E+00 0. -1.
         -4    1    1    2    0  502 -0.14688281265E+03  0.34298243929E+03 -0.64293334594E+02  0.37860949168E+03  0.00000000000E+00 0. -1.
</event>
<event>
 5    1  0.7625606E-005  0.3767073E+02  0.7818608E-02  0.1352132E+00
         -4   -1    0    0    0  501 -0.00000000000E+00  0.00000000000E+00  0.85479404557E+02  0.85479404557E+02  0.00000000000E+00 0. -1.
         21   -1    0    0  501  502  0.00000000000E+00 -0.00000000000E+00 -0.39548612792E+02  0.39548612792E+02  0.00000000000E+00 0. -1.
        -13    1    1    2    0    0 -0.26078566659E+02  0.26715849856E+02  0.33761272220E+02  0.50335503757E+02  0.10566000000E+00 0.  1.
         13    1    1    2    0    0  0.11283077579E+02 -0.41296230234E+02 -0.10362546663E+02  0.44046339333E+02  0.10566000000E+00 0. -1.
         -4    1    1    2    0  502  0.14795489080E+02  0.14580380379E+02  0.22532066208E+02  0.30646174259E+02  0.00000000000E+00 0. -1.
</event>
<event>
 5    1  0.7625606E-005  0.1574628E+03  0.7818608E-02  0.1093976E+00
         21   -1    0    0  501  502  0.00000000000E+00  0.00000000000E+00  0.55020908608E+02  0.55020908608E+02  0.00000000000E+00 0. -1.
         -4   -1    0    0    0  501 -0.00000000000E+00 -0.00000000000E+00 -0.69552247839E+03  0.69552247839E+03  0.00000000000E+00 0. -1.
        -13    1    1    2    0    0  0.91153077028E+02 -0.10852532443E+03 -0.18822093409E+03  0.23561358341E+03  0.10566000000E+00 0.  1.
         13    1    1    2    0    0 -0.15517915212E+03  0.87653728687E+02 -0.31179425522E+03  0.35913704091E+03  0.10566000000E+00 0. -1.
         -4    1    1    2    0  502  0.64026075095E+02  0.20871595748E+02 -0.14048638048E+03  0.15579276267E+03  0.00000000000E+00 0. -1.
</event>
<event>
 5    1  0.7625606E-005  0.2440891E+03  0.7818608E-02  0.1033502E+00
         21   -1    0    0  501  502  0.00000000000E+00  0.00000000000E+00  0.22473783076E+03  0.22473783076E+03  0.00000000000E+00 0. -1.
          4   -1    0    0  502    0 -0.00000000000E+00 -0.00000000000E+00 -0.56072274200E+03  0.56072274200E+03  0.00000000000E+00 0.  1.
        -13    1    1    2    0    0  0.23492353072E+03  0.68686744347E+02 -0.39425300880E+03  0.46404997602E+03  0.10566000000E+00 0.  1.
         13    1    1    2    0    0 -0.24005939006E+03 -0.39379052545E+02 -0.13578541836E+02  0.24364648263E+03  0.10566000000E+00 0. -1.
          4    1    1    2  501    0  0.51358593433E+01 -0.29307691802E+02  0.71846639394E+02  0.77764114102E+02  0.00000000000E+00 0.  1.
</event>
<event>
 5    1  0.7625606E-005  0.1817193E+03  0.7818608E-02  0.1073446E+00
          4   -1    0    0  502    0 -0.00000000000E+00  0.00000000000E+00  0.10447595858E+03  0.10447595858E+03  0.00000000000E+00 0.  1.
         21   -1    0    0  501  502  0.00000000000E+00 -0.00000000000E+00 -0.49537043676E+03  0.49537043676E+03  0.00000000000E+00 0. -1.
        -13    1    1    2    0    0 -0.17881105949E+03  0.12550906128E+02 -0.91498203115E+02  0.20125320514E+03  0.10566000000E+00 0.  1.
         13    1    1    2    0    0  0.18477244739E+03 -0.25277273924E+01 -0.12338528900E+03  0.22219628130E+03  0.10566000000E+00 0. -1.
          4    1    1    2  501    0 -0.59613878971E+01 -0.10023178736E+02 -0.17601098606E+03  0.17639690890E+03  0.00000000000E+00 0.  1.
</event>
<event>
 5    1  0.7625606E-005  0.4207818E+03  0.7818608E-02  0.1065542E+00
         -4   -1    0    0    0  501 -0.00000000000E+00  0.00000000000E+00  0.32986026582E+03  0.32986026582E+03  0.00000000000E+00 0. -1.
         21   -1    0    0  501  502  0.00000000000E+00 -0.00000000000E+00 -0.80030158488E+03  0.80030158488E+03  0.00000000000E+00 0. -1.
        -13    1    1    2    0    0 -0.17947256345E+02 -0.38560646301E+01 -0.28740938177E+01  0.18580764894E+02  0.10566000000E+00 0.  1.
         13    1    1    2    0    0  0.34323693242E+03 -0.25893602528E+03  0.64589162920E+02  0.43477721662E+03  0.10566000000E+00 0. -1.
         -4    1    1    2    0  502 -0.32528967607E+03  0.26279208991E+03 -0.53215638817E+03  0.67680386918E+03  0.00000000000E+00 0. -1.
</event>
<event>
 5    1  0.7625606E-005  0.4885712E+03  0.7818608E-02  0.9779157E-01
          4   -1    0    0  502    0 -0.00000000000E+00  0.00000000000E+00  0.17076874105E+04  0.17076874105E+04  0.00000000000E+00 0.  1.
         21   -1    0    0  501  502  0.00000000000E+00 -0.00000000000E+00 -0.34990591649E+03  0.34990591649E+03  0.00000000000E+00 0.  1.
        -13    1    1    2    0    0 -0.43830370821E+03 -0.19936229029E+03  0.99393731619E+02  0.49166511821E+03  0.10566000000E+00 0.  1.
         13    1    1    2    0    0 -0.80650091244E+02  0.16616441876E+03  0.93608302215E+03  0.95413127335E+03  0.10566000000E+00 0. -1.
          4    1    1    2  501    0  0.51895379945E+03  0.33197871535E+02  0.32230474029E+03  0.61179693547E+03  0.00000000000E+00 0.  1.
</event>
<event>
 5    1  0.7625606E-005  0.2647696E+03  0.7818608E-02  0.1023011E+00
         -4   -1    0    0    0  501 -0.00000000000E+00  0.00000000000E+00  0.10762198017E+04  0.10762198017E+04  0.00000000000E+00 0. -1.
         21   -1    0    0  501  502  0.00000000000E+00 -0.00000000000E+00 -0.20845294059E+03  0.20845294059E+03  0.00000000000E+00 0.  1.
        -13    1    1    2    0    0  0.19292104244E+03 -0.13208005223E+03 -0.21283428482E+02  0.23476938536E+03  0.10566000000E+00 0.  1.
         13    1    1    2    0    0 -0.11221400646E+03  0.25112991729E+03  0.86033665876E+03  0.90323717603E+03  0.10566000000E+00 0. -1.
         -4    1    1    2    0  502 -0.80707035981E+02 -0.11904986506E+03  0.28713630854E+02  0.14666618092E+03  0.00000000000E+00 0. -1.
</event>
<event>
 5    1  0.7625606E-005  0.3430653E+03  0.7818608E-02  0.1019443E+00
         21   -1    0    0  501  502  0.00000000000E+00  0.00000000000E+00  0.14687667625E+03  0.14687667625E+03  0.00000000000E+00 0.  1.
          4   -1    0    0  502    0 -0.00000000000E+00 -0.00000000000E+00 -0.19712725341E+04  0.19712725341E+04  0.00000000000E+00 0.  1.
        -13    1    1    2    0    0 -0.10986227826E+03  0.44327273696E+03 -0.13540447291E+04  0.14289848071E+04  0.10566000000E+00 0.  1.
         13    1    1    2    0    0  0.25534473097E+02 -0.13374750016E+03 -0.29182586632E+03  0.32202911442E+03  0.10566000000E+00 0. -1.
          4    1    1    2  501    0  0.84327805159E+02 -0.30952523680E+03 -0.17852526241E+03  0.36713528876E+03  0.00000000000E+00 0.  1.
</event>
<event>
 5    1  0.7625606E-005  0.3309890E+03  0.7818608E-02  0.1003216E+00
         21   -1    0    0  501  502  0.00000000000E+00  0.00000000000E+00  0.15725495424E+03  0.15725495424E+03  0.00000000000E+00 0.  1.
          4   -1    0    0  502    0 -0.00000000000E+00 -0.00000000000E+00 -0.27642060176E+04  0.27642060176E+04  0.00000000000E+00 0.  1.
        -13    1    1    2    0    0  0.15614544617E+03 -0.35840186176E+03 -0.16608178630E+04  0.17062090376E+04  0.10566000000E+00 0.  1.
         13    1    1    2    0    0  0.14344221871E+03  0.21090237673E+03 -0.81923808018E+03  0.85802478158E+03  0.10566000000E+00 0. -1.
          4    1    1    2  501    0 -0.29958766488E+03  0.14749948503E+03 -0.12689512014E+03  0.35722715259E+03  0.00000000000E+00 0.  1.
</event>
<event>
 5    1  0.7625606E-005  0.4704461E+02  0.7818608E-02  0.1304313E+00
         21   -1    0    0  501  502  0.00000000000E+00  0.00000000000E+00  0.11676617711E+03  0.11676617711E+03  0.00000000000E+00 0.  1.
         -4   -1    0    0    0  501 -0.00000000000E+00 -0.00000000000E+00 -0.29354283869E+03  0.29354283869E+03  0.00000000000E+00 0. -1.
        -13    1    1    2    0    0  0.43311578150E+02 -0.16447543024E+02  0.53621427472E+02  0.70863835075E+02  0.10566000000E+00 0.  1.
         13    1    1    2    0    0 -0.45094131181E+02 -0.14557219258E+02 -0.27832829122E+03  0.28233321122E+03  0.10566000000E+00 0. -1.
         -4    1    1    2    0  502  0.17825530309E+01  0.31004762283E+02  0.47930202177E+02  0.57111969501E+02  0.00000000000E+00 0. -1.
</event>
<event>
 5    1  0.7625606E-005  0.3599434E+03  0.7818608E-02  0.9968589E-01
         21   -1    0    0  501  502  0.00000000000E+00  0.00000000000E+00  0.22394805249E+03  0.22394805249E+03  0.00000000000E+00 0.  1.
          4   -1    0    0  502    0 -0.00000000000E+00 -0.00000000000E+00 -0.19083657733E+04  0.19083657733E+04  0.00000000000E+00 0.  1.
        -13    1    1    2    0    0  0.56267296358E+03 -0.29392188863E+02 -0.12153937090E+04  0.13396442228E+04  0.10566000000E+00 0.  1.
         13    1    1    2    0    0 -0.24189822793E+03 -0.33892581663E+02 -0.38354978408E+03  0.45472399079E+03  0.10566000000E+00 0. -1.
          4    1    1    2  501    0 -0.32077473565E+03  0.63284770526E+02 -0.85474227791E+02  0.33794561223E+03  0.00000000000E+00 0.  1.
</event>
<event>
 5    1  0.7625606E-005  0.6338554E+03  0.7818608E-02  0.9224884E-01
         21   -1    0    0  501  502  0.00000000000E+00  0.00000000000E+00  0.34423123411E+03  0.34423123411E+03  0.00000000000E+00 0.  1.
          4   -1    0    0  502    0 -0.00000000000E+00 -0.00000000000E+00 -0.22110886833E+04  0.22110886833E+04  0.00000000000E+00 0.  1.
        -13    1    1    2    0    0 -0.55181600213E+02 -0.72330575090E+03 -0.11233887033E+04  0.13372428381E+04  0.10566000000E+00 0.  1.
         13    1    1    2    0    0 -0.26273975893E+03  0.51276535921E+03 -0.51991411341E+03  0.77606133199E+03  0.10566000000E+00 0. -1.
          4    1    1    2  501    0  0.31792135915E+03  0.21054039169E+03 -0.22355463249E+03  0.44201574728E+03  0.00000000000E+00 0.  1.
</event>
<event>
 5    1  0.7625606E-005  0.1124160E+03  0.7818608E-02  0.1145503E+00
         21   -1    0    0  501  502  0.00000000000E+00  0.00000000000E+00  0.78360994798E+03  0.78360994798E+03  0.00000000000E+00 0. -1.
          4   -1    0    0  502    0 -0.00000000000E+00 -0.00000000000E+00 -0.12644283468E+03  0.12644283468E+03  0.00000000000E+00 0.  1.
        -13    1    1    2    0    0  0.10784287927E+03 -0.25588588010E+02 -0.86871222826E+02  0.14082429821E+03  0.10566000000E+00 0.  1.
         13    1    1    2    0    0 -0.12859582689E+03  0.38317247676E+02  0.35634354099E+03  0.38077004679E+03  0.10566000000E+00 0. -1.
          4    1    1    2  501    0  0.20752947619E+02 -0.12728659666E+02  0.38769479514E+03  0.38845843766E+03  0.00000000000E+00 0.  1.
</event>
<event>
 5    1  0.7625606E-005  0.2653275E+03  0.7818608E-02  0.1022742E+00
         21   -1    0    0  501  502  0.00000000000E+00  0.00000000000E+00  0.94989829733E+02  0.94989829733E+02  0.00000000000E+00 0. -1.
         -4   -1    0    0    0  501 -0.00000000000E+00 -0.00000000000E+00 -0.86456801363E+03  0.86456801363E+03  0.00000000000E+00 0. -1.
        -13    1    1    2    0    0  0.56240764250E+01 -0.27172614541E+03 -0.27732124528E+03  0.38829603729E+03  0.10566000000E+00 0.  1.
         13    1    1    2    0    0 -0.13768782922E+02  0.26122643692E+03 -0.49284000731E+03  0.55796067486E+03  0.10566000000E+00 0. -1.
         -4    1    1    2    0  502  0.81447064967E+01  0.10499708488E+02  0.58306868538E+00  0.13301131206E+02  0.00000000000E+00 0. -1.
</event>
<event>
 5    1  0.7625606E-005  0.3248885E+03  0.7818608E-02  0.9975308E-01
         21   -1    0    0  501  502  0.00000000000E+00  0.00000000000E+00  0.66935616117E+03  0.66935616117E+03  0.00000000000E+00 0.  1.
          4   -1    0    0  502    0 -0.00000000000E+00 -0.00000000000E+00 -0.11385522774E+04  0.11385522774E+04  0.00000000000E+00 0.  1.
        -13    1    1    2    0    0 -0.53369243359E+03  0.20980074876E+03  0.40040053813E+03  0.69940300968E+03  0.10566000000E+00 0.  1.
         13    1    1    2    0    0  0.31174113337E+03 -0.20024305672E+01 -0.68553069435E+03  0.75308624208E+03  0.10566000000E+00 0. -1.
          4    1    1    2  501    0  0.22195130022E+03 -0.20779831819E+03 -0.18406596001E+03  0.35541918681E+03  0.00000000000E+00 0.  1.
</event>
<event>
 5    1  0.7625606E-005  0.3491135E+03  0.7818608E-02  0.9888757E-01
         21   -1    0    0  501  502  0.00000000000E+00  0.00000000000E+00  0.18860919959E+03  0.18860919959E+03  0.00000000000E+00 0.  1.
         -4   -1    0    0    0  501 -0.00000000000E+00 -0.00000000000E+00 -0.25613192588E+04  0.25613192588E+04  0.00000000000E+00 0. -1.
        -13    1    1    2    0    0 -0.80384903311E+02 -0.30867208861E+03 -0.47612159693E+03  0.57308985089E+03  0.10566000000E+00 0.  1.
         13    1    1    2    0    0  0.13231945880E+03  0.41479389291E+03 -0.20518578033E+03  0.48131447972E+03  0.10566000000E+00 0. -1.
         -4    1    1    2    0  502 -0.51934555488E+02 -0.10612180430E+03 -0.16914026819E+04  0.16955241278E+04  0.00000000000E+00 0. -1.
</event>
<event>
 5    1  0.7625606E-005  0.4384351E+03  0.7818608E-02  0.9725275E-01
          4   -1    0    0  502    0 -0.00000000000E+00  0.00000000000E+00  0.32819605857E+04  0.32819605857E+04  0.00000000000E+00 0.  1.
         21   -1    0    0  501  502  0.00000000000E+00 -0.00000000000E+00 -0.14131318642E+03  0.14131318642E+03  0.00000000000E+00 0.  1.
        -13    1    1    2    0    0 -0.42059086947E+03  0.24750543043E+03  0.17145412810E+04  0.17826405787E+04  0.10566000000E+00 0.  1.
         13    1    1    2    0    0  0.25685275550E+03  0.16951693352E+03  0.89149400591E+03  0.94311765040E+03  0.10566000000E+00 0. -1.
          4    1    1    2  501    0  0.16373811397E+03 -0.41702236394E+03  0.53461211236E+03  0.69751554296E+03  0.00000000000E+00 0.  1.
</event>
<event>
 5    1  0.7625606E-005  0.3984844E+03  0.7818608E-02  0.9733433E-01
          4   -1    0    0  502    0 -0.00000000000E+00  0.00000000000E+00  0.29598199688E+04  0.29598199688E+04  0.00000000000E+00 0.  1.
         21   -1    0    0  501  502  0.00000000000E+00 -0.00000000000E+00 -0.65414888320E+03  0.65414888320E+03  0.00000000000E+00 0.  1.
        -13    1    1    2    0    0  0.10520515928E+03 -0.38708569918E+03  0.20396797800E+04  0.20787489218E+04  0.10566000000E+00 0.  1.
         13    1    1    2    0    0 -0.66756024046E+02  0.38818584514E+03  0.85688362651E+03  0.94307697335E+03  0.10566000000E+00 0. -1.
          4    1    1    2  501    0 -0.38449135234E+02 -0.11001459574E+01 -0.59089232092E+03  0.59214295677E+03  0.00000000000E+00 0.  1.
</event>
<event>
 5    1  0.7625606E-005  0.5190358E+03  0.7818608E-02  0.9437198E-01
         21   -1    0    0  501  502  0.00000000000E+00  0.00000000000E+00  0.71794265668E+03  0.71794265668E+03  0.00000000000E+00 0. -1.
          4   -1    0    0  502    0 -0.00000000000E+00 -0.00000000000E+00 -0.55653116987E+03  0.55653116987E+03  0.00000000000E+00 0.  1.
        -13    1    1    2    0    0  0.19424462209E+03 -0.47981152236E+03  0.51656802546E+02  0.52021006009E+03  0.10566000000E+00 0.  1.
         13    1    1    2    0    0 -0.16095371510E+03  0.49510833693E+03 -0.10947048111E+03  0.53199827171E+03  0.10566000000E+00 0. -1.
          4    1    1    2  501    0 -0.33290906986E+02 -0.15296814564E+02  0.21922516537E+03  0.22226549475E+03  0.00000000000E+00 0.  1.
</event>
<event>
 5    1  0.7625606E-005  0.2258613E+03  0.7818608E-02  0.1066338E+00
          4   -1    0    0  502    0 -0.00000000000E+00  0.00000000000E+00  0.14607877502E+04  0.14607877502E+04  0.00000000000E+00 0.  1.
         21   -1    0    0  501  502  0.00000000000E+00 -0.00000000000E+00 -0.13528155230E+03  0.13528155230E+03  0.00000000000E+00 0. -1.
        -13    1    1    2    0    0  0.89320421343E+02  0.20605635374E+03  0.11864461803E+04  0.12075147654E+04  0.10566000000E+00 0.  1.
         13    1    1    2    0    0  0.94585562758E+02 -0.67163859203E+02 -0.61355039872E+01  0.11616827553E+03  0.10566000000E+00 0. -1.
          4    1    1    2  501    0 -0.18390598410E+03 -0.13889249453E+03  0.14519552152E+03  0.27238626158E+03  0.00000000000E+00 0.  1.
</event>
<event>
 5    1  0.7625606E-005  0.3446726E+03  0.7818608E-02  0.9904053E-01
         21   -1    0    0  501  502  0.00000000000E+00  0.00000000000E+00  0.15078698876E+04  0.15078698876E+04  0.00000000000E+00 0.  1.
         -4   -1    0    0    0  501 -0.00000000000E+00 -0.00000000000E+00 -0.14921868915E+03  0.14921868915E+03  0.00000000000E+00 0. -1.
        -13    1    1    2    0    0 -0.32752743587E+03  0.10661775721E+03  0.98874846651E+03  0.10470267946E+04  0.10566000000E+00 0.  1.
         13    1    1    2    0    0  0.31058558205E+03 -0.15108367330E+03  0.13571814836E+03  0.37109177716E+03  0.10566000000E+00 0. -1.
         -4    1    1    2    0  502  0.16941853825E+02  0.44465916088E+02  0.23418458358E+03  0.23897000500E+03  0.00000000000E+00 0. -1.
</event>
<event>
 5    1  0.7625606E-005  0.4572991E+03  0.7818608E-02  0.9587204E-01
         -4   -1    0    0    0  501 -0.00000000000E+00  0.00000000000E+00  0.31041532440E+04  0.31041532440E+04  0.00000000000E+00 0. -1.
         21   -1    0    0  501  502  0.00000000000E+00 -0.00000000000E+00 -0.24645450981E+03  0.24645450981E+03  0.00000000000E+00 0. -1.
        -13    1    1    2    0    0 -0.43862484098E+03 -0.42220358604E+02  0.16656017595E+04  0.17229055523E+04  0.10566000000E+00 0.  1.
         13    1    1    2    0    0 -0.19542133554E+03  0.33968360425E+03  0.29998850524E+03  0.49352564657E+03  0.10566000000E+00 0. -1.
         -4    1    1    2    0  502  0.63404617652E+03 -0.29746324565E+03  0.89210846946E+03  0.11341765549E+04  0.00000000000E+00 0. -1.
</event>
<event>
 5    1  0.7625606E-005  0.1049824E+03  0.7818608E-02  0.1156565E+00
          4   -1    0    0  502    0 -0.00000000000E+00  0.00000000000E+00  0.10474488803E+03  0.10474488803E+03  0.00000000000E+00 0.  1.
         21   -1    0    0  501  502  0.00000000000E+00 -0.00000000000E+00 -0.31795347478E+03  0.31795347478E+03  0.00000000000E+00 0.  1.
        -13    1    1    2    0    0 -0.23319361508E+01 -0.11021371926E+03  0.22491852101E+01  0.11026137963E+03  0.10566000000E+00 0.  1.
         13    1    1    2    0    0  0.75273043774E+00  0.99957402668E+02 -0.32887914422E+01  0.10001438029E+03  0.10566000000E+00 0. -1.
          4    1    1    2  501    0  0.15792057131E+01  0.10256316595E+02 -0.21216898052E+03  0.21242260288E+03  0.00000000000E+00 0.  1.
</event>
<event>
 5    1  0.7625606E-005  0.4718565E+03  0.7818608E-02  0.9716853E-01
         21   -1    0    0  501  502  0.00000000000E+00  0.00000000000E+00  0.88437462388E+03  0.88437462388E+03  0.00000000000E+00 0.  1.
          4   -1    0    0  502    0 -0.00000000000E+00 -0.00000000000E+00 -0.56778426229E+03  0.56778426229E+03  0.00000000000E+00 0.  1.
        -13    1    1    2    0    0  0.28520445830E+03  0.48880533852E+03  0.57412225083E+03  0.80615669201E+03  0.10566000000E+00 0.  1.
         13    1    1    2    0    0 -0.16370401029E+03 -0.19446482610E+03 -0.19763488361E+03  0.32198622635E+03  0.10566000000E+00 0. -1.
          4    1    1    2  501    0 -0.12150044801E+03 -0.29434051242E+03 -0.59897005630E+02  0.32401596782E+03  0.00000000000E+00 0.  1.
</event>
<event>
 5    1  0.7625606E-005  0.3884910E+03  0.7818608E-02  0.9971512E-01
         21   -1    0    0  501  502  0.00000000000E+00  0.00000000000E+00  0.25686055927E+03  0.25686055927E+03  0.00000000000E+00 0. -1.
         -4   -1    0    0    0  501 -0.00000000000E+00 -0.00000000000E+00 -0.14940917957E+04  0.14940917957E+04  0.00000000000E+00 0. -1.
        -13    1    1    2    0    0  0.19073325076E+03  0.25345004575E+02 -0.35615439089E+03  0.40480551320E+03  0.10566000000E+00 0.  1.
         13    1    1    2    0    0 -0.40199924342E+03  0.12382835408E+03  0.74927430002E+01  0.42070536643E+03  0.10566000000E+00 0. -1.
         -4    1    1    2    0  502  0.21126599266E+03 -0.14917335866E+03 -0.88856958854E+03  0.92544147533E+03  0.00000000000E+00 0. -1.
</event>
<event>
 5    1  0.7625606E-005  0.3554265E+03  0.7818608E-02  0.1013895E+00
          4   -1    0    0  502    0 -0.00000000000E+00  0.00000000000E+00  0.19082257766E+04  0.19082257766E+04  0.00000000000E+00 0.  1.
         21   -1    0    0  501  502  0.00000000000E+00 -0.00000000000E+00 -0.20189123015E+03  0.20189123015E+03  0.00000000000E+00 0.  1.
        -13    1    1    2    0    0 -0.26916417516E+03  0.22044596735E+03  0.41912760089E+02  0.35043183122E+03  0.10566000000E+00 0.  1.
         13    1    1    2    0    0  0.50591423826E+02  0.13696159524E+03  0.55221198876E+03  0.57118828982E+03  0.10566000000E+00 0. -1.
          4    1    1    2  501    0  0.21857275134E+03 -0.35740756259E+03  0.11122097976E+04  0.11884968857E+04  0.00000000000E+00 0.  1.
</event>
<event>
 5    1  0.7625606E-005  0.3616514E+03  0.7818608E-02  0.1004934E+00
          4   -1    0    0  502    0 -0.00000000000E+00  0.00000000000E+00  0.74522062165E+03  0.74522062165E+03  0.00000000000E+00 0.  1.
         21   -1    0    0  501  502  0.00000000000E+00 -0.00000000000E+00 -0.46890477976E+03  0.46890477976E+03  0.00000000000E+00 0.  1.
        -13    1    1    2    0    0  0.33341389928E+03 -0.21367546354E+03  0.48357857890E+03  0.62503622702E+03  0.10566000000E+00 0.  1.
         13    1    1    2    0    0  0.27579267189E+02  0.18283948688E+03 -0.36157506858E+02  0.18840984690E+03  0.10566000000E+00 0. -1.
          4    1    1    2  501    0 -0.36099316647E+03  0.30835976659E+02 -0.17110523015E+03  0.40067932749E+03  0.00000000000E+00 0.  1.
</event>
<event>
 5    1  0.7625606E-005  0.3577981E+03  0.7818608E-02  0.9859532E-01
         -4   -1    0    0    0  501 -0.00000000000E+00  0.00000000000E+00  0.15649692068E+04  0.15649692068E+04  0.00000000000E+00 0. -1.
         21   -1    0    0  501  502  0.00000000000E+00 -0.00000000000E+00 -0.52545825490E+03  0.52545825490E+03  0.00000000000E+00 0.  1.
        -13    1    1    2    0    0 -0.18068920013E+01 -0.39141235158E+03  0.92999514472E+03  0.10090083618E+04  0.10566000000E+00 0.  1.
         13    1    1    2    0    0  0.22600744584E+03  0.27855991268E+03  0.50112167993E+03  0.61627748603E+03  0.10566000000E+00 0. -1.
         -4    1    1    2    0  502 -0.22420055384E+03  0.11285243890E+03 -0.39160587279E+03  0.46514161383E+03  0.00000000000E+00 0. -1.
</event>
<event>
 5    1  0.7625606E-005  0.2648332E+03  0.7818608E-02  0.1031272E+00
         21   -1    0    0  501  502  0.00000000000E+00  0.00000000000E+00  0.21482950125E+03  0.21482950125E+03  0.00000000000E+00 0.  1.
          4   -1    0    0  502    0 -0.00000000000E+00 -0.00000000000E+00 -0.17819917533E+04  0.17819917533E+04  0.00000000000E+00 0.  1.
        -13    1    1    2    0    0 -0.15629699062E+02  0.29289502098E+03 -0.12996735340E+04  0.13323599690E+04  0.10566000000E+00 0.  1.
         13    1    1    2    0    0 -0.17576254704E+03 -0.10487444853E+03 -0.33061302287E+03  0.38883943338E+03  0.10566000000E+00 0. -1.
          4    1    1    2  501    0  0.19139224610E+03 -0.18802057245E+03  0.63124304833E+02  0.27562185217E+03  0.00000000000E+00 0.  1.
</event>
<event>
 5    1  0.7625606E-005  0.1598629E+03  0.7818608E-02  0.1091772E+00
          4   -1    0    0  502    0 -0.00000000000E+00  0.00000000000E+00  0.23637215602E+03  0.23637215602E+03  0.00000000000E+00 0.  1.
         21   -1    0    0  501  502  0.00000000000E+00 -0.00000000000E+00 -0.23006734201E+03  0.23006734201E+03  0.00000000000E+00 0. -1.
        -13    1    1    2    0    0 -0.12044080759E+03 -0.10750072646E+03  0.15400739770E+03  0.22311585338E+03  0.10566000000E+00 0.  1.
         13    1    1    2    0    0  0.10602602258E+03  0.11240413047E+03 -0.80136878241E+02  0.17406359881E+03  0.10566000000E+00 0. -1.
          4    1    1    2  501    0  0.14414785005E+02 -0.49034040122E+01 -0.67565705445E+02  0.69260045842E+02  0.00000000000E+00 0.  1.
</event>
<event>
 5    1  0.7625606E-005  0.4966461E+03  0.7818608E-02  0.9792462E-01
         21   -1    0    0  501  502  0.00000000000E+00  0.00000000000E+00  0.22880637078E+03  0.22880637078E+03  0.00000000000E+00 0. -1.
         -4   -1    0    0    0  501 -0.00000000000E+00 -0.00000000000E+00 -0.20924859232E+04  0.20924859232E+04  0.00000000000E+00 0. -1.
        -13    1    1    2    0    0  0.22558157853E+02  0.16648754098E+03 -0.92492839865E+03  0.94006357528E+03  0.10566000000E+00 0.  1.
         13    1    1    2    0    0 -0.48651430885E+03  0.55964109099E+02 -0.54945316610E+03  0.73602102356E+03  0.10566000000E+00 0. -1.
         -4    1    1    2    0  502  0.46395615099E+03 -0.22245165008E+03 -0.38929798770E+03  0.64520769516E+03  0.00000000000E+00 0. -1.
</event>
<event>
 5    1  0.7625606E-005  0.2890860E+03  0.7818608E-02  0.1011915E+00
         -4   -1    0    0    0  501 -0.00000000000E+00  0.00000000000E+00  0.27237761617E+04  0.27237761617E+04  0.00000000000E+00 0. -1.
         21   -1    0    0  501  502  0.00000000000E+00 -0.00000000000E+00 -0.20364632412E+03  0.20364632412E+03  0.00000000000E+00 0. -1.
        -13    1    1    2    0    0  0.19202612872E+03  0.27248379586E+03  0.11930044723E+04  0.12387013907E+04  0.10566000000E+00 0.  1.
         13    1    1    2    0    0 -0.27071466414E+03 -0.90848651617E+02  0.14351045212E+04  0.14632378156E+04  0.10566000000E+00 0. -1.
         -4    1    1    2    0  502  0.78688535417E+02 -0.18163514424E+03 -0.10797915599E+03  0.22548327956E+03  0.00000000000E+00 0. -1.
</event>
<event>
 5    1  0.7625606E-005  0.1483017E+03  0.7818608E-02  0.1102799E+00
          4   -1    0    0  502    0 -0.00000000000E+00  0.00000000000E+00  0.13863586931E+03  0.13863586931E+03  0.00000000000E+00 0.  1.
         21   -1    0    0  501  502  0.00000000000E+00 -0.00000000000E+00 -0.33044447494E+03  0.33044447494E+03  0.00000000000E+00 0. -1.
        -13    1    1    2    0    0 -0.36257546054E+02 -0.12692787160E+03 -0.11944613388E+03  0.17802439242E+03  0.10566000000E+00 0.  1.
         13    1    1    2    0    0  0.76558665683E+02  0.13549469652E+03  0.48784011976E+02  0.16309485910E+03  0.10566000000E+00 0. -1.
          4    1    1    2  501    0 -0.40301119628E+02 -0.85668249142E+01 -0.12114648373E+03  0.12796109273E+03  0.00000000000E+00 0.  1.
</event>
<event>
 5    1  0.7625606E-005  0.6050633E+02  0.7818608E-02  0.1273927E+00
         -4   -1    0    0    0  501 -0.00000000000E+00  0.00000000000E+00  0.78028983307E+02  0.78028983307E+02  0.00000000000E+00 0. -1.
         21   -1    0    0  501  502  0.00000000000E+00 -0.00000000000E+00 -0.12915798505E+03  0.12915798505E+03  0.00000000000E+00 0. -1.
        -13    1    1    2    0    0 -0.21154090302E+02  0.34269235764E+02  0.21990011665E+01  0.40332652113E+02  0.10566000000E+00 0.  1.
         13    1    1    2    0    0  0.69974740386E+02  0.17030448307E+01  0.18941059600E+02  0.72513030254E+02  0.10566000000E+00 0. -1.
         -4    1    1    2    0  502 -0.48820650084E+02 -0.35972280594E+02 -0.72269062507E+02  0.94341285986E+02  0.00000000000E+00 0. -1.
</event>
<event>
 5    1  0.7625606E-005  0.4108824E+03  0.7818608E-02  0.9698132E-01
         -4   -1    0    0    0  501 -0.00000000000E+00  0.00000000000E+00  0.16243199080E+04  0.16243199080E+04  0.00000000000E+00 0. -1.
         21   -1    0    0  501  502  0.00000000000E+00 -0.00000000000E+00 -0.36631887836E+03  0.36631887836E+03  0.00000000000E+00 0. -1.
        -13    1    1    2    0    0 -0.76317547343E+02  0.41838974634E+03  0.59146843058E+03  0.72849795018E+03  0.10566000000E+00 0.  1.
         13    1    1    2    0    0  0.36969344633E+03 -0.26938031578E+03  0.78820157908E+03  0.91131813282E+03  0.10566000000E+00 0. -1.
         -4    1    1    2    0  502 -0.29337589898E+03 -0.14900943056E+03 -0.12166898001E+03  0.35082270337E+03  0.00000000000E+00 0. -1.
</event>
<event>
 5    1  0.7625606E-005  0.2349151E+03  0.7818608E-02  0.1038521E+00
          4   -1    0    0  502    0 -0.00000000000E+00  0.00000000000E+00  0.74141918529E+03  0.74141918529E+03  0.00000000000E+00 0.  1.
         21   -1    0    0  501  502  0.00000000000E+00 -0.00000000000E+00 -0.17110259139E+03  0.17110259139E+03  0.00000000000E+00 0.  1.
        -13    1    1    2    0    0  0.20912438695E+03  0.12115316322E+03  0.54283208746E+03  0.59420348747E+03  0.10566000000E+00 0.  1.
         13    1    1    2    0    0 -0.17266841500E+03 -0.13260379592E+03  0.97505953392E+02  0.23854888460E+03  0.10566000000E+00 0. -1.
          4    1    1    2  501    0 -0.36455971946E+02  0.11450632708E+02 -0.70021446953E+02  0.79769404619E+02  0.00000000000E+00 0.  1.
</event>
<event>
 5    1  0.7625606E-005  0.5018736E+03  0.7818608E-02  0.9796227E-01
         21   -1    0    0  501  502  0.00000000000E+00  0.00000000000E+00  0.49155455111E+03  0.49155455111E+03  0.00000000000E+00 0.  1.
          4   -1    0    0  502    0 -0.00000000000E+00 -0.00000000000E+00 -0.90595072917E+03  0.90595072917E+03  0.00000000000E+00 0.  1.
        -13    1    1    2    0    0 -0.11374816098E+03 -0.40278136029E+03 -0.12987056973E+03  0.43822122766E+03  0.10566000000E+00 0.  1.
         13    1    1    2    0    0 -0.56083607517E+02 -0.15063020389E+03 -0.34166726488E+03  0.37758622910E+03  0.10566000000E+00 0. -1.
          4    1    1    2  501    0  0.16983176849E+03  0.55341156418E+03  0.57141656552E+02  0.58169782351E+03  0.00000000000E+00 0.  1.
</event>
<event>
 5    1  0.7625606E-005  0.2182999E+03  0.7818608E-02  0.1062964E+00
          4   -1    0    0  502    0 -0.00000000000E+00  0.00000000000E+00  0.97621047712E+03  0.97621047712E+03  0.00000000000E+00 0.  1.
         21   -1    0    0  501  502  0.00000000000E+00 -0.00000000000E+00 -0.47783027671E+03  0.47783027671E+03  0.00000000000E+00 0.  1.
        -13    1    1    2    0    0 -0.30000235853E+03 -0.29403656547E+02  0.47213871049E+03  0.56016155103E+03  0.10566000000E+00 0.  1.
         13    1    1    2    0    0  0.97533623705E+02  0.10272589390E+03  0.42100893213E+03  0.44420034796E+03  0.10566000000E+00 0. -1.
          4    1    1    2  501    0  0.20246873482E+03 -0.73322237354E+02 -0.39476744220E+03  0.44967885485E+03  0.00000000000E+00 0.  1.
</event>
<event>
 5    1  0.7625606E-005  0.8536958E+02  0.7818608E-02  0.1239537E+00
          4   -1    0    0  502    0 -0.00000000000E+00  0.00000000000E+00  0.22389160527E+03  0.22389160527E+03  0.00000000000E+00 0.  1.
         21   -1    0    0  501  502  0.00000000000E+00 -0.00000000000E+00 -0.59240370593E+02  0.59240370593E+02  0.00000000000E+00 0.  1.
        -13    1    1    2    0    0  0.43921919168E+02 -0.62781686525E+02  0.10805719325E+03  0.13246525327E+03  0.10566000000E+00 0.  1.
         13    1    1    2    0    0  0.29012773049E+02  0.39482005831E+01 -0.14850800570E+02  0.32831185319E+02  0.10566000000E+00 0. -1.
          4    1    1    2  501    0 -0.72934692217E+02  0.58833485942E+02  0.71444841996E+02  0.11783553727E+03  0.00000000000E+00 0.  1.
</event>
<event>
 5    1  0.7625606E-005  0.1232103E+03  0.7818608E-02  0.1131010E+00
         21   -1    0    0  501  502  0.00000000000E+00  0.00000000000E+00  0.36086356010E+03  0.36086356010E+03  0.00000000000E+00 0.  1.
          4   -1    0    0  502    0 -0.00000000000E+00 -0.00000000000E+00 -0.71179553902E+02  0.71179553902E+02  0.00000000000E+00 0.  1.
        -13    1    1    2    0    0  0.85260293576E+02  0.99693448463E+02  0.49818795568E+02  0.14032114909E+03  0.10566000000E+00 0.  1.
         13    1    1    2    0    0 -0.97728828582E+02 -0.59619370025E+02  0.12535202936E+03  0.16976022987E+03  0.10566000000E+00 0. -1.
          4    1    1    2  501    0  0.12468535006E+02 -0.40074078438E+02  0.11451318127E+03  0.12196173503E+03  0.00000000000E+00 0.  1.
</event>
<event>
 5    1  0.7625606E-005  0.6455825E+03  0.7818608E-02  0.9243636E-01
         -4   -1    0    0    0  501 -0.00000000000E+00  0.00000000000E+00  0.17009766600E+04  0.17009766600E+04  0.00000000000E+00 0. -1.
         21   -1    0    0  501  502  0.00000000000E+00 -0.00000000000E+00 -0.64424851932E+03  0.64424851932E+03  0.00000000000E+00 0. -1.
        -13    1    1    2    0    0 -0.68730863152E+03 -0.98117724503E+02  0.41965462324E+03  0.81125227691E+03  0.10566000000E+00 0.  1.
         13    1    1    2    0    0 -0.11652681402E+03  0.47517995066E+03  0.34734410893E+03  0.60001868726E+03  0.10566000000E+00 0. -1.
         -4    1    1    2    0  502  0.80383544554E+03 -0.37706222615E+03  0.28972940854E+03  0.93395421519E+03  0.00000000000E+00 0. -1.
</event>
<event>
 5    1  0.7625606E-005  0.1461603E+03  0.7818608E-02  0.1104961E+00
          4   -1    0    0  502    0 -0.00000000000E+00  0.00000000000E+00  0.11234836691E+03  0.11234836691E+03  0.00000000000E+00 0.  1.
         21   -1    0    0  501  502  0.00000000000E+00 -0.00000000000E+00 -0.38895615275E+03  0.38895615275E+03  0.00000000000E+00 0. -1.
        -13    1    1    2    0    0 -0.16074065284E+02 -0.14022922100E+03  0.19654656241E+02  0.14250939153E+03  0.10566000000E+00 0.  1.
         13    1    1    2    0    0  0.16007395872E+02  0.16392751905E+03 -0.19719480503E+03  0.25693242404E+03  0.10566000000E+00 0. -1.
          4    1    1    2  501    0  0.66669412354E-01 -0.23698298053E+02 -0.99067637045E+02  0.10186270409E+03  0.00000000000E+00 0.  1.
</event>
<event>
 5    1  0.7625606E-005  0.4319107E+02  0.7818608E-02  0.1322301E+00
         -4   -1    0    0    0  501 -0.00000000000E+00  0.00000000000E+00  0.82467340032E+02  0.82467340032E+02  0.00000000000E+00 0. -1.
         21   -1    0    0  501  502  0.00000000000E+00 -0.00000000000E+00 -0.39903307318E+02  0.39903307318E+02  0.00000000000E+00 0. -1.
        -13    1    1    2    0    0  0.34077825786E+02 -0.45983262055E+01  0.40421751938E+01  0.34623592513E+02  0.10566000000E+00 0.  1.
         13    1    1    2    0    0 -0.49077825136E+02  0.22227730673E+01  0.48928466025E+02  0.69336711717E+02  0.10566000000E+00 0. -1.
         -4    1    1    2    0  502  0.14999999350E+02  0.23755531381E+01 -0.10406608504E+02  0.18410343119E+02  0.00000000000E+00 0. -1.
</event>
<event>
 5    1  0.7625606E-005  0.3891972E+03  0.7818608E-02  0.9760773E-01
         -4   -1    0    0    0  501 -0.00000000000E+00  0.00000000000E+00  0.27374887566E+04  0.27374887566E+04  0.00000000000E+00 0. -1.
         21   -1    0    0  501  502  0.00000000000E+00 -0.00000000000E+00 -0.13834539614E+03  0.13834539614E+03  0.00000000000E+00 0. -1.
        -13    1    1    2    0    0  0.37474018180E+03 -0.10645597517E+02  0.15623087303E+04  0.16066586795E+04  0.10566000000E+00 0.  1.
         13    1    1    2    0    0 -0.41295455968E+03  0.13516529444E+02  0.11111931286E+04  0.11855228151E+04  0.10566000000E+00 0. -1.
         -4    1    1    2    0  502  0.38214377886E+02 -0.28709319270E+01 -0.74358498401E+02  0.83652658127E+02  0.00000000000E+00 0. -1.
</event>
<event>
 5    1  0.7625606E-005  0.5608732E+03  0.7818608E-02  0.9353681E-01
         21   -1    0    0  501  502  0.00000000000E+00  0.00000000000E+00  0.18585332229E+03  0.18585332229E+03  0.00000000000E+00 0.  1.
         -4   -1    0    0    0  501 -0.00000000000E+00 -0.00000000000E+00 -0.22418878789E+04  0.22418878789E+04  0.00000000000E+00 0. -1.
        -13    1    1    2    0    0  0.55123258890E+03 -0.15608616722E+03 -0.13259885400E+04  0.14444604107E+04  0.10566000000E+00 0.  1.
         13    1    1    2    0    0 -0.51858386378E+03  0.16217939279E+03 -0.76286639822E+03  0.93658770648E+03  0.10566000000E+00 0. -1.
         -4    1    1    2    0  502 -0.32648725118E+02 -0.60932255791E+01  0.32820381588E+02  0.46693084042E+02  0.00000000000E+00 0. -1.
</event>
<event>
 5    1  0.7625606E-005  0.4384490E+03  0.7818608E-02  0.9734542E-01
          4   -1    0    0  502    0 -0.00000000000E+00  0.00000000000E+00  0.20509337725E+04  0.20509337725E+04  0.00000000000E+00 0.  1.
         21   -1    0    0  501  502  0.00000000000E+00 -0.00000000000E+00 -0.26536079046E+03  0.26536079046E+03  0.00000000000E+00 0.  1.
        -13    1    1    2    0    0 -0.52331328249E+03  0.28645014103E+02  0.72544682527E+03  0.89495834312E+03  0.10566000000E+00 0.  1.
         13    1    1    2    0    0  0.15577530608E+03 -0.25404764573E+03  0.92143852054E+03  0.96842919751E+03  0.10566000000E+00 0. -1.
          4    1    1    2  501    0  0.36753797640E+03  0.22540263163E+03  0.13868763623E+03  0.45290702234E+03  0.00000000000E+00 0.  1.
</event>
<event>
 5    1  0.7625606E-005  0.3940890E+03  0.7818608E-02  0.9811250E-01
          4   -1    0    0  502    0 -0.00000000000E+00  0.00000000000E+00  0.17841499021E+04  0.17841499021E+04  0.00000000000E+00 0.  1.
         21   -1    0    0  501  502  0.00000000000E+00 -0.00000000000E+00 -0.50464072113E+03  0.50464072113E+03  0.00000000000E+00 0. -1.
        -13    1    1    2    0    0  0.25930017381E+03  0.18733406181E+03  0.13796508226E+04  0.14162510492E+04  0.10566000000E+00 0.  1.
         13    1    1    2    0    0 -0.40565452566E+03  0.17857105054E+03 -0.16541654701E+03  0.47308123982E+03  0.10566000000E+00 0. -1.
          4    1    1    2  501    0  0.14635435184E+03 -0.36590511236E+03  0.65274905442E+02  0.39945833429E+03  0.00000000000E+00 0.  1.
</event>
<event>
 5    1  0.7625606E-005  0.3780157E+03  0.7818608E-02  0.1024659E+00
         -4   -1    0    0    0  501 -0.00000000000E+00  0.00000000000E+00  0.14425027031E+04  0.14425027031E+04  0.00000000000E+00 0. -1.
         21   -1    0    0  501  502  0.00000000000E+00 -0.00000000000E+00 -0.21883792457E+03  0.21883792457E+03  0.00000000000E+00 0. -1.
        -13    1    1    2    0    0  0.19069299952E+02 -0.84277624408E+02  0.20065290864E+03  0.21846729065E+03  0.10566000000E+00 0.  1.
         13    1    1    2    0    0  0.30753437139E+03 -0.12547473908E+03  0.10003557796E+04  0.10540554998E+04  0.10566000000E+00 0. -1.
         -4    1    1    2    0  502 -0.32660367134E+03  0.20975236348E+03  0.22656090315E+02  0.38881783723E+03  0.00000000000E+00 0. -1.
</event>
<event>
 5    1  0.7625606E-005  0.4768751E+03  0.7818608E-02  0.1028777E+00
          4   -1    0    0  502    0 -0.00000000000E+00  0.00000000000E+00  0.54806015377E+03  0.54806015377E+03  0.00000000000E+00 0.  1.
         21   -1    0    0  501  502  0.00000000000E+00 -0.00000000000E+00 -0.74426399303E+03  0.74426399303E+03  0.00000000000E+00 0.  1.
        -13    1    1    2    0    0  0.46776779386E+03  0.83157610350E+02 -0.35721462387E+03  0.59441079718E+03  0.10566000000E+00 0.  1.
         13    1    1    2    0    0 -0.21594598592E+01  0.37804136362E+02  0.21089698070E+03  0.21426937165E+03  0.10566000000E+00 0. -1.
          4    1    1    2  501    0 -0.46560833400E+03 -0.12096174671E+03 -0.49886196083E+02  0.48364397797E+03  0.00000000000E+00 0.  1.
</event>
<event>
 5    1  0.7625606E-005  0.4372192E+03  0.7818608E-02  0.9713043E-01
         21   -1    0    0  501  502  0.00000000000E+00  0.00000000000E+00  0.25652515071E+03  0.25652515071E+03  0.00000000000E+00 0. -1.
         -4   -1    0    0    0  501 -0.00000000000E+00 -0.00000000000E+00 -0.28899899833E+04  0.28899899833E+04  0.00000000000E+00 0. -1.
        -13    1    1    2    0    0 -0.20466501998E+03 -0.25088553826E+03 -0.18651321824E+04  0.18930265166E+04  0.10566000000E+00 0.  1.
         13    1    1    2    0    0 -0.68734998902E+02 -0.33528818643E+03 -0.23513588673E+03  0.41524879822E+03  0.10566000000E+00 0. -1.
         -4    1    1    2    0  502  0.27340001889E+03  0.58617372469E+03 -0.53319676346E+03  0.83823981915E+03  0.00000000000E+00 0. -1.
</event>
<event>
 5    1  0.7625606E-005  0.6799626E+02  0.7818608E-02  0.1232085E+00
          4   -1    0    0  502    0 -0.00000000000E+00  0.00000000000E+00  0.36376089696E+03  0.36376089696E+03  0.00000000000E+00 0.  1.
         21   -1    0    0  501  502  0.00000000000E+00 -0.00000000000E+00 -0.74564013320E+02  0.74564013320E+02  0.00000000000E+00 0.  1.
        -13    1    1    2    0    0  0.56470438653E+02 -0.41907788323E+02  0.24601957662E+03  0.25587265663E+03  0.10566000000E+00 0.  1.
         13    1    1    2    0    0 -0.43257111836E+02  0.47781644520E+02  0.10267157619E+03  0.12122593369E+03  0.10566000000E+00 0. -1.
          4    1    1    2  501    0 -0.13213326817E+02 -0.58738561972E+01 -0.59494269172E+02  0.61226319965E+02  0.00000000000E+00 0.  1.
</event>
<event>
 5    1  0.7625606E-005  0.4861813E+03  0.7818608E-02  0.9925090E-01
         21   -1    0    0  501  502  0.00000000000E+00  0.00000000000E+00  0.21141536433E+03  0.21141536433E+03  0.00000000000E+00 0. -1.
         -4   -1    0    0    0  501 -0.00000000000E+00 -0.00000000000E+00 -0.18103060140E+04  0.18103060140E+04  0.00000000000E+00 0. -1.
        -13    1    1    2    0    0  0.88359701390E+02 -0.72800852345E+02 -0.55088079519E+03  0.56265181294E+03  0.10566000000E+00 0.  1.
         13    1    1    2    0    0 -0.48764192572E+03  0.19746616398E+03 -0.30967871307E+03  0.61048214562E+03  0.10566000000E+00 0. -1.
         -4    1    1    2    0  502  0.39928222433E+03 -0.12466531164E+03 -0.73833114137E+03  0.84858741972E+03  0.00000000000E+00 0. -1.
</event>
<event>
 5    1  0.7625606E-005  0.4809621E+03  0.7818608E-02  0.9747678E-01
         -4   -1    0    0    0  501 -0.00000000000E+00  0.00000000000E+00  0.93059177232E+03  0.93059177232E+03  0.00000000000E+00 0. -1.
         21   -1    0    0  501  502  0.00000000000E+00 -0.00000000000E+00 -0.42681368405E+03  0.42681368405E+03  0.00000000000E+00 0. -1.
        -13    1    1    2    0    0  0.59972509266E+02 -0.20724121343E+03  0.17859560528E+03  0.28007503245E+03  0.10566000000E+00 0.  1.
         13    1    1    2    0    0 -0.23859316100E+03 -0.30404702392E+03  0.36850342043E+03  0.53400942994E+03  0.10566000000E+00 0. -1.
         -4    1    1    2    0  502  0.17862065173E+03  0.51128823735E+03 -0.43320937440E+02  0.54332099398E+03  0.00000000000E+00 0. -1.
</event>
<event>
 5    1  0.7625606E-005  0.6181595E+02  0.7818608E-02  0.1249992E+00
         21   -1    0    0  501  502  0.00000000000E+00  0.00000000000E+00  0.22245510279E+03  0.22245510279E+03  0.00000000000E+00 0. -1.
          4   -1    0    0  502    0 -0.00000000000E+00 -0.00000000000E+00 -0.14334042584E+03  0.14334042584E+03  0.00000000000E+00 0.  1.
        -13    1    1    2    0    0 -0.34379673362E+02 -0.51808228600E+02 -0.13142991495E+03  0.14539562648E+03  0.10566000000E+00 0.  1.
         13    1    1    2    0    0  0.23480590569E+02  0.46986969313E+02  0.18295805373E+03  0.19034908460E+03  0.10566000000E+00 0. -1.
          4    1    1    2  501    0  0.10899082793E+02  0.48212592866E+01  0.27586538180E+02  0.30050817552E+02  0.00000000000E+00 0.  1.
</event>
<event>
 5    1  0.7625606E-005  0.4974924E+03  0.7818608E-02  0.9684969E-01
          4   -1    0    0  502    0 -0.00000000000E+00  0.00000000000E+00  0.76629335068E+03  0.76629335068E+03  0.00000000000E+00 0.  1.
         21   -1    0    0  501  502  0.00000000000E+00 -0.00000000000E+00 -0.18112183957E+04  0.18112183957E+04  0.00000000000E+00 0.  1.
        -13    1    1    2    0    0  0.17621591670E+03 -0.42906586614E+03 -0.59736067464E+03  0.75629977757E+03  0.10566000000E+00 0.  1.
         13    1    1    2    0    0  0.23402062782E+03  0.63011755199E+02  0.59505026461E+03  0.64251145057E+03  0.10566000000E+00 0. -1.
          4    1    1    2  501    0 -0.41023654452E+03  0.36605411094E+03 -0.10426146350E+04  0.11787005182E+04  0.00000000000E+00 0.  1.
</event>
<event>
 5    1  0.7625606E-005  0.4315483E+03  0.7818608E-02  0.9938593E-01
         21   -1    0    0  501  502  0.00000000000E+00  0.00000000000E+00  0.18058246307E+04  0.18058246307E+04  0.00000000000E+00 0. -1.
         -4   -1    0    0    0  501 -0.00000000000E+00 -0.00000000000E+00 -0.20952641265E+03  0.20952641265E+03  0.00000000000E+00 0. -1.
        -13    1    1    2    0    0 -0.15146160526E+03 -0.39475288207E+02  0.11845517956E+03  0.19629201965E+03  0.10566000000E+00 0.  1.
         13    1    1    2    0    0 -0.19865342427E+03  0.37282070772E+03  0.11749415418E+04  0.12485776311E+04  0.10566000000E+00 0. -1.
         -4    1    1    2    0  502  0.35011502953E+03 -0.33334541951E+03  0.30290149667E+03  0.57048139259E+03  0.00000000000E+00 0. -1.
</event>
<event>
 5    1  0.7625606E-005  0.4560730E+03  0.7818608E-02  0.9876398E-01
         -4   -1    0    0    0  501 -0.00000000000E+00  0.00000000000E+00  0.82474801378E+03  0.82474801378E+03  0.00000000000E+00 0. -1.
         21   -1    0    0  501  502  0.00000000000E+00 -0.00000000000E+00 -0.37279273170E+03  0.37279273170E+03  0.00000000000E+00 0. -1.
        -13    1    1    2    0    0 -0.14237771078E+03 -0.79815843917E+02  0.12959769588E+02  0.16373743695E+03  0.10566000000E+00 0.  1.
         13    1    1    2    0    0 -0.17630124600E+03 -0.35527210663E+03  0.19089800302E+03  0.44016185410E+03  0.10566000000E+00 0. -1.
         -4    1    1    2    0  502  0.31867895678E+03  0.43508795054E+03  0.24809750947E+03  0.59364145442E+03  0.00000000000E+00 0. -1.
</event>
<event>
 5    1  0.7625606E-005  0.1432185E+03  0.7818608E-02  0.1107999E+00
         21   -1    0    0  501  502  0.00000000000E+00  0.00000000000E+00  0.77456425171E+03  0.77456425171E+03  0.00000000000E+00 0.  1.
         -4   -1    0    0    0  501 -0.00000000000E+00 -0.00000000000E+00 -0.44787704638E+02  0.44787704638E+02  0.00000000000E+00 0. -1.
        -13    1    1    2    0    0 -0.67179466765E+02  0.12769261778E+03  0.27025801170E+03  0.30636234992E+03  0.10566000000E+00 0.  1.
         13    1    1    2    0    0  0.28704058101E+02 -0.14203109180E+03  0.18291568816E+03  0.23335576729E+03  0.10566000000E+00 0. -1.
         -4    1    1    2    0  502  0.38475408665E+02  0.14338474016E+02  0.27660284721E+03  0.27963383914E+03  0.00000000000E+00 0. -1.
</event>
<event>
 5    1  0.7625606E-005  0.5017922E+03  0.7818608E-02  0.9474052E-01
         -4   -1    0    0    0  501 -0.00000000000E+00  0.00000000000E+00  0.25171205011E+04  0.25171205011E+04  0.00000000000E+00 0. -1.
         21   -1    0    0  501  502  0.00000000000E+00 -0.00000000000E+00 -0.36827177288E+03  0.36827177288E+03  0.00000000000E+00 0. -1.
        -13    1    1    2    0    0 -0.48356728127E+03 -0.26458465567E+03  0.14883389001E+04  0.15871342250E+04  0.10566000000E+00 0.  1.
         13    1    1    2    0    0  0.33779984906E+03 -0.14753429733E+03 -0.13335700661E+03  0.39199388935E+03  0.10566000000E+00 0. -1.
         -4    1    1    2    0  502  0.14576743221E+03  0.41211895301E+03  0.79386683479E+03  0.90626415967E+03  0.00000000000E+00 0. -1.
</event>
<event>
 5    1  0.7625606E-005  0.1711349E+03  0.7818608E-02  0.1081953E+00
          4   -1    0    0  502    0 -0.00000000000E+00  0.00000000000E+00  0.16420501741E+03  0.16420501741E+03  0.00000000000E+00 0.  1.
         21   -1    0    0  501  502  0.00000000000E+00 -0.00000000000E+00 -0.21231297460E+03  0.21231297460E+03  0.00000000000E+00 0. -1.
        -13    1    1    2    0    0 -0.14410021067E+03 -0.88604013882E+02  0.20216109062E+02  0.17036503227E+03  0.10566000000E+00 0.  1.
         13    1    1    2    0    0  0.13849678190E+03  0.10679296513E+03 -0.56695203957E+02  0.18384899596E+03  0.10566000000E+00 0. -1.
          4    1    1    2  501    0  0.56034287758E+01 -0.18188951253E+02 -0.11628862295E+02  0.22303963774E+02  0.00000000000E+00 0.  1.
</event>
<event>
 5    1  0.7625606E-005  0.6134130E+03  0.7818608E-02  0.9366176E-01
         21   -1    0    0  501  502  0.00000000000E+00  0.00000000000E+00  0.85293091540E+03  0.85293091540E+03  0.00000000000E+00 0. -1.
          4   -1    0    0  502    0 -0.00000000000E+00 -0.00000000000E+00 -0.12269009217E+04  0.12269009217E+04  0.00000000000E+00 0.  1.
        -13    1    1    2    0    0 -0.79600879088E+02  0.29782827444E+02 -0.48322716028E+03  0.49064428699E+03  0.10566000000E+00 0.  1.
         13    1    1    2    0    0 -0.63278687858E+03  0.40457115389E+03  0.50643778479E+02  0.75276945722E+03  0.10566000000E+00 0. -1.
          4    1    1    2  501    0  0.71238775766E+03 -0.43435398134E+03  0.58613375463E+02  0.83641809292E+03  0.00000000000E+00 0.  1.
</event>
<event>
 5    1  0.7625606E-005  0.3212923E+03  0.7818608E-02  0.9988843E-01
         21   -1    0    0  501  502  0.00000000000E+00  0.00000000000E+00  0.42311127570E+03  0.42311127570E+03  0.00000000000E+00 0.  1.
          4   -1    0    0  502    0 -0.00000000000E+00 -0.00000000000E+00 -0.21615601658E+04  0.21615601658E+04  0.00000000000E+00 0.  1.
        -13    1    1    2    0    0 -0.26913548193E+03 -0.15128329955E+03 -0.72102551912E+03  0.78434581324E+03  0.10566000000E+00 0.  1.
         13    1    1    2    0    0  0.26368174552E+03  0.19846697656E+03 -0.13880109574E+04  0.14267065685E+04  0.10566000000E+00 0. -1.
          4    1    1    2  501    0  0.54537364109E+01 -0.47183677008E+02  0.37058758639E+03  0.37361905974E+03  0.00000000000E+00 0.  1.
</event>
<event>
 5    1  0.7625606E-005  0.6134941E+02  0.7818608E-02  0.1251437E+00
         -4   -1    0    0    0  501 -0.00000000000E+00  0.00000000000E+00  0.21331207300E+03  0.21331207300E+03  0.00000000000E+00 0. -1.
         21   -1    0    0  501  502  0.00000000000E+00 -0.00000000000E+00 -0.49024684769E+02  0.49024684769E+02  0.00000000000E+00 0. -1.
        -13    1    1    2    0    0  0.32522051588E+02 -0.19325315587E+02 -0.63414467909E+01  0.38358529344E+02  0.10566000000E+00 0.  1.
         13    1    1    2    0    0 -0.64732358774E+02  0.21452910418E+02  0.17821617842E+03  0.19081803650E+03  0.10566000000E+00 0. -1.
         -4    1    1    2    0  502  0.32210307186E+02 -0.21275948315E+01 -0.75873433995E+01  0.33160191927E+02  0.00000000000E+00 0. -1.
</event>
<event>
 5    1  0.7625606E-005  0.1470925E+03  0.7818608E-02  0.1104015E+00
         21   -1    0    0  501  502  0.00000000000E+00  0.00000000000E+00  0.25079987869E+02  0.25079987869E+02  0.00000000000E+00 0. -1.
          4   -1    0    0  502    0 -0.00000000000E+00 -0.00000000000E+00 -0.12593290436E+04  0.12593290436E+04  0.00000000000E+00 0.  1.
        -13    1    1    2    0    0 -0.14696572467E+03 -0.61460469622E+02 -0.82257817615E+03  0.83786107476E+03  0.10566000000E+00 0.  1.
         13    1    1    2    0    0  0.10479680620E+03  0.68722917833E+02 -0.25487829310E+03  0.28402141730E+03  0.10566000000E+00 0. -1.
          4    1    1    2  501    0  0.42168918468E+02 -0.72624482107E+01 -0.15679258650E+03  0.16252653944E+03  0.00000000000E+00 0.  1.
</event>
<event>
 5    1  0.7625606E-005  0.4013444E+02  0.7818608E-02  0.1345097E+00
         21   -1    0    0  501  502  0.00000000000E+00  0.00000000000E+00  0.60066646796E+03  0.60066646796E+03  0.00000000000E+00 0.  1.
          4   -1    0    0  502    0 -0.00000000000E+00 -0.00000000000E+00 -0.23148782753E+02  0.23148782753E+02  0.00000000000E+00 0.  1.
        -13    1    1    2    0    0 -0.40091454414E+02 -0.60810552303E+02  0.44198311931E+02  0.85198297694E+02  0.10566000000E+00 0.  1.
         13    1    1    2    0    0  0.14314301850E+02  0.32334581597E+02  0.20119487744E+03  0.20427876609E+03  0.10566000000E+00 0. -1.
          4    1    1    2  501    0  0.25777152564E+02  0.28475970706E+02  0.33212449584E+03  0.33433818693E+03  0.00000000000E+00 0.  1.
</event>
<event>
 5    1  0.7625606E-005  0.1350539E+03  0.7818608E-02  0.1116865E+00
          4   -1    0    0  502    0 -0.00000000000E+00  0.00000000000E+00  0.10467067068E+03  0.10467067068E+03  0.00000000000E+00 0.  1.
         21   -1    0    0  501  502  0.00000000000E+00 -0.00000000000E+00 -0.27997385392E+03  0.27997385392E+03  0.00000000000E+00 0. -1.
        -13    1    1    2    0    0  0.13278440371E+03 -0.30821019339E+02  0.20486315421E+02  0.13784532414E+03  0.10566000000E+00 0.  1.
         13    1    1    2    0    0 -0.12343487650E+03  0.46343847625E+02 -0.16688576208E+03  0.21268471901E+03  0.10566000000E+00 0. -1.
          4    1    1    2  501    0 -0.93495272093E+01 -0.15522828286E+02 -0.28903736572E+02  0.34114481454E+02  0.00000000000E+00 0.  1.
</event>
<event>
 5    1  0.7625606E-005  0.5066341E+03  0.7818608E-02  0.9463549E-01
         -4   -1    0    0    0  501 -0.00000000000E+00  0.00000000000E+00  0.55652545489E+03  0.55652545489E+03  0.00000000000E+00 0. -1.
         21   -1    0    0  501  502  0.00000000000E+00 -0.00000000000E+00 -0.87847537333E+03  0.87847537333E+03  0.00000000000E+00 0.  1.
        -13    1    1    2    0    0  0.12150500820E+03  0.50438968568E+03 -0.29299048030E+03  0.59583206925E+03  0.10566000000E+00 0.  1.
         13    1    1    2    0    0 -0.66563119766E+02 -0.49862236619E+03  0.24511241554E+03  0.55958468564E+03  0.10566000000E+00 0. -1.
         -4    1    1    2    0  502 -0.54941888439E+02 -0.57673194841E+01 -0.27407185368E+03  0.27958407333E+03  0.00000000000E+00 0. -1.
</event>
<event>
 5    1  0.7625606E-005  0.4755214E+03  0.7818608E-02  0.9657917E-01
         21   -1    0    0  501  502  0.00000000000E+00  0.00000000000E+00  0.67863266789E+03  0.67863266789E+03  0.00000000000E+00 0. -1.
         -4   -1    0    0    0  501 -0.00000000000E+00 -0.00000000000E+00 -0.10608005137E+04  0.10608005137E+04  0.00000000000E+00 0. -1.
        -13    1    1    2    0    0  0.22429433358E+03 -0.20685065118E+03 -0.59579046318E+03  0.66937390684E+03  0.10566000000E+00 0.  1.
         13    1    1    2    0    0  0.54273533968E+02 -0.29411729400E+03 -0.20297377626E+03  0.36145395852E+03  0.10566000000E+00 0. -1.
         -4    1    1    2    0  502 -0.27856786755E+03  0.50096794517E+03  0.41659639367E+03  0.70860531620E+03  0.00000000000E+00 0. -1.
</event>
<event>
 5    1  0.7625606E-005  0.1559482E+02  0.7818608E-02  0.1613092E+00
         21   -1    0    0  501  502  0.00000000000E+00  0.00000000000E+00  0.89743836578E+02  0.89743836578E+02  0.00000000000E+00 0.  1.
         -4   -1    0    0    0  501 -0.00000000000E+00 -0.00000000000E+00 -0.18477778636E+02  0.18477778636E+02  0.00000000000E+00 0. -1.
        -13    1    1    2    0    0 -0.40617470957E+01 -0.22315975952E+02  0.51319406454E+02  0.56108762373E+02  0.10566000000E+00 0.  1.
         13    1    1    2    0    0  0.73901223524E+01  0.70804837163E+01 -0.12474519874E+02  0.16136045617E+02  0.10566000000E+00 0. -1.
         -4    1    1    2    0  502 -0.33283752567E+01  0.15235492236E+02  0.32421171363E+02  0.35976807224E+02  0.00000000000E+00 0. -1.
</event>
<event>
 5    1  0.7625606E-005  0.4191051E+03  0.7818608E-02  0.9675435E-01
         21   -1    0    0  501  502  0.00000000000E+00  0.00000000000E+00  0.17983049115E+03  0.17983049115E+03  0.00000000000E+00 0.  1.
          4   -1    0    0  502    0 -0.00000000000E+00 -0.00000000000E+00 -0.23709043815E+04  0.23709043815E+04  0.00000000000E+00 0.  1.
        -13    1    1    2    0    0  0.11462125040E+03 -0.51240334788E+03 -0.37419316297E+03  0.64476023166E+03  0.10566000000E+00 0.  1.
         13    1    1    2    0    0  0.17728049736E+02  0.39630713333E+03 -0.11624400509E+04  0.12282672798E+04  0.10566000000E+00 0. -1.
          4    1    1    2  501    0 -0.13234930014E+03  0.11609621455E+03 -0.65444067651E+03  0.67770736114E+03  0.00000000000E+00 0.  1.
</event>
<event>
 5    1  0.7625606E-005  0.5054608E+03  0.7818608E-02  0.9722009E-01
          4   -1    0    0  502    0 -0.00000000000E+00  0.00000000000E+00  0.28643096440E+04  0.28643096440E+04  0.00000000000E+00 0.  1.
         21   -1    0    0  501  502  0.00000000000E+00 -0.00000000000E+00 -0.15761784346E+03  0.15761784346E+03  0.00000000000E+00 0.  1.
        -13    1    1    2    0    0  0.56458906274E+03  0.81207777995E+02  0.73126866971E+03  0.92742082758E+03  0.10566000000E+00 0.  1.
         13    1    1    2    0    0 -0.16817588681E+03  0.11391757088E+03  0.10443060474E+04  0.10638775651E+04  0.10566000000E+00 0. -1.
          4    1    1    2  501    0 -0.39641317592E+03 -0.19512534887E+03  0.93111708345E+03  0.10306290947E+04  0.00000000000E+00 0.  1.
</event>
<event>
 5    1  0.7625606E-005  0.5156726E+03  0.7818608E-02  0.1024072E+00
          4   -1    0    0  502    0 -0.00000000000E+00  0.00000000000E+00  0.28570189067E+04  0.28570189067E+04  0.00000000000E+00 0.  1.
         21   -1    0    0  501  502  0.00000000000E+00 -0.00000000000E+00 -0.10177040906E+03  0.10177040906E+03  0.00000000000E+00 0.  1.
        -13    1    1    2    0    0  0.47286391958E+03  0.18115228030E+03  0.13834263625E+04  0.14731887003E+04  0.10566000000E+00 0.  1.
         13    1    1    2    0    0  0.49639987259E+01  0.34311062982E+02  0.18446080963E+03  0.18769041473E+03  0.10566000000E+00 0. -1.
          4    1    1    2  501    0 -0.47782791831E+03 -0.21546334329E+03  0.11873613255E+04  0.12979102007E+04  0.00000000000E+00 0.  1.
</event>
<event>
 5    1  0.2368604E-004  0.3974176E+03  0.7818608E-02  0.1000703E+00
         21   -1    0    0  501  502  0.00000000000E+00  0.00000000000E+00  0.50464895754E+03  0.50464895754E+03  0.00000000000E+00 0. -1.
         -4   -1    0    0    0  501 -0.00000000000E+00 -0.00000000000E+00 -0.89711466893E+03  0.89711466893E+03  0.00000000000E+00 0. -1.
        -13    1    1    2    0    0  0.15077585702E+03  0.53375025702E+02 -0.35210507212E+03  0.38673019717E+03  0.10566000000E+00 0.  1.
         13    1    1    2    0    0  0.27615076742E+03 -0.39951266803E+02 -0.37851573103E+03  0.47024410668E+03  0.10566000000E+00 0. -1.
         -4    1    1    2    0  502 -0.42692662444E+03 -0.13423758899E+02  0.33815509176E+03  0.54478932262E+03  0.00000000000E+00 0. -1.
</event>
<event>
 5    1  0.7625606E-005  0.4083623E+03  0.7818608E-02  0.9705201E-01
         21   -1    0    0  501  502  0.00000000000E+00  0.00000000000E+00  0.38751340113E+03  0.38751340113E+03  0.00000000000E+00 0.  1.
          4   -1    0    0  502    0 -0.00000000000E+00 -0.00000000000E+00 -0.20662293863E+04  0.20662293863E+04  0.00000000000E+00 0.  1.
        -13    1    1    2    0    0  0.39084855649E+03  0.14667004845E+03 -0.14066514303E+04  0.14672910259E+04  0.10566000000E+00 0.  1.
         13    1    1    2    0    0 -0.37991488157E+03 -0.95384142424E+02 -0.56575189333E+03  0.68811966098E+03  0.10566000000E+00 0. -1.
          4    1    1    2  501    0 -0.10933674921E+02 -0.51285906025E+02  0.29368733848E+03  0.29833210050E+03  0.00000000000E+00 0.  1.
</event>
<event>
 5    1  0.7625606E-005  0.1093491E+03  0.7818608E-02  0.1149950E+00
         -4   -1    0    0    0  501 -0.00000000000E+00  0.00000000000E+00  0.37898137922E+02  0.37898137922E+02  0.00000000000E+00 0. -1.
         21   -1    0    0  501  502  0.00000000000E+00 -0.00000000000E+00 -0.57500741112E+03  0.57500741112E+03  0.00000000000E+00 0.  1.
        -13    1    1    2    0    0  0.85205455078E+02 -0.61443597017E+01 -0.24255240595E+03  0.25715637952E+03  0.10566000000E+00 0.  1.
         13    1    1    2    0    0 -0.12123553562E+03 -0.41146657770E+02 -0.13779413847E+03  0.18809130311E+03  0.10566000000E+00 0. -1.
         -4    1    1    2    0  502  0.36030080545E+02  0.47291017472E+02 -0.15676272877E+03  0.16765786641E+03  0.00000000000E+00 0. -1.
</event>
<event>
 5    1  0.7625606E-005  0.2562680E+02  0.7818608E-02  0.1456953E+00
         21   -1    0    0  501  502  0.00000000000E+00  0.00000000000E+00  0.24393606866E+03  0.24393606866E+03  0.00000000000E+00 0. -1.
         -4   -1    0    0    0  501 -0.00000000000E+00 -0.00000000000E+00 -0.13080683117E+03  0.13080683117E+03  0.00000000000E+00 0. -1.
        -13    1    1    2    0    0 -0.20256043470E+02  0.21225513072E+02  0.17640161107E+02  0.34234721412E+02  0.10566000000E+00 0.  1.
         13    1    1    2    0    0  0.20625841270E+02  0.43986182944E+01 -0.12083995324E+03  0.12266653429E+03  0.10566000000E+00 0. -1.
         -4    1    1    2    0  502 -0.36979779998E+00 -0.25624131367E+02  0.21632902962E+03  0.21784164413E+03  0.00000000000E+00 0. -1.
</event>
<event>
 5    1  0.7625606E-005  0.4728890E+03  0.7818608E-02  0.9539459E-01
         21   -1    0    0  501  502  0.00000000000E+00  0.00000000000E+00  0.48383659597E+03  0.48383659597E+03  0.00000000000E+00 0. -1.
         -4   -1    0    0    0  501 -0.00000000000E+00 -0.00000000000E+00 -0.24157816807E+04  0.24157816807E+04  0.00000000000E+00 0. -1.
        -13    1    1    2    0    0 -0.39806390299E+03  0.20605680161E+03 -0.17080400899E+04  0.17658752041E+04  0.10566000000E+00 0.  1.
         13    1    1    2    0    0  0.69706862130E+03 -0.33291870454E+03 -0.74031924163E+02  0.77602851983E+03  0.10566000000E+00 0. -1.
         -4    1    1    2    0  502 -0.29900471831E+03  0.12686190293E+03 -0.14987307066E+03  0.35771455282E+03  0.00000000000E+00 0. -1.
</event>
<event>
 5    1  0.7625606E-005  0.2399757E+03  0.7818608E-02  0.1059834E+00
         21   -1    0    0  501  502  0.00000000000E+00  0.00000000000E+00  0.31004728571E+03  0.31004728571E+03  0.00000000000E+00 0.  1.
          4   -1    0    0  502    0 -0.00000000000E+00 -0.00000000000E+00 -0.10635910213E+04  0.10635910213E+04  0.00000000000E+00 0.  1.
        -13    1    1    2    0    0  0.13463862685E+03 -0.33286179709E+02 -0.70114095806E+03  0.71472664973E+03  0.10566000000E+00 0.  1.
         13    1    1    2    0    0  0.11307432358E+03  0.29266019942E+02 -0.29185608906E+03  0.31436012861E+03  0.10566000000E+00 0. -1.
          4    1    1    2  501    0 -0.24771295043E+03  0.40201597661E+01  0.23945331153E+03  0.34455152866E+03  0.00000000000E+00 0.  1.
</event>
<event>
 5    1  0.7625606E-005  0.4371869E+03  0.7818608E-02  0.9922825E-01
          4   -1    0    0  502    0 -0.00000000000E+00  0.00000000000E+00  0.31062653749E+04  0.31062653749E+04  0.00000000000E+00 0.  1.
         21   -1    0    0  501  502  0.00000000000E+00 -0.00000000000E+00 -0.11875354630E+03  0.11875354630E+03  0.00000000000E+00 0.  1.
        -13    1    1    2    0    0 -0.44094814947E+03 -0.17984563581E+03  0.50663242121E+03  0.69531010681E+03  0.10566000000E+00 0.  1.
         13    1    1    2    0    0  0.15864107180E+03 -0.10552867266E+01  0.86072015793E+03  0.87521843257E+03  0.10566000000E+00 0. -1.
          4    1    1    2  501    0  0.28230707767E+03  0.18090092254E+03  0.16201592495E+04  0.16544903818E+04  0.00000000000E+00 0.  1.
</event>
<event>
 5    1  0.7625606E-005  0.4315788E+03  0.7818608E-02  0.9855757E-01
          4   -1    0    0  502    0 -0.00000000000E+00  0.00000000000E+00  0.17198972178E+04  0.17198972178E+04  0.00000000000E+00 0.  1.
         21   -1    0    0  501  502  0.00000000000E+00 -0.00000000000E+00 -0.22990114739E+03  0.22990114739E+03  0.00000000000E+00 0.  1.
        -13    1    1    2    0    0 -0.19752372922E+03 -0.24180013860E+03  0.11411684948E+04  0.11831096633E+04  0.10566000000E+00 0.  1.
         13    1    1    2    0    0 -0.20641636094E+03 -0.55906221798E+01  0.13698802162E+03  0.24779971419E+03  0.10566000000E+00 0. -1.
          4    1    1    2  501    0  0.40394009016E+03  0.24739076078E+03  0.21183955398E+03  0.51888898773E+03  0.00000000000E+00 0.  1.
</event>
<event>
 5    1  0.7625606E-005  0.4927517E+03  0.7818608E-02  0.9526825E-01
         21   -1    0    0  501  502  0.00000000000E+00  0.00000000000E+00  0.71161509318E+03  0.71161509318E+03  0.00000000000E+00 0.  1.
          4   -1    0    0  502    0 -0.00000000000E+00 -0.00000000000E+00 -0.10262471358E+04  0.10262471358E+04  0.00000000000E+00 0.  1.
        -13    1    1    2    0    0 -0.34797180042E+03  0.40491005590E+03 -0.11512438339E+02  0.53401224205E+03  0.10566000000E+00 0.  1.
         13    1    1    2    0    0  0.41712603892E+03  0.13186012260E+03 -0.46550367001E+03  0.63880740621E+03  0.10566000000E+00 0. -1.
          4    1    1    2  501    0 -0.69154238494E+02 -0.53677017850E+03  0.16238406572E+03  0.56504258072E+03  0.00000000000E+00 0.  1.
</event>
<event>
 5    1  0.7625606E-005  0.1749708E+02  0.7818608E-02  0.1547983E+00
          4   -1    0    0  502    0 -0.00000000000E+00  0.00000000000E+00  0.14894187981E+03  0.14894187981E+03  0.00000000000E+00 0.  1.
         21   -1    0    0  501  502  0.00000000000E+00 -0.00000000000E+00 -0.56852900118E+01  0.56852900118E+01  0.00000000000E+00 0.  1.
        -13    1    1    2    0    0 -0.17408025738E+02 -0.12066856643E+02  0.11981305329E+03  0.12167097967E+03  0.10566000000E+00 0.  1.
         13    1    1    2    0    0  0.10388222656E+02  0.43095276518E+01  0.17836238183E+02  0.21086245637E+02  0.10566000000E+00 0. -1.
          4    1    1    2  501    0  0.70198030825E+01  0.77573289911E+01  0.56072983213E+01  0.11869944518E+02  0.00000000000E+00 0.  1.
</event>
<event>
 5    1  0.7625606E-005  0.1824981E+03  0.7818608E-02  0.1097222E+00
         21   -1    0    0  501  502  0.00000000000E+00  0.00000000000E+00  0.72239655844E+03  0.72239655844E+03  0.00000000000E+00 0.  1.
          4   -1    0    0  502    0 -0.00000000000E+00 -0.00000000000E+00 -0.42064994788E+03  0.42064994788E+03  0.00000000000E+00 0.  1.
        -13    1    1    2    0    0 -0.37089713781E+02  0.13020629676E+03 -0.36175782293E+03  0.38626164733E+03  0.10566000000E+00 0.  1.
         13    1    1    2    0    0  0.77922585727E+02  0.49957999111E+02  0.30627554908E+02  0.97497637537E+02  0.10566000000E+00 0. -1.
          4    1    1    2  501    0 -0.40832871946E+02 -0.18016429587E+03  0.63287687858E+03  0.65928722145E+03  0.00000000000E+00 0.  1.
</event>
<event>
 5    1  0.7625606E-005  0.3829265E+03  0.7818608E-02  0.9779691E-01
         -4   -1    0    0    0  501 -0.00000000000E+00  0.00000000000E+00  0.15764380689E+04  0.15764380689E+04  0.00000000000E+00 0. -1.
         21   -1    0    0  501  502  0.00000000000E+00 -0.00000000000E+00 -0.31573523433E+03  0.31573523433E+03  0.00000000000E+00 0. -1.
        -13    1    1    2    0    0  0.82480138205E+02 -0.34100190022E+03  0.22269367367E+03  0.41554512704E+03  0.10566000000E+00 0.  1.
         13    1    1    2    0    0 -0.19194658718E+03  0.34713260915E+03  0.12096121795E+04  0.12729910356E+04  0.10566000000E+00 0. -1.
         -4    1    1    2    0  502  0.10946644898E+03 -0.61307089295E+01 -0.17160301861E+03  0.20363714062E+03  0.00000000000E+00 0. -1.
</event>
<event>
 5    1  0.7625606E-005  0.8709474E+02  0.7818608E-02  0.1187877E+00
          4   -1    0    0  502    0 -0.00000000000E+00  0.00000000000E+00  0.94455398912E+02  0.94455398912E+02  0.00000000000E+00 0.  1.
         21   -1    0    0  501  502  0.00000000000E+00 -0.00000000000E+00 -0.22141178981E+03  0.22141178981E+03  0.00000000000E+00 0.  1.
        -13    1    1    2    0    0 -0.80462358313E+02  0.74920492880E+02  0.23097170796E+01  0.10996643722E+03  0.10566000000E+00 0.  1.
         13    1    1    2    0    0  0.75057690743E+02 -0.62340039815E+01 -0.22089780905E+02  0.78488784739E+02  0.10566000000E+00 0. -1.
          4    1    1    2  501    0  0.54046675704E+01 -0.68686488899E+02 -0.10717632707E+03  0.12741196676E+03  0.00000000000E+00 0.  1.
</event>
<event>
 5    1  0.7625606E-005  0.6150970E+02  0.7818608E-02  0.1250939E+00
         21   -1    0    0  501  502  0.00000000000E+00  0.00000000000E+00  0.13989472337E+03  0.13989472337E+03  0.00000000000E+00 0.  1.
          4   -1    0    0  502    0 -0.00000000000E+00 -0.00000000000E+00 -0.28298672277E+03  0.28298672277E+03  0.00000000000E+00 0.  1.
        -13    1    1    2    0    0  0.22642336237E+01  0.60575309135E+02 -0.24994474710E+03  0.25719036257E+03  0.10566000000E+00 0.  1.
         13    1    1    2    0    0 -0.71347565205E+01 -0.72593565037E+02  0.16987947410E+02  0.74895473539E+02  0.10566000000E+00 0. -1.
          4    1    1    2  501    0  0.48705228968E+01  0.12018255902E+02  0.89864800293E+02  0.90795610025E+02  0.00000000000E+00 0.  1.
</event>
<event>
 5    1  0.7625606E-005  0.4589131E+03  0.7818608E-02  0.9909372E-01
          4   -1    0    0  502    0 -0.00000000000E+00  0.00000000000E+00  0.25710161826E+03  0.25710161826E+03  0.00000000000E+00 0.  1.
         21   -1    0    0  501  502  0.00000000000E+00 -0.00000000000E+00 -0.16735774250E+04  0.16735774250E+04  0.00000000000E+00 0.  1.
        -13    1    1    2    0    0 -0.48132598944E+03 -0.13981859079E+03 -0.12839768965E+04  0.13783398087E+04  0.10566000000E+00 0.  1.
         13    1    1    2    0    0  0.13137412646E+03  0.57622516171E+02  0.46446517770E+02  0.15078728610E+03  0.10566000000E+00 0. -1.
          4    1    1    2  501    0  0.34995186298E+03  0.82196074618E+02 -0.17894542804E+03  0.40155194845E+03  0.00000000000E+00 0.  1.
</event>
<event>
 5    1  0.7625606E-005  0.3984627E+03  0.7818608E-02  0.9733496E-01
         -4   -1    0    0    0  501 -0.00000000000E+00  0.00000000000E+00  0.12313685538E+04  0.12313685538E+04  0.00000000000E+00 0. -1.
         21   -1    0    0  501  502  0.00000000000E+00 -0.00000000000E+00 -0.15281537938E+03  0.15281537938E+03  0.00000000000E+00 0.  1.
        -13    1    1    2    0    0 -0.10033103453E+03  0.38675646279E+03  0.62697601554E+03  0.74346877085E+03  0.10566000000E+00 0.  1.
         13    1    1    2    0    0  0.84604815430E+02 -0.38815305280E+03  0.47068652513E+03  0.61592741723E+03  0.10566000000E+00 0. -1.
         -4    1    1    2    0  502  0.15726219105E+02  0.13965900112E+01 -0.19109366228E+02  0.24787745130E+02  0.00000000000E+00 0. -1.
</event>
<event>
 5    1  0.7625606E-005  0.4991816E+03  0.7818608E-02  0.9853792E-01
         21   -1    0    0  501  502  0.00000000000E+00  0.00000000000E+00  0.18712645711E+03  0.18712645711E+03  0.00000000000E+00 0.  1.
          4   -1    0    0  502    0 -0.00000000000E+00 -0.00000000000E+00 -0.18182851680E+04  0.18182851680E+04  0.00000000000E+00 0.  1.
        -13    1    1    2    0    0 -0.41530995476E+03  0.16153924454E+03 -0.55909780941E+03  0.71495989937E+03  0.10566000000E+00 0.  1.
         13    1    1    2    0    0 -0.13433501769E+03 -0.55619801393E-01 -0.30325624372E+03  0.33167794710E+03  0.10566000000E+00 0. -1.
          4    1    1    2  501    0  0.54964497246E+03 -0.16148362474E+03 -0.76880465772E+03  0.95877377860E+03  0.00000000000E+00 0.  1.
</event>
<event>
 5    1  0.7625606E-005  0.4321205E+03  0.7818608E-02  0.9831525E-01
         21   -1    0    0  501  502  0.00000000000E+00  0.00000000000E+00  0.72285106362E+03  0.72285106362E+03  0.00000000000E+00 0.  1.
          4   -1    0    0  502    0 -0.00000000000E+00 -0.00000000000E+00 -0.45626221116E+03  0.45626221116E+03  0.00000000000E+00 0.  1.
        -13    1    1    2    0    0  0.41090287274E+03  0.22537998748E+03  0.28889752568E+03  0.55054436796E+03  0.10566000000E+00 0.  1.
         13    1    1    2    0    0 -0.64444755715E+01 -0.22320361397E+03  0.29577247139E+01  0.22331624180E+03  0.10566000000E+00 0. -1.
          4    1    1    2  501    0 -0.40445839716E+03 -0.21763735184E+01 -0.25266397944E+02  0.40525266502E+03  0.00000000000E+00 0.  1.
</event>
<event>
 5    1  0.7625606E-005  0.2746835E+03  0.7818608E-02  0.1018339E+00
         -4   -1    0    0    0  501 -0.00000000000E+00  0.00000000000E+00  0.19800139201E+04  0.19800139201E+04  0.00000000000E+00 0. -1.
         21   -1    0    0  501  502  0.00000000000E+00 -0.00000000000E+00 -0.75491792947E+02  0.75491792947E+02  0.00000000000E+00 0.  1.
        -13    1    1    2    0    0 -0.17785772236E+03  0.20139053976E+03  0.14901025905E+04  0.15141325108E+04  0.10566000000E+00 0.  1.
         13    1    1    2    0    0  0.19898098987E+03 -0.22282998796E+03  0.41491247078E+03  0.51127195057E+03  0.10566000000E+00 0. -1.
         -4    1    1    2    0  502 -0.21123267512E+02  0.21439448203E+02 -0.49293410266E+00  0.30101251696E+02  0.00000000000E+00 0. -1.
</event>
<event>
 5    1  0.7625606E-005  0.7619142E+02  0.7818608E-02  0.1211360E+00
         21   -1    0    0  501  502  0.00000000000E+00  0.00000000000E+00  0.24689705159E+03  0.24689705159E+03  0.00000000000E+00 0.  1.
          4   -1    0    0  502    0 -0.00000000000E+00 -0.00000000000E+00 -0.22993920495E+03  0.22993920495E+03  0.00000000000E+00 0.  1.
        -13    1    1    2    0    0 -0.16898091078E+02 -0.78739881669E+02 -0.21002317779E+03  0.22493390322E+03  0.10566000000E+00 0.  1.
         13    1    1    2    0    0 -0.13612836989E+01  0.47129235269E+02  0.41339293931E+02  0.62705392887E+02  0.10566000000E+00 0. -1.
          4    1    1    2  501    0  0.18259374776E+02  0.31610646400E+02  0.18564173050E+03  0.18919696043E+03  0.00000000000E+00 0.  1.
</event>
<event>
 5    1  0.7625606E-005  0.5402347E+02  0.7818608E-02  0.1293906E+00
         -4   -1    0    0    0  501 -0.00000000000E+00  0.00000000000E+00  0.11417204739E+03  0.11417204739E+03  0.00000000000E+00 0. -1.
         21   -1    0    0  501  502  0.00000000000E+00 -0.00000000000E+00 -0.14570409489E+03  0.14570409489E+03  0.00000000000E+00 0.  1.
        -13    1    1    2    0    0 -0.67239832981E+02 -0.79479222045E+02 -0.36132486872E+02  0.11019850111E+03  0.10566000000E+00 0.  1.
         13    1    1    2    0    0  0.22377865112E+02  0.33288246653E+02  0.54884143950E+02  0.67979089678E+02  0.10566000000E+00 0. -1.
         -4    1    1    2    0  502  0.44861967868E+02  0.46190975393E+02 -0.50283704578E+02  0.81698551486E+02  0.00000000000E+00 0. -1.
</event>
<event>
 5    1  0.7625606E-005  0.3043592E+02  0.7818608E-02  0.1401442E+00
         21   -1    0    0  501  502  0.00000000000E+00  0.00000000000E+00  0.87375484377E+02  0.87375484377E+02  0.00000000000E+00 0. -1.
         -4   -1    0    0    0  501 -0.00000000000E+00 -0.00000000000E+00 -0.29904912133E+02  0.29904912133E+02  0.00000000000E+00 0. -1.
        -13    1    1    2    0    0 -0.21488389220E+02  0.24747727829E+02  0.20433276347E+02  0.38622931663E+02  0.10566000000E+00 0.  1.
         13    1    1    2    0    0  0.11591748117E+02 -0.27666274949E+02 -0.91267231913E+01  0.31354419692E+02  0.10566000000E+00 0. -1.
         -4    1    1    2    0  502  0.98966411037E+01  0.29185471208E+01  0.46164019089E+02  0.47303045155E+02  0.00000000000E+00 0. -1.
</event>
<event>
 5    1  0.7625606E-005  0.1379963E+03  0.7818608E-02  0.1113593E+00
          4   -1    0    0  502    0 -0.00000000000E+00  0.00000000000E+00  0.58852082537E+03  0.58852082537E+03  0.00000000000E+00 0.  1.
         21   -1    0    0  501  502  0.00000000000E+00 -0.00000000000E+00 -0.23453734036E+03  0.23453734036E+03  0.00000000000E+00 0. -1.
        -13    1    1    2    0    0 -0.13779957768E+03 -0.11891001537E+02  0.55444441066E+03  0.57143567897E+03  0.10566000000E+00 0.  1.
         13    1    1    2    0    0  0.12871904711E+03  0.17667698441E+02 -0.20256943830E+03  0.24065562357E+03  0.10566000000E+00 0. -1.
          4    1    1    2  501    0  0.90805305711E+01 -0.57766969033E+01  0.21085126451E+01  0.10966863186E+02  0.00000000000E+00 0.  1.
</event>
<event>
 5    1  0.7625606E-005  0.5223282E+03  0.7818608E-02  0.9430332E-01
         -4   -1    0    0    0  501 -0.00000000000E+00  0.00000000000E+00  0.19226987725E+04  0.19226987725E+04  0.00000000000E+00 0. -1.
         21   -1    0    0  501  502  0.00000000000E+00 -0.00000000000E+00 -0.32704621595E+03  0.32704621595E+03  0.00000000000E+00 0. -1.
        -13    1    1    2    0    0 -0.29370876392E+03 -0.35550535305E+03  0.66926859665E+03  0.81275418158E+03  0.10566000000E+00 0.  1.
         13    1    1    2    0    0  0.58598908538E+03  0.26105087428E+03  0.93001632547E+03  0.11298057992E+04  0.10566000000E+00 0. -1.
         -4    1    1    2    0  502 -0.29228032146E+03  0.94454478764E+02 -0.36323655314E+01  0.30718500769E+03  0.00000000000E+00 0. -1.
</event>
<event>
 5    1  0.7625606E-005  0.4950856E+03  0.7818608E-02  0.9871751E-01
         21   -1    0    0  501  502  0.00000000000E+00  0.00000000000E+00  0.52078180275E+03  0.52078180275E+03  0.00000000000E+00 0. -1.
         -4   -1    0    0    0  501 -0.00000000000E+00 -0.00000000000E+00 -0.88721622597E+03  0.88721622597E+03  0.00000000000E+00 0. -1.
        -13    1    1    2    0    0  0.11937916623E+03 -0.50466747545E+02 -0.37242109160E+03  0.39432950507E+03  0.10566000000E+00 0.  1.
         13    1    1    2    0    0 -0.36765818925E+03 -0.35833876207E+03  0.10795410605E+03  0.52462683185E+03  0.10566000000E+00 0. -1.
         -4    1    1    2    0  502  0.24827902303E+03  0.40880550961E+03 -0.10196743768E+03  0.48904169179E+03  0.00000000000E+00 0. -1.
</event>
<event>
 5    1  0.7625606E-005  0.1980081E+03  0.7818608E-02  0.1061510E+00
         -4   -1    0    0    0  501 -0.00000000000E+00  0.00000000000E+00  0.10713955926E+04  0.10713955926E+04  0.00000000000E+00 0. -1.
         21   -1    0    0  501  502  0.00000000000E+00 -0.00000000000E+00 -0.11332725604E+03  0.11332725604E+03  0.00000000000E+00 0. -1.
        -13    1    1    2    0    0  0.40375902495E+02  0.19309464104E+03  0.90952360714E+03  0.93067124003E+03  0.10566000000E+00 0.  1.
         13    1    1    2    0    0 -0.12167076559E+02 -0.20467463620E+03  0.70123210056E+02  0.21669568572E+03  0.10566000000E+00 0. -1.
         -4    1    1    2    0  502 -0.28208825937E+02  0.11579995163E+02 -0.21578480646E+02  0.37355922900E+02  0.00000000000E+00 0. -1.
</event>
<event>
 5    1  0.7625606E-005  0.2017884E+03  0.7818608E-02  0.1058917E+00
         21   -1    0    0  501  502  0.00000000000E+00  0.00000000000E+00  0.87756217069E+02  0.87756217069E+02  0.00000000000E+00 0. -1.
          4   -1    0    0  502    0 -0.00000000000E+00 -0.00000000000E+00 -0.95265911072E+03  0.95265911072E+03  0.00000000000E+00 0.  1.
        -13    1    1    2    0    0  0.19960954645E+03 -0.27630920588E+02 -0.73034262219E+03  0.75763302183E+03  0.10566000000E+00 0.  1.
         13    1    1    2    0    0 -0.19861632153E+03  0.43250534689E+02 -0.15600365116E+03  0.25623466250E+03  0.10566000000E+00 0. -1.
          4    1    1    2  501    0 -0.99322491970E+00 -0.15619614102E+02  0.21443379701E+02  0.26547643463E+02  0.00000000000E+00 0.  1.
</event>
<event>
 5    1  0.7625606E-005  0.5050106E+03  0.7818608E-02  0.9467057E-01
          4   -1    0    0  502    0 -0.00000000000E+00  0.00000000000E+00  0.69368087730E+03  0.69368087730E+03  0.00000000000E+00 0.  1.
         21   -1    0    0  501  502  0.00000000000E+00 -0.00000000000E+00 -0.64712385670E+03  0.64712385670E+03  0.00000000000E+00 0. -1.
        -13    1    1    2    0    0  0.73002037601E+02 -0.49572236827E+03  0.25160810678E+03  0.56069297700E+03  0.10566000000E+00 0.  1.
         13    1    1    2    0    0 -0.77532814158E+02  0.50488593858E+03  0.60490338838E+02  0.51437363901E+03  0.10566000000E+00 0. -1.
          4    1    1    2  501    0  0.45307765567E+01 -0.91635703133E+01 -0.26554142502E+03  0.26573811800E+03  0.00000000000E+00 0.  1.
</event>
<event>
 5    1  0.7625606E-005  0.6803366E+03  0.7818608E-02  0.9152001E-01
         -4   -1    0    0    0  501 -0.00000000000E+00  0.00000000000E+00  0.15948646111E+04  0.15948646111E+04  0.00000000000E+00 0. -1.
         21   -1    0    0  501  502  0.00000000000E+00 -0.00000000000E+00 -0.74399714545E+03  0.74399714545E+03  0.00000000000E+00 0.  1.
        -13    1    1    2    0    0 -0.64363743492E+03  0.15545261146E+03 -0.30284827068E+03  0.72811520260E+03  0.10566000000E+00 0.  1.
         13    1    1    2    0    0  0.65523802081E+03 -0.19432975663E+03  0.12947123149E+04  0.14640289982E+04  0.10566000000E+00 0. -1.
         -4    1    1    2    0  502 -0.11600585896E+02  0.38877145174E+02 -0.14099657852E+03  0.14671755574E+03  0.00000000000E+00 0. -1.
</event>
<event>
 5    1  0.1124004E-004  0.4994817E+03  0.7818608E-02  0.1031563E+00
          4   -1    0    0  502    0 -0.00000000000E+00  0.00000000000E+00  0.39221287980E+03  0.39221287980E+03  0.00000000000E+00 0.  1.
         21   -1    0    0  501  502  0.00000000000E+00 -0.00000000000E+00 -0.68862396759E+03  0.68862396759E+03  0.00000000000E+00 0.  1.
        -13    1    1    2    0    0  0.48118882009E+03  0.57362888833E+02 -0.83622206412E+02  0.49175793452E+03  0.10566000000E+00 0.  1.
         13    1    1    2    0    0  0.28459304009E+02 -0.10212375126E+02  0.85848419645E+01  0.31431437542E+02  0.10566000000E+00 0. -1.
          4    1    1    2  501    0 -0.50964812410E+03 -0.47150513706E+02 -0.22137372335E+03  0.55764747532E+03  0.00000000000E+00 0.  1.
</event>
<event>
 5    1  0.7625606E-005  0.2361130E+03  0.7818608E-02  0.1051872E+00
         -4   -1    0    0    0  501 -0.00000000000E+00  0.00000000000E+00  0.47887361281E+03  0.47887361281E+03  0.00000000000E+00 0. -1.
         21   -1    0    0  501  502  0.00000000000E+00 -0.00000000000E+00 -0.77760366265E+03  0.77760366265E+03  0.00000000000E+00 0. -1.
        -13    1    1    2    0    0  0.46765664221E+02  0.14776028893E+03  0.13437355104E+03  0.20512530979E+03  0.10566000000E+00 0.  1.
         13    1    1    2    0    0 -0.67546945496E+02  0.97016399496E+02  0.27634900417E+03  0.30057204609E+03  0.10566000000E+00 0. -1.
         -4    1    1    2    0  502  0.20781281275E+02 -0.24477668843E+03 -0.70945260504E+03  0.75077991959E+03  0.00000000000E+00 0. -1.
</event>
<event>
 5    1  0.7625606E-005  0.4784279E+03  0.7818608E-02  0.9526549E-01
          4   -1    0    0  502    0 -0.00000000000E+00  0.00000000000E+00  0.12427275043E+04  0.12427275043E+04  0.00000000000E+00 0.  1.
         21   -1    0    0  501  502  0.00000000000E+00 -0.00000000000E+00 -0.81084468438E+03  0.81084468438E+03  0.00000000000E+00 0.  1.
        -13    1    1    2    0    0  0.19357223321E+03 -0.73694543127E+03 -0.33778226551E+03  0.83346004595E+03  0.10566000000E+00 0.  1.
         13    1    1    2    0    0 -0.61875671688E+02  0.44547360500E+03  0.77969567045E+03  0.90011148264E+03  0.10566000000E+00 0. -1.
          4    1    1    2  501    0 -0.13169656153E+03  0.29147182627E+03 -0.10030585025E+02  0.32000066010E+03  0.00000000000E+00 0.  1.
</event>
<event>
 5    1  0.7625606E-005  0.2815117E+03  0.7818608E-02  0.1025572E+00
         -4   -1    0    0    0  501 -0.00000000000E+00  0.00000000000E+00  0.11300081791E+04  0.11300081791E+04  0.00000000000E+00 0. -1.
         21   -1    0    0  501  502  0.00000000000E+00 -0.00000000000E+00 -0.11058331812E+04  0.11058331812E+04  0.00000000000E+00 0. -1.
        -13    1    1    2    0    0 -0.29486786796E+03  0.18225481249E+03  0.81704139235E+03  0.88753621008E+03  0.10566000000E+00 0.  1.
         13    1    1    2    0    0 -0.35778263400E+02 -0.20193281889E+03  0.20917622428E+03  0.29293625833E+03  0.10566000000E+00 0. -1.
         -4    1    1    2    0  502  0.33064613136E+03  0.19678006401E+02 -0.10020426187E+04  0.10553688918E+04  0.00000000000E+00 0. -1.
</event>
<event>
 5    1  0.7625606E-005  0.4643558E+03  0.7818608E-02  0.9685923E-01
         21   -1    0    0  501  502  0.00000000000E+00  0.00000000000E+00  0.15380895611E+03  0.15380895611E+03  0.00000000000E+00 0.  1.
          4   -1    0    0  502    0 -0.00000000000E+00 -0.00000000000E+00 -0.32773394843E+04  0.32773394843E+04  0.00000000000E+00 0.  1.
        -13    1    1    2    0    0  0.18589346433E+03 -0.57220206856E+03 -0.19884764427E+04  0.20775009415E+04  0.10566000000E+00 0.  1.
         13    1    1    2    0    0 -0.25446095981E+03  0.15323581149E+03 -0.33347051656E+03  0.44658055328E+03  0.10566000000E+00 0. -1.
          4    1    1    2  501    0  0.68567495480E+02  0.41896625707E+03 -0.80158356892E+03  0.90706694568E+03  0.00000000000E+00 0.  1.
</event>
<event>
 5    1  0.7625606E-005  0.4486408E+02  0.7818608E-02  0.1314241E+00
         21   -1    0    0  501  502  0.00000000000E+00  0.00000000000E+00  0.58048967166E+02  0.58048967166E+02  0.00000000000E+00 0. -1.
         -4   -1    0    0    0  501 -0.00000000000E+00 -0.00000000000E+00 -0.12388804498E+03  0.12388804498E+03  0.00000000000E+00 0. -1.
        -13    1    1    2    0    0 -0.33782873047E+02 -0.15848678795E+02 -0.36389935542E+02  0.52121988677E+02  0.10566000000E+00 0.  1.
         13    1    1    2    0    0  0.36045595381E+02  0.49455019686E+02 -0.59000410323E+02  0.85006726209E+02  0.10566000000E+00 0. -1.
         -4    1    1    2    0  502 -0.22627223334E+01 -0.33606340891E+02  0.29551268047E+02  0.44808297263E+02  0.00000000000E+00 0. -1.
</event>
<event>
 5    1  0.7625606E-005  0.4669965E+03  0.7818608E-02  0.1005890E+00
         21   -1    0    0  501  502  0.00000000000E+00  0.00000000000E+00  0.52028493340E+03  0.52028493340E+03  0.00000000000E+00 0.  1.
          4   -1    0    0  502    0 -0.00000000000E+00 -0.00000000000E+00 -0.65018372226E+03  0.65018372226E+03  0.00000000000E+00 0.  1.
        -13    1    1    2    0    0 -0.27116639531E+02 -0.49266145860E+03  0.22031081141E+03  0.54035866766E+03  0.10566000000E+00 0.  1.
         13    1    1    2    0    0  0.23666720701E+02  0.79823174639E+02 -0.14935005481E+03  0.17098918946E+03  0.10566000000E+00 0. -1.
          4    1    1    2  501    0  0.34499188300E+01  0.41283828396E+03 -0.20085954546E+03  0.45912079853E+03  0.00000000000E+00 0.  1.
</event>
<event>
 5    1  0.7625606E-005  0.4956989E+03  0.7818608E-02  0.1022104E+00
         -4   -1    0    0    0  501 -0.00000000000E+00  0.00000000000E+00  0.11101821163E+04  0.11101821163E+04  0.00000000000E+00 0. -1.
         21   -1    0    0  501  502  0.00000000000E+00 -0.00000000000E+00 -0.25000681551E+03  0.25000681551E+03  0.00000000000E+00 0. -1.
        -13    1    1    2    0    0 -0.31206674004E+02 -0.27374520691E+02  0.67496340287E+02  0.79240065634E+02  0.10566000000E+00 0.  1.
         13    1    1    2    0    0  0.57353527440E+02  0.50512468615E+03  0.28281807370E+03  0.58174431639E+03  0.10566000000E+00 0. -1.
         -4    1    1    2    0  502 -0.26146853436E+02 -0.47775016546E+03  0.50986088676E+03  0.69920454975E+03  0.00000000000E+00 0. -1.
</event>
<event>
 5    1  0.7625606E-005  0.1852925E+03  0.7818608E-02  0.1097811E+00
          4   -1    0    0  502    0 -0.00000000000E+00  0.00000000000E+00  0.39523668957E+03  0.39523668957E+03  0.00000000000E+00 0.  1.
         21   -1    0    0  501  502  0.00000000000E+00 -0.00000000000E+00 -0.14544615068E+03  0.14544615068E+03  0.00000000000E+00 0.  1.
        -13    1    1    2    0    0  0.16093338119E+03 -0.25520858683E+02  0.16953399554E+03  0.23514390108E+03  0.10566000000E+00 0.  1.
         13    1    1    2    0    0  0.13619414325E+02 -0.85957443035E+02  0.14443405732E+02  0.88220142785E+02  0.10566000000E+00 0. -1.
          4    1    1    2  501    0 -0.17455279552E+03  0.11147830172E+03  0.65813137617E+02  0.21731879638E+03  0.00000000000E+00 0.  1.
</event>
<event>
 5    1  0.7625606E-005  0.5461716E+03  0.7818608E-02  0.9382136E-01
         21   -1    0    0  501  502  0.00000000000E+00  0.00000000000E+00  0.49793058677E+03  0.49793058677E+03  0.00000000000E+00 0.  1.
          4   -1    0    0  502    0 -0.00000000000E+00 -0.00000000000E+00 -0.12794848401E+04  0.12794848401E+04  0.00000000000E+00 0.  1.
        -13    1    1    2    0    0 -0.33635947653E+03  0.56392499221E+03 -0.34998999401E+03  0.74407130127E+03  0.10566000000E+00 0.  1.
         13    1    1    2    0    0  0.25785539823E+03 -0.42478238226E+03 -0.61462362575E+03  0.79037439936E+03  0.10566000000E+00 0. -1.
          4    1    1    2  501    0  0.78504078308E+02 -0.13914260995E+03  0.18305936644E+03  0.24296972622E+03  0.00000000000E+00 0.  1.
</event>
<event>
 5    1  0.7625606E-005  0.1830532E+03  0.7818608E-02  0.1072419E+00
         -4   -1    0    0    0  501 -0.00000000000E+00  0.00000000000E+00  0.12337241489E+04  0.12337241489E+04  0.00000000000E+00 0. -1.
         21   -1    0    0  501  502  0.00000000000E+00 -0.00000000000E+00 -0.74316438546E+02  0.74316438546E+02  0.00000000000E+00 0.  1.
        -13    1    1    2    0    0 -0.14988985628E+03  0.12472711450E+02  0.53262913243E+02  0.15956029154E+03  0.10566000000E+00 0.  1.
         13    1    1    2    0    0  0.16731211643E+03 -0.91399265549E+02  0.98204706588E+03  0.10003817376E+04  0.10566000000E+00 0. -1.
         -4    1    1    2    0  502 -0.17422260151E+02  0.78926554098E+02  0.12409773125E+03  0.14809855837E+03  0.00000000000E+00 0. -1.
</event>
<event>
 5    1  0.7625606E-005  0.5710804E+02  0.7818608E-02  0.1265277E+00
         -4   -1    0    0    0  501 -0.00000000000E+00  0.00000000000E+00  0.63375839281E+02  0.63375839281E+02  0.00000000000E+00 0. -1.
         21   -1    0    0  501  502  0.00000000000E+00 -0.00000000000E+00 -0.20258931851E+03  0.20258931851E+03  0.00000000000E+00 0. -1.
        -13    1    1    2    0    0  0.45317072467E+02 -0.14554825221E+02 -0.31020102291E+02  0.56813184248E+02  0.10566000000E+00 0.  1.
         13    1    1    2    0    0 -0.42519077803E+02  0.47959663187E+02  0.27232308469E+02  0.69639148895E+02  0.10566000000E+00 0. -1.
         -4    1    1    2    0  502 -0.27979946638E+01 -0.33404837966E+02 -0.13542568540E+03  0.13951282465E+03  0.00000000000E+00 0. -1.
</event>
<event>
 5    1  0.7625606E-005  0.4133029E+03  0.7818608E-02  0.9944349E-01
         -4   -1    0    0    0  501 -0.00000000000E+00  0.00000000000E+00  0.19696584804E+04  0.19696584804E+04  0.00000000000E+00 0. -1.
         21   -1    0    0  501  502  0.00000000000E+00 -0.00000000000E+00 -0.17525953538E+03  0.17525953538E+03  0.00000000000E+00 0. -1.
        -13    1    1    2    0    0  0.15684689362E+03 -0.77183669413E+02  0.36976995344E+03  0.40900867533E+03  0.10566000000E+00 0.  1.
         13    1    1    2    0    0 -0.48442709871E+03  0.25439359477E+03  0.11488050775E+04  0.12724538625E+04  0.10566000000E+00 0. -1.
         -4    1    1    2    0  502  0.32758020509E+03 -0.17720992536E+03  0.27582391404E+03  0.46345547788E+03  0.00000000000E+00 0. -1.
</event>
<event>
 5    1  0.7625606E-005  0.4505107E+03  0.7818608E-02  0.9805493E-01
         21   -1    0    0  501  502  0.00000000000E+00  0.00000000000E+00  0.11077247245E+04  0.11077247245E+04  0.00000000000E+00 0.  1.
          4   -1    0    0  502    0 -0.00000000000E+00 -0.00000000000E+00 -0.43775073486E+03  0.43775073486E+03  0.00000000000E+00 0.  1.
        -13    1    1    2    0    0  0.14087267590E+03 -0.44141526040E+03  0.68234313984E+03  0.82479374062E+03  0.10566000000E+00 0.  1.
         13    1    1    2    0    0 -0.21516912467E+03 -0.73580501352E+01 -0.12913382013E+03  0.25105267929E+03  0.10566000000E+00 0. -1.
          4    1    1    2  501    0  0.74296448771E+02  0.44877331053E+03  0.11676466993E+03  0.46962903945E+03  0.00000000000E+00 0.  1.
</event>
<event>
 5    1  0.7625606E-005  0.4531125E+03  0.7818608E-02  0.9605205E-01
         21   -1    0    0  501  502  0.00000000000E+00  0.00000000000E+00  0.25635017950E+03  0.25635017950E+03  0.00000000000E+00 0.  1.
          4   -1    0    0  502    0 -0.00000000000E+00 -0.00000000000E+00 -0.29836429167E+04  0.29836429167E+04  0.00000000000E+00 0.  1.
        -13    1    1    2    0    0  0.18723516489E+03  0.16818397381E+02 -0.90504995429E+03  0.92436751154E+03  0.10566000000E+00 0.  1.
         13    1    1    2    0    0  0.31976696539E+03 -0.27974289229E+03 -0.16719119836E+04  0.17250497645E+04  0.10566000000E+00 0. -1.
          4    1    1    2  501    0 -0.50700213028E+03  0.26292449491E+03 -0.15033079932E+03  0.59057582016E+03  0.00000000000E+00 0.  1.
</event>
<event>
 5    1  0.7625606E-005  0.3845450E+03  0.7818608E-02  0.1015625E+00
         21   -1    0    0  501  502  0.00000000000E+00  0.00000000000E+00  0.25238953301E+03  0.25238953301E+03  0.00000000000E+00 0.  1.
          4   -1    0    0  502    0 -0.00000000000E+00 -0.00000000000E+00 -0.13344494899E+04  0.13344494899E+04  0.00000000000E+00 0.  1.
        -13    1    1    2    0    0 -0.12462306420E+03 -0.34622232843E+03 -0.10814816651E+02  0.36812739677E+03  0.10566000000E+00 0.  1.
         13    1    1    2    0    0  0.32473149157E+02 -0.10416558249E+03 -0.31868278277E+03  0.33684373408E+03  0.10566000000E+00 0. -1.
          4    1    1    2  501    0  0.92149915045E+02  0.45038791092E+03 -0.75256235748E+03  0.88186789206E+03  0.00000000000E+00 0.  1.
</event>
<event>
 5    1  0.7625606E-005  0.2145736E+03  0.7818608E-02  0.1050579E+00
          4   -1    0    0  502    0 -0.00000000000E+00  0.00000000000E+00  0.42276104547E+03  0.42276104547E+03  0.00000000000E+00 0.  1.
         21   -1    0    0  501  502  0.00000000000E+00 -0.00000000000E+00 -0.27416348200E+03  0.27416348200E+03  0.00000000000E+00 0. -1.
        -13    1    1    2    0    0 -0.12304635245E+03 -0.16833196279E+03  0.11162561036E+03  0.23650865228E+03  0.10566000000E+00 0.  1.
         13    1    1    2    0    0  0.12838962006E+03  0.17775440996E+03  0.20014637718E+03  0.29688231383E+03  0.10566000000E+00 0. -1.
          4    1    1    2  501    0 -0.53432676047E+01 -0.94224471715E+01 -0.16317442408E+03  0.16353356137E+03  0.00000000000E+00 0.  1.
</event>
<event>
 5    1  0.7625606E-005  0.4569190E+03  0.7818608E-02  0.9796960E-01
         21   -1    0    0  501  502  0.00000000000E+00  0.00000000000E+00  0.21950959115E+03  0.21950959115E+03  0.00000000000E+00 0. -1.
         -4   -1    0    0    0  501 -0.00000000000E+00 -0.00000000000E+00 -0.18072212965E+04  0.18072212965E+04  0.00000000000E+00 0. -1.
        -13    1    1    2    0    0 -0.19906643277E+03 -0.74244868318E+02 -0.18269127096E+03  0.28020681073E+03  0.10566000000E+00 0.  1.
         13    1    1    2    0    0  0.32272510503E+03  0.39202229745E+03 -0.29929707264E+03  0.58941642662E+03  0.10566000000E+00 0. -1.
         -4    1    1    2    0  502 -0.12365867225E+03 -0.31777742913E+03 -0.11057233618E+04  0.11571076503E+04  0.00000000000E+00 0. -1.
</event>
<event>
 5    1  0.7625606E-005  0.4874437E+03  0.7818608E-02  0.9660160E-01
         -4   -1    0    0    0  501 -0.00000000000E+00  0.00000000000E+00  0.59783886159E+03  0.59783886159E+03  0.00000000000E+00 0. -1.
         21   -1    0    0  501  502  0.00000000000E+00 -0.00000000000E+00 -0.93544291440E+03  0.93544291440E+03  0.00000000000E+00 0. -1.
        -13    1    1    2    0    0 -0.31857639845E+02  0.27923513144E+03  0.23089365806E+03  0.36372937790E+03  0.10566000000E+00 0.  1.
         13    1    1    2    0    0 -0.22818786014E+03 -0.54512273928E+03 -0.53323626589E+03  0.79597074495E+03  0.10566000000E+00 0. -1.
         -4    1    1    2    0  502  0.26004549998E+03  0.26588760784E+03 -0.35261444987E+02  0.37358165314E+03  0.00000000000E+00 0. -1.
</event>
<event>
 5    1  0.7625606E-005  0.2451824E+03  0.7818608E-02  0.1038869E+00
          4   -1    0    0  502    0 -0.00000000000E+00  0.00000000000E+00  0.32968844438E+04  0.32968844438E+04  0.00000000000E+00 0.  1.
         21   -1    0    0  501  502  0.00000000000E+00 -0.00000000000E+00 -0.16665180480E+03  0.16665180480E+03  0.00000000000E+00 0.  1.
        -13    1    1    2    0    0 -0.18305711420E+03 -0.10414789902E+03 -0.30020287558E+02  0.21273909081E+03  0.10566000000E+00 0.  1.
         13    1    1    2    0    0 -0.26330331831E+03 -0.52557807473E+02  0.15264388497E+04  0.15498730701E+04  0.10566000000E+00 0. -1.
          4    1    1    2  501    0  0.44636043251E+03  0.15670570649E+03  0.16338140769E+04  0.17009240876E+04  0.00000000000E+00 0.  1.
</event>
<event>
 5    1  0.7625606E-005  0.5016680E+03  0.7818608E-02  0.9538755E-01
          4   -1    0    0  502    0 -0.00000000000E+00  0.00000000000E+00  0.11967054458E+04  0.11967054458E+04  0.00000000000E+00 0.  1.
         21   -1    0    0  501  502  0.00000000000E+00 -0.00000000000E+00 -0.49967028562E+03  0.49967028562E+03  0.00000000000E+00 0.  1.
        -13    1    1    2    0    0  0.29824881803E+03 -0.45719926347E+03  0.15352425528E+03  0.56705663923E+03  0.10566000000E+00 0.  1.
         13    1    1    2    0    0  0.22000551384E+03  0.33057305881E+03  0.42727267365E+03  0.58330345631E+03  0.10566000000E+00 0. -1.
          4    1    1    2  501    0 -0.51825433187E+03  0.12662620467E+03  0.11623823125E+03  0.54601563587E+03  0.00000000000E+00 0.  1.
</event>
<event>
 5    1  0.7625606E-005  0.5712012E+03  0.7818608E-02  0.9787760E-01
          4   -1    0    0  502    0 -0.00000000000E+00  0.00000000000E+00  0.10062836281E+04  0.10062836281E+04  0.00000000000E+00 0.  1.
         21   -1    0    0  501  502  0.00000000000E+00 -0.00000000000E+00 -0.98725848798E+03  0.98725848798E+03  0.00000000000E+00 0.  1.
        -13    1    1    2    0    0  0.91084617282E+02  0.28136579278E+02  0.34851239438E+03  0.36131561660E+03  0.10566000000E+00 0.  1.
         13    1    1    2    0    0 -0.55484266497E+03 -0.36160220135E+03  0.34632268935E+03  0.74735931868E+03  0.10566000000E+00 0. -1.
          4    1    1    2  501    0  0.46375804769E+03  0.33346562207E+03 -0.67580994356E+03  0.88486718084E+03  0.00000000000E+00 0.  1.
</event>
<event>
 5    1  0.7625606E-005  0.4559861E+03  0.7818608E-02  0.9580038E-01
          4   -1    0    0  502    0 -0.00000000000E+00  0.00000000000E+00  0.24358175175E+04  0.24358175175E+04  0.00000000000E+00 0.  1.
         21   -1    0    0  501  502  0.00000000000E+00 -0.00000000000E+00 -0.14983504422E+03  0.14983504422E+03  0.00000000000E+00 0.  1.
        -13    1    1    2    0    0 -0.29031614269E+03  0.44199473871E+03  0.85894118791E+03  0.10086737764E+04  0.10566000000E+00 0.  1.
         13    1    1    2    0    0  0.32177182813E+03 -0.28263755168E+03  0.13059366449E+04  0.13743695379E+04  0.10566000000E+00 0. -1.
          4    1    1    2  501    0 -0.31455685436E+02 -0.15935718703E+03  0.12110464050E+03  0.20260924745E+03  0.00000000000E+00 0.  1.
</event>
<event>
 5    1  0.2187626E-004  0.1572641E+04  0.7818608E-02  0.8368879E-01
         21   -1    0    0  501  502  0.00000000000E+00  0.00000000000E+00  0.86390085888E+03  0.86390085888E+03  0.00000000000E+00 0.  1.
         -4   -1    0    0    0  501 -0.00000000000E+00 -0.00000000000E+00 -0.34865479660E+04  0.34865479660E+04  0.00000000000E+00 0. -1.
        -13    1    1    2    0    0 -0.15429831826E+04  0.27033887282E+03 -0.55891003731E+03  0.16632079391E+04  0.10566000000E+00 0.  1.
         13    1    1    2    0    0  0.15538716474E+04 -0.26056913989E+03 -0.21130573390E+04  0.26357967870E+04  0.10566000000E+00 0. -1.
         -4    1    1    2    0  502 -0.10888464867E+02 -0.97697329286E+01  0.49320269157E+02  0.51444098771E+02  0.00000000000E+00 0. -1.
</event>
<event>
 5    1  0.7625606E-005  0.4977886E+02  0.7818608E-02  0.1304179E+00
         -4   -1    0    0    0  501 -0.00000000000E+00  0.00000000000E+00  0.11572728343E+02  0.11572728343E+02  0.00000000000E+00 0. -1.
         21   -1    0    0  501  502  0.00000000000E+00 -0.00000000000E+00 -0.53122794537E+03  0.53122794537E+03  0.00000000000E+00 0. -1.
        -13    1    1    2    0    0  0.39449105810E+02  0.53672500014E+01 -0.16592528856E+03  0.17063484951E+03  0.10566000000E+00 0.  1.
         13    1    1    2    0    0 -0.34769436843E+02 -0.53017852286E+02 -0.14931464720E+03  0.16221800588E+03  0.10566000000E+00 0. -1.
         -4    1    1    2    0  502 -0.46796689669E+01  0.47650602285E+02 -0.20441528127E+03  0.20994781832E+03  0.00000000000E+00 0. -1.
</event>
<event>
 5    1  0.7625606E-005  0.2369785E+02  0.7818608E-02  0.1464095E+00
         -4   -1    0    0    0  501 -0.00000000000E+00  0.00000000000E+00  0.12724290101E+03  0.12724290101E+03  0.00000000000E+00 0. -1.
         21   -1    0    0  501  502  0.00000000000E+00 -0.00000000000E+00 -0.82427355132E+01  0.82427355132E+01  0.00000000000E+00 0.  1.
        -13    1    1    2    0    0 -0.16693480090E+02  0.14991954507E+02  0.41820117755E+02  0.47459081223E+02  0.10566000000E+00 0.  1.
         13    1    1    2    0    0  0.25344820871E+02 -0.62735128497E+01  0.67545314994E+02  0.72416142193E+02  0.10566000000E+00 0. -1.
         -4    1    1    2    0  502 -0.86513407813E+01 -0.87184416573E+01  0.96347327467E+01  0.15610413106E+02  0.00000000000E+00 0. -1.
</event>
<event>
 5    1  0.7625606E-005  0.4790889E+03  0.7818608E-02  0.9607298E-01
         -4   -1    0    0    0  501 -0.00000000000E+00  0.00000000000E+00  0.21787684607E+04  0.21787684607E+04  0.00000000000E+00 0. -1.
         21   -1    0    0  501  502  0.00000000000E+00 -0.00000000000E+00 -0.26785012880E+03  0.26785012880E+03  0.00000000000E+00 0. -1.
        -13    1    1    2    0    0  0.23588439543E+03  0.26766098959E+03  0.96885561240E+03  0.10324558403E+04  0.10566000000E+00 0.  1.
         13    1    1    2    0    0 -0.29625813368E+03 -0.62452733923E+03  0.58182146107E+03  0.90350401379E+03  0.10566000000E+00 0. -1.
         -4    1    1    2    0  502  0.60373738245E+02  0.35686634963E+03  0.36024125846E+03  0.51065873542E+03  0.00000000000E+00 0. -1.
</event>
<event>
 5    1  0.7625606E-005  0.2549504E+03  0.7818608E-02  0.1027859E+00
         21   -1    0    0  501  502  0.00000000000E+00  0.00000000000E+00  0.24370584736E+03  0.24370584736E+03  0.00000000000E+00 0.  1.
          4   -1    0    0  502    0 -0.00000000000E+00 -0.00000000000E+00 -0.21756848023E+04  0.21756848023E+04  0.00000000000E+00 0.  1.
        -13    1    1    2    0    0 -0.28220399143E+02  0.16848108712E+03  0.19171635036E+03  0.25678286120E+03  0.10566000000E+00 0.  1.
         13    1    1    2    0    0  0.36440303973E+01 -0.26162137918E+03 -0.96267428051E+03  0.99759751730E+03  0.10566000000E+00 0. -1.
          4    1    1    2  501    0  0.24576368746E+02  0.93140292055E+02 -0.11610210248E+04  0.11650102712E+04  0.00000000000E+00 0.  1.
</event>
<event>
 5    1  0.7625606E-005  0.4685485E+03  0.7818608E-02  0.9741199E-01
         21   -1    0    0  501  502  0.00000000000E+00  0.00000000000E+00  0.30733609358E+03  0.30733609358E+03  0.00000000000E+00 0. -1.
         -4   -1    0    0    0  501 -0.00000000000E+00 -0.00000000000E+00 -0.13650728097E+04  0.13650728097E+04  0.00000000000E+00 0. -1.
        -13    1    1    2    0    0 -0.46481587122E+02 -0.23405817392E+03 -0.34504676733E+03  0.41952479013E+03  0.10566000000E+00 0.  1.
         13    1    1    2    0    0 -0.29174234501E+03  0.49778409165E+03 -0.54089455611E+03  0.79086631599E+03  0.10566000000E+00 0. -1.
         -4    1    1    2    0  502  0.33822393213E+03 -0.26372591773E+03 -0.17179539268E+03  0.46201779716E+03  0.00000000000E+00 0. -1.
</event>
<event>
 5    1  0.7625606E-005  0.4937591E+02  0.7818608E-02  0.1294351E+00
         21   -1    0    0  501  502  0.00000000000E+00  0.00000000000E+00  0.43297313499E+03  0.43297313499E+03  0.00000000000E+00 0. -1.
          4   -1    0    0  502    0 -0.00000000000E+00 -0.00000000000E+00 -0.27811650717E+03  0.27811650717E+03  0.00000000000E+00 0.  1.
        -13    1    1    2    0    0  0.15003539366E+02 -0.46741867948E+02 -0.26615044472E+03  0.27063994310E+03  0.10566000000E+00 0.  1.
         13    1    1    2    0    0  0.52819355138E+01  0.80490903625E+02  0.19479197148E+03  0.21083312767E+03  0.10566000000E+00 0. -1.
          4    1    1    2  501    0 -0.20285474880E+02 -0.33749035677E+02  0.22621510107E+03  0.22961657138E+03  0.00000000000E+00 0.  1.
</event>
<event>
 5    1  0.7625606E-005  0.2916677E+03  0.7818608E-02  0.1033863E+00
         -4   -1    0    0    0  501 -0.00000000000E+00  0.00000000000E+00  0.29233010210E+03  0.29233010210E+03  0.00000000000E+00 0. -1.
         21   -1    0    0  501  502  0.00000000000E+00 -0.00000000000E+00 -0.22069473389E+04  0.22069473389E+04  0.00000000000E+00 0. -1.
        -13    1    1    2    0    0 -0.29362092975E+03  0.31516884599E+03 -0.89545503561E+03  0.99367217121E+03  0.10566000000E+00 0.  1.
         13    1    1    2    0    0 -0.10234327615E+03 -0.17885873898E+03  0.15574102554E+03  0.25830190260E+03  0.10566000000E+00 0. -1.
         -4    1    1    2    0  502  0.39596420590E+03 -0.13631010701E+03 -0.11749032268E+04  0.12473033672E+04  0.00000000000E+00 0. -1.
</event>
<event>
 5    1  0.7625606E-005  0.5655408E+03  0.7818608E-02  0.9532378E-01
         -4   -1    0    0    0  501 -0.00000000000E+00  0.00000000000E+00  0.97504335371E+03  0.97504335371E+03  0.00000000000E+00 0. -1.
         21   -1    0    0  501  502  0.00000000000E+00 -0.00000000000E+00 -0.55933197064E+03  0.55933197064E+03  0.00000000000E+00 0. -1.
        -13    1    1    2    0    0  0.27304558470E+03 -0.76716649940E+02  0.59156948651E+02  0.28972209346E+03  0.10566000000E+00 0.  1.
         13    1    1    2    0    0 -0.15375132637E+03  0.61203034798E+03  0.28190242887E+03  0.69115092981E+03  0.10566000000E+00 0. -1.
         -4    1    1    2    0  502 -0.11929425833E+03 -0.53531369804E+03  0.74652005551E+02  0.55350230109E+03  0.00000000000E+00 0. -1.
</event>
<event>
 5    1  0.7625606E-005  0.4483916E+03  0.7818608E-02  0.9813533E-01
         -4   -1    0    0    0  501 -0.00000000000E+00  0.00000000000E+00  0.64615648544E+03  0.64615648544E+03  0.00000000000E+00 0. -1.
         21   -1    0    0  501  502  0.00000000000E+00 -0.00000000000E+00 -0.63203065080E+03  0.63203065080E+03  0.00000000000E+00 0. -1.
        -13    1    1    2    0    0 -0.20238092189E+03 -0.64665224329E+02 -0.11432964835E+03  0.24126936904E+03  0.10566000000E+00 0.  1.
         13    1    1    2    0    0 -0.24236543949E+03 -0.17503421896E+03  0.37101781871E+03  0.47647897858E+03  0.10566000000E+00 0. -1.
         -4    1    1    2    0  502  0.44474636138E+03  0.23969944329E+03 -0.24256233571E+03  0.56043878861E+03  0.00000000000E+00 0. -1.
</event>
<event>
 5    1  0.7625606E-005  0.3950868E+03  0.7818608E-02  0.1001564E+00
         21   -1    0    0  501  502  0.00000000000E+00  0.00000000000E+00  0.17020173789E+03  0.17020173789E+03  0.00000000000E+00 0.  1.
          4   -1    0    0  502    0 -0.00000000000E+00 -0.00000000000E+00 -0.22986899850E+04  0.22986899850E+04  0.00000000000E+00 0.  1.
        -13    1    1    2    0    0  0.24010593801E+03  0.37446762782E+03 -0.12465867417E+04  0.13235767381E+04  0.10566000000E+00 0.  1.
         13    1    1    2    0    0 -0.15818213188E+03  0.53046627620E+01 -0.69756265977E+03  0.71529252880E+03  0.10566000000E+00 0. -1.
          4    1    1    2  501    0 -0.81923806137E+02 -0.37977229058E+03 -0.18433884568E+03  0.43002245608E+03  0.00000000000E+00 0.  1.
</event>
<event>
 5    1  0.7625606E-005  0.4126817E+03  0.7818608E-02  0.9693118E-01
         -4   -1    0    0    0  501 -0.00000000000E+00  0.00000000000E+00  0.27462823139E+04  0.27462823139E+04  0.00000000000E+00 0. -1.
         21   -1    0    0  501  502  0.00000000000E+00 -0.00000000000E+00 -0.17465252382E+03  0.17465252382E+03  0.00000000000E+00 0. -1.
        -13    1    1    2    0    0  0.11573568925E+03  0.30642183683E+03  0.45171407940E+03  0.55797375614E+03  0.10566000000E+00 0.  1.
         13    1    1    2    0    0  0.16726079241E+03 -0.46923461280E+03  0.19121412224E+04  0.19759659309E+04  0.10566000000E+00 0. -1.
         -4    1    1    2    0  502 -0.28299648167E+03  0.16281277597E+03  0.20777448824E+03  0.38699515064E+03  0.00000000000E+00 0. -1.
</event>
<event>
 5    1  0.7625606E-005  0.4861460E+03  0.7818608E-02  0.9883084E-01
         21   -1    0    0  501  502  0.00000000000E+00  0.00000000000E+00  0.11004838081E+04  0.11004838081E+04  0.00000000000E+00 0. -1.
         -4   -1    0    0    0  501 -0.00000000000E+00 -0.00000000000E+00 -0.36861385037E+03  0.36861385037E+03  0.00000000000E+00 0. -1.
        -13    1    1    2    0    0 -0.58791333299E+02  0.11793277452E+03 -0.10244310875E+03  0.16691064038E+03  0.10566000000E+00 0.  1.
         13    1    1    2    0    0 -0.31504905862E+02  0.43546352095E+03  0.41106903032E+03  0.59966557016E+03  0.10566000000E+00 0. -1.
         -4    1    1    2    0  502  0.90296239160E+02 -0.55339629548E+03  0.42324403617E+03  0.70252144793E+03  0.00000000000E+00 0. -1.
</event>
<event>
 5    1  0.7625606E-005  0.2567358E+03  0.7818608E-02  0.1026960E+00
         -4   -1    0    0    0  501 -0.00000000000E+00  0.00000000000E+00  0.22228045375E+04  0.22228045375E+04  0.00000000000E+00 0. -1.
         21   -1    0    0  501  502  0.00000000000E+00 -0.00000000000E+00 -0.21550795862E+03  0.21550795862E+03  0.00000000000E+00 0. -1.
        -13    1    1    2    0    0 -0.18897471854E+03 -0.15274109123E+03  0.80687555154E+03  0.84266805566E+03  0.10566000000E+00 0.  1.
         13    1    1    2    0    0  0.35279975522E+03  0.20480694640E+03  0.26060785528E+02  0.40876977418E+03  0.10566000000E+00 0. -1.
         -4    1    1    2    0  502 -0.16382503668E+03 -0.52065855173E+02  0.11743602418E+04  0.11868746662E+04  0.00000000000E+00 0. -1.
</event>
<event>
 5    1  0.7625606E-005  0.4150115E+03  0.7818608E-02  0.9686665E-01
         21   -1    0    0  501  502  0.00000000000E+00  0.00000000000E+00  0.28101134371E+03  0.28101134371E+03  0.00000000000E+00 0. -1.
         -4   -1    0    0    0  501 -0.00000000000E+00 -0.00000000000E+00 -0.12381055358E+04  0.12381055358E+04  0.00000000000E+00 0. -1.
        -13    1    1    2    0    0  0.40374046834E+03 -0.11912188178E+03 -0.24932592556E+03  0.48924412803E+03  0.10566000000E+00 0.  1.
         13    1    1    2    0    0 -0.39107319352E+03  0.13175911551E+03 -0.81906273983E+03  0.91714911010E+03  0.10566000000E+00 0. -1.
         -4    1    1    2    0  502 -0.12667274822E+02 -0.12637233738E+02  0.11129447332E+03  0.11272364135E+03  0.00000000000E+00 0. -1.
</event>
<event>
 5    1  0.7625606E-005  0.9354527E+02  0.7818608E-02  0.1175700E+00
          4   -1    0    0  502    0 -0.00000000000E+00  0.00000000000E+00  0.27260191600E+03  0.27260191600E+03  0.00000000000E+00 0.  1.
         21   -1    0    0  501  502  0.00000000000E+00 -0.00000000000E+00 -0.14011989402E+03  0.14011989402E+03  0.00000000000E+00 0.  1.
        -13    1    1    2    0    0  0.25859915649E+02 -0.10654965822E+03  0.97647383287E+02  0.14682161807E+03  0.10566000000E+00 0.  1.
         13    1    1    2    0    0 -0.32910581918E+02  0.79268142902E+02  0.13603620530E+03  0.16084901367E+03  0.10566000000E+00 0. -1.
          4    1    1    2  501    0  0.70506662692E+01  0.27281515320E+02 -0.10120156661E+03  0.10505117828E+03  0.00000000000E+00 0.  1.
</event>
<event>
 5    1  0.7625606E-005  0.4777730E+03  0.7818608E-02  0.1001398E+00
         21   -1    0    0  501  502  0.00000000000E+00  0.00000000000E+00  0.77867683790E+03  0.77867683790E+03  0.00000000000E+00 0.  1.
          4   -1    0    0  502    0 -0.00000000000E+00 -0.00000000000E+00 -0.60857089583E+03  0.60857089583E+03  0.00000000000E+00 0.  1.
        -13    1    1    2    0    0 -0.52482691656E+02 -0.42583613838E+03 -0.96389148156E+02  0.43975189450E+03  0.10566000000E+00 0.  1.
         13    1    1    2    0    0  0.54350465170E+02 -0.71718106023E+02 -0.22854418759E+03  0.24562149059E+03  0.10566000000E+00 0. -1.
          4    1    1    2  501    0 -0.18677735137E+01  0.49755424440E+03  0.49503927781E+03  0.70187434864E+03  0.00000000000E+00 0.  1.
</event>
<event>
 5    1  0.7625606E-005  0.4797751E+03  0.7818608E-02  0.9570445E-01
         21   -1    0    0  501  502  0.00000000000E+00  0.00000000000E+00  0.24845410240E+03  0.24845410240E+03  0.00000000000E+00 0. -1.
         -4   -1    0    0    0  501 -0.00000000000E+00 -0.00000000000E+00 -0.23334725268E+04  0.23334725268E+04  0.00000000000E+00 0. -1.
        -13    1    1    2    0    0 -0.32089594283E+03  0.24729554675E+03 -0.97013346196E+03  0.10513268943E+04  0.10566000000E+00 0.  1.
         13    1    1    2    0    0  0.10906829959E+03  0.33514600282E+03 -0.70314260257E+03  0.78652925431E+03  0.10566000000E+00 0. -1.
         -4    1    1    2    0  502  0.21182764325E+03 -0.58244154957E+03 -0.41174235988E+03  0.74407048055E+03  0.00000000000E+00 0. -1.
</event>
<event>
 5    1  0.7625606E-005  0.4327452E+03  0.7818608E-02  0.9641967E-01
          4   -1    0    0  502    0 -0.00000000000E+00  0.00000000000E+00  0.17543758508E+04  0.17543758508E+04  0.00000000000E+00 0.  1.
         21   -1    0    0  501  502  0.00000000000E+00 -0.00000000000E+00 -0.32641072647E+03  0.32641072647E+03  0.00000000000E+00 0.  1.
        -13    1    1    2    0    0  0.16088388303E+03  0.42750516045E+03  0.13315554787E+03  0.47578850041E+03  0.10566000000E+00 0.  1.
         13    1    1    2    0    0  0.32751437031E+03 -0.27586008428E+03  0.48248125885E+03  0.64509892665E+03  0.10566000000E+00 0. -1.
          4    1    1    2  501    0 -0.48839825334E+03 -0.15164507617E+03  0.81232831764E+03  0.95989915024E+03  0.00000000000E+00 0.  1.
</event>
<event>
 5    1  0.7625606E-005  0.4250476E+03  0.7818608E-02  0.9981485E-01
         -4   -1    0    0    0  501 -0.00000000000E+00  0.00000000000E+00  0.25590593627E+04  0.25590593627E+04  0.00000000000E+00 0. -1.
         21   -1    0    0  501  502  0.00000000000E+00 -0.00000000000E+00 -0.15692931064E+03  0.15692931064E+03  0.00000000000E+00 0. -1.
        -13    1    1    2    0    0 -0.13662489834E+03  0.39301200600E+02  0.74492278109E+02  0.16049940148E+03  0.10566000000E+00 0.  1.
         13    1    1    2    0    0  0.31956570362E+03 -0.31803477239E+03  0.41101368658E+03  0.61008246746E+03  0.10566000000E+00 0. -1.
         -4    1    1    2    0  502 -0.18294080528E+03  0.27873357179E+03  0.19166240874E+04  0.19454068044E+04  0.00000000000E+00 0. -1.
</event>
<event>
 5    1  0.7625606E-005  0.4755630E+03  0.7818608E-02  0.9922212E-01
         -4   -1    0    0    0  501 -0.00000000000E+00  0.00000000000E+00  0.79828121908E+03  0.79828121908E+03  0.00000000000E+00 0. -1.
         21   -1    0    0  501  502  0.00000000000E+00 -0.00000000000E+00 -0.36816304507E+03  0.36816304507E+03  0.00000000000E+00 0. -1.
        -13    1    1    2    0    0  0.36478000850E+02 -0.11799679856E+03  0.49077622041E+02  0.13290038813E+03  0.10566000000E+00 0.  1.
         13    1    1    2    0    0  0.39702043109E+03 -0.16738626664E+03  0.25043973227E+03  0.49836076855E+03  0.10566000000E+00 0. -1.
         -4    1    1    2    0  502 -0.43349843194E+03  0.28538306521E+03  0.13060081971E+03  0.53518310746E+03  0.00000000000E+00 0. -1.
</event>
<event>
 5    1  0.7625606E-005  0.3108252E+03  0.7818608E-02  0.1002934E+00
          4   -1    0    0  502    0 -0.00000000000E+00  0.00000000000E+00  0.14402072564E+04  0.14402072564E+04  0.00000000000E+00 0.  1.
         21   -1    0    0  501  502  0.00000000000E+00 -0.00000000000E+00 -0.99864137270E+02  0.99864137270E+02  0.00000000000E+00 0. -1.
        -13    1    1    2    0    0  0.28426120676E+03  0.12172327862E+03  0.10319854900E+04  0.10773184548E+04  0.10566000000E+00 0.  1.
         13    1    1    2    0    0 -0.27950778526E+03 -0.14854241590E+03  0.29381869558E+03  0.43187832590E+03  0.10566000000E+00 0. -1.
          4    1    1    2  501    0 -0.47534215021E+01  0.26819137277E+02  0.14538933557E+02  0.30874613021E+02  0.00000000000E+00 0.  1.
</event>
<event>
 5    1  0.7625606E-005  0.1168457E+03  0.7818608E-02  0.1139348E+00
         21   -1    0    0  501  502  0.00000000000E+00  0.00000000000E+00  0.16833405148E+03  0.16833405148E+03  0.00000000000E+00 0.  1.
         -4   -1    0    0    0  501 -0.00000000000E+00 -0.00000000000E+00 -0.17815530302E+03  0.17815530302E+03  0.00000000000E+00 0. -1.
        -13    1    1    2    0    0  0.11183237198E+03  0.74949928878E+01  0.70322003374E+02  0.13231723117E+03  0.10566000000E+00 0.  1.
         13    1    1    2    0    0 -0.11801749805E+03  0.70020367081E+00 -0.12278724126E+03  0.17030953559E+03  0.10566000000E+00 0. -1.
         -4    1    1    2    0  502  0.61851260716E+01 -0.81951965586E+01  0.42643986349E+02  0.43862587735E+02  0.00000000000E+00 0. -1.
</event>
<event>
 5    1  0.7625606E-005  0.5215800E+03  0.7818608E-02  0.9560407E-01
         21   -1    0    0  501  502  0.00000000000E+00  0.00000000000E+00  0.10910916025E+04  0.10910916025E+04  0.00000000000E+00 0. -1.
         -4   -1    0    0    0  501 -0.00000000000E+00 -0.00000000000E+00 -0.57699825132E+03  0.57699825132E+03  0.00000000000E+00 0. -1.
        -13    1    1    2    0    0 -0.17619093754E+03  0.27531095546E+03 -0.16952665639E+03  0.36821008549E+03  0.10566000000E+00 0.  1.
         13    1    1    2    0    0  0.51680099411E+03  0.16001391816E+03  0.43312820199E+03  0.69302797349E+03  0.10566000000E+00 0. -1.
         -4    1    1    2    0  502 -0.34061005657E+03 -0.43532487362E+03  0.25049180556E+03  0.60685179482E+03  0.00000000000E+00 0. -1.
</event>
<event>
 5    1  0.7625606E-005  0.4655558E+03  0.7818608E-02  0.9868903E-01
         21   -1    0    0  501  502  0.00000000000E+00  0.00000000000E+00  0.14077936768E+03  0.14077936768E+03  0.00000000000E+00 0. -1.
         -4   -1    0    0    0  501 -0.00000000000E+00 -0.00000000000E+00 -0.25102935692E+04  0.25102935692E+04  0.00000000000E+00 0. -1.
        -13    1    1    2    0    0  0.70017386912E+02  0.14093536182E+03 -0.34191730470E+03  0.37639429472E+03  0.10566000000E+00 0.  1.
         13    1    1    2    0    0  0.29158692705E+03  0.21806598713E+03 -0.14905127135E+04  0.15343415106E+04  0.10566000000E+00 0. -1.
         -4    1    1    2    0  502 -0.36160431396E+03 -0.35900134894E+03 -0.53708418327E+03  0.74033713154E+03  0.00000000000E+00 0. -1.
</event>
<event>
 5    1  0.7625606E-005  0.2422410E+03  0.7818608E-02  0.1058523E+00
          4   -1    0    0  502    0 -0.00000000000E+00  0.00000000000E+00  0.49405187677E+03  0.49405187677E+03  0.00000000000E+00 0.  1.
         21   -1    0    0  501  502  0.00000000000E+00 -0.00000000000E+00 -0.15143829264E+04  0.15143829264E+04  0.00000000000E+00 0. -1.
        -13    1    1    2    0    0  0.11466091792E+03  0.83234486804E+02  0.20746994499E+03  0.25123474109E+03  0.10566000000E+00 0.  1.
         13    1    1    2    0    0 -0.44730910313E+03 -0.18233792725E+03 -0.18378379323E+01  0.48304859203E+03  0.10566000000E+00 0. -1.
          4    1    1    2  501    0  0.33264818521E+03  0.99103440443E+02 -0.12259631567E+04  0.12741514700E+04  0.00000000000E+00 0.  1.
</event>
<event>
 5    1  0.7625606E-005  0.4824131E+03  0.7818608E-02  0.9946652E-01
         -4   -1    0    0    0  501 -0.00000000000E+00  0.00000000000E+00  0.46559499931E+03  0.46559499931E+03  0.00000000000E+00 0. -1.
         21   -1    0    0  501  502  0.00000000000E+00 -0.00000000000E+00 -0.20766437455E+04  0.20766437455E+04  0.00000000000E+00 0. -1.
        -13    1    1    2    0    0 -0.63754143556E+02  0.88525121094E+02  0.33550929268E+03  0.35279992138E+03  0.10566000000E+00 0.  1.
         13    1    1    2    0    0 -0.11445585875E+03  0.42891766345E+03 -0.10354727197E+04  0.11266207304E+04  0.10566000000E+00 0. -1.
         -4    1    1    2    0  502  0.17821000230E+03 -0.51744278455E+03 -0.91108531917E+03  0.10628180931E+04  0.00000000000E+00 0. -1.
</event>
<event>
 5    1  0.7625606E-005  0.3999795E+03  0.7818608E-02  0.9929201E-01
         21   -1    0    0  501  502  0.00000000000E+00  0.00000000000E+00  0.17283345224E+03  0.17283345224E+03  0.00000000000E+00 0. -1.
         -4   -1    0    0    0  501 -0.00000000000E+00 -0.00000000000E+00 -0.17473155558E+04  0.17473155558E+04  0.00000000000E+00 0. -1.
        -13    1    1    2    0    0 -0.12894081816E+03 -0.15655027918E+03 -0.55957285966E+03  0.59519368354E+03  0.10566000000E+00 0.  1.
         13    1    1    2    0    0  0.38438325371E+03  0.27481558072E+03 -0.30793479514E+03  0.56400171840E+03  0.10566000000E+00 0. -1.
         -4    1    1    2    0  502 -0.25544243554E+03 -0.11826530154E+03 -0.70697444873E+03  0.76095360607E+03  0.00000000000E+00 0. -1.
</event>
<event>
 5    1  0.7625606E-005  0.2105959E+02  0.7818608E-02  0.1511022E+00
         21   -1    0    0  501  502  0.00000000000E+00  0.00000000000E+00  0.22457429504E+03  0.22457429504E+03  0.00000000000E+00 0.  1.
         -4   -1    0    0    0  501 -0.00000000000E+00 -0.00000000000E+00 -0.48423451708E+02  0.48423451708E+02  0.00000000000E+00 0. -1.
        -13    1    1    2    0    0  0.16067045573E+02 -0.32641091794E+02  0.17941414165E+03  0.18306566094E+03  0.10566000000E+00 0.  1.
         13    1    1    2    0    0 -0.11515621085E+02  0.12079209084E+02 -0.42357313155E+02  0.45526585232E+02  0.10566000000E+00 0. -1.
         -4    1    1    2    0  502 -0.45514244883E+01  0.20561882710E+02  0.39094014839E+02  0.44405500579E+02  0.00000000000E+00 0. -1.
</event>
<event>
 5    1  0.7625606E-005  0.5451328E+03  0.7818608E-02  0.9384182E-01
          4   -1    0    0  502    0 -0.00000000000E+00  0.00000000000E+00  0.29645243938E+04  0.29645243938E+04  0.00000000000E+00 0.  1.
         21   -1    0    0  501  502  0.00000000000E+00 -0.00000000000E+00 -0.18884429595E+03  0.18884429595E+03  0.00000000000E+00 0.  1.
        -13    1    1    2    0    0 -0.48253630018E+03  0.51485727323E+03  0.17546760193E+04  0.18912448908E+04  0.10566000000E+00 0.  1.
         13    1    1    2    0    0  0.32388894057E+03 -0.20341457037E+03  0.42985134202E+03  0.57537267980E+03  0.10566000000E+00 0. -1.
          4    1    1    2  501    0  0.15864735961E+03 -0.31144270285E+03  0.59115273652E+03  0.68675111923E+03  0.00000000000E+00 0.  1.
</event>
<event>
 5    1  0.7625606E-005  0.5072968E+03  0.7818608E-02  0.9743766E-01
         -4   -1    0    0    0  501 -0.00000000000E+00  0.00000000000E+00  0.12393016292E+04  0.12393016292E+04  0.00000000000E+00 0. -1.
         21   -1    0    0  501  502  0.00000000000E+00 -0.00000000000E+00 -0.31903367176E+03  0.31903367176E+03  0.00000000000E+00 0. -1.
        -13    1    1    2    0    0 -0.16471372119E+03 -0.87172295143E+02  0.27622505106E+03  0.33321150789E+03  0.10566000000E+00 0.  1.
         13    1    1    2    0    0  0.35670771034E+03 -0.38424794726E+03  0.40642122534E+03  0.66337402659E+03  0.10566000000E+00 0. -1.
         -4    1    1    2    0  502 -0.19199398914E+03  0.47142024240E+03  0.23762168100E+03  0.56174976644E+03  0.00000000000E+00 0. -1.
</event>
<event>
 5    1  0.7625606E-005  0.6293056E+02  0.7818608E-02  0.1246595E+00
         21   -1    0    0  501  502  0.00000000000E+00  0.00000000000E+00  0.63761295939E+02  0.63761295939E+02  0.00000000000E+00 0.  1.
          4   -1    0    0  502    0 -0.00000000000E+00 -0.00000000000E+00 -0.20157174581E+03  0.20157174581E+03  0.00000000000E+00 0.  1.
        -13    1    1    2    0    0  0.10464158584E+01 -0.56820553836E+02 -0.94053953253E+02  0.10989007057E+03  0.10566000000E+00 0.  1.
         13    1    1    2    0    0 -0.17749204707E+01  0.73557632262E+02 -0.84109223669E+02  0.11175083121E+03  0.10566000000E+00 0. -1.
          4    1    1    2  501    0  0.72850461231E+00 -0.16737078426E+02  0.40352727056E+02  0.43692139957E+02  0.00000000000E+00 0.  1.
</event>
<event>
 5    1  0.7625606E-005  0.3183802E+03  0.7818608E-02  0.9999943E-01
          4   -1    0    0  502    0 -0.00000000000E+00  0.00000000000E+00  0.21118121772E+04  0.21118121772E+04  0.00000000000E+00 0.  1.
         21   -1    0    0  501  502  0.00000000000E+00 -0.00000000000E+00 -0.40028170211E+03  0.40028170211E+03  0.00000000000E+00 0.  1.
        -13    1    1    2    0    0 -0.23304507728E+03 -0.23312874997E+03  0.19204735097E+04  0.19485578089E+04  0.10566000000E+00 0.  1.
         13    1    1    2    0    0  0.14939140573E+03  0.19809868396E+03  0.80000976503E+02  0.26069339865E+03  0.10566000000E+00 0. -1.
          4    1    1    2  501    0  0.83653671557E+02  0.35030066006E+02 -0.28894401110E+03  0.30284267176E+03  0.00000000000E+00 0.  1.
</event>
<event>
 5    1  0.7625606E-005  0.6890519E+02  0.7818608E-02  0.1229630E+00
          4   -1    0    0  502    0 -0.00000000000E+00  0.00000000000E+00  0.19045856439E+03  0.19045856439E+03  0.00000000000E+00 0.  1.
         21   -1    0    0  501  502  0.00000000000E+00 -0.00000000000E+00 -0.47759876163E+02  0.47759876163E+02  0.00000000000E+00 0.  1.
        -13    1    1    2    0    0  0.63249561035E+00 -0.70222429385E+02  0.10002698471E+03  0.12221701385E+03  0.10566000000E+00 0.  1.
         13    1    1    2    0    0  0.20985405897E+02  0.65787095824E+02  0.57126867251E+02  0.89620418229E+02  0.10566000000E+00 0. -1.
          4    1    1    2  501    0 -0.21617901508E+02  0.44353335608E+01 -0.14455163738E+02  0.26381008474E+02  0.00000000000E+00 0.  1.
</event>
<event>
 5    1  0.7625606E-005  0.4505240E+03  0.7818608E-02  0.9593551E-01
         -4   -1    0    0    0  501 -0.00000000000E+00  0.00000000000E+00  0.26278388666E+04  0.26278388666E+04  0.00000000000E+00 0. -1.
         21   -1    0    0  501  502  0.00000000000E+00 -0.00000000000E+00 -0.22042618034E+03  0.22042618034E+03  0.00000000000E+00 0. -1.
        -13    1    1    2    0    0  0.34234136263E+03 -0.24099483040E+03  0.87067221992E+03  0.96609846421E+03  0.10566000000E+00 0.  1.
         13    1    1    2    0    0 -0.62875764304E+03 -0.43539354746E+02  0.63751834654E+03  0.89647169639E+03  0.10566000000E+00 0. -1.
         -4    1    1    2    0  502  0.28641628041E+03  0.28453418514E+03  0.89922211982E+03  0.98569488635E+03  0.00000000000E+00 0. -1.
</event>
<event>
 5    1  0.7625606E-005  0.2088177E+03  0.7818608E-02  0.1054253E+00
          4   -1    0    0  502    0 -0.00000000000E+00  0.00000000000E+00  0.97709682248E+03  0.97709682248E+03  0.00000000000E+00 0.  1.
         21   -1    0    0  501  502  0.00000000000E+00 -0.00000000000E+00 -0.14393401516E+03  0.14393401516E+03  0.00000000000E+00 0. -1.
        -13    1    1    2    0    0  0.14487026388E+03  0.15131707595E+03  0.87182544669E+03  0.89664032448E+03  0.10566000000E+00 0.  1.
         13    1    1    2    0    0 -0.15116917555E+03 -0.13505283324E+03 -0.40934115101E+02  0.20680183835E+03  0.10566000000E+00 0. -1.
          4    1    1    2  501    0  0.62989116755E+01 -0.16264242707E+02  0.22714757259E+01  0.17588674796E+02  0.00000000000E+00 0.  1.
</event>
<event>
 5    1  0.7625606E-005  0.2596154E+03  0.7818608E-02  0.1025527E+00
         -4   -1    0    0    0  501 -0.00000000000E+00  0.00000000000E+00  0.71736360705E+03  0.71736360705E+03  0.00000000000E+00 0. -1.
         21   -1    0    0  501  502  0.00000000000E+00 -0.00000000000E+00 -0.15253538189E+03  0.15253538189E+03  0.00000000000E+00 0.  1.
        -13    1    1    2    0    0 -0.20761861912E+03 -0.20593078007E+03  0.21566565433E+03  0.36335198198E+03  0.10566000000E+00 0.  1.
         13    1    1    2    0    0  0.18270067031E+03  0.16137841067E+03  0.37658800006E+03  0.44859899611E+03  0.10566000000E+00 0. -1.
         -4    1    1    2    0  502  0.24917948810E+02  0.44552369407E+02 -0.27425429224E+02  0.57948010844E+02  0.00000000000E+00 0. -1.
</event>
<event>
 5    1  0.7625606E-005  0.3382879E+03  0.7818608E-02  0.1001184E+00
         21   -1    0    0  501  502  0.00000000000E+00  0.00000000000E+00  0.57983995994E+03  0.57983995994E+03  0.00000000000E+00 0. -1.
         -4   -1    0    0    0  501 -0.00000000000E+00 -0.00000000000E+00 -0.76559786996E+03  0.76559786996E+03  0.00000000000E+00 0. -1.
        -13    1    1    2    0    0  0.20876611810E+02  0.25441838887E+03 -0.16859920642E+03  0.30592524100E+03  0.10566000000E+00 0.  1.
         13    1    1    2    0    0  0.31105134295E+03 -0.29925211623E+03 -0.35864199252E+03  0.56118522520E+03  0.10566000000E+00 0. -1.
         -4    1    1    2    0  502 -0.33192795476E+03  0.44833727360E+02  0.34148328892E+03  0.47832736371E+03  0.00000000000E+00 0. -1.
</event>
<event>
 5    1  0.7625606E-005  0.5023032E+03  0.7818608E-02  0.9862639E-01
         21   -1    0    0  501  502  0.00000000000E+00  0.00000000000E+00  0.11976700074E+03  0.11976700074E+03  0.00000000000E+00 0.  1.
          4   -1    0    0  502    0 -0.00000000000E+00 -0.00000000000E+00 -0.29414984455E+04  0.29414984455E+04  0.00000000000E+00 0.  1.
        -13    1    1    2    0    0  0.43851968874E+03  0.48056441907E+02 -0.11142671708E+04  0.11984157367E+04  0.10566000000E+00 0.  1.
         13    1    1    2    0    0  0.12267666600E+03 -0.36420068518E+02 -0.68112879311E+03  0.69304576309E+03  0.10566000000E+00 0. -1.
          4    1    1    2  501    0 -0.56119635474E+03 -0.11636373389E+02 -0.10263354809E+04  0.11698039464E+04  0.00000000000E+00 0.  1.
</event>
<event>
 5    1  0.7625606E-005  0.5134822E+03  0.7818608E-02  0.9737807E-01
         21   -1    0    0  501  502  0.00000000000E+00  0.00000000000E+00  0.62089038804E+03  0.62089038804E+03  0.00000000000E+00 0.  1.
          4   -1    0    0  502    0 -0.00000000000E+00 -0.00000000000E+00 -0.78632198864E+03  0.78632198864E+03  0.00000000000E+00 0.  1.
        -13    1    1    2    0    0 -0.88849716116E+02  0.49766341584E+03 -0.21179776372E+03  0.54810715321E+03  0.10566000000E+00 0.  1.
         13    1    1    2    0    0 -0.17817552401E+03 -0.43642540780E+02 -0.20532601056E+03  0.27533610460E+03  0.10566000000E+00 0. -1.
          4    1    1    2  501    0  0.26702524013E+03 -0.45402087506E+03  0.25169217368E+03  0.58376911887E+03  0.00000000000E+00 0.  1.
</event>
<event>
 5    1  0.7625606E-005  0.1189564E+03  0.7818608E-02  0.1136519E+00
         -4   -1    0    0    0  501 -0.00000000000E+00  0.00000000000E+00  0.27283750813E+03  0.27283750813E+03  0.00000000000E+00 0. -1.
         21   -1    0    0  501  502  0.00000000000E+00 -0.00000000000E+00 -0.71468634704E+02  0.71468634704E+02  0.00000000000E+00 0.  1.
        -13    1    1    2    0    0  0.51033716711E+02 -0.11213878972E+03  0.16131081838E+03  0.20297965339E+03  0.10566000000E+00 0.  1.
         13    1    1    2    0    0 -0.49759584537E+02  0.10009723531E+03  0.52906548586E+02  0.12367128534E+03  0.10566000000E+00 0. -1.
         -4    1    1    2    0  502 -0.12741321742E+01  0.12041554407E+02 -0.12848493544E+02  0.17655204097E+02  0.00000000000E+00 0. -1.
</event>
<event>
 5    1  0.7625606E-005  0.3420704E+03  0.7818608E-02  0.1001025E+00
         21   -1    0    0  501  502  0.00000000000E+00  0.00000000000E+00  0.61286659732E+03  0.61286659732E+03  0.00000000000E+00 0. -1.
         -4   -1    0    0    0  501 -0.00000000000E+00 -0.00000000000E+00 -0.14723695567E+04  0.14723695567E+04  0.00000000000E+00 0. -1.
        -13    1    1    2    0    0  0.21578395231E+03 -0.33868810098E+03 -0.92780389392E+03  0.10109858657E+04  0.10566000000E+00 0.  1.
         13    1    1    2    0    0  0.21706972862E+03  0.20087311926E+03  0.41019890341E+03  0.50569993933E+03  0.10566000000E+00 0. -1.
         -4    1    1    2    0  502 -0.43285368093E+03  0.13781498172E+03 -0.34189796886E+03  0.56855034904E+03  0.00000000000E+00 0. -1.
</event>
<event>
 5    1  0.7625606E-005  0.6206811E+02  0.7818608E-02  0.1249216E+00
         21   -1    0    0  501  502  0.00000000000E+00  0.00000000000E+00  0.94661571622E+02  0.94661571622E+02  0.00000000000E+00 0. -1.
          4   -1    0    0  502    0 -0.00000000000E+00 -0.00000000000E+00 -0.18160555642E+03  0.18160555642E+03  0.00000000000E+00 0.  1.
        -13    1    1    2    0    0 -0.58064370032E+02 -0.29525801923E+02 -0.12026728194E+03  0.13677526939E+03  0.10566000000E+00 0.  1.
         13    1    1    2    0    0  0.44255998478E+02 -0.13687574235E+02  0.68077376697E+02  0.82343691147E+02  0.10566000000E+00 0. -1.
          4    1    1    2  501    0  0.13808371553E+02  0.43213376159E+02 -0.34754079554E+02  0.57148167509E+02  0.00000000000E+00 0.  1.
</event>
<event>
 5    1  0.7625606E-005  0.4550436E+03  0.7818608E-02  0.9713278E-01
         21   -1    0    0  501  502  0.00000000000E+00  0.00000000000E+00  0.14640246303E+03  0.14640246303E+03  0.00000000000E+00 0.  1.
          4   -1    0    0  502    0 -0.00000000000E+00 -0.00000000000E+00 -0.29901113905E+04  0.29901113905E+04  0.00000000000E+00 0.  1.
        -13    1    1    2    0    0 -0.26965326113E+03  0.34248093830E+03 -0.15863534735E+04  0.16451514910E+04  0.10566000000E+00 0.  1.
         13    1    1    2    0    0  0.24722571186E+03  0.14570064616E+03 -0.65920691136E+03  0.71895966093E+03  0.10566000000E+00 0. -1.
          4    1    1    2  501    0  0.22427549265E+02 -0.48818158446E+03 -0.59814854260E+03  0.77240270157E+03  0.00000000000E+00 0.  1.
</event>
<event>
 5    1  0.7625606E-005  0.1821943E+03  0.7818608E-02  0.1073079E+00
         21   -1    0    0  501  502  0.00000000000E+00  0.00000000000E+00  0.36481380313E+02  0.36481380313E+02  0.00000000000E+00 0. -1.
          4   -1    0    0  502    0 -0.00000000000E+00 -0.00000000000E+00 -0.10487743960E+04  0.10487743960E+04  0.00000000000E+00 0.  1.
        -13    1    1    2    0    0 -0.11935238227E+03 -0.14144737841E+03 -0.54552359493E+03  0.57606280543E+03  0.10566000000E+00 0.  1.
         13    1    1    2    0    0  0.12545201872E+03  0.12806126528E+03 -0.45853789291E+03  0.49233617282E+03  0.10566000000E+00 0. -1.
          4    1    1    2  501    0 -0.60996364460E+01  0.13386113127E+02 -0.82315277971E+01  0.16856798014E+02  0.00000000000E+00 0.  1.
</event>
<event>
 5    1  0.7625606E-005  0.6256934E+03  0.7818608E-02  0.9238358E-01
          4   -1    0    0  502    0 -0.00000000000E+00  0.00000000000E+00  0.20289876551E+04  0.20289876551E+04  0.00000000000E+00 0.  1.
         21   -1    0    0  501  502  0.00000000000E+00 -0.00000000000E+00 -0.26581835479E+03  0.26581835479E+03  0.00000000000E+00 0. -1.
        -13    1    1    2    0    0  0.49906593738E+03  0.38254093712E+03  0.14464468044E+04  0.15772167725E+04  0.10566000000E+00 0.  1.
         13    1    1    2    0    0 -0.47647261367E+03 -0.39139818164E+03  0.28973842476E+03  0.68129806554E+03  0.10566000000E+00 0. -1.
          4    1    1    2  501    0 -0.22593323713E+02  0.88572445240E+01  0.26984071173E+02  0.36291171847E+02  0.00000000000E+00 0.  1.
</event>
<event>
 5    1  0.7625606E-005  0.4812623E+03  0.7818608E-02  0.1006129E+00
         21   -1    0    0  501  502  0.00000000000E+00  0.00000000000E+00  0.12987405843E+04  0.12987405843E+04  0.00000000000E+00 0.  1.
          4   -1    0    0  502    0 -0.00000000000E+00 -0.00000000000E+00 -0.20925325664E+03  0.20925325664E+03  0.00000000000E+00 0.  1.
        -13    1    1    2    0    0 -0.46963621690E+03 -0.16612999081E+03  0.51710765570E+03  0.71802345980E+03  0.10566000000E+00 0.  1.
         13    1    1    2    0    0  0.55632878347E+02 -0.51018890989E+02  0.10087183194E+03  0.12598842024E+03  0.10566000000E+00 0. -1.
          4    1    1    2  501    0  0.41400333856E+03  0.21714888180E+03  0.47150783999E+03  0.66398196088E+03  0.00000000000E+00 0.  1.
</event>
<event>
 5    1  0.7625606E-005  0.1973031E+03  0.7818608E-02  0.1111071E+00
         -4   -1    0    0    0  501 -0.00000000000E+00  0.00000000000E+00  0.13696197440E+03  0.13696197440E+03  0.00000000000E+00 0. -1.
         21   -1    0    0  501  502  0.00000000000E+00 -0.00000000000E+00 -0.50822893925E+03  0.50822893925E+03  0.00000000000E+00 0. -1.
        -13    1    1    2    0    0  0.16563249098E+02  0.47680044100E+02  0.46251703378E+02  0.68461369074E+02  0.10566000000E+00 0.  1.
         13    1    1    2    0    0  0.11936453637E+03 -0.17453527996E+03 -0.23638791841E+03  0.31715881768E+03  0.10566000000E+00 0. -1.
         -4    1    1    2    0  502 -0.13592778547E+03  0.12685523586E+03 -0.18113074982E+03  0.25957072689E+03  0.00000000000E+00 0. -1.
</event>
<event>
 5    1  0.7625606E-005  0.4809778E+03  0.7818608E-02  0.9666684E-01
          4   -1    0    0  502    0 -0.00000000000E+00  0.00000000000E+00  0.23384558159E+04  0.23384558159E+04  0.00000000000E+00 0.  1.
         21   -1    0    0  501  502  0.00000000000E+00 -0.00000000000E+00 -0.19364796094E+03  0.19364796094E+03  0.00000000000E+00 0.  1.
        -13    1    1    2    0    0 -0.15303167947E+03 -0.27636500927E+03  0.11622502609E+04  0.12044176989E+04  0.10566000000E+00 0.  1.
         13    1    1    2    0    0 -0.26158914991E+03 -0.11539988201E+03  0.51944265515E+03  0.59293060241E+03  0.10566000000E+00 0. -1.
          4    1    1    2  501    0  0.41462082938E+03  0.39176489129E+03  0.46311493889E+03  0.73475547553E+03  0.00000000000E+00 0.  1.
</event>
<event>
 5    1  0.7625606E-005  0.4780728E+03  0.7818608E-02  0.9660783E-01
         21   -1    0    0  501  502  0.00000000000E+00  0.00000000000E+00  0.56131486407E+03  0.56131486407E+03  0.00000000000E+00 0.  1.
         -4   -1    0    0    0  501 -0.00000000000E+00 -0.00000000000E+00 -0.92745346311E+03  0.92745346311E+03  0.00000000000E+00 0. -1.
        -13    1    1    2    0    0  0.27312434565E+03  0.11730056415E+03  0.14328680991E+03  0.32998098671E+03  0.10566000000E+00 0.  1.
         13    1    1    2    0    0  0.20159045373E+03  0.21856637203E+03 -0.49458443332E+03  0.57708209370E+03  0.10566000000E+00 0. -1.
         -4    1    1    2    0  502 -0.47471479938E+03 -0.33586693618E+03 -0.14840975629E+02  0.58170524678E+03  0.00000000000E+00 0. -1.
</event>
<event>
 5    1  0.7625606E-005  0.4964368E+03  0.7818608E-02  0.9752654E-01
          4   -1    0    0  502    0 -0.00000000000E+00  0.00000000000E+00  0.50262817685E+03  0.50262817685E+03  0.00000000000E+00 0.  1.
         21   -1    0    0  501  502  0.00000000000E+00 -0.00000000000E+00 -0.81385619059E+03  0.81385619059E+03  0.00000000000E+00 0.  1.
        -13    1    1    2    0    0 -0.26901348561E+03 -0.28512140174E+03 -0.12731499546E+02  0.39220475700E+03  0.10566000000E+00 0.  1.
         13    1    1    2    0    0 -0.94687540158E+02 -0.16800908809E+03  0.10240478037E+03  0.21835643830E+03  0.10566000000E+00 0. -1.
          4    1    1    2  501    0  0.36370102577E+03  0.45313048983E+03 -0.40090129457E+03  0.70592317213E+03  0.00000000000E+00 0.  1.
</event>
<event>
 5    1  0.7625606E-005  0.4597811E+02  0.7818608E-02  0.1317995E+00
         21   -1    0    0  501  502  0.00000000000E+00  0.00000000000E+00  0.14579942574E+03  0.14579942574E+03  0.00000000000E+00 0. -1.
          4   -1    0    0  502    0 -0.00000000000E+00 -0.00000000000E+00 -0.99364342987E+02  0.99364342987E+02  0.00000000000E+00 0.  1.
        -13    1    1    2    0    0  0.28730934900E+02  0.75349890324E+02 -0.66424241870E+02  0.10447613921E+03  0.10566000000E+00 0.  1.
         13    1    1    2    0    0 -0.93573938226E+01 -0.37679113065E+02  0.72173205405E+02  0.81952785938E+02  0.10566000000E+00 0. -1.
          4    1    1    2  501    0 -0.19373541078E+02 -0.37670777259E+02  0.40686119214E+02  0.58734843575E+02  0.00000000000E+00 0.  1.
</event>
<event>
 5    1  0.7625606E-005  0.1318775E+03  0.7818608E-02  0.1120500E+00
          4   -1    0    0  502    0 -0.00000000000E+00  0.00000000000E+00  0.71594023283E+02  0.71594023283E+02  0.00000000000E+00 0.  1.
         21   -1    0    0  501  502  0.00000000000E+00 -0.00000000000E+00 -0.38994996212E+03  0.38994996212E+03  0.00000000000E+00 0. -1.
        -13    1    1    2    0    0 -0.19337301938E+02 -0.14116989033E+03 -0.26000975883E+03  0.29649275713E+03  0.10566000000E+00 0.  1.
         13    1    1    2    0    0  0.31170375183E+02  0.12506071270E+03 -0.33511773440E+02  0.13317216028E+03  0.10566000000E+00 0. -1.
          4    1    1    2  501    0 -0.11833073245E+02  0.16109177627E+02 -0.24834406567E+02  0.31879067988E+02  0.00000000000E+00 0.  1.
</event>
<event>
 5    1  0.7625606E-005  0.3800879E+03  0.7818608E-02  0.9793122E-01
         21   -1    0    0  501  502  0.00000000000E+00  0.00000000000E+00  0.18993779443E+03  0.18993779443E+03  0.00000000000E+00 0. -1.
          4   -1    0    0  502    0 -0.00000000000E+00 -0.00000000000E+00 -0.27705844497E+04  0.27705844497E+04  0.00000000000E+00 0.  1.
        -13    1    1    2    0    0  0.19839035761E+03  0.26816175603E+03 -0.25106340703E+03  0.41749527771E+03  0.10566000000E+00 0.  1.
         13    1    1    2    0    0  0.37253454495E+03  0.32780506986E+02 -0.81817343467E+03  0.89959120114E+03  0.10566000000E+00 0. -1.
          4    1    1    2  501    0 -0.57092490256E+03 -0.30094226302E+03 -0.15114098135E+04  0.16434357652E+04  0.00000000000E+00 0.  1.
</event>
<event>
 5    1  0.7625606E-005  0.3983639E+03  0.7818608E-02  0.9838448E-01
          4   -1    0    0  502    0 -0.00000000000E+00  0.00000000000E+00  0.34564404680E+03  0.34564404680E+03  0.00000000000E+00 0.  1.
         21   -1    0    0  501  502  0.00000000000E+00 -0.00000000000E+00 -0.10965798651E+04  0.10965798651E+04  0.00000000000E+00 0.  1.
        -13    1    1    2    0    0 -0.88380685018E+02  0.58404952024E+03 -0.24750489579E+03  0.64045583156E+03  0.10566000000E+00 0.  1.
         13    1    1    2    0    0  0.12232535488E+03 -0.25008292594E+03 -0.15805470996E+03  0.32013476037E+03  0.10566000000E+00 0. -1.
          4    1    1    2  501    0 -0.33944669860E+02 -0.33396659429E+03 -0.34537621259E+03  0.48163332001E+03  0.00000000000E+00 0.  1.
</event>
<event>
 5    1  0.7625606E-005  0.6976657E+03  0.7818608E-02  0.9127684E-01
         21   -1    0    0  501  502  0.00000000000E+00  0.00000000000E+00  0.10076584274E+04  0.10076584274E+04  0.00000000000E+00 0. -1.
         -4   -1    0    0    0  501 -0.00000000000E+00 -0.00000000000E+00 -0.19616892562E+04  0.19616892562E+04  0.00000000000E+00 0. -1.
        -13    1    1    2    0    0 -0.21356266841E+03  0.78394930793E+03 -0.13912906685E+04  0.16111720164E+04  0.10566000000E+00 0.  1.
         13    1    1    2    0    0 -0.38359869832E+03 -0.41972798783E+03  0.84730032129E+02  0.57489019354E+03  0.10566000000E+00 0. -1.
         -4    1    1    2    0  502  0.59716136673E+03 -0.36422132010E+03  0.35252980760E+03  0.78328547362E+03  0.00000000000E+00 0. -1.
</event>
<event>
 5    1  0.7625606E-005  0.4293587E+03  0.7818608E-02  0.9847418E-01
         21   -1    0    0  501  502  0.00000000000E+00  0.00000000000E+00  0.17418565154E+03  0.17418565154E+03  0.00000000000E+00 0. -1.
         -4   -1    0    0    0  501 -0.00000000000E+00 -0.00000000000E+00 -0.22689072032E+04  0.22689072032E+04  0.00000000000E+00 0. -1.
        -13    1    1    2    0    0  0.57277503798E+02  0.20796037763E+03 -0.40873296888E+03  0.46215893599E+03  0.10566000000E+00 0.  1.
         13    1    1    2    0    0 -0.40383959545E+03 -0.39396327974E+03 -0.13518127181E+04  0.14648177773E+04  0.10566000000E+00 0. -1.
         -4    1    1    2    0  502  0.34656209165E+03  0.18600290211E+03 -0.33417586468E+03  0.51611614148E+03  0.00000000000E+00 0. -1.
</event>
<event>
 5    1  0.7625606E-005  0.6587334E+03  0.7818608E-02  0.9185091E-01
         21   -1    0    0  501  502  0.00000000000E+00  0.00000000000E+00  0.11592950074E+04  0.11592950074E+04  0.00000000000E+00 0.  1.
          4   -1    0    0  502    0 -0.00000000000E+00 -0.00000000000E+00 -0.20005570473E+04  0.20005570473E+04  0.00000000000E+00 0.  1.
        -13    1    1    2    0    0  0.41773126182E+03  0.43191709796E+03  0.74390423048E+03  0.95626633419E+03  0.10566000000E+00 0.  1.
         13    1    1    2    0    0 -0.67428151376E+03 -0.39249212507E+02 -0.15974562050E+04  0.17343766599E+04  0.10566000000E+00 0. -1.
          4    1    1    2  501    0  0.25655025194E+03 -0.39266788545E+03  0.12289934663E+02  0.46920906058E+03  0.00000000000E+00 0.  1.
</event>
<event>
 5    1  0.7625606E-005  0.5051940E+02  0.7818608E-02  0.1289688E+00
         -4   -1    0    0    0  501 -0.00000000000E+00  0.00000000000E+00  0.34906087632E+03  0.34906087632E+03  0.00000000000E+00 0. -1.
         21   -1    0    0  501  502  0.00000000000E+00 -0.00000000000E+00 -0.22305813501E+02  0.22305813501E+02  0.00000000000E+00 0. -1.
        -13    1    1    2    0    0  0.44120321509E+02  0.33995579739E+02  0.82299435266E+02  0.99375602745E+02  0.10566000000E+00 0.  1.
         13    1    1    2    0    0 -0.18465019568E+02 -0.47307956856E+02  0.23667014541E+03  0.24205736638E+03  0.10566000000E+00 0. -1.
         -4    1    1    2    0  502 -0.25655301941E+02  0.13312377117E+02  0.77854821450E+01  0.29933720691E+02  0.00000000000E+00 0. -1.
</event>
<event>
 5    1  0.7625606E-005  0.7154620E+02  0.7818608E-02  0.1222728E+00
          4   -1    0    0  502    0 -0.00000000000E+00  0.00000000000E+00  0.29794524306E+02  0.29794524306E+02  0.00000000000E+00 0.  1.
         21   -1    0    0  501  502  0.00000000000E+00 -0.00000000000E+00 -0.20746704086E+03  0.20746704086E+03  0.00000000000E+00 0. -1.
        -13    1    1    2    0    0  0.34210724619E+02  0.69581658014E+02 -0.84819674986E+02  0.11491896815E+03  0.10566000000E+00 0.  1.
         13    1    1    2    0    0 -0.33554842312E+02 -0.57519434232E+02 -0.70787202283E+02  0.97186685961E+02  0.10566000000E+00 0. -1.
          4    1    1    2  501    0 -0.65588230685E+00 -0.12062223782E+02 -0.22065639285E+02  0.25155911059E+02  0.00000000000E+00 0.  1.
</event>
<event>
 5    1  0.7625606E-005  0.4758728E+02  0.7818608E-02  0.1333159E+00
         -4   -1    0    0    0  501 -0.00000000000E+00  0.00000000000E+00  0.65152537732E+02  0.65152537732E+02  0.00000000000E+00 0. -1.
         21   -1    0    0  501  502  0.00000000000E+00 -0.00000000000E+00 -0.10835365414E+03  0.10835365414E+03  0.00000000000E+00 0. -1.
        -13    1    1    2    0    0  0.65706061603E+01 -0.25556393356E+02 -0.12698655175E+02  0.29284281005E+02  0.10566000000E+00 0.  1.
         13    1    1    2    0    0 -0.49210313359E+02  0.41266564311E+02  0.28069692501E+02  0.70089250760E+02  0.10566000000E+00 0. -1.
         -4    1    1    2    0  502  0.42639707199E+02 -0.15710170955E+02 -0.58572153736E+02  0.74132660108E+02  0.00000000000E+00 0. -1.
</event>
<event>
 5    1  0.7625606E-005  0.4177733E+03  0.7818608E-02  0.9758006E-01
         -4   -1    0    0    0  501 -0.00000000000E+00  0.00000000000E+00  0.14299676685E+04  0.14299676685E+04  0.00000000000E+00 0. -1.
         21   -1    0    0  501  502  0.00000000000E+00 -0.00000000000E+00 -0.36280527951E+03  0.36280527951E+03  0.00000000000E+00 0. -1.
        -13    1    1    2    0    0 -0.29744177279E+03  0.11158010704E+03  0.57336855555E+03  0.65549465302E+03  0.10566000000E+00 0.  1.
         13    1    1    2    0    0 -0.18732498970E+03 -0.18105161793E+02  0.60296704883E+03  0.63165474888E+03  0.10566000000E+00 0. -1.
         -4    1    1    2    0  502  0.48476676248E+03 -0.93474945248E+02 -0.10917321541E+03  0.50562354609E+03  0.00000000000E+00 0. -1.
</event>
<event>
 5    1  0.7625606E-005  0.9572989E+02  0.7818608E-02  0.1171820E+00
         -4   -1    0    0    0  501 -0.00000000000E+00  0.00000000000E+00  0.12696403778E+03  0.12696403778E+03  0.00000000000E+00 0. -1.
         21   -1    0    0  501  502  0.00000000000E+00 -0.00000000000E+00 -0.78864473252E+03  0.78864473252E+03  0.00000000000E+00 0.  1.
        -13    1    1    2    0    0 -0.87525461362E+02 -0.65658423579E+02 -0.60051442104E+03  0.61040094693E+03  0.10566000000E+00 0.  1.
         13    1    1    2    0    0  0.67190100790E+02  0.67641675742E+02  0.10266513875E+03  0.14010727254E+03  0.10566000000E+00 0. -1.
         -4    1    1    2    0  502  0.20335360571E+02 -0.19832521636E+01 -0.16383141245E+03  0.16510055083E+03  0.00000000000E+00 0. -1.
</event>
<event>
 5    1  0.7625606E-005  0.4725760E+03  0.7818608E-02  0.9685098E-01
         -4   -1    0    0    0  501 -0.00000000000E+00  0.00000000000E+00  0.32124015060E+04  0.32124015060E+04  0.00000000000E+00 0. -1.
         21   -1    0    0  501  502  0.00000000000E+00 -0.00000000000E+00 -0.14887170336E+03  0.14887170336E+03  0.00000000000E+00 0. -1.
        -13    1    1    2    0    0 -0.28098945424E+03  0.30309958010E+02  0.12284801863E+04  0.12605702465E+04  0.10566000000E+00 0.  1.
         13    1    1    2    0    0  0.24956137402E+03 -0.45996537359E+03  0.61879066381E+03  0.81040170353E+03  0.10566000000E+00 0. -1.
         -4    1    1    2    0  502  0.31428080218E+02  0.42965541558E+03  0.12162589526E+04  0.12903012594E+04  0.00000000000E+00 0. -1.
</event>
<event>
 5    1  0.7625606E-005  0.5021293E+03  0.7818608E-02  0.9473317E-01
         21   -1    0    0  501  502  0.00000000000E+00  0.00000000000E+00  0.10714736370E+03  0.10714736370E+03  0.00000000000E+00 0.  1.
         -4   -1    0    0    0  501 -0.00000000000E+00 -0.00000000000E+00 -0.25417137743E+04  0.25417137743E+04  0.00000000000E+00 0. -1.
        -13    1    1    2    0    0 -0.37243932087E+03 -0.31571943633E+03 -0.96240242287E+03  0.10791701649E+04  0.10566000000E+00 0.  1.
         13    1    1    2    0    0  0.37885616281E+03  0.34597867216E+03 -0.14049900527E+04  0.14957373744E+04  0.10566000000E+00 0. -1.
         -4    1    1    2    0  502 -0.64168419370E+01 -0.30259235835E+02 -0.67173935033E+02  0.73953598706E+02  0.00000000000E+00 0. -1.
</event>
<event>
 5    1  0.7625606E-005  0.6109144E+02  0.7818608E-02  0.1272560E+00
         21   -1    0    0  501  502  0.00000000000E+00  0.00000000000E+00  0.50209106874E+02  0.50209106874E+02  0.00000000000E+00 0. -1.
         -4   -1    0    0    0  501 -0.00000000000E+00 -0.00000000000E+00 -0.16043117515E+03  0.16043117515E+03  0.00000000000E+00 0. -1.
        -13    1    1    2    0    0  0.34727457222E+02 -0.20294711567E+02 -0.36136807764E+02  0.54071726827E+02  0.10566000000E+00 0.  1.
         13    1    1    2    0    0 -0.72384140164E+02  0.51164785497E+02 -0.54689762260E+02  0.10415507804E+03  0.10566000000E+00 0. -1.
         -4    1    1    2    0  502  0.37656682942E+02 -0.30870073930E+02 -0.19395498251E+02  0.52413477151E+02  0.00000000000E+00 0. -1.
</event>
<event>
 5    1  0.7625606E-005  0.4964555E+03  0.7818608E-02  0.9632915E-01
         -4   -1    0    0    0  501 -0.00000000000E+00  0.00000000000E+00  0.12397720362E+04  0.12397720362E+04  0.00000000000E+00 0. -1.
         21   -1    0    0  501  502  0.00000000000E+00 -0.00000000000E+00 -0.47531453656E+03  0.47531453656E+03  0.00000000000E+00 0. -1.
        -13    1    1    2    0    0  0.25389246806E+03  0.14586515233E+03  0.59872779055E+03  0.66649306549E+03  0.10566000000E+00 0.  1.
         13    1    1    2    0    0  0.35655079017E+03 -0.17456185452E+03  0.18321125971E+03  0.43722612441E+03  0.10566000000E+00 0. -1.
         -4    1    1    2    0  502 -0.61044325823E+03  0.28696702185E+02 -0.17481550609E+02  0.61136738288E+03  0.00000000000E+00 0. -1.
</event>
<event>
 5    1  0.7625606E-005  0.3156401E+03  0.7818608E-02  0.1001050E+00
         21   -1    0    0  501  502  0.00000000000E+00  0.00000000000E+00  0.71660537480E+02  0.71660537480E+02  0.00000000000E+00 0. -1.
          4   -1    0    0  502    0 -0.00000000000E+00 -0.00000000000E+00 -0.27752109389E+04  0.27752109389E+04  0.00000000000E+00 0.  1.
        -13    1    1    2    0    0 -0.20091996776E+03 -0.24567673520E+03 -0.91022886558E+03  0.96397224575E+03  0.10566000000E+00 0.  1.
         13    1    1    2    0    0  0.15943495136E+03  0.27291272175E+03 -0.18045474976E+04  0.18320187062E+04  0.10566000000E+00 0. -1.
          4    1    1    2  501    0  0.41485016400E+02 -0.27235986541E+02  0.11225961813E+02  0.50880524439E+02  0.00000000000E+00 0.  1.
</event>
<event>
 5    1  0.7625606E-005  0.2577117E+03  0.7818608E-02  0.1026472E+00
         21   -1    0    0  501  502  0.00000000000E+00  0.00000000000E+00  0.55133259998E+03  0.55133259998E+03  0.00000000000E+00 0.  1.
          4   -1    0    0  502    0 -0.00000000000E+00 -0.00000000000E+00 -0.12682690867E+04  0.12682690867E+04  0.00000000000E+00 0.  1.
        -13    1    1    2    0    0  0.60513353032E+02 -0.24866138751E+03 -0.79527563001E+03  0.83543862155E+03  0.10566000000E+00 0.  1.
         13    1    1    2    0    0 -0.95218924079E+02  0.24473585245E+03 -0.41417541681E+03  0.49041163122E+03  0.10566000000E+00 0. -1.
          4    1    1    2  501    0  0.34705571047E+02  0.39255350549E+01  0.49251456015E+03  0.49375143387E+03  0.00000000000E+00 0.  1.
</event>
<event>
 5    1  0.7625606E-005  0.9877652E+02  0.7818608E-02  0.1185084E+00
         -4   -1    0    0    0  501 -0.00000000000E+00  0.00000000000E+00  0.22316174892E+03  0.22316174892E+03  0.00000000000E+00 0. -1.
         21   -1    0    0  501  502  0.00000000000E+00 -0.00000000000E+00 -0.14717189734E+03  0.14717189734E+03  0.00000000000E+00 0. -1.
        -13    1    1    2    0    0 -0.29727811934E+02 -0.56355358649E+02  0.12074164042E+03  0.13652188156E+03  0.10566000000E+00 0.  1.
         13    1    1    2    0    0  0.83668984045E+02  0.11741379523E+03 -0.78978420068E+01  0.14439143075E+03  0.10566000000E+00 0. -1.
         -4    1    1    2    0  502 -0.53941172112E+02 -0.61058436577E+02 -0.36853946837E+02  0.89420333948E+02  0.00000000000E+00 0. -1.
</event>
<event>
 5    1  0.7625606E-005  0.5961996E+02  0.7818608E-02  0.1256925E+00
          4   -1    0    0  502    0 -0.00000000000E+00  0.00000000000E+00  0.30490385640E+02  0.30490385640E+02  0.00000000000E+00 0.  1.
         21   -1    0    0  501  502  0.00000000000E+00 -0.00000000000E+00 -0.34700423329E+03  0.34700423329E+03  0.00000000000E+00 0.  1.
        -13    1    1    2    0    0  0.57256651452E+02  0.28403065131E+02 -0.17703891075E+02  0.66321166814E+02  0.10566000000E+00 0.  1.
         13    1    1    2    0    0 -0.31227634364E+02 -0.39813029903E+02 -0.12172907344E+03  0.13182648058E+03  0.10566000000E+00 0. -1.
          4    1    1    2  501    0 -0.26029017088E+02  0.11409964772E+02 -0.17708088314E+03  0.17934697154E+03  0.00000000000E+00 0.  1.
</event>
<event>
 5    1  0.7625606E-005  0.1180545E+03  0.7818608E-02  0.1137720E+00
         21   -1    0    0  501  502  0.00000000000E+00  0.00000000000E+00  0.11735591265E+03  0.11735591265E+03  0.00000000000E+00 0. -1.
          4   -1    0    0  502    0 -0.00000000000E+00 -0.00000000000E+00 -0.20914329977E+03  0.20914329977E+03  0.00000000000E+00 0.  1.
        -13    1    1    2    0    0 -0.36659039611E+02  0.12401988412E+03 -0.11044694230E+03  0.17006867751E+03  0.10566000000E+00 0.  1.
         13    1    1    2    0    0 -0.88157260481E+00 -0.10350813096E+03 -0.11412902056E+02  0.10413921376E+03  0.10566000000E+00 0. -1.
          4    1    1    2  501    0  0.37540612216E+02 -0.20511753155E+02  0.30072457239E+02  0.52291321148E+02  0.00000000000E+00 0.  1.
</event>
<event>
 5    1  0.7625606E-005  0.4579614E+03  0.7818608E-02  0.9921465E-01
         21   -1    0    0  501  502  0.00000000000E+00  0.00000000000E+00  0.39206740309E+03  0.39206740309E+03  0.00000000000E+00 0. -1.
         -4   -1    0    0    0  501 -0.00000000000E+00 -0.00000000000E+00 -0.93814414502E+03  0.93814414502E+03  0.00000000000E+00 0. -1.
        -13    1    1    2    0    0  0.13089371657E+03  0.45712350249E+02 -0.14000656140E+03  0.19703967215E+03  0.10566000000E+00 0.  1.
         13    1    1    2    0    0 -0.19107187881E+03  0.41427378765E+03 -0.48135182528E+03  0.66319742526E+03  0.10566000000E+00 0. -1.
         -4    1    1    2    0  502  0.60178162237E+02 -0.45998613790E+03  0.75281644758E+02  0.46997445070E+03  0.00000000000E+00 0. -1.
</event>
<event>
 5    1  0.7625606E-005  0.5015961E+03  0.7818608E-02  0.9501847E-01
         21   -1    0    0  501  502  0.00000000000E+00  0.00000000000E+00  0.87331160163E+03  0.87331160163E+03  0.00000000000E+00 0.  1.
          4   -1    0    0  502    0 -0.00000000000E+00 -0.00000000000E+00 -0.72117149194E+03  0.72117149194E+03  0.00000000000E+00 0.  1.
        -13    1    1    2    0    0 -0.19681016163E+03 -0.31595108483E+03 -0.18058169768E+02  0.37267336421E+03  0.10566000000E+00 0.  1.
         13    1    1    2    0    0 -0.45385793411E+03  0.11785847415E+02 -0.80442338600E+02  0.46108232623E+03  0.10566000000E+00 0. -1.
          4    1    1    2  501    0  0.65066809574E+03  0.30416523742E+03  0.25064061805E+03  0.76072740314E+03  0.00000000000E+00 0.  1.
</event>
<event>
 5    1  0.7625606E-005  0.3661127E+02  0.7818608E-02  0.1405138E+00
         -4   -1    0    0    0  501 -0.00000000000E+00  0.00000000000E+00  0.84263883634E+02  0.84263883634E+02  0.00000000000E+00 0. -1.
         21   -1    0    0  501  502  0.00000000000E+00 -0.00000000000E+00 -0.76501680977E+02  0.76501680977E+02  0.00000000000E+00 0. -1.
        -13    1    1    2    0    0 -0.14933901571E+02 -0.68813187349E+01 -0.10898174844E+02  0.19727020623E+02  0.10566000000E+00 0.  1.
         13    1    1    2    0    0 -0.21218039139E+02 -0.42827587943E+01  0.72258413973E+02  0.75431006634E+02  0.10566000000E+00 0. -1.
         -4    1    1    2    0  502  0.36151940710E+02  0.11164077529E+02 -0.53598036472E+02  0.65607537355E+02  0.00000000000E+00 0. -1.
</event>
<event>
 5    1  0.7625606E-005  0.3640478E+03  0.7818608E-02  0.9936781E-01
          4   -1    0    0  502    0 -0.00000000000E+00  0.00000000000E+00  0.26171389626E+03  0.26171389626E+03  0.00000000000E+00 0.  1.
         21   -1    0    0  501  502  0.00000000000E+00 -0.00000000000E+00 -0.16234251637E+04  0.16234251637E+04  0.00000000000E+00 0.  1.
        -13    1    1    2    0    0 -0.70282049410E+02  0.46113586022E+03 -0.13972093016E+03  0.48693715974E+03  0.10566000000E+00 0.  1.
         13    1    1    2    0    0  0.22295629114E+03 -0.13817466569E+03 -0.24884240794E+03  0.36155815736E+03  0.10566000000E+00 0. -1.
          4    1    1    2  501    0 -0.15267424173E+03 -0.32296119453E+03 -0.97314792938E+03  0.10366437429E+04  0.00000000000E+00 0.  1.
</event>
<event>
 5    1  0.7625606E-005  0.2491304E+02  0.7818608E-02  0.1451130E+00
         21   -1    0    0  501  502  0.00000000000E+00  0.00000000000E+00  0.32936077222E+02  0.32936077222E+02  0.00000000000E+00 0.  1.
         -4   -1    0    0    0  501 -0.00000000000E+00 -0.00000000000E+00 -0.99995758448E+02  0.99995758448E+02  0.00000000000E+00 0. -1.
        -13    1    1    2    0    0  0.11130795749E+02  0.17766120714E+02  0.22282435035E+02  0.30594897195E+02  0.10566000000E+00 0.  1.
         13    1    1    2    0    0  0.12427494500E+01 -0.25429155780E+02 -0.82339272024E+02  0.86185574613E+02  0.10566000000E+00 0. -1.
         -4    1    1    2    0  502 -0.12373545199E+02  0.76630350661E+01 -0.70028442362E+01  0.16151363862E+02  0.00000000000E+00 0. -1.
</event>
<event>
 5    1  0.7625606E-005  0.1817066E+03  0.7818608E-02  0.1073456E+00
         21   -1    0    0  501  502  0.00000000000E+00  0.00000000000E+00  0.10264846580E+03  0.10264846580E+03  0.00000000000E+00 0.  1.
          4   -1    0    0  502    0 -0.00000000000E+00 -0.00000000000E+00 -0.34611125366E+04  0.34611125366E+04  0.00000000000E+00 0.  1.
        -13    1    1    2    0    0  0.33777016489E+02  0.29963343701E+03 -0.16436567471E+03  0.34341981539E+03  0.10566000000E+00 0.  1.
         13    1    1    2    0    0 -0.44482443314E+02 -0.16099475022E+03 -0.60852576973E+03  0.63103218694E+03  0.10566000000E+00 0. -1.
          4    1    1    2  501    0  0.10705426825E+02 -0.13863868679E+03 -0.25855726264E+04  0.25893090001E+04  0.00000000000E+00 0.  1.
</event>
<event>
 5    1  0.7625606E-005  0.2120047E+03  0.7818608E-02  0.1120095E+00
         -4   -1    0    0    0  501 -0.00000000000E+00  0.00000000000E+00  0.35629011475E+03  0.35629011475E+03  0.00000000000E+00 0. -1.
         21   -1    0    0  501  502  0.00000000000E+00 -0.00000000000E+00 -0.25073169549E+03  0.25073169549E+03  0.00000000000E+00 0. -1.
        -13    1    1    2    0    0  0.18808499883E+02 -0.25987614712E+02 -0.11970610900E+03  0.12393013953E+03  0.10566000000E+00 0.  1.
         13    1    1    2    0    0 -0.12250140554E+03 -0.16702791898E+03  0.92049062336E+02  0.22666707109E+03  0.10566000000E+00 0. -1.
         -4    1    1    2    0  502  0.10369290565E+03  0.19301553369E+03  0.13321546593E+03  0.25642459962E+03  0.00000000000E+00 0. -1.
</event>
<event>
 5    1  0.7625606E-005  0.3934474E+03  0.7818608E-02  0.1039834E+00
         -4   -1    0    0    0  501 -0.00000000000E+00  0.00000000000E+00  0.26058793488E+04  0.26058793488E+04  0.00000000000E+00 0. -1.
         21   -1    0    0  501  502  0.00000000000E+00 -0.00000000000E+00 -0.10444374654E+03  0.10444374654E+03  0.00000000000E+00 0. -1.
        -13    1    1    2    0    0 -0.42576407600E+02 -0.22267165100E+02  0.13088887878E+03  0.13942914644E+03  0.10566000000E+00 0.  1.
         13    1    1    2    0    0 -0.16392665501E+03  0.35808978771E+03  0.40014792518E+03  0.56144333416E+03  0.10566000000E+00 0. -1.
         -4    1    1    2    0  502  0.20650306261E+03 -0.33582262261E+03  0.19703987983E+04  0.20094506147E+04  0.00000000000E+00 0. -1.
</event>
<event>
 5    1  0.7625606E-005  0.1055520E+04  0.7818608E-02  0.8724105E-01
         -4   -1    0    0    0  501 -0.00000000000E+00  0.00000000000E+00  0.18033214508E+04  0.18033214508E+04  0.00000000000E+00 0. -1.
         21   -1    0    0  501  502  0.00000000000E+00 -0.00000000000E+00 -0.87331250570E+03  0.87331250570E+03  0.00000000000E+00 0. -1.
        -13    1    1    2    0    0  0.53176201935E+03  0.84156219083E+03  0.77246120160E+03  0.12600373349E+04  0.10566000000E+00 0.  1.
         13    1    1    2    0    0 -0.53375014808E+03 -0.10605773469E+04  0.15639350569E+03  0.11975694006E+04  0.10566000000E+00 0. -1.
         -4    1    1    2    0  502  0.19881287243E+01  0.21901515611E+03  0.11542377909E+01  0.21902722097E+03  0.00000000000E+00 0. -1.
</event>
<event>
 5    1  0.7625606E-005  0.5927002E+03  0.7818608E-02  0.9295113E-01
         -4   -1    0    0    0  501 -0.00000000000E+00  0.00000000000E+00  0.11524303378E+04  0.11524303378E+04  0.00000000000E+00 0. -1.
         21   -1    0    0  501  502  0.00000000000E+00 -0.00000000000E+00 -0.94851617702E+03  0.94851617702E+03  0.00000000000E+00 0. -1.
        -13    1    1    2    0    0 -0.33867079175E+02 -0.58747500708E+03  0.63904553305E+03  0.86870769968E+03  0.10566000000E+00 0.  1.
         13    1    1    2    0    0  0.29097411600E+02  0.62286534289E+03 -0.71580219220E+03  0.94930536934E+03  0.10566000000E+00 0. -1.
         -4    1    1    2    0  502  0.47696675750E+01 -0.35390335812E+02  0.28067081997E+03  0.28293344585E+03  0.00000000000E+00 0. -1.
</event>
<event>
 5    1  0.7625606E-005  0.1530972E+03  0.7818608E-02  0.1104109E+00
         21   -1    0    0  501  502  0.00000000000E+00  0.00000000000E+00  0.12272593038E+04  0.12272593038E+04  0.00000000000E+00 0. -1.
          4   -1    0    0  502    0 -0.00000000000E+00 -0.00000000000E+00 -0.48836127878E+02  0.48836127878E+02  0.00000000000E+00 0.  1.
        -13    1    1    2    0    0  0.20624108249E+03  0.39375480082E+02  0.47611246662E+03  0.52035459503E+03  0.10566000000E+00 0.  1.
         13    1    1    2    0    0 -0.81909556971E+02 -0.10111156509E+03  0.23958961259E+03  0.27264614016E+03  0.10566000000E+00 0. -1.
          4    1    1    2  501    0 -0.12433152552E+03  0.61736085004E+02  0.46272109672E+03  0.48309469649E+03  0.00000000000E+00 0.  1.
</event>
<event>
 5    1  0.7625606E-005  0.3845406E+03  0.7818608E-02  0.1007997E+00
         21   -1    0    0  501  502  0.00000000000E+00  0.00000000000E+00  0.35500841139E+03  0.35500841139E+03  0.00000000000E+00 0. -1.
         -4   -1    0    0    0  501 -0.00000000000E+00 -0.00000000000E+00 -0.90697167999E+03  0.90697167999E+03  0.00000000000E+00 0. -1.
        -13    1    1    2    0    0 -0.10668762584E+03 -0.89576285246E+02 -0.86209152314E+02  0.16382365364E+03  0.10566000000E+00 0.  1.
         13    1    1    2    0    0  0.16740124247E+03  0.37199965052E+03  0.13653543713E+03  0.43017304974E+03  0.10566000000E+00 0. -1.
         -4    1    1    2    0  502 -0.60713616638E+02 -0.28242336527E+03 -0.60228955342E+03  0.66798338800E+03  0.00000000000E+00 0. -1.
</event>
<event>
 5    1  0.7625606E-005  0.6138508E+02  0.7818608E-02  0.1251326E+00
         -4   -1    0    0    0  501 -0.00000000000E+00  0.00000000000E+00  0.32698960341E+03  0.32698960341E+03  0.00000000000E+00 0. -1.
         21   -1    0    0  501  502  0.00000000000E+00 -0.00000000000E+00 -0.25840080578E+02  0.25840080578E+02  0.00000000000E+00 0.  1.
        -13    1    1    2    0    0 -0.19272644802E+02  0.44670523672E+02  0.72139153362E+02  0.87011258666E+02  0.10566000000E+00 0.  1.
         13    1    1    2    0    0  0.18663199279E+02 -0.68112113383E+02  0.23169173090E+03  0.24221611079E+03  0.10566000000E+00 0. -1.
         -4    1    1    2    0  502  0.60944552268E+00  0.23441589710E+02 -0.26813614285E+01  0.23602314528E+02  0.00000000000E+00 0. -1.
</event>
<event>
 5    1  0.7625606E-005  0.4667695E+03  0.7818608E-02  0.1012745E+00
         21   -1    0    0  501  502  0.00000000000E+00  0.00000000000E+00  0.67939035788E+03  0.67939035788E+03  0.00000000000E+00 0. -1.
         -4   -1    0    0    0  501 -0.00000000000E+00 -0.00000000000E+00 -0.47713095510E+03  0.47713095510E+03  0.00000000000E+00 0. -1.
        -13    1    1    2    0    0  0.66820521508E+02  0.26863189286E+01 -0.87248484367E+02  0.10992955741E+03  0.10566000000E+00 0.  1.
         13    1    1    2    0    0 -0.26366096741E+03 -0.39967719175E+03  0.35849086653E+03  0.59814268857E+03  0.10566000000E+00 0. -1.
         -4    1    1    2    0  502  0.19684044590E+03  0.39699087283E+03 -0.68982979378E+02  0.44844906700E+03  0.00000000000E+00 0. -1.
</event>
<event>
 5    1  0.7625606E-005  0.4862432E+03  0.7818608E-02  0.9747116E-01
         21   -1    0    0  501  502  0.00000000000E+00  0.00000000000E+00  0.17203375890E+03  0.17203375890E+03  0.00000000000E+00 0.  1.
          4   -1    0    0  502    0 -0.00000000000E+00 -0.00000000000E+00 -0.23086834289E+04  0.23086834289E+04  0.00000000000E+00 0.  1.
        -13    1    1    2    0    0  0.14848353349E+03  0.44347677648E+03 -0.10201522630E+04  0.11222431384E+04  0.10566000000E+00 0.  1.
         13    1    1    2    0    0 -0.19804479581E+03  0.67389663073E+02 -0.57734825524E+03  0.61407990264E+03  0.10566000000E+00 0. -1.
          4    1    1    2  501    0  0.49561262321E+02 -0.51086643955E+03 -0.53914915184E+03  0.74439414675E+03  0.00000000000E+00 0.  1.
</event>
<event>
 5    1  0.7625606E-005  0.4384152E+03  0.7818608E-02  0.1043881E+00
         -4   -1    0    0    0  501 -0.00000000000E+00  0.00000000000E+00  0.44874224824E+03  0.44874224824E+03  0.00000000000E+00 0. -1.
         21   -1    0    0  501  502  0.00000000000E+00 -0.00000000000E+00 -0.71776715729E+03  0.71776715729E+03  0.00000000000E+00 0. -1.
        -13    1    1    2    0    0  0.30701482694E+02 -0.14041396561E+01  0.15687893772E+03  0.15986108004E+03  0.10566000000E+00 0.  1.
         13    1    1    2    0    0  0.41604868393E+03 -0.48725509795E+02 -0.52356143734E+02  0.42215146530E+03  0.10566000000E+00 0. -1.
         -4    1    1    2    0  502 -0.44675016662E+03  0.50129649451E+02 -0.37354770304E+03  0.58449686019E+03  0.00000000000E+00 0. -1.
</event>
<event>
 5    1  0.7625606E-005  0.4362147E+03  0.7818608E-02  0.9669565E-01
         21   -1    0    0  501  502  0.00000000000E+00  0.00000000000E+00  0.47052145654E+03  0.47052145654E+03  0.00000000000E+00 0.  1.
          4   -1    0    0  502    0 -0.00000000000E+00 -0.00000000000E+00 -0.23910893158E+04  0.23910893158E+04  0.00000000000E+00 0.  1.
        -13    1    1    2    0    0 -0.23270482886E+03  0.13958147263E+03 -0.53257957044E+03  0.59772530053E+03  0.10566000000E+00 0.  1.
         13    1    1    2    0    0  0.32739621473E+03  0.33403272323E+03 -0.16495792009E+04  0.17146071541E+04  0.10566000000E+00 0. -1.
          4    1    1    2  501    0 -0.94691385872E+02 -0.47361419587E+03  0.26159091206E+03  0.54927831776E+03  0.00000000000E+00 0.  1.
</event>
<event>
 5    1  0.7625606E-005  0.3026125E+03  0.7818608E-02  0.1006233E+00
         21   -1    0    0  501  502  0.00000000000E+00  0.00000000000E+00  0.61100630336E+03  0.61100630336E+03  0.00000000000E+00 0. -1.
          4   -1    0    0  502    0 -0.00000000000E+00 -0.00000000000E+00 -0.22027322746E+03  0.22027322746E+03  0.00000000000E+00 0.  1.
        -13    1    1    2    0    0 -0.85469228021E+02 -0.34495246007E+03  0.15834707831E+03  0.38906425821E+03  0.10566000000E+00 0.  1.
         13    1    1    2    0    0  0.16399050020E+02  0.25400198624E+03  0.19941829381E+03  0.32334749872E+03  0.10566000000E+00 0. -1.
          4    1    1    2  501    0  0.69070178001E+02  0.90950473822E+02  0.32967703776E+02  0.11886777389E+03  0.00000000000E+00 0.  1.
</event>
<event>
 5    1  0.7625606E-005  0.3254411E+03  0.7818608E-02  0.9973245E-01
          4   -1    0    0  502    0 -0.00000000000E+00  0.00000000000E+00  0.22121561186E+04  0.22121561186E+04  0.00000000000E+00 0.  1.
         21   -1    0    0  501  502  0.00000000000E+00 -0.00000000000E+00 -0.11226906149E+03  0.11226906149E+03  0.00000000000E+00 0. -1.
        -13    1    1    2    0    0  0.14459331069E+03  0.28733617924E+03  0.17977168310E+04  0.18262680857E+04  0.10566000000E+00 0.  1.
         13    1    1    2    0    0 -0.15587048821E+03 -0.30831598859E+03  0.31800548091E+03  0.46955495415E+03  0.10566000000E+00 0. -1.
          4    1    1    2  501    0  0.11277177528E+02  0.20979809350E+02 -0.15835254753E+02  0.28602140242E+02  0.00000000000E+00 0.  1.
</event>
<event>
 5    1  0.7625606E-005  0.3468210E+03  0.7818608E-02  0.9994808E-01
          4   -1    0    0  502    0 -0.00000000000E+00  0.00000000000E+00  0.21466578309E+03  0.21466578309E+03  0.00000000000E+00 0.  1.
         21   -1    0    0  501  502  0.00000000000E+00 -0.00000000000E+00 -0.18976837979E+04  0.18976837979E+04  0.00000000000E+00 0.  1.
        -13    1    1    2    0    0 -0.34599320757E+03 -0.42871944814E+03 -0.40227985738E+03  0.68215889623E+03  0.10566000000E+00 0.  1.
         13    1    1    2    0    0  0.10515001593E+03  0.22734576212E+03 -0.25483573553E+03  0.35732881870E+03  0.10566000000E+00 0. -1.
          4    1    1    2  501    0  0.24084319164E+03  0.20137368602E+03 -0.10259024219E+04  0.10728618660E+04  0.00000000000E+00 0.  1.
</event>
<event>
 5    1  0.7625606E-005  0.4041400E+02  0.7818608E-02  0.1336632E+00
         21   -1    0    0  501  502  0.00000000000E+00  0.00000000000E+00  0.11048678334E+03  0.11048678334E+03  0.00000000000E+00 0. -1.
          4   -1    0    0  502    0 -0.00000000000E+00 -0.00000000000E+00 -0.33807010621E+02  0.33807010621E+02  0.00000000000E+00 0.  1.
        -13    1    1    2    0    0 -0.30985146789E+02 -0.25575581289E+02 -0.97959212739E+01  0.41354091907E+02  0.10566000000E+00 0.  1.
         13    1    1    2    0    0  0.23767825787E+02  0.35944896302E+02  0.69570125826E+02  0.81834947818E+02  0.10566000000E+00 0. -1.
          4    1    1    2  501    0  0.72173210021E+01 -0.10369315013E+02  0.16905568165E+02  0.21104754234E+02  0.00000000000E+00 0.  1.
</event>
<event>
 5    1  0.7625606E-005  0.3971938E+02  0.7818608E-02  0.1340421E+00
         21   -1    0    0  501  502  0.00000000000E+00  0.00000000000E+00  0.65942951307E+02  0.65942951307E+02  0.00000000000E+00 0. -1.
          4   -1    0    0  502    0 -0.00000000000E+00 -0.00000000000E+00 -0.92087991468E+02  0.92087991468E+02  0.00000000000E+00 0.  1.
        -13    1    1    2    0    0  0.22593273709E+02 -0.38292580236E+02 -0.62824872666E+02  0.76965924327E+02  0.10566000000E+00 0.  1.
         13    1    1    2    0    0 -0.33888375608E+02  0.86616399098E+01  0.34742566877E+01  0.35150072985E+02  0.10566000000E+00 0. -1.
          4    1    1    2  501    0  0.11295101899E+02  0.29630940326E+02  0.33205575817E+02  0.45914945463E+02  0.00000000000E+00 0.  1.
</event>
<event>
 5    1  0.7625606E-005  0.4252499E+03  0.7818608E-02  0.9706295E-01
         21   -1    0    0  501  502  0.00000000000E+00  0.00000000000E+00  0.11035368742E+04  0.11035368742E+04  0.00000000000E+00 0. -1.
         -4   -1    0    0    0  501 -0.00000000000E+00 -0.00000000000E+00 -0.99777486219E+03  0.99777486219E+03  0.00000000000E+00 0. -1.
        -13    1    1    2    0    0 -0.14954779680E+03 -0.32773686030E+03 -0.27164612010E+03  0.45118468376E+03  0.10566000000E+00 0.  1.
         13    1    1    2    0    0 -0.27063859167E+03  0.18219854029E+03 -0.53984276436E+03  0.63077077991E+03  0.10566000000E+00 0. -1.
         -4    1    1    2    0  502  0.42018638847E+03  0.14553832002E+03  0.91725089646E+03  0.10193562727E+04  0.00000000000E+00 0. -1.
</event>
<event>
 5    1  0.7625606E-005  0.2962201E+02  0.7818608E-02  0.1407970E+00
         -4   -1    0    0    0  501 -0.00000000000E+00  0.00000000000E+00  0.12062129425E+03  0.12062129425E+03  0.00000000000E+00 0. -1.
         21   -1    0    0  501  502  0.00000000000E+00 -0.00000000000E+00 -0.12291584629E+03  0.12291584629E+03  0.00000000000E+00 0.  1.
        -13    1    1    2    0    0 -0.22554536617E+02 -0.17195528921E+02 -0.78621076146E+02  0.83580369198E+02  0.10566000000E+00 0.  1.
         13    1    1    2    0    0  0.13741123416E+02  0.26343776879E+02  0.11524709866E+03  0.11901562068E+03  0.10566000000E+00 0. -1.
         -4    1    1    2    0  502  0.88134132011E+01 -0.91482479577E+01 -0.38920574563E+02  0.40941150659E+02  0.00000000000E+00 0. -1.
</event>
<event>
 5    1  0.7625606E-005  0.8824108E+02  0.7818608E-02  0.1185629E+00
         21   -1    0    0  501  502  0.00000000000E+00  0.00000000000E+00  0.41265799181E+02  0.41265799181E+02  0.00000000000E+00 0. -1.
         -4   -1    0    0    0  501 -0.00000000000E+00 -0.00000000000E+00 -0.33010091227E+03  0.33010091227E+03  0.00000000000E+00 0. -1.
        -13    1    1    2    0    0  0.32882323872E+02  0.76552133515E+02 -0.41289780822E+02  0.92985663053E+02  0.10566000000E+00 0.  1.
         13    1    1    2    0    0 -0.49800438412E+02 -0.75077306388E+02 -0.24521273999E+03  0.26123932441E+03  0.10566000000E+00 0. -1.
         -4    1    1    2    0  502  0.16918114540E+02 -0.14748271273E+01 -0.23325922776E+01  0.17141723990E+02  0.00000000000E+00 0. -1.
</event>
<event>
 5    1  0.7625606E-005  0.6609242E+03  0.7818608E-02  0.9181676E-01
         21   -1    0    0  501  502  0.00000000000E+00  0.00000000000E+00  0.54958691616E+03  0.54958691616E+03  0.00000000000E+00 0.  1.
         -4   -1    0    0    0  501 -0.00000000000E+00 -0.00000000000E+00 -0.14281889423E+04  0.14281889423E+04  0.00000000000E+00 0. -1.
        -13    1    1    2    0    0 -0.45400226545E+03 -0.40343939658E+03 -0.24921770287E+03  0.65649895532E+03  0.10566000000E+00 0.  1.
         13    1    1    2    0    0  0.29709400725E+03  0.66313136671E+03 -0.70085669535E+03  0.10095584070E+04  0.10566000000E+00 0. -1.
         -4    1    1    2    0  502  0.15690825820E+03 -0.25969197013E+03  0.71472372073E+02  0.31171849610E+03  0.00000000000E+00 0. -1.
</event>
<event>
 5    1  0.7625606E-005  0.4894971E+03  0.7818608E-02  0.1049216E+00
         21   -1    0    0  501  502  0.00000000000E+00  0.00000000000E+00  0.12089199567E+04  0.12089199567E+04  0.00000000000E+00 0.  1.
          4   -1    0    0  502    0 -0.00000000000E+00 -0.00000000000E+00 -0.22036098636E+03  0.22036098636E+03  0.00000000000E+00 0.  1.
        -13    1    1    2    0    0 -0.39496687663E+03  0.30495223346E+03  0.43967959392E+03  0.66506605296E+03  0.10566000000E+00 0.  1.
         13    1    1    2    0    0  0.86082970207E+01 -0.16738243393E+02 -0.13774166720E+02  0.23324030577E+02  0.10566000000E+00 0. -1.
          4    1    1    2  501    0  0.38635857960E+03 -0.28821399007E+03  0.56265354314E+03  0.74089085952E+03  0.00000000000E+00 0.  1.
</event>
<event>
 5    1  0.7625606E-005  0.3477222E+03  0.7818608E-02  0.9893523E-01
         21   -1    0    0  501  502  0.00000000000E+00  0.00000000000E+00  0.90702421586E+03  0.90702421586E+03  0.00000000000E+00 0. -1.
          4   -1    0    0  502    0 -0.00000000000E+00 -0.00000000000E+00 -0.60293062364E+03  0.60293062364E+03  0.00000000000E+00 0.  1.
        -13    1    1    2    0    0  0.74397712672E+02  0.33294107474E+03 -0.33298360173E+03  0.47672095515E+03  0.10566000000E+00 0.  1.
         13    1    1    2    0    0  0.11127911417E+03 -0.38865006055E+03  0.40899216367E+02  0.40633073706E+03  0.10566000000E+00 0. -1.
          4    1    1    2  501    0 -0.18567682684E+03  0.55708985812E+02  0.59617797758E+03  0.62690314729E+03  0.00000000000E+00 0.  1.
</event>
<event>
 5    1  0.7625606E-005  0.4854872E+03  0.7818608E-02  0.9510361E-01
         -4   -1    0    0    0  501 -0.00000000000E+00  0.00000000000E+00  0.26285196048E+04  0.26285196048E+04  0.00000000000E+00 0. -1.
         21   -1    0    0  501  502  0.00000000000E+00 -0.00000000000E+00 -0.14183852515E+03  0.14183852515E+03  0.00000000000E+00 0.  1.
        -13    1    1    2    0    0 -0.49441453924E+03 -0.14411427598E+03  0.55023112720E+03  0.75363715783E+03  0.10566000000E+00 0.  1.
         13    1    1    2    0    0  0.46565029902E+03  0.10396352583E+03  0.18886664595E+04  0.19479988763E+04  0.10566000000E+00 0. -1.
         -4    1    1    2    0  502  0.28764240221E+02  0.40150750148E+02  0.47783492932E+02  0.68722095790E+02  0.00000000000E+00 0. -1.
</event>
<event>
 5    1  0.7625606E-005  0.1713705E+03  0.7818608E-02  0.1081757E+00
         21   -1    0    0  501  502  0.00000000000E+00  0.00000000000E+00  0.12738860133E+04  0.12738860133E+04  0.00000000000E+00 0.  1.
          4   -1    0    0  502    0 -0.00000000000E+00 -0.00000000000E+00 -0.59801531949E+03  0.59801531949E+03  0.00000000000E+00 0.  1.
        -13    1    1    2    0    0  0.13370196084E+03  0.19468268438E+03 -0.13306056284E+03  0.27107690141E+03  0.10566000000E+00 0.  1.
         13    1    1    2    0    0 -0.96462148352E+01 -0.16155403725E+03 -0.37579335177E+03  0.40916183939E+03  0.10566000000E+00 0. -1.
          4    1    1    2  501    0 -0.12405574600E+03 -0.33128647129E+02  0.11847246084E+04  0.11916625920E+04  0.00000000000E+00 0.  1.
</event>
<event>
 5    1  0.7625606E-005  0.5023372E+02  0.7818608E-02  0.1290840E+00
         21   -1    0    0  501  502  0.00000000000E+00  0.00000000000E+00  0.30185011648E+02  0.30185011648E+02  0.00000000000E+00 0. -1.
          4   -1    0    0  502    0 -0.00000000000E+00 -0.00000000000E+00 -0.11254666667E+03  0.11254666667E+03  0.00000000000E+00 0.  1.
        -13    1    1    2    0    0  0.30431528158E+02  0.42841509774E+02 -0.61870784139E+02  0.81175599535E+02  0.10566000000E+00 0.  1.
         13    1    1    2    0    0 -0.20064528568E+02 -0.41757425302E+02 -0.11363690878E+02  0.47701284143E+02  0.10566000000E+00 0. -1.
          4    1    1    2  501    0 -0.10366999591E+02 -0.10840844728E+01 -0.91271800016E+01  0.13854794637E+02  0.00000000000E+00 0.  1.
</event>
<event>
 5    1  0.7625606E-005  0.4964491E+03  0.7818608E-02  0.9875335E-01
         -4   -1    0    0    0  501 -0.00000000000E+00  0.00000000000E+00  0.14433065967E+04  0.14433065967E+04  0.00000000000E+00 0. -1.
         21   -1    0    0  501  502  0.00000000000E+00 -0.00000000000E+00 -0.22862944158E+03  0.22862944158E+03  0.00000000000E+00 0. -1.
        -13    1    1    2    0    0 -0.16646352049E+02 -0.12590769920E+03  0.24001246683E+03  0.27154344984E+03  0.10566000000E+00 0.  1.
         13    1    1    2    0    0  0.13043279051E+03  0.55039061887E+03  0.52778828757E+03  0.77362977828E+03  0.10566000000E+00 0. -1.
         -4    1    1    2    0  502 -0.11378643847E+03 -0.42448291966E+03  0.44687640070E+03  0.62676281013E+03  0.00000000000E+00 0. -1.
</event>
<event>
 5    1  0.7625606E-005  0.1982940E+02  0.7818608E-02  0.1544571E+00
          4   -1    0    0  502    0 -0.00000000000E+00  0.00000000000E+00  0.18575028033E+02  0.18575028033E+02  0.00000000000E+00 0.  1.
         21   -1    0    0  501  502  0.00000000000E+00 -0.00000000000E+00 -0.65771476500E+03  0.65771476500E+03  0.00000000000E+00 0.  1.
        -13    1    1    2    0    0 -0.19158824665E+02  0.25703149189E+02  0.34440123838E+01  0.32242593353E+02  0.10566000000E+00 0.  1.
         13    1    1    2    0    0  0.90105870788E+01 -0.88014095473E+01 -0.70009260459E+02  0.71133418332E+02  0.10566000000E+00 0. -1.
          4    1    1    2  501    0  0.10148237586E+02 -0.16901739642E+02 -0.57257448889E+03  0.57291378135E+03  0.00000000000E+00 0.  1.
</event>
<event>
 5    1  0.7625606E-005  0.5247166E+03  0.7818608E-02  0.9468042E-01
          4   -1    0    0  502    0 -0.00000000000E+00  0.00000000000E+00  0.10767827777E+04  0.10767827777E+04  0.00000000000E+00 0.  1.
         21   -1    0    0  501  502  0.00000000000E+00 -0.00000000000E+00 -0.91581258698E+03  0.91581258698E+03  0.00000000000E+00 0.  1.
        -13    1    1    2    0    0 -0.12922029106E+03 -0.25772616058E+03  0.15097216331E+03  0.32544317895E+03  0.10566000000E+00 0.  1.
         13    1    1    2    0    0 -0.55026901961E+03  0.13872574086E+03  0.55062475637E+03  0.79071389175E+03  0.10566000000E+00 0. -1.
          4    1    1    2  501    0  0.67948931067E+03  0.11900041972E+03 -0.54062672891E+03  0.87643829402E+03  0.00000000000E+00 0.  1.
</event>
<event>
 5    1  0.7625606E-005  0.1973195E+03  0.7818608E-02  0.1061989E+00
         -4   -1    0    0    0  501 -0.00000000000E+00  0.00000000000E+00  0.49359477311E+03  0.49359477311E+03  0.00000000000E+00 0. -1.
         21   -1    0    0  501  502  0.00000000000E+00 -0.00000000000E+00 -0.10926476500E+04  0.10926476500E+04  0.00000000000E+00 0. -1.
        -13    1    1    2    0    0  0.20200397121E+03  0.28819139210E+03  0.27579943597E+02  0.35301635559E+03  0.10566000000E+00 0.  1.
         13    1    1    2    0    0 -0.10505909098E+03 -0.13764992476E+03  0.26897505519E+03  0.31989452303E+03  0.10566000000E+00 0. -1.
         -4    1    1    2    0  502 -0.96944880229E+02 -0.15054146734E+03 -0.89560787571E+03  0.91333154453E+03  0.00000000000E+00 0. -1.
</event>
<event>
 5    1  0.7625606E-005  0.4063684E+03  0.7818608E-02  0.1004442E+00
          4   -1    0    0  502    0 -0.00000000000E+00  0.00000000000E+00  0.30732918331E+04  0.30732918331E+04  0.00000000000E+00 0.  1.
         21   -1    0    0  501  502  0.00000000000E+00 -0.00000000000E+00 -0.10899866477E+03  0.10899866477E+03  0.00000000000E+00 0.  1.
        -13    1    1    2    0    0  0.19246994790E+03  0.33351034904E+03  0.18834801273E+04  0.19224388768E+04  0.10566000000E+00 0.  1.
         13    1    1    2    0    0 -0.10933905115E+03  0.74732249527E+02  0.63902297302E+03  0.65260271869E+03  0.10566000000E+00 0. -1.
          4    1    1    2  501    0 -0.83130896749E+02 -0.40824259857E+03  0.44179006794E+03  0.60724890236E+03  0.00000000000E+00 0.  1.
</event>
<event>
 5    1  0.7625606E-005  0.5184368E+02  0.7818608E-02  0.1284459E+00
         -4   -1    0    0    0  501 -0.00000000000E+00  0.00000000000E+00  0.82136498242E+02  0.82136498242E+02  0.00000000000E+00 0. -1.
         21   -1    0    0  501  502  0.00000000000E+00 -0.00000000000E+00 -0.17671567859E+03  0.17671567859E+03  0.00000000000E+00 0. -1.
        -13    1    1    2    0    0  0.33864059043E+02  0.48131526004E+02  0.96325476842E+00  0.58858791308E+02  0.10566000000E+00 0.  1.
         13    1    1    2    0    0 -0.31585143101E+02 -0.37588881562E+02  0.40425335673E+02  0.63598460753E+02  0.10566000000E+00 0. -1.
         -4    1    1    2    0  502 -0.22789159427E+01 -0.10542644443E+02 -0.13596777079E+03  0.13639492477E+03  0.00000000000E+00 0. -1.
</event>
<event>
 5    1  0.7625606E-005  0.2045183E+03  0.7818608E-02  0.1057082E+00
         21   -1    0    0  501  502  0.00000000000E+00  0.00000000000E+00  0.21991055084E+04  0.21991055084E+04  0.00000000000E+00 0. -1.
         -4   -1    0    0    0  501 -0.00000000000E+00 -0.00000000000E+00 -0.31548674957E+03  0.31548674957E+03  0.00000000000E+00 0. -1.
        -13    1    1    2    0    0 -0.19004152389E+03 -0.16121327766E+03  0.79780573959E+02  0.26166859353E+03  0.10566000000E+00 0.  1.
         13    1    1    2    0    0  0.18229533243E+03  0.71593285520E+02 -0.18062331432E+03  0.26642443507E+03  0.10566000000E+00 0. -1.
         -4    1    1    2    0  502  0.77461914594E+01  0.89619992137E+02  0.19844614992E+04  0.19864992293E+04  0.00000000000E+00 0. -1.
</event>
<event>
 5    1  0.7625606E-005  0.2108974E+02  0.7818608E-02  0.1495238E+00
         21   -1    0    0  501  502  0.00000000000E+00  0.00000000000E+00  0.61617963735E+02  0.61617963735E+02  0.00000000000E+00 0.  1.
          4   -1    0    0  502    0 -0.00000000000E+00 -0.00000000000E+00 -0.21212780234E+02  0.21212780234E+02  0.00000000000E+00 0.  1.
        -13    1    1    2    0    0  0.45117414809E+00 -0.26211392766E+02 -0.40612178795E+01  0.26528198649E+02  0.10566000000E+00 0.  1.
         13    1    1    2    0    0 -0.49233647500E+00  0.15681501261E+02  0.66381886028E+01  0.17036096647E+02  0.10566000000E+00 0. -1.
          4    1    1    2  501    0  0.41162326911E-01  0.10529891505E+02  0.37828212778E+02  0.39266448673E+02  0.00000000000E+00 0.  1.
</event>
<event>
 5    1  0.7625606E-005  0.5075399E+03  0.7818608E-02  0.9461598E-01
         21   -1    0    0  501  502  0.00000000000E+00  0.00000000000E+00  0.24696536576E+04  0.24696536576E+04  0.00000000000E+00 0.  1.
          4   -1    0    0  502    0 -0.00000000000E+00 -0.00000000000E+00 -0.58476810699E+03  0.58476810699E+03  0.00000000000E+00 0.  1.
        -13    1    1    2    0    0 -0.52686379076E+03 -0.74496031283E+02 -0.12019764168E+03  0.54551131695E+03  0.10566000000E+00 0.  1.
         13    1    1    2    0    0  0.48539101871E+03 -0.82293510440E+02 -0.49523989752E+01  0.49234256400E+03  0.10566000000E+00 0. -1.
          4    1    1    2  501    0  0.41472772049E+02  0.15678954172E+03  0.20100355913E+04  0.20165678836E+04  0.00000000000E+00 0.  1.
</event>
<event>
 5    1  0.7625606E-005  0.4184501E+03  0.7818608E-02  0.9806317E-01
          4   -1    0    0  502    0 -0.00000000000E+00  0.00000000000E+00  0.39905766340E+03  0.39905766340E+03  0.00000000000E+00 0.  1.
         21   -1    0    0  501  502  0.00000000000E+00 -0.00000000000E+00 -0.98310506224E+03  0.98310506224E+03  0.00000000000E+00 0.  1.
        -13    1    1    2    0    0  0.28836170075E+03  0.14356663221E+03  0.11318895195E+03  0.34143168914E+03  0.10566000000E+00 0.  1.
         13    1    1    2    0    0  0.17715526870E+03 -0.20098430574E+03 -0.11113058723E+03  0.29004947675E+03  0.10566000000E+00 0. -1.
          4    1    1    2  501    0 -0.46551696944E+03  0.57417673530E+02 -0.58610576355E+03  0.75068155975E+03  0.00000000000E+00 0.  1.
</event>
<event>
 5    1  0.7625606E-005  0.5889187E+02  0.7818608E-02  0.1259298E+00
         -4   -1    0    0    0  501 -0.00000000000E+00  0.00000000000E+00  0.19358951122E+03  0.19358951122E+03  0.00000000000E+00 0. -1.
         21   -1    0    0  501  502  0.00000000000E+00 -0.00000000000E+00 -0.45600934734E+02  0.45600934734E+02  0.00000000000E+00 0. -1.
        -13    1    1    2    0    0  0.42066837581E+02  0.23283282197E+02  0.35947840318E+01  0.48214766309E+02  0.10566000000E+00 0.  1.
         13    1    1    2    0    0 -0.48609686564E+02 -0.38253104164E+02  0.15802406332E+03  0.16969919670E+03  0.10566000000E+00 0. -1.
         -4    1    1    2    0  502  0.65428489822E+01  0.14969821967E+02 -0.13630270873E+02  0.21276482947E+02  0.00000000000E+00 0. -1.
</event>
<event>
 5    1  0.7625606E-005  0.4493243E+03  0.7818608E-02  0.9656210E-01
         21   -1    0    0  501  502  0.00000000000E+00  0.00000000000E+00  0.46672370761E+03  0.46672370761E+03  0.00000000000E+00 0. -1.
          4   -1    0    0  502    0 -0.00000000000E+00 -0.00000000000E+00 -0.19295420891E+04  0.19295420891E+04  0.00000000000E+00 0.  1.
        -13    1    1    2    0    0 -0.86567531619E+02  0.35718298304E+03 -0.73710547556E+03  0.82364926647E+03  0.10566000000E+00 0.  1.
         13    1    1    2    0    0  0.57953713293E+03 -0.27772021793E+03 -0.84268214546E+03  0.10597664919E+04  0.10566000000E+00 0. -1.
          4    1    1    2  501    0 -0.49296960131E+03 -0.79462765104E+02  0.11696923951E+03  0.51285003836E+03  0.00000000000E+00 0.  1.
</event>
<event>
 5    1  0.7625606E-005  0.1275428E+03  0.7818608E-02  0.1125642E+00
         -4   -1    0    0    0  501 -0.00000000000E+00  0.00000000000E+00  0.33534197484E+03  0.33534197484E+03  0.00000000000E+00 0. -1.
         21   -1    0    0  501  502  0.00000000000E+00 -0.00000000000E+00 -0.78638066709E+02  0.78638066709E+02  0.00000000000E+00 0.  1.
        -13    1    1    2    0    0 -0.78760468215E+02  0.10778811386E+03  0.30102740400E+02  0.13684909567E+03  0.10566000000E+00 0.  1.
         13    1    1    2    0    0  0.91462992834E+02 -0.86893517230E+02  0.21670218696E+03  0.25075049629E+03  0.10566000000E+00 0. -1.
         -4    1    1    2    0  502 -0.12702524619E+02 -0.20894596628E+02  0.98989807724E+01  0.26380449584E+02  0.00000000000E+00 0. -1.
</event>
<event>
 5    1  0.7625606E-005  0.1380886E+03  0.7818608E-02  0.1113492E+00
         21   -1    0    0  501  502  0.00000000000E+00  0.00000000000E+00  0.17388013793E+03  0.17388013793E+03  0.00000000000E+00 0. -1.
         -4   -1    0    0    0  501 -0.00000000000E+00 -0.00000000000E+00 -0.50896793292E+03  0.50896793292E+03  0.00000000000E+00 0. -1.
        -13    1    1    2    0    0  0.87873296000E+02  0.97213141936E+02  0.94613158481E+02  0.16162850008E+03  0.10566000000E+00 0.  1.
         13    1    1    2    0    0 -0.11725980060E+03 -0.74664922801E+02 -0.45539494244E+03  0.47613997553E+03  0.10566000000E+00 0. -1.
         -4    1    1    2    0  502  0.29386504605E+02 -0.22548219135E+02  0.25693988959E+02  0.45079595247E+02  0.00000000000E+00 0. -1.
</event>
<event>
 5    1  0.7625606E-005  0.3749814E+03  0.7818608E-02  0.9971553E-01
          4   -1    0    0  502    0 -0.00000000000E+00  0.00000000000E+00  0.11034860988E+04  0.11034860988E+04  0.00000000000E+00 0.  1.
         21   -1    0    0  501  502  0.00000000000E+00 -0.00000000000E+00 -0.32569488000E+03  0.32569488000E+03  0.00000000000E+00 0.  1.
        -13    1    1    2    0    0  0.36262825100E+03 -0.40208898055E+03  0.43883290899E+03  0.69695705024E+03  0.10566000000E+00 0.  1.
         13    1    1    2    0    0 -0.13950298450E+03  0.16219522338E+03  0.34338455564E+03  0.40457550271E+03  0.10566000000E+00 0. -1.
          4    1    1    2  501    0 -0.22312526650E+03  0.23989375717E+03 -0.44262458722E+01  0.32764842580E+03  0.00000000000E+00 0.  1.
</event>
<event>
 5    1  0.7625606E-005  0.4330466E+03  0.7818608E-02  0.9856460E-01
         21   -1    0    0  501  502  0.00000000000E+00  0.00000000000E+00  0.15283634309E+03  0.15283634309E+03  0.00000000000E+00 0.  1.
          4   -1    0    0  502    0 -0.00000000000E+00 -0.00000000000E+00 -0.23925085086E+04  0.23925085086E+04  0.00000000000E+00 0.  1.
        -13    1    1    2    0    0 -0.31034092162E+03  0.44976237630E+03 -0.13725644717E+04  0.14773391361E+04  0.10566000000E+00 0.  1.
         13    1    1    2    0    0  0.19171926443E+03 -0.69463336075E+02 -0.43418655389E+03  0.47968677921E+03  0.10566000000E+00 0. -1.
          4    1    1    2  501    0  0.11862165719E+03 -0.38029904023E+03 -0.43292113988E+03  0.58831893639E+03  0.00000000000E+00 0.  1.
</event>
<event>
 5    1  0.7625606E-005  0.2154838E+02  0.7818608E-02  0.1491751E+00
         -4   -1    0    0    0  501 -0.00000000000E+00  0.00000000000E+00  0.10387114432E+03  0.10387114432E+03  0.00000000000E+00 0. -1.
         21   -1    0    0  501  502  0.00000000000E+00 -0.00000000000E+00 -0.53115417180E+02  0.53115417180E+02  0.00000000000E+00 0. -1.
        -13    1    1    2    0    0 -0.93290225688E+00 -0.20789941634E+02  0.42390492366E+02  0.47223479190E+02  0.10566000000E+00 0.  1.
         13    1    1    2    0    0  0.17710517749E+02  0.33389987028E+02  0.50272929679E+02  0.62896202550E+02  0.10566000000E+00 0. -1.
         -4    1    1    2    0  502 -0.16777615492E+02 -0.12600045394E+02 -0.41907694909E+02  0.46866879756E+02  0.00000000000E+00 0. -1.
</event>
<event>
 5    1  0.7625606E-005  0.4943827E+03  0.7818608E-02  0.9529563E-01
         21   -1    0    0  501  502  0.00000000000E+00  0.00000000000E+00  0.35536257859E+03  0.35536257859E+03  0.00000000000E+00 0.  1.
          4   -1    0    0  502    0 -0.00000000000E+00 -0.00000000000E+00 -0.16237983220E+04  0.16237983220E+04  0.00000000000E+00 0.  1.
        -13    1    1    2    0    0 -0.23245557130E+03  0.31011877562E+03 -0.41396793961E+03  0.56707910719E+03  0.10566000000E+00 0.  1.
         13    1    1    2    0    0 -0.42195956470E+03 -0.76801082359E+02 -0.34789070697E+03  0.55224653521E+03  0.10566000000E+00 0. -1.
          4    1    1    2  501    0  0.65441513601E+03 -0.23331769326E+03 -0.50657709688E+03  0.85983525823E+03  0.00000000000E+00 0.  1.
</event>
<event>
 5    1  0.7625606E-005  0.2901408E+03  0.7818608E-02  0.1048770E+00
         21   -1    0    0  501  502  0.00000000000E+00  0.00000000000E+00  0.13232818996E+04  0.13232818996E+04  0.00000000000E+00 0.  1.
          4   -1    0    0  502    0 -0.00000000000E+00 -0.00000000000E+00 -0.26675821619E+03  0.26675821619E+03  0.00000000000E+00 0.  1.
        -13    1    1    2    0    0  0.14856207241E+03 -0.17140823792E+03 -0.17297539825E+03  0.28525773075E+03  0.10566000000E+00 0.  1.
         13    1    1    2    0    0  0.91581523002E+02 -0.13922041725E+01  0.93486872717E+02  0.13087750044E+03  0.10566000000E+00 0. -1.
          4    1    1    2  501    0 -0.24014359541E+03  0.17280044210E+03  0.11360122090E+04  0.11739048846E+04  0.00000000000E+00 0.  1.
</event>
<event>
 5    1  0.7625606E-005  0.6850367E+03  0.7818608E-02  0.9144971E-01
          4   -1    0    0  502    0 -0.00000000000E+00  0.00000000000E+00  0.36723111856E+03  0.36723111856E+03  0.00000000000E+00 0.  1.
         21   -1    0    0  501  502  0.00000000000E+00 -0.00000000000E+00 -0.20570044638E+04  0.20570044638E+04  0.00000000000E+00 0. -1.
        -13    1    1    2    0    0  0.66435647721E+03 -0.25891543396E+03 -0.74748485461E+03  0.10330248544E+04  0.10566000000E+00 0.  1.
         13    1    1    2    0    0 -0.60715505851E+03  0.28270307103E+03 -0.27981609152E+03  0.72584801969E+03  0.10566000000E+00 0. -1.
          4    1    1    2  501    0 -0.57201418702E+02 -0.23787637067E+02 -0.66247239913E+03  0.66536270829E+03  0.00000000000E+00 0.  1.
</event>
<event>
 5    1  0.7625606E-005  0.5009573E+03  0.7818608E-02  0.9754933E-01
         -4   -1    0    0    0  501 -0.00000000000E+00  0.00000000000E+00  0.38563654428E+03  0.38563654428E+03  0.00000000000E+00 0. -1.
         21   -1    0    0  501  502  0.00000000000E+00 -0.00000000000E+00 -0.94572300360E+03  0.94572300360E+03  0.00000000000E+00 0. -1.
        -13    1    1    2    0    0 -0.18619695362E+03  0.23974913544E+01 -0.11681540199E+03  0.21982016015E+03  0.10566000000E+00 0.  1.
         13    1    1    2    0    0 -0.31201069220E+03 -0.29297812653E+03 -0.97128210604E+02  0.43888581104E+03  0.10566000000E+00 0. -1.
         -4    1    1    2    0  502  0.49820764582E+03  0.29058063518E+03 -0.34614284672E+03  0.67265357668E+03  0.00000000000E+00 0. -1.
</event>
<event>
 5    1  0.7625606E-005  0.1401833E+03  0.7818608E-02  0.1111218E+00
          4   -1    0    0  502    0 -0.00000000000E+00  0.00000000000E+00  0.12479613526E+04  0.12479613526E+04  0.00000000000E+00 0.  1.
         21   -1    0    0  501  502  0.00000000000E+00 -0.00000000000E+00 -0.40397398713E+02  0.40397398713E+02  0.00000000000E+00 0. -1.
        -13    1    1    2    0    0 -0.15606434320E+03  0.48530702576E+01  0.36309316514E+03  0.39524206411E+03  0.10566000000E+00 0.  1.
         13    1    1    2    0    0  0.13057004078E+03  0.40692558385E+02  0.82676415652E+03  0.83799964292E+03  0.10566000000E+00 0. -1.
          4    1    1    2  501    0  0.25494302421E+02 -0.45545628642E+02  0.17706632213E+02  0.55117044266E+02  0.00000000000E+00 0.  1.
</event>
<event>
 5    1  0.7625606E-005  0.4079268E+03  0.7818608E-02  0.9991211E-01
          4   -1    0    0  502    0 -0.00000000000E+00  0.00000000000E+00  0.13006638944E+04  0.13006638944E+04  0.00000000000E+00 0.  1.
         21   -1    0    0  501  502  0.00000000000E+00 -0.00000000000E+00 -0.29630113844E+03  0.29630113844E+03  0.00000000000E+00 0.  1.
        -13    1    1    2    0    0  0.35204449539E+03  0.72043448758E+02  0.74216521486E+03  0.82458159242E+03  0.10566000000E+00 0.  1.
         13    1    1    2    0    0  0.66887196780E+02 -0.14067570850E+03  0.30825471671E+03  0.34537593083E+03  0.10566000000E+00 0. -1.
          4    1    1    2  501    0 -0.41893169217E+03  0.68632259740E+02 -0.46057175660E+02  0.42700750955E+03  0.00000000000E+00 0.  1.
</event>
<event>
 5    1  0.7625606E-005  0.2523159E+03  0.7818608E-02  0.1029200E+00
          4   -1    0    0  502    0 -0.00000000000E+00  0.00000000000E+00  0.14478820170E+03  0.14478820170E+03  0.00000000000E+00 0.  1.
         21   -1    0    0  501  502  0.00000000000E+00 -0.00000000000E+00 -0.10687592486E+04  0.10687592486E+04  0.00000000000E+00 0. -1.
        -13    1    1    2    0    0 -0.25006559303E+03  0.81090362913E+01 -0.41346791165E+01  0.25023122112E+03  0.10566000000E+00 0.  1.
         13    1    1    2    0    0  0.26722133080E+03 -0.66699980510E+00 -0.86847470900E+03  0.90865615931E+03  0.10566000000E+00 0. -1.
          4    1    1    2  501    0 -0.17155737771E+02 -0.74420364862E+01 -0.51361658833E+02  0.54660069920E+02  0.00000000000E+00 0.  1.
</event>
<event>
 5    1  0.7625606E-005  0.2248399E+02  0.7818608E-02  0.1477976E+00
         21   -1    0    0  501  502  0.00000000000E+00  0.00000000000E+00  0.11882691972E+03  0.11882691972E+03  0.00000000000E+00 0. -1.
         -4   -1    0    0    0  501 -0.00000000000E+00 -0.00000000000E+00 -0.12543850678E+03  0.12543850678E+03  0.00000000000E+00 0. -1.
        -13    1    1    2    0    0 -0.22378200921E+02  0.12962287632E+02  0.30576872185E+02  0.40046985577E+02  0.10566000000E+00 0.  1.
         13    1    1    2    0    0  0.22482973878E+02 -0.39110747853E-01 -0.11914571567E+03  0.12124849842E+03  0.10566000000E+00 0. -1.
         -4    1    1    2    0  502 -0.10477295701E+00 -0.12923176885E+02  0.81957256423E+02  0.82969942500E+02  0.00000000000E+00 0. -1.
</event>
<event>
 5    1  0.7625606E-005  0.3393733E+03  0.7818608E-02  0.9922629E-01
         -4   -1    0    0    0  501 -0.00000000000E+00  0.00000000000E+00  0.57752983654E+03  0.57752983654E+03  0.00000000000E+00 0. -1.
         21   -1    0    0  501  502  0.00000000000E+00 -0.00000000000E+00 -0.35854820593E+03  0.35854820593E+03  0.00000000000E+00 0.  1.
        -13    1    1    2    0    0  0.10335169147E+03 -0.32206116061E+03 -0.73055864345E+02  0.34603776352E+03  0.10566000000E+00 0.  1.
         13    1    1    2    0    0 -0.76449220102E+02  0.33130831268E+03  0.37270813272E+03  0.50450078758E+03  0.10566000000E+00 0. -1.
         -4    1    1    2    0  502 -0.26902471367E+02 -0.92471520714E+01 -0.80670637758E+02  0.85539491368E+02  0.00000000000E+00 0. -1.
</event>
<event>
 5    1  0.7625606E-005  0.4655827E+03  0.7818608E-02  0.9611498E-01
         21   -1    0    0  501  502  0.00000000000E+00  0.00000000000E+00  0.29870038187E+03  0.29870038187E+03  0.00000000000E+00 0. -1.
         -4   -1    0    0    0  501 -0.00000000000E+00 -0.00000000000E+00 -0.22140573590E+04  0.22140573590E+04  0.00000000000E+00 0. -1.
        -13    1    1    2    0    0 -0.35080150363E+03  0.15364622158E+03 -0.11316602887E+04  0.11947066069E+04  0.10566000000E+00 0.  1.
         13    1    1    2    0    0  0.36908564844E+03  0.34305300786E+03 -0.61074987686E+03  0.79178595929E+03  0.10566000000E+00 0. -1.
         -4    1    1    2    0  502 -0.18284144805E+02 -0.49669922944E+03 -0.17294681160E+03  0.52626517472E+03  0.00000000000E+00 0. -1.
</event>
<event>
 5    1  0.7625606E-005  0.4995910E+03  0.7818608E-02  0.9633121E-01
          4   -1    0    0  502    0 -0.00000000000E+00  0.00000000000E+00  0.19933167839E+04  0.19933167839E+04  0.00000000000E+00 0.  1.
         21   -1    0    0  501  502  0.00000000000E+00 -0.00000000000E+00 -0.44168223370E+03  0.44168223370E+03  0.00000000000E+00 0.  1.
        -13    1    1    2    0    0  0.17535211763E+03 -0.60349029687E+03 -0.15095582603E+02  0.62863088642E+03  0.10566000000E+00 0.  1.
         13    1    1    2    0    0  0.16121453131E+02  0.28667023191E+03  0.13440335896E+04  0.13743602236E+04  0.10566000000E+00 0. -1.
          4    1    1    2  501    0 -0.19147357076E+03  0.31682006496E+03  0.22269654323E+03  0.43200790760E+03  0.00000000000E+00 0.  1.
</event>
<event>
 5    1  0.7625606E-005  0.6587242E+02  0.7818608E-02  0.1237992E+00
          4   -1    0    0  502    0 -0.00000000000E+00  0.00000000000E+00  0.35162555035E+03  0.35162555035E+03  0.00000000000E+00 0.  1.
         21   -1    0    0  501  502  0.00000000000E+00 -0.00000000000E+00 -0.29215026015E+02  0.29215026015E+02  0.00000000000E+00 0. -1.
        -13    1    1    2    0    0  0.23016253994E+02 -0.73478427551E+02  0.57556167213E+02  0.96132985034E+02  0.10566000000E+00 0.  1.
         13    1    1    2    0    0 -0.17819886381E+02  0.61144086011E+02  0.26369072974E+03  0.27127285106E+03  0.10566000000E+00 0. -1.
          4    1    1    2  501    0 -0.51963676129E+01  0.12334341540E+02  0.11636273824E+01  0.13434740276E+02  0.00000000000E+00 0.  1.
</event>
<event>
 5    1  0.7625606E-005  0.1164273E+03  0.7818608E-02  0.1139916E+00
          4   -1    0    0  502    0 -0.00000000000E+00  0.00000000000E+00  0.77675821037E+02  0.77675821037E+02  0.00000000000E+00 0.  1.
         21   -1    0    0  501  502  0.00000000000E+00 -0.00000000000E+00 -0.23508892272E+03  0.23508892272E+03  0.00000000000E+00 0. -1.
        -13    1    1    2    0    0 -0.27319083860E+02  0.10739755826E+03 -0.57894261423E+02  0.12502929470E+03  0.10566000000E+00 0.  1.
         13    1    1    2    0    0  0.92108072945E+01 -0.12254776151E+03 -0.49620040152E+02  0.13253283507E+03  0.10566000000E+00 0. -1.
          4    1    1    2  501    0  0.18108276565E+02  0.15150203253E+02 -0.49898800104E+02  0.55202613984E+02  0.00000000000E+00 0.  1.
</event>
<event>
 5    1  0.7625606E-005  0.1038445E+03  0.7818608E-02  0.1158347E+00
         21   -1    0    0  501  502  0.00000000000E+00  0.00000000000E+00  0.15512194254E+03  0.15512194254E+03  0.00000000000E+00 0.  1.
          4   -1    0    0  502    0 -0.00000000000E+00 -0.00000000000E+00 -0.80187868180E+03  0.80187868180E+03  0.00000000000E+00 0.  1.
        -13    1    1    2    0    0 -0.82390976035E+02  0.86926530132E+02 -0.51819344204E+03  0.53185425552E+03  0.10566000000E+00 0.  1.
         13    1    1    2    0    0  0.74204083476E+02 -0.48381872187E+02 -0.26694741360E+03  0.28126141640E+03  0.10566000000E+00 0. -1.
          4    1    1    2  501    0  0.81868925588E+01 -0.38544657944E+02  0.13838411639E+03  0.14388495242E+03  0.00000000000E+00 0.  1.
</event>
<event>
 5    1  0.7625606E-005  0.3026946E+03  0.7818608E-02  0.1006199E+00
         -4   -1    0    0    0  501 -0.00000000000E+00  0.00000000000E+00  0.19350919963E+04  0.19350919963E+04  0.00000000000E+00 0. -1.
         21   -1    0    0  501  502  0.00000000000E+00 -0.00000000000E+00 -0.27289735626E+03  0.27289735626E+03  0.00000000000E+00 0. -1.
        -13    1    1    2    0    0 -0.10710479112E+02  0.36378859604E+03  0.28324892349E+03  0.46117981395E+03  0.10566000000E+00 0.  1.
         13    1    1    2    0    0  0.46312838558E+02 -0.28986331902E+03  0.15391094648E+04  0.15668514857E+04  0.10566000000E+00 0. -1.
         -4    1    1    2    0  502 -0.35602359446E+02 -0.73925277025E+02 -0.16016374816E+03  0.17995805290E+03  0.00000000000E+00 0. -1.
</event>
<event>
 5    1  0.7625606E-005  0.8860352E+02  0.7818608E-02  0.1184926E+00
         21   -1    0    0  501  502  0.00000000000E+00  0.00000000000E+00  0.16805135318E+03  0.16805135318E+03  0.00000000000E+00 0.  1.
          4   -1    0    0  502    0 -0.00000000000E+00 -0.00000000000E+00 -0.24078968702E+03  0.24078968702E+03  0.00000000000E+00 0.  1.
        -13    1    1    2    0    0  0.52910166538E+02  0.84665249016E+02 -0.11577289890E+03  0.15287598044E+03  0.10566000000E+00 0.  1.
         13    1    1    2    0    0 -0.42769457128E+02 -0.67065442025E+02 -0.90733803551E+02  0.12066330945E+03  0.10566000000E+00 0. -1.
          4    1    1    2  501    0 -0.10140709410E+02 -0.17599806992E+02  0.13376836861E+03  0.13530175030E+03  0.00000000000E+00 0.  1.
</event>
<event>
 5    1  0.7625606E-005  0.2158934E+02  0.7818608E-02  0.1488877E+00
         -4   -1    0    0    0  501 -0.00000000000E+00  0.00000000000E+00  0.16131416550E+03  0.16131416550E+03  0.00000000000E+00 0. -1.
         21   -1    0    0  501  502  0.00000000000E+00 -0.00000000000E+00 -0.48869536461E+01  0.48869536461E+01  0.00000000000E+00 0.  1.
        -13    1    1    2    0    0  0.41409422293E+01  0.27049439770E+02  0.87207316219E+02  0.91399927574E+02  0.10566000000E+00 0.  1.
         13    1    1    2    0    0 -0.60213594847E+00 -0.17593493876E+02  0.51249933760E+02  0.54189117625E+02  0.10566000000E+00 0. -1.
         -4    1    1    2    0  502 -0.35388062808E+01 -0.94559458931E+01  0.17969961874E+02  0.20612073947E+02  0.00000000000E+00 0. -1.
</event>
<event>
 5    1  0.7625606E-005  0.4699094E+03  0.7818608E-02  0.9789896E-01
         21   -1    0    0  501  502  0.00000000000E+00  0.00000000000E+00  0.40791202190E+03  0.40791202190E+03  0.00000000000E+00 0. -1.
         -4   -1    0    0    0  501 -0.00000000000E+00 -0.00000000000E+00 -0.11699171479E+04  0.11699171479E+04  0.00000000000E+00 0. -1.
        -13    1    1    2    0    0 -0.17826755175E+03 -0.90883554528E+02 -0.49441893043E+03  0.53337531854E+03  0.10566000000E+00 0.  1.
         13    1    1    2    0    0 -0.16173895388E+03  0.43795074401E+03 -0.30418813047E+03  0.55721698939E+03  0.10566000000E+00 0. -1.
         -4    1    1    2    0  502  0.34000650563E+03 -0.34706718948E+03  0.36601934943E+02  0.48723686183E+03  0.00000000000E+00 0. -1.
</event>
<event>
 5    1  0.7625606E-005  0.4754728E+03  0.7818608E-02  0.9860382E-01
         -4   -1    0    0    0  501 -0.00000000000E+00  0.00000000000E+00  0.99608018727E+03  0.99608018727E+03  0.00000000000E+00 0. -1.
         21   -1    0    0  501  502  0.00000000000E+00 -0.00000000000E+00 -0.44237569792E+03  0.44237569792E+03  0.00000000000E+00 0. -1.
        -13    1    1    2    0    0 -0.54585841324E+01  0.15193194935E+03  0.36733408602E+03  0.39755182718E+03  0.10566000000E+00 0.  1.
         13    1    1    2    0    0 -0.71913587361E+02 -0.51956245288E+03 -0.14041028070E+03  0.54298412921E+03  0.10566000000E+00 0. -1.
         -4    1    1    2    0  502  0.77372171494E+02  0.36763050353E+03  0.32678068402E+03  0.49791992880E+03  0.00000000000E+00 0. -1.
</event>
<event>
 5    1  0.7760828E-005  0.3047380E+03  0.7818608E-02  0.1066135E+00
         -4   -1    0    0    0  501 -0.00000000000E+00  0.00000000000E+00  0.30836970920E+03  0.30836970920E+03  0.00000000000E+00 0. -1.
         21   -1    0    0  501  502  0.00000000000E+00 -0.00000000000E+00 -0.10427353890E+04  0.10427353890E+04  0.00000000000E+00 0. -1.
        -13    1    1    2    0    0 -0.42843821537E+02 -0.20527894694E+02  0.69622408812E+02  0.84286882000E+02  0.10566000000E+00 0.  1.
         13    1    1    2    0    0  0.64389163476E+02 -0.28531800270E+03  0.10246007989E+03  0.30991999963E+03  0.10566000000E+00 0. -1.
         -4    1    1    2    0  502 -0.21545341939E+02  0.30584589739E+03 -0.90644816854E+03  0.95689821662E+03  0.00000000000E+00 0. -1.
</event>
<event>
 5    1  0.7625606E-005  0.4751636E+03  0.7818608E-02  0.9661564E-01
         21   -1    0    0  501  502  0.00000000000E+00  0.00000000000E+00  0.26500484366E+03  0.26500484366E+03  0.00000000000E+00 0.  1.
          4   -1    0    0  502    0 -0.00000000000E+00 -0.00000000000E+00 -0.17496112536E+04  0.17496112536E+04  0.00000000000E+00 0.  1.
        -13    1    1    2    0    0 -0.25297788421E+03  0.23608926838E+03 -0.57469267516E+03  0.67082608371E+03  0.10566000000E+00 0.  1.
         13    1    1    2    0    0  0.13845985137E+02  0.30159530021E+03 -0.61600451786E+03  0.68601240047E+03  0.10566000000E+00 0. -1.
          4    1    1    2  501    0  0.23913189907E+03 -0.53768456859E+03 -0.29390921688E+03  0.65777761304E+03  0.00000000000E+00 0.  1.
</event>
<event>
 5    1  0.1632925E-004  0.4214145E+03  0.7818608E-02  0.9789824E-01
          4   -1    0    0  502    0 -0.00000000000E+00  0.00000000000E+00  0.18980424034E+04  0.18980424034E+04  0.00000000000E+00 0.  1.
         21   -1    0    0  501  502  0.00000000000E+00 -0.00000000000E+00 -0.44829589171E+03  0.44829589171E+03  0.00000000000E+00 0.  1.
        -13    1    1    2    0    0 -0.14696247517E+03 -0.14882698260E+03  0.46304990955E+03  0.50809710662E+03  0.10566000000E+00 0.  1.
         13    1    1    2    0    0 -0.23097314639E+03 -0.15381143740E+03  0.12545772187E+04  0.12849009929E+04  0.10566000000E+00 0. -1.
          4    1    1    2  501    0  0.37793562156E+03  0.30263842000E+03 -0.26788061659E+03  0.55334019559E+03  0.00000000000E+00 0.  1.
</event>
<event>
 5    1  0.7625606E-005  0.3094150E+03  0.7818608E-02  0.1044224E+00
          4   -1    0    0  502    0 -0.00000000000E+00  0.00000000000E+00  0.29265183068E+03  0.29265183068E+03  0.00000000000E+00 0.  1.
         21   -1    0    0  501  502  0.00000000000E+00 -0.00000000000E+00 -0.10970964539E+04  0.10970964539E+04  0.00000000000E+00 0.  1.
        -13    1    1    2    0    0 -0.37268529662E+02 -0.33743908737E+03  0.50669938322E+02  0.34325141632E+03  0.10566000000E+00 0.  1.
         13    1    1    2    0    0 -0.70437287580E+02  0.50259368612E+02  0.43594571177E+02  0.96891245296E+02  0.10566000000E+00 0. -1.
          4    1    1    2  501    0  0.10770581724E+03  0.28717971876E+03 -0.89870913268E+03  0.94960562292E+03  0.00000000000E+00 0.  1.
</event>
<event>
 5    1  0.7625606E-005  0.3705632E+03  0.7818608E-02  0.9852918E-01
         21   -1    0    0  501  502  0.00000000000E+00  0.00000000000E+00  0.51694904543E+03  0.51694904543E+03  0.00000000000E+00 0. -1.
         -4   -1    0    0    0  501 -0.00000000000E+00 -0.00000000000E+00 -0.93507813569E+03  0.93507813569E+03  0.00000000000E+00 0. -1.
        -13    1    1    2    0    0  0.32592758659E+03 -0.47369072247E+02 -0.19889812336E+03  0.38475069246E+03  0.10566000000E+00 0.  1.
         13    1    1    2    0    0 -0.22166899946E+03  0.40665296195E+03 -0.43500902454E+03  0.63540273794E+03  0.10566000000E+00 0. -1.
         -4    1    1    2    0  502 -0.10425858713E+03 -0.35928388971E+03  0.21577805765E+03  0.43187375071E+03  0.00000000000E+00 0. -1.
</event>
<event>
 5    1  0.7625606E-005  0.1431706E+03  0.7818608E-02  0.1108049E+00
          4   -1    0    0  502    0 -0.00000000000E+00  0.00000000000E+00  0.65884318110E+03  0.65884318110E+03  0.00000000000E+00 0.  1.
         21   -1    0    0  501  502  0.00000000000E+00 -0.00000000000E+00 -0.38945638495E+02  0.38945638495E+02  0.00000000000E+00 0. -1.
        -13    1    1    2    0    0 -0.35393307863E+02  0.14719643689E+03  0.29686880445E+03  0.33324251754E+03  0.10566000000E+00 0.  1.
         13    1    1    2    0    0  0.36925937751E+02 -0.13181752568E+03  0.32098497984E+03  0.34895666407E+03  0.10566000000E+00 0. -1.
          4    1    1    2  501    0 -0.15326298877E+01 -0.15378911209E+02  0.20437583141E+01  0.15589637982E+02  0.00000000000E+00 0.  1.
</event>
<event>
 5    1  0.7625606E-005  0.1761854E+02  0.7818608E-02  0.1579597E+00
         21   -1    0    0  501  502  0.00000000000E+00  0.00000000000E+00  0.46381561530E+01  0.46381561530E+01  0.00000000000E+00 0.  1.
          4   -1    0    0  502    0 -0.00000000000E+00 -0.00000000000E+00 -0.14705944466E+03  0.14705944466E+03  0.00000000000E+00 0.  1.
        -13    1    1    2    0    0  0.17447409850E+02 -0.78635047729E+01 -0.33579823712E+02  0.38650518009E+02  0.10566000000E+00 0.  1.
         13    1    1    2    0    0 -0.93371832367E+01 -0.62148593329E+01 -0.21953278806E+02  0.24652891954E+02  0.10566000000E+00 0. -1.
          4    1    1    2  501    0 -0.81102266135E+01  0.14078364106E+02 -0.86888185986E+02  0.88394190848E+02  0.00000000000E+00 0.  1.
</event>
<event>
 5    1  0.7625606E-005  0.2714912E+03  0.7818608E-02  0.1032087E+00
         21   -1    0    0  501  502  0.00000000000E+00  0.00000000000E+00  0.15402072179E+03  0.15402072179E+03  0.00000000000E+00 0. -1.
         -4   -1    0    0    0  501 -0.00000000000E+00 -0.00000000000E+00 -0.23518243237E+04  0.23518243237E+04  0.00000000000E+00 0. -1.
        -13    1    1    2    0    0 -0.16642005843E+03 -0.81427523088E+02 -0.47921914742E+03  0.51378699846E+03  0.10566000000E+00 0.  1.
         13    1    1    2    0    0  0.24732004826E+03  0.32926361577E+03 -0.16785132859E+04  0.17282906576E+04  0.10566000000E+00 0. -1.
         -4    1    1    2    0  502 -0.80899989824E+02 -0.24783609268E+03 -0.40071168576E+02  0.26376738946E+03  0.00000000000E+00 0. -1.
</event>
<event>
 5    1  0.7625606E-005  0.3554422E+03  0.7818608E-02  0.9935911E-01
         21   -1    0    0  501  502  0.00000000000E+00  0.00000000000E+00  0.65984414515E+03  0.65984414515E+03  0.00000000000E+00 0. -1.
         -4   -1    0    0    0  501 -0.00000000000E+00 -0.00000000000E+00 -0.17034096085E+04  0.17034096085E+04  0.00000000000E+00 0. -1.
        -13    1    1    2    0    0 -0.21996788501E+03  0.17746898177E+03 -0.12730721783E+04  0.13040682084E+04  0.10566000000E+00 0.  1.
         13    1    1    2    0    0  0.47429435881E+03  0.58364899715E+02 -0.19053132136E+03  0.51445485313E+03  0.10566000000E+00 0. -1.
         -4    1    1    2    0  502 -0.25432647381E+03 -0.23583388149E+03  0.42003803632E+03  0.54473069207E+03  0.00000000000E+00 0. -1.
</event>
<event>
 5    1  0.7625606E-005  0.1155683E+03  0.7818608E-02  0.1141091E+00
          4   -1    0    0  502    0 -0.00000000000E+00  0.00000000000E+00  0.93362435205E+03  0.93362435205E+03  0.00000000000E+00 0.  1.
         21   -1    0    0  501  502  0.00000000000E+00 -0.00000000000E+00 -0.30753860540E+02  0.30753860540E+02  0.00000000000E+00 0.  1.
        -13    1    1    2    0    0  0.78209933704E+02  0.12111502943E+03  0.61452743246E+03  0.63121281712E+03  0.10566000000E+00 0.  1.
         13    1    1    2    0    0 -0.75846394043E+02 -0.41105551652E+02  0.16353857929E+03  0.18489786356E+03  0.10566000000E+00 0. -1.
          4    1    1    2  501    0 -0.23635396604E+01 -0.80009477774E+02  0.12480447975E+03  0.14826753191E+03  0.00000000000E+00 0.  1.
</event>
<event>
 5    1  0.7625606E-005  0.4525977E+03  0.7818608E-02  0.9754363E-01
         21   -1    0    0  501  502  0.00000000000E+00  0.00000000000E+00  0.43863689847E+03  0.43863689847E+03  0.00000000000E+00 0.  1.
         -4   -1    0    0    0  501 -0.00000000000E+00 -0.00000000000E+00 -0.95086512261E+03  0.95086512261E+03  0.00000000000E+00 0. -1.
        -13    1    1    2    0    0  0.56735530136E+01  0.25293969494E+03 -0.14646458985E+03  0.29233981207E+03  0.10566000000E+00 0.  1.
         13    1    1    2    0    0  0.16831023694E+03 -0.59942758201E+03 -0.33803399318E+03  0.70845518817E+03  0.10566000000E+00 0. -1.
         -4    1    1    2    0  502 -0.17398378995E+03  0.34648788707E+03 -0.27729641109E+02  0.38870702084E+03  0.00000000000E+00 0. -1.
</event>
<event>
 5    1  0.7625606E-005  0.1038834E+04  0.7818608E-02  0.8738936E-01
          4   -1    0    0  502    0 -0.00000000000E+00  0.00000000000E+00  0.21707182488E+04  0.21707182488E+04  0.00000000000E+00 0.  1.
         21   -1    0    0  501  502  0.00000000000E+00 -0.00000000000E+00 -0.13761456016E+04  0.13761456016E+04  0.00000000000E+00 0. -1.
        -13    1    1    2    0    0 -0.72364866832E+03  0.31980313221E+03  0.60511563514E+02  0.79347532981E+03  0.10566000000E+00 0.  1.
         13    1    1    2    0    0  0.84009999720E+03 -0.88359745161E+03  0.14109777770E+04  0.18647709672E+04  0.10566000000E+00 0. -1.
          4    1    1    2  501    0 -0.11645132887E+03  0.56379431940E+03 -0.67691669328E+03  0.88861755341E+03  0.00000000000E+00 0.  1.
</event>
<event>
 5    1  0.7625606E-005  0.3017086E+03  0.7818608E-02  0.1006603E+00
         21   -1    0    0  501  502  0.00000000000E+00  0.00000000000E+00  0.70858112781E+03  0.70858112781E+03  0.00000000000E+00 0.  1.
         -4   -1    0    0    0  501 -0.00000000000E+00 -0.00000000000E+00 -0.30834032221E+03  0.30834032221E+03  0.00000000000E+00 0. -1.
        -13    1    1    2    0    0 -0.19226407553E+03  0.18407631671E+03  0.12062287463E+03  0.29223185001E+03  0.10566000000E+00 0.  1.
         13    1    1    2    0    0  0.38369636679E+03 -0.13791114461E+02  0.62790461928E+02  0.38904466325E+03  0.10566000000E+00 0. -1.
         -4    1    1    2    0  502 -0.19143229126E+03 -0.17028520225E+03  0.21682746904E+03  0.33564493677E+03  0.00000000000E+00 0. -1.
</event>
<event>
 5    1  0.7625606E-005  0.3403305E+03  0.7818608E-02  0.1022416E+00
         21   -1    0    0  501  502  0.00000000000E+00  0.00000000000E+00  0.25087162333E+03  0.25087162333E+03  0.00000000000E+00 0.  1.
          4   -1    0    0  502    0 -0.00000000000E+00 -0.00000000000E+00 -0.10026131170E+04  0.10026131170E+04  0.00000000000E+00 0.  1.
        -13    1    1    2    0    0 -0.13362079215E+03  0.31713277218E+03 -0.97457356750E+01  0.34427126196E+03  0.10566000000E+00 0.  1.
         13    1    1    2    0    0 -0.10803685772E+03 -0.66795006211E+02 -0.40643696312E+03  0.42582220660E+03  0.10566000000E+00 0. -1.
          4    1    1    2  501    0  0.24165764988E+03 -0.25033776597E+03 -0.33555879493E+03  0.48339127181E+03  0.00000000000E+00 0.  1.
</event>
<event>
 5    1  0.7625606E-005  0.2271091E+03  0.7818608E-02  0.1042989E+00
         -4   -1    0    0    0  501 -0.00000000000E+00  0.00000000000E+00  0.76688468436E+03  0.76688468436E+03  0.00000000000E+00 0. -1.
         21   -1    0    0  501  502  0.00000000000E+00 -0.00000000000E+00 -0.72156282831E+03  0.72156282831E+03  0.00000000000E+00 0. -1.
        -13    1    1    2    0    0 -0.55183843218E+02  0.19488861769E+03  0.40249129879E+03  0.45058416153E+03  0.10566000000E+00 0.  1.
         13    1    1    2    0    0  0.95243116429E+01 -0.30292204895E+03  0.26630767119E+03  0.40345045191E+03  0.10566000000E+00 0. -1.
         -4    1    1    2    0  502  0.45659531575E+02  0.10803343126E+03 -0.62347711393E+03  0.63441289922E+03  0.00000000000E+00 0. -1.
</event>
<event>
 5    1  0.7625606E-005  0.2341880E+03  0.7818608E-02  0.1038929E+00
         21   -1    0    0  501  502  0.00000000000E+00  0.00000000000E+00  0.19940820112E+03  0.19940820112E+03  0.00000000000E+00 0.  1.
         -4   -1    0    0    0  501 -0.00000000000E+00 -0.00000000000E+00 -0.42378375619E+03  0.42378375619E+03  0.00000000000E+00 0. -1.
        -13    1    1    2    0    0 -0.77768125138E+02 -0.18899313032E+03 -0.87739792422E+02  0.22240631046E+03  0.10566000000E+00 0.  1.
         13    1    1    2    0    0  0.13297761137E+03  0.23147316682E+03 -0.17697688810E+03  0.32028690602E+03  0.10566000000E+00 0. -1.
         -4    1    1    2    0  502 -0.55209486235E+02 -0.42480036497E+02  0.40341125450E+02  0.80498740820E+02  0.00000000000E+00 0. -1.
</event>
<event>
 5    1  0.7625606E-005  0.5300666E+03  0.7818608E-02  0.9414400E-01
         -4   -1    0    0    0  501 -0.00000000000E+00  0.00000000000E+00  0.46225050685E+03  0.46225050685E+03  0.00000000000E+00 0. -1.
         21   -1    0    0  501  502  0.00000000000E+00 -0.00000000000E+00 -0.85350257773E+03  0.85350257773E+03  0.00000000000E+00 0.  1.
        -13    1    1    2    0    0 -0.51454934893E+03  0.14533878635E+03 -0.32354546097E+03  0.62495285564E+03  0.10566000000E+00 0.  1.
         13    1    1    2    0    0  0.50270980428E+03 -0.16142702507E+03  0.86737804196E+02  0.53506942501E+03  0.10566000000E+00 0. -1.
         -4    1    1    2    0  502  0.11839544645E+02  0.16088238715E+02 -0.15444441411E+03  0.15573080393E+03  0.00000000000E+00 0. -1.
</event>
<event>
 5    1  0.7625606E-005  0.1914322E+03  0.7818608E-02  0.1066174E+00
         21   -1    0    0  501  502  0.00000000000E+00  0.00000000000E+00  0.38604541000E+02  0.38604541000E+02  0.00000000000E+00 0.  1.
          4   -1    0    0  502    0 -0.00000000000E+00 -0.00000000000E+00 -0.16968964832E+04  0.16968964832E+04  0.00000000000E+00 0.  1.
        -13    1    1    2    0    0  0.10299684301E+03 -0.16806829092E+03 -0.94340043064E+03  0.96377366834E+03  0.10566000000E+00 0.  1.
         13    1    1    2    0    0 -0.95950561496E+02  0.15816091986E+03 -0.72957578013E+03  0.75266341543E+03  0.10566000000E+00 0. -1.
          4    1    1    2  501    0 -0.70462815118E+01  0.99073710656E+01  0.14684268519E+02  0.19063940477E+02  0.00000000000E+00 0.  1.
</event>
<event>
 5    1  0.7625606E-005  0.3000018E+03  0.7818608E-02  0.1007305E+00
         21   -1    0    0  501  502  0.00000000000E+00  0.00000000000E+00  0.31443693039E+03  0.31443693039E+03  0.00000000000E+00 0.  1.
          4   -1    0    0  502    0 -0.00000000000E+00 -0.00000000000E+00 -0.20534259428E+04  0.20534259428E+04  0.00000000000E+00 0.  1.
        -13    1    1    2    0    0  0.16421365183E+03  0.25282505067E+03 -0.15989805082E+04  0.16271525148E+04  0.10566000000E+00 0.  1.
         13    1    1    2    0    0 -0.20461761643E+03 -0.21725960891E+03 -0.38655327446E+03  0.48835801598E+03  0.10566000000E+00 0. -1.
          4    1    1    2  501    0  0.40403964601E+02 -0.35565441753E+02  0.24654477021E+03  0.25235234242E+03  0.00000000000E+00 0.  1.
</event>
<event>
 5    1  0.7625606E-005  0.6914894E+02  0.7818608E-02  0.1228978E+00
         -4   -1    0    0    0  501 -0.00000000000E+00  0.00000000000E+00  0.26743656114E+02  0.26743656114E+02  0.00000000000E+00 0. -1.
         21   -1    0    0  501  502  0.00000000000E+00 -0.00000000000E+00 -0.61813291545E+03  0.61813291545E+03  0.00000000000E+00 0. -1.
        -13    1    1    2    0    0  0.25211329861E+02 -0.51264821001E+02 -0.14926488699E+03  0.15982399907E+03  0.10566000000E+00 0.  1.
         13    1    1    2    0    0 -0.40112336056E+02  0.62565976703E+02 -0.43753888516E+02  0.86243346810E+02  0.10566000000E+00 0. -1.
         -4    1    1    2    0  502  0.14901006196E+02 -0.11301155702E+02 -0.39837048383E+03  0.39880922569E+03  0.00000000000E+00 0. -1.
</event>
<event>
 5    1  0.7625606E-005  0.6452536E+03  0.7818608E-02  0.9206419E-01
         -4   -1    0    0    0  501 -0.00000000000E+00  0.00000000000E+00  0.42188452983E+04  0.42188452983E+04  0.00000000000E+00 0. -1.
         21   -1    0    0  501  502  0.00000000000E+00 -0.00000000000E+00 -0.21496955912E+03  0.21496955912E+03  0.00000000000E+00 0. -1.
        -13    1    1    2    0    0 -0.54736793350E+03  0.22713938030E+03  0.22476144863E+04  0.23244300038E+04  0.10566000000E+00 0.  1.
         13    1    1    2    0    0  0.83134310580E+03 -0.65801076170E+02  0.13665226294E+04  0.16008888934E+04  0.10566000000E+00 0. -1.
         -4    1    1    2    0  502 -0.28397517230E+03 -0.16133830413E+03  0.38973862349E+03  0.50849596016E+03  0.00000000000E+00 0. -1.
</event>
<event>
 5    1  0.7625606E-005  0.4853581E+03  0.7818608E-02  0.9908358E-01
         -4   -1    0    0    0  501 -0.00000000000E+00  0.00000000000E+00  0.23468839409E+04  0.23468839409E+04  0.00000000000E+00 0. -1.
         21   -1    0    0  501  502  0.00000000000E+00 -0.00000000000E+00 -0.13840684492E+03  0.13840684492E+03  0.00000000000E+00 0. -1.
        -13    1    1    2    0    0 -0.12137232341E+03 -0.85430268278E+01  0.19780243830E+03  0.23222842195E+03  0.10566000000E+00 0.  1.
         13    1    1    2    0    0 -0.39623054047E+03 -0.10103678945E+03  0.13270339392E+04  0.13886058335E+04  0.10566000000E+00 0. -1.
         -4    1    1    2    0  502  0.51760286389E+03  0.10957981628E+03  0.68364071847E+03  0.86445653031E+03  0.00000000000E+00 0. -1.
</event>
<event>
 5    1  0.7625606E-005  0.4805033E+03  0.7818608E-02  0.9715173E-01
          4   -1    0    0  502    0 -0.00000000000E+00  0.00000000000E+00  0.32256110825E+04  0.32256110825E+04  0.00000000000E+00 0.  1.
         21   -1    0    0  501  502  0.00000000000E+00 -0.00000000000E+00 -0.12569772217E+03  0.12569772217E+03  0.00000000000E+00 0.  1.
        -13    1    1    2    0    0  0.19093621923E+02  0.34685828638E+03  0.15376588023E+04  0.15764104290E+04  0.10566000000E+00 0.  1.
         13    1    1    2    0    0  0.14969027992E+03  0.19030959040E+03  0.73783621972E+03  0.77654827178E+03  0.10566000000E+00 0. -1.
          4    1    1    2  501    0 -0.16878390185E+03 -0.53716787679E+03  0.82441833829E+03  0.99835010386E+03  0.00000000000E+00 0.  1.
</event>
<event>
 5    1  0.7625606E-005  0.3552474E+03  0.7818608E-02  0.9868023E-01
         -4   -1    0    0    0  501 -0.00000000000E+00  0.00000000000E+00  0.15060855602E+03  0.15060855602E+03  0.00000000000E+00 0. -1.
         21   -1    0    0  501  502  0.00000000000E+00 -0.00000000000E+00 -0.10912526817E+04  0.10912526817E+04  0.00000000000E+00 0.  1.
        -13    1    1    2    0    0 -0.84509049312E+02  0.33531554016E+03 -0.65120525815E+03  0.73732393850E+03  0.10566000000E+00 0.  1.
         13    1    1    2    0    0  0.96214921817E+02 -0.34627054827E+03 -0.19526765856E+03  0.40901109206E+03  0.10566000000E+00 0. -1.
         -4    1    1    2    0  502 -0.11705872505E+02  0.10955008112E+02 -0.94171208982E+02  0.95526207163E+02  0.00000000000E+00 0. -1.
</event>
<event>
 5    1  0.7625606E-005  0.3185768E+03  0.7818608E-02  0.9999190E-01
         -4   -1    0    0    0  501 -0.00000000000E+00  0.00000000000E+00  0.27537978617E+03  0.27537978617E+03  0.00000000000E+00 0. -1.
         21   -1    0    0  501  502  0.00000000000E+00 -0.00000000000E+00 -0.89806713013E+03  0.89806713013E+03  0.00000000000E+00 0.  1.
        -13    1    1    2    0    0  0.27192232732E+03  0.15801114240E+03 -0.26022320643E+03  0.40819774809E+03  0.10566000000E+00 0.  1.
         13    1    1    2    0    0 -0.26939453236E+03 -0.17310787808E+03  0.73884993904E+02  0.32863164030E+03  0.10566000000E+00 0. -1.
         -4    1    1    2    0  502 -0.25277949615E+01  0.15096735675E+02 -0.43634913144E+03  0.43661752792E+03  0.00000000000E+00 0. -1.
</event>
<event>
 5    1  0.7625606E-005  0.5610663E+03  0.7818608E-02  0.9353313E-01
         21   -1    0    0  501  502  0.00000000000E+00  0.00000000000E+00  0.30430182003E+03  0.30430182003E+03  0.00000000000E+00 0.  1.
         -4   -1    0    0    0  501 -0.00000000000E+00 -0.00000000000E+00 -0.20845125827E+04  0.20845125827E+04  0.00000000000E+00 0. -1.
        -13    1    1    2    0    0  0.22507165321E+02 -0.44450964665E+03 -0.23813486852E+03  0.50478076947E+03  0.10566000000E+00 0.  1.
         13    1    1    2    0    0 -0.67532526289E+01  0.61013673733E+03 -0.15963825617E+04  0.17090201108E+04  0.10566000000E+00 0. -1.
         -4    1    1    2    0  502 -0.15753912692E+02 -0.16562709068E+03  0.54306667480E+02  0.17501352252E+03  0.00000000000E+00 0. -1.
</event>
<event>
 5    1  0.7625606E-005  0.1558035E+03  0.7818608E-02  0.1095525E+00
         21   -1    0    0  501  502  0.00000000000E+00  0.00000000000E+00  0.51486087504E+02  0.51486087504E+02  0.00000000000E+00 0. -1.
          4   -1    0    0  502    0 -0.00000000000E+00 -0.00000000000E+00 -0.10944248874E+04  0.10944248874E+04  0.00000000000E+00 0.  1.
        -13    1    1    2    0    0  0.14689325524E+03 -0.10390438310E+02 -0.63446580386E+03  0.65133129594E+03  0.10566000000E+00 0.  1.
         13    1    1    2    0    0 -0.17531173826E+03  0.87569930773E+02 -0.30264170698E+03  0.36054779477E+03  0.10566000000E+00 0. -1.
          4    1    1    2  501    0  0.28418483017E+02 -0.77179492462E+02 -0.10583128901E+03  0.13403188415E+03  0.00000000000E+00 0.  1.
</event>
<event>
 5    1  0.7625606E-005  0.2590259E+03  0.7818608E-02  0.1025819E+00
         -4   -1    0    0    0  501 -0.00000000000E+00  0.00000000000E+00  0.17793978210E+04  0.17793978210E+04  0.00000000000E+00 0. -1.
         21   -1    0    0  501  502  0.00000000000E+00 -0.00000000000E+00 -0.24344894082E+03  0.24344894082E+03  0.00000000000E+00 0. -1.
        -13    1    1    2    0    0  0.52959502101E+02 -0.23526629780E+03  0.73171409566E+03  0.77042875640E+03  0.10566000000E+00 0.  1.
         13    1    1    2    0    0 -0.36629526321E+02  0.27431618019E+03  0.10074862648E+04  0.10448060460E+04  0.10566000000E+00 0. -1.
         -4    1    1    2    0  502 -0.16329975779E+02 -0.39049882392E+02 -0.20325148030E+03  0.20761195936E+03  0.00000000000E+00 0. -1.
</event>
<event>
 5    1  0.7625606E-005  0.2275715E+03  0.7818608E-02  0.1058040E+00
         21   -1    0    0  501  502  0.00000000000E+00  0.00000000000E+00  0.55472880123E+03  0.55472880123E+03  0.00000000000E+00 0. -1.
         -4   -1    0    0    0  501 -0.00000000000E+00 -0.00000000000E+00 -0.56549560257E+03  0.56549560257E+03  0.00000000000E+00 0. -1.
        -13    1    1    2    0    0  0.80342360971E+02 -0.11990730697E+03  0.31514187256E+02  0.14773561654E+03  0.10566000000E+00 0.  1.
         13    1    1    2    0    0 -0.25218916531E+03 -0.30728342817E+02 -0.44329355866E+03  0.51093326028E+03  0.10566000000E+00 0. -1.
         -4    1    1    2    0  502  0.17184680434E+03  0.15063564979E+03  0.40101257006E+03  0.46155552699E+03  0.00000000000E+00 0. -1.
</event>
<event>
 5    1  0.7625606E-005  0.4356802E+03  0.7818608E-02  0.9642512E-01
          4   -1    0    0  502    0 -0.00000000000E+00  0.00000000000E+00  0.12184150070E+04  0.12184150070E+04  0.00000000000E+00 0.  1.
         21   -1    0    0  501  502  0.00000000000E+00 -0.00000000000E+00 -0.47049164003E+03  0.47049164003E+03  0.00000000000E+00 0.  1.
        -13    1    1    2    0    0  0.37629731190E+03 -0.24486662688E+03  0.56660797218E+03  0.72291350603E+03  0.10566000000E+00 0.  1.
         13    1    1    2    0    0 -0.37911579833E+03 -0.23180774253E+03  0.20359758587E+03  0.48878994075E+03  0.10566000000E+00 0. -1.
          4    1    1    2  501    0  0.28184864294E+01  0.47667436941E+03 -0.22282191059E+02  0.47720320028E+03  0.00000000000E+00 0.  1.
</event>
<event>
 5    1  0.7625606E-005  0.8839985E+02  0.7818608E-02  0.1185321E+00
         -4   -1    0    0    0  501 -0.00000000000E+00  0.00000000000E+00  0.19521115015E+02  0.19521115015E+02  0.00000000000E+00 0. -1.
         21   -1    0    0  501  502  0.00000000000E+00 -0.00000000000E+00 -0.51376068181E+03  0.51376068181E+03  0.00000000000E+00 0.  1.
        -13    1    1    2    0    0  0.62318194114E+02  0.46964842523E+02 -0.27087828426E+03  0.28189414644E+03  0.10566000000E+00 0.  1.
         13    1    1    2    0    0 -0.71795588299E+02 -0.62655135844E+02 -0.16892898015E+03  0.19395175701E+03  0.10566000000E+00 0. -1.
         -4    1    1    2    0  502  0.94773941845E+01  0.15690293322E+02 -0.54432302387E+02  0.57435893379E+02  0.00000000000E+00 0. -1.
</event>
<event>
 5    1  0.7625606E-005  0.4596281E+03  0.7818608E-02  0.9948960E-01
          4   -1    0    0  502    0 -0.00000000000E+00  0.00000000000E+00  0.23496618632E+04  0.23496618632E+04  0.00000000000E+00 0.  1.
         21   -1    0    0  501  502  0.00000000000E+00 -0.00000000000E+00 -0.13685890128E+03  0.13685890128E+03  0.00000000000E+00 0.  1.
        -13    1    1    2    0    0  0.26934681368E+03  0.32300270159E+03  0.14452055411E+04  0.15051569747E+04  0.10566000000E+00 0.  1.
         13    1    1    2    0    0 -0.60299853588E+02  0.10969235112E+03  0.21734835270E+03  0.25081627105E+03  0.10566000000E+00 0. -1.
          4    1    1    2  501    0 -0.20904696009E+03 -0.43269505271E+03  0.55024906807E+03  0.73054751869E+03  0.00000000000E+00 0.  1.
</event>
<event>
 5    1  0.7625606E-005  0.1714218E+03  0.7818608E-02  0.1093786E+00
         -4   -1    0    0    0  501 -0.00000000000E+00  0.00000000000E+00  0.26657921529E+03  0.26657921529E+03  0.00000000000E+00 0. -1.
         21   -1    0    0  501  502  0.00000000000E+00 -0.00000000000E+00 -0.66255501167E+03  0.66255501167E+03  0.00000000000E+00 0. -1.
        -13    1    1    2    0    0 -0.20104414625E+03  0.25336459448E+02  0.36105836795E+01  0.20266655471E+03  0.10566000000E+00 0.  1.
         13    1    1    2    0    0 -0.66635780306E+02  0.11885604964E+03 -0.39984097724E+03  0.42242147909E+03  0.10566000000E+00 0. -1.
         -4    1    1    2    0  502  0.26767992656E+03 -0.14419250909E+03  0.25459718436E+00  0.30404619316E+03  0.00000000000E+00 0. -1.
</event>
<event>
 5    1  0.7625606E-005  0.6636097E+02  0.7818608E-02  0.1236612E+00
         21   -1    0    0  501  502  0.00000000000E+00  0.00000000000E+00  0.52194085472E+02  0.52194085472E+02  0.00000000000E+00 0.  1.
         -4   -1    0    0    0  501 -0.00000000000E+00 -0.00000000000E+00 -0.12439477814E+03  0.12439477814E+03  0.00000000000E+00 0. -1.
        -13    1    1    2    0    0  0.52157425928E+02  0.23051779987E+02 -0.10310435110E+02  0.57949097285E+02  0.10566000000E+00 0.  1.
         13    1    1    2    0    0 -0.63390492371E+02 -0.35253024854E+02 -0.69442793637E+02  0.10041634845E+03  0.10566000000E+00 0. -1.
         -4    1    1    2    0  502  0.11233066444E+02  0.12201244867E+02  0.75525360749E+01  0.18223417879E+02  0.00000000000E+00 0. -1.
</event>
<event>
 5    1  0.7625606E-005  0.5379350E+03  0.7818608E-02  0.9398489E-01
         -4   -1    0    0    0  501 -0.00000000000E+00  0.00000000000E+00  0.21716436588E+04  0.21716436588E+04  0.00000000000E+00 0. -1.
         21   -1    0    0  501  502  0.00000000000E+00 -0.00000000000E+00 -0.27684503968E+03  0.27684503968E+03  0.00000000000E+00 0.  1.
        -13    1    1    2    0    0  0.34353973169E+03  0.29282383390E+03  0.48982385915E+03  0.66610267159E+03  0.10566000000E+00 0.  1.
         13    1    1    2    0    0 -0.35635393450E+03 -0.48483681411E+03  0.14625736867E+04  0.15815108798E+04  0.10566000000E+00 0. -1.
         -4    1    1    2    0  502  0.12814202810E+02  0.19201298021E+03 -0.57598926668E+02  0.20087514709E+03  0.00000000000E+00 0. -1.
</event>
<event>
 5    1  0.7625606E-005  0.3411025E+02  0.7818608E-02  0.1374652E+00
         -4   -1    0    0    0  501 -0.00000000000E+00  0.00000000000E+00  0.49247029695E+02  0.49247029695E+02  0.00000000000E+00 0. -1.
         21   -1    0    0  501  502  0.00000000000E+00 -0.00000000000E+00 -0.32292569947E+03  0.32292569947E+03  0.00000000000E+00 0. -1.
        -13    1    1    2    0    0 -0.34695243460E+02 -0.47935196316E+01 -0.47253129248E+02  0.58818425149E+02  0.10566000000E+00 0.  1.
         13    1    1    2    0    0  0.33431720667E+02 -0.73993319234E+01  0.36555700604E+02  0.50087528092E+02  0.10566000000E+00 0. -1.
         -4    1    1    2    0  502  0.12635227930E+01  0.12192851555E+02 -0.26298124113E+03  0.26326677593E+03  0.00000000000E+00 0. -1.
</event>
<event>
 5    1  0.7625606E-005  0.5033004E+03  0.7818608E-02  0.9501353E-01
         21   -1    0    0  501  502  0.00000000000E+00  0.00000000000E+00  0.30974341190E+03  0.30974341190E+03  0.00000000000E+00 0.  1.
          4   -1    0    0  502    0 -0.00000000000E+00 -0.00000000000E+00 -0.20357450141E+04  0.20357450141E+04  0.00000000000E+00 0.  1.
        -13    1    1    2    0    0 -0.26282017856E+03  0.16549318386E+03 -0.70448671662E+03  0.76991167365E+03  0.10566000000E+00 0.  1.
         13    1    1    2    0    0 -0.44776397578E+03  0.46967707912E+02 -0.30115120140E+03  0.54165542631E+03  0.10566000000E+00 0. -1.
          4    1    1    2  501    0  0.71058415434E+03 -0.21246089177E+03 -0.72036368416E+03  0.10339213260E+04  0.00000000000E+00 0.  1.
</event>
<event>
 5    1  0.7625606E-005  0.3797370E+03  0.7818608E-02  0.9789461E-01
          4   -1    0    0  502    0 -0.00000000000E+00  0.00000000000E+00  0.59533652073E+03  0.59533652073E+03  0.00000000000E+00 0.  1.
         21   -1    0    0  501  502  0.00000000000E+00 -0.00000000000E+00 -0.37285936656E+03  0.37285936656E+03  0.00000000000E+00 0. -1.
        -13    1    1    2    0    0  0.33117240243E+03 -0.20560524763E+03  0.30436226100E+03  0.49455543175E+03  0.10566000000E+00 0.  1.
         13    1    1    2    0    0 -0.29275289705E+03  0.21348598338E+03  0.21602981627E+02  0.36297000401E+03  0.10566000000E+00 0. -1.
          4    1    1    2  501    0 -0.38419505385E+02 -0.78807357499E+01 -0.10348808846E+03  0.11067045154E+03  0.00000000000E+00 0.  1.
</event>
<event>
 5    1  0.7625606E-005  0.3625083E+03  0.7818608E-02  0.9960212E-01
         21   -1    0    0  501  502  0.00000000000E+00  0.00000000000E+00  0.36738235970E+03  0.36738235970E+03  0.00000000000E+00 0. -1.
         -4   -1    0    0    0  501 -0.00000000000E+00 -0.00000000000E+00 -0.12239540280E+04  0.12239540280E+04  0.00000000000E+00 0. -1.
        -13    1    1    2    0    0 -0.14928273746E+03  0.19529809869E+03 -0.41930160416E+03  0.48604581006E+03  0.10566000000E+00 0.  1.
         13    1    1    2    0    0 -0.17834136136E+03  0.34495648537E+02 -0.63390098707E+03  0.65941342382E+03  0.10566000000E+00 0. -1.
         -4    1    1    2    0  502  0.32762409882E+03 -0.22979374723E+03  0.19663092297E+03  0.44587715378E+03  0.00000000000E+00 0. -1.
</event>
<event>
 5    1  0.7625606E-005  0.4880056E+03  0.7818608E-02  0.9849164E-01
         21   -1    0    0  501  502  0.00000000000E+00  0.00000000000E+00  0.50550468688E+03  0.50550468688E+03  0.00000000000E+00 0. -1.
         -4   -1    0    0    0  501 -0.00000000000E+00 -0.00000000000E+00 -0.10468146093E+04  0.10468146093E+04  0.00000000000E+00 0. -1.
        -13    1    1    2    0    0 -0.13975569502E+03 -0.42391777568E+02 -0.52567806804E+03  0.54558790262E+03  0.10566000000E+00 0.  1.
         13    1    1    2    0    0  0.24575898794E+03  0.48576081923E+03 -0.64751093908E+02  0.54822784404E+03  0.10566000000E+00 0. -1.
         -4    1    1    2    0  502 -0.10600329292E+03 -0.44336904166E+03  0.49119239556E+02  0.45850354950E+03  0.00000000000E+00 0. -1.
</event>
<event>
 5    1  0.7625606E-005  0.5926859E+02  0.7818608E-02  0.1258065E+00
         21   -1    0    0  501  502  0.00000000000E+00  0.00000000000E+00  0.37398828174E+02  0.37398828174E+02  0.00000000000E+00 0.  1.
         -4   -1    0    0    0  501 -0.00000000000E+00 -0.00000000000E+00 -0.19845798791E+03  0.19845798791E+03  0.00000000000E+00 0. -1.
        -13    1    1    2    0    0 -0.42127446408E+02  0.28717344278E+02 -0.38685548226E+01  0.51131052050E+02  0.10566000000E+00 0.  1.
         13    1    1    2    0    0  0.39668359083E+02 -0.47342431000E+02 -0.15366176880E+03  0.16561049134E+03  0.10566000000E+00 0. -1.
         -4    1    1    2    0  502  0.24590873254E+01  0.18625086721E+02 -0.35288361052E+01  0.19115272692E+02  0.00000000000E+00 0. -1.
</event>
<event>
 5    1  0.7625606E-005  0.4995938E+03  0.7818608E-02  0.9682016E-01
          4   -1    0    0  502    0 -0.00000000000E+00  0.00000000000E+00  0.16337819627E+04  0.16337819627E+04  0.00000000000E+00 0.  1.
         21   -1    0    0  501  502  0.00000000000E+00 -0.00000000000E+00 -0.24881742011E+03  0.24881742011E+03  0.00000000000E+00 0.  1.
        -13    1    1    2    0    0 -0.44173656123E+02 -0.61423735406E+03  0.58373404681E+03  0.84851887875E+03  0.10566000000E+00 0.  1.
         13    1    1    2    0    0  0.10047205339E+03  0.21992946145E+03  0.20475027103E+03  0.31683794940E+03  0.10566000000E+00 0. -1.
          4    1    1    2  501    0 -0.56298397268E+02  0.39430789261E+03  0.59648022476E+03  0.71724255468E+03  0.00000000000E+00 0.  1.
</event>
<event>
 5    1  0.7625606E-005  0.1945099E+03  0.7818608E-02  0.1065985E+00
         21   -1    0    0  501  502  0.00000000000E+00  0.00000000000E+00  0.36998165394E+03  0.36998165394E+03  0.00000000000E+00 0.  1.
          4   -1    0    0  502    0 -0.00000000000E+00 -0.00000000000E+00 -0.30344671723E+03  0.30344671723E+03  0.00000000000E+00 0.  1.
        -13    1    1    2    0    0 -0.45030154063E+02  0.26076476125E+03 -0.77442707155E+02  0.27572333877E+03  0.10566000000E+00 0.  1.
         13    1    1    2    0    0 -0.10581795771E+03 -0.14989822972E+03  0.74034520715E+02  0.19785863860E+03  0.10566000000E+00 0. -1.
          4    1    1    2  501    0  0.15084811178E+03 -0.11086653153E+03  0.69943123148E+02  0.19984639380E+03  0.00000000000E+00 0.  1.
</event>
<event>
 5    1  0.7625606E-005  0.6802517E+03  0.7818608E-02  0.9152129E-01
         21   -1    0    0  501  502  0.00000000000E+00  0.00000000000E+00  0.23420065109E+04  0.23420065109E+04  0.00000000000E+00 0. -1.
          4   -1    0    0  502    0 -0.00000000000E+00 -0.00000000000E+00 -0.44007964156E+03  0.44007964156E+03  0.00000000000E+00 0.  1.
        -13    1    1    2    0    0 -0.50855053634E+03  0.44107719968E+03 -0.47383748584E+01  0.67319774766E+03  0.10566000000E+00 0.  1.
         13    1    1    2    0    0  0.56324932684E+03 -0.42873447535E+03  0.11516867848E+04  0.13518304316E+04  0.10566000000E+00 0. -1.
          4    1    1    2  501    0 -0.54698790498E+02 -0.12342724329E+02  0.75497845948E+03  0.75705797321E+03  0.00000000000E+00 0.  1.
</event>
<event>
 5    1  0.7625606E-005  0.4378647E+03  0.7818608E-02  0.9762242E-01
          4   -1    0    0  502    0 -0.00000000000E+00  0.00000000000E+00  0.24964557910E+04  0.24964557910E+04  0.00000000000E+00 0.  1.
         21   -1    0    0  501  502  0.00000000000E+00 -0.00000000000E+00 -0.23586977187E+03  0.23586977187E+03  0.00000000000E+00 0.  1.
        -13    1    1    2    0    0 -0.12662461802E+03 -0.36628183159E+03  0.87162397867E+03  0.95389965164E+03  0.10566000000E+00 0.  1.
         13    1    1    2    0    0  0.25675746343E+03 -0.89575629817E+02  0.12573603024E+04  0.12864303828E+04  0.10566000000E+00 0. -1.
          4    1    1    2  501    0 -0.13013284540E+03  0.45585746141E+03  0.13160173807E+03  0.49199552847E+03  0.00000000000E+00 0.  1.
</event>
<event>
 5    1  0.7625606E-005  0.4342890E+03  0.7818608E-02  0.9781347E-01
         21   -1    0    0  501  502  0.00000000000E+00  0.00000000000E+00  0.11848183142E+03  0.11848183142E+03  0.00000000000E+00 0.  1.
          4   -1    0    0  502    0 -0.00000000000E+00 -0.00000000000E+00 -0.35522242815E+04  0.35522242815E+04  0.00000000000E+00 0.  1.
        -13    1    1    2    0    0 -0.48634324250E+03 -0.14175944154E+02 -0.63879104317E+03  0.80298487839E+03  0.10566000000E+00 0.  1.
         13    1    1    2    0    0  0.21066090880E+03  0.15410791001E+03 -0.64748892100E+03  0.69811831405E+03  0.10566000000E+00 0. -1.
          4    1    1    2  501    0  0.27568233371E+03 -0.13993196585E+03 -0.21474624859E+04  0.21696029205E+04  0.00000000000E+00 0.  1.
</event>
<event>
 5    1  0.7625606E-005  0.3872885E+03  0.7818608E-02  0.9766491E-01
          4   -1    0    0  502    0 -0.00000000000E+00  0.00000000000E+00  0.21182630281E+04  0.21182630281E+04  0.00000000000E+00 0.  1.
         21   -1    0    0  501  502  0.00000000000E+00 -0.00000000000E+00 -0.16747524503E+03  0.16747524503E+03  0.00000000000E+00 0. -1.
        -13    1    1    2    0    0  0.28957949592E+03  0.10674456782E+03  0.40673551493E+03  0.51057269559E+03  0.10566000000E+00 0.  1.
         13    1    1    2    0    0 -0.31278634247E+03 -0.32832934818E+03  0.14731406790E+04  0.15413561977E+04  0.10566000000E+00 0. -1.
          4    1    1    2  501    0  0.23206846550E+02  0.22158478035E+03  0.70911589103E+02  0.23380937979E+03  0.00000000000E+00 0.  1.
</event>
<event>
 5    1  0.7625606E-005  0.7153872E+02  0.7818608E-02  0.1222747E+00
         21   -1    0    0  501  502  0.00000000000E+00  0.00000000000E+00  0.19518963177E+03  0.19518963177E+03  0.00000000000E+00 0.  1.
         -4   -1    0    0    0  501 -0.00000000000E+00 -0.00000000000E+00 -0.42759844553E+02  0.42759844553E+02  0.00000000000E+00 0. -1.
        -13    1    1    2    0    0  0.56344982240E+02  0.34372448142E+02  0.76492281992E+02  0.10103119609E+03  0.10566000000E+00 0.  1.
         13    1    1    2    0    0 -0.79040460893E+02 -0.87722148804E+01  0.56694661478E+02  0.97665971639E+02  0.10566000000E+00 0. -1.
         -4    1    1    2    0  502  0.22695478653E+02 -0.25600233262E+02  0.19242843744E+02  0.39252308591E+02  0.00000000000E+00 0. -1.
</event>
<event>
 5    1  0.7625606E-005  0.1591446E+03  0.7818608E-02  0.1092427E+00
          4   -1    0    0  502    0 -0.00000000000E+00  0.00000000000E+00  0.12196683195E+03  0.12196683195E+03  0.00000000000E+00 0.  1.
         21   -1    0    0  501  502  0.00000000000E+00 -0.00000000000E+00 -0.38488502674E+03  0.38488502674E+03  0.00000000000E+00 0. -1.
        -13    1    1    2    0    0 -0.56532492500E+02 -0.14945490444E+03  0.14835722967E+02  0.16047679274E+03  0.10566000000E+00 0.  1.
         13    1    1    2    0    0  0.69613350758E+02  0.14185964285E+03 -0.15048599797E+03  0.21821141955E+03  0.10566000000E+00 0. -1.
          4    1    1    2  501    0 -0.13080858259E+02  0.75952615846E+01 -0.12726791978E+03  0.12816364640E+03  0.00000000000E+00 0.  1.
</event>
<event>
 5    1  0.7625606E-005  0.4862073E+03  0.7818608E-02  0.9570048E-01
         21   -1    0    0  501  502  0.00000000000E+00  0.00000000000E+00  0.35024266975E+03  0.35024266975E+03  0.00000000000E+00 0.  1.
          4   -1    0    0  502    0 -0.00000000000E+00 -0.00000000000E+00 -0.15783772987E+04  0.15783772987E+04  0.00000000000E+00 0.  1.
        -13    1    1    2    0    0  0.38398622002E+03  0.33623080754E+02 -0.74036274669E+03  0.83469331887E+03  0.10566000000E+00 0.  1.
         13    1    1    2    0    0  0.78167073245E+02 -0.38189691547E+03 -0.27632049522E+03  0.47781625404E+03  0.10566000000E+00 0. -1.
          4    1    1    2  501    0 -0.46215329326E+03  0.34827383471E+03 -0.21145138706E+03  0.61611039555E+03  0.00000000000E+00 0.  1.
</event>
<event>
 5    1  0.7625606E-005  0.6853523E+03  0.7818608E-02  0.9144502E-01
         -4   -1    0    0    0  501 -0.00000000000E+00  0.00000000000E+00  0.16389085328E+04  0.16389085328E+04  0.00000000000E+00 0. -1.
         21   -1    0    0  501  502  0.00000000000E+00 -0.00000000000E+00 -0.58685630561E+03  0.58685630561E+03  0.00000000000E+00 0.  1.
        -13    1    1    2    0    0 -0.68804923479E+03  0.32288305076E+02  0.51680449736E+02  0.69074247313E+03  0.10566000000E+00 0.  1.
         13    1    1    2    0    0  0.68398145836E+03 -0.22975265541E+02  0.11751746898E+04  0.13599242850E+04  0.10566000000E+00 0. -1.
         -4    1    1    2    0  502  0.40677764330E+01 -0.93130395351E+01 -0.17480291241E+03  0.17509808022E+03  0.00000000000E+00 0. -1.
</event>
<event>
 5    1  0.7625606E-005  0.2407071E+03  0.7818608E-02  0.1035324E+00
          4   -1    0    0  502    0 -0.00000000000E+00  0.00000000000E+00  0.24324695101E+04  0.24324695101E+04  0.00000000000E+00 0.  1.
         21   -1    0    0  501  502  0.00000000000E+00 -0.00000000000E+00 -0.18771590393E+03  0.18771590393E+03  0.00000000000E+00 0.  1.
        -13    1    1    2    0    0  0.41745869081E+02  0.27619837065E+03  0.14825233863E+04  0.15086099097E+04  0.10566000000E+00 0.  1.
         13    1    1    2    0    0 -0.16335859346E+03 -0.15633168807E+03  0.87710114473E+03  0.90577704542E+03  0.10566000000E+00 0. -1.
          4    1    1    2  501    0  0.12161272438E+03 -0.11986668258E+03 -0.11487092485E+03  0.20579845894E+03  0.00000000000E+00 0.  1.
</event>
<event>
 5    1  0.7625606E-005  0.4227932E+03  0.7818608E-02  0.9665434E-01
         -4   -1    0    0    0  501 -0.00000000000E+00  0.00000000000E+00  0.26163852698E+04  0.26163852698E+04  0.00000000000E+00 0. -1.
         21   -1    0    0  501  502  0.00000000000E+00 -0.00000000000E+00 -0.23731692053E+03  0.23731692053E+03  0.00000000000E+00 0.  1.
        -13    1    1    2    0    0 -0.44392833365E+03  0.13850757108E+03  0.82282639510E+03  0.94514549161E+03  0.10566000000E+00 0.  1.
         13    1    1    2    0    0  0.41209294288E+03  0.10050820793E+03  0.16070914479E+04  0.16621267781E+04  0.10566000000E+00 0. -1.
         -4    1    1    2    0  502  0.31835390769E+02 -0.23901577901E+03 -0.50849493796E+02  0.24642992055E+03  0.00000000000E+00 0. -1.
</event>
<event>
 5    1  0.7625606E-005  0.1557515E+03  0.7818608E-02  0.1095574E+00
         21   -1    0    0  501  502  0.00000000000E+00  0.00000000000E+00  0.31370925504E+03  0.31370925504E+03  0.00000000000E+00 0. -1.
          4   -1    0    0  502    0 -0.00000000000E+00 -0.00000000000E+00 -0.12630531881E+03  0.12630531881E+03  0.00000000000E+00 0.  1.
        -13    1    1    2    0    0  0.11564633723E+03  0.11087236925E+03 -0.15741303835E+02  0.16097999065E+03  0.10566000000E+00 0.  1.
         13    1    1    2    0    0 -0.82235272494E+02 -0.12341479396E+03  0.12822924327E+03  0.19605254756E+03  0.10566000000E+00 0. -1.
          4    1    1    2  501    0 -0.33411064739E+02  0.12542424712E+02  0.74915996795E+02  0.82982035649E+02  0.00000000000E+00 0.  1.
</event>
<event>
 5    1  0.7625606E-005  0.1468951E+03  0.7818608E-02  0.1116015E+00
         21   -1    0    0  501  502  0.00000000000E+00  0.00000000000E+00  0.80807050202E+02  0.80807050202E+02  0.00000000000E+00 0.  1.
          4   -1    0    0  502    0 -0.00000000000E+00 -0.00000000000E+00 -0.81893102860E+03  0.81893102860E+03  0.00000000000E+00 0.  1.
        -13    1    1    2    0    0  0.10163404648E+03 -0.16070318492E+02 -0.12001565316E+03  0.15808700993E+03  0.10566000000E+00 0.  1.
         13    1    1    2    0    0  0.10135226481E+03 -0.35311474537E+02 -0.47754562621E+03  0.48945788184E+03  0.10566000000E+00 0. -1.
          4    1    1    2  501    0 -0.20298631130E+03  0.51381793030E+02 -0.14056269903E+03  0.25219318703E+03  0.00000000000E+00 0.  1.
</event>
<event>
 5    1  0.7625606E-005  0.8594509E+02  0.7818608E-02  0.1190170E+00
         -4   -1    0    0    0  501 -0.00000000000E+00  0.00000000000E+00  0.18455015453E+03  0.18455015453E+03  0.00000000000E+00 0. -1.
         21   -1    0    0  501  502  0.00000000000E+00 -0.00000000000E+00 -0.12332968533E+03  0.12332968533E+03  0.00000000000E+00 0.  1.
        -13    1    1    2    0    0  0.95647473732E+02 -0.45618207543E+02 -0.39220009559E+02  0.11299416093E+03  0.10566000000E+00 0.  1.
         13    1    1    2    0    0 -0.78052829298E+02  0.27825886455E+02  0.13123476845E+03  0.15520663559E+03  0.10566000000E+00 0. -1.
         -4    1    1    2    0  502 -0.17594644433E+02  0.17792321088E+02 -0.30794289686E+02  0.39679043332E+02  0.00000000000E+00 0. -1.
</event>
<event>
 5    1  0.7625606E-005  0.4636131E+03  0.7818608E-02  0.9561502E-01
         21   -1    0    0  501  502  0.00000000000E+00  0.00000000000E+00  0.52483451787E+03  0.52483451787E+03  0.00000000000E+00 0. -1.
          4   -1    0    0  502    0 -0.00000000000E+00 -0.00000000000E+00 -0.82324938958E+03  0.82324938958E+03  0.00000000000E+00 0.  1.
        -13    1    1    2    0    0 -0.46395315135E+03  0.80330568484E+02 -0.61317397347E+03  0.77310274853E+03  0.10566000000E+00 0.  1.
         13    1    1    2    0    0  0.42133623393E+03 -0.60758208757E+02  0.31240220177E+03  0.52802550013E+03  0.10566000000E+00 0. -1.
          4    1    1    2  501    0  0.42616917420E+02 -0.19572359727E+02  0.23568999920E+01  0.46955658799E+02  0.00000000000E+00 0.  1.
</event>
<event>
 5    1  0.8591410E-005  0.3419208E+03  0.7818608E-02  0.1016079E+00
         21   -1    0    0  501  502  0.00000000000E+00  0.00000000000E+00  0.20707904314E+03  0.20707904314E+03  0.00000000000E+00 0. -1.
         -4   -1    0    0    0  501 -0.00000000000E+00 -0.00000000000E+00 -0.16391262386E+04  0.16391262386E+04  0.00000000000E+00 0. -1.
        -13    1    1    2    0    0  0.14548776002E+02 -0.15229559730E+03 -0.24076416448E+03  0.28525954831E+03  0.10566000000E+00 0.  1.
         13    1    1    2    0    0  0.22043826198E+03 -0.11867592992E+03 -0.11755686502E+04  0.12019312235E+04  0.10566000000E+00 0. -1.
         -4    1    1    2    0  502 -0.23498703798E+03  0.27097152722E+03 -0.15714380855E+02  0.35901450995E+03  0.00000000000E+00 0. -1.
</event>
<event>
 5    1  0.7625606E-005  0.5526903E+03  0.7818608E-02  0.9369405E-01
         21   -1    0    0  501  502  0.00000000000E+00  0.00000000000E+00  0.83386940523E+03  0.83386940523E+03  0.00000000000E+00 0.  1.
          4   -1    0    0  502    0 -0.00000000000E+00 -0.00000000000E+00 -0.13375180774E+04  0.13375180774E+04  0.00000000000E+00 0.  1.
        -13    1    1    2    0    0  0.44032336113E+03  0.35004266951E+03 -0.89576303507E+03  0.10577362426E+04  0.10566000000E+00 0.  1.
         13    1    1    2    0    0 -0.41233473377E+03 -0.33162181442E+03 -0.16596995190E+03  0.55456198623E+03  0.10566000000E+00 0. -1.
          4    1    1    2  501    0 -0.27988627361E+02 -0.18420855087E+02  0.55808431484E+03  0.55908925373E+03  0.00000000000E+00 0.  1.
</event>
<event>
 5    1  0.7625606E-005  0.7542496E+02  0.7818608E-02  0.1213173E+00
         21   -1    0    0  501  502  0.00000000000E+00  0.00000000000E+00  0.61660552775E+02  0.61660552775E+02  0.00000000000E+00 0.  1.
         -4   -1    0    0    0  501 -0.00000000000E+00 -0.00000000000E+00 -0.24420121612E+03  0.24420121612E+03  0.00000000000E+00 0. -1.
        -13    1    1    2    0    0  0.51811032686E+02 -0.44527591692E+02 -0.14250314365E+02  0.69786618727E+02  0.10566000000E+00 0.  1.
         13    1    1    2    0    0 -0.17349893967E+02  0.79637023913E+02 -0.16816863715E+03  0.18687904132E+03  0.10566000000E+00 0. -1.
         -4    1    1    2    0  502 -0.34461138719E+02 -0.35109432221E+02 -0.12171183371E+00  0.49196108855E+02  0.00000000000E+00 0. -1.
</event>
<event>
 5    1  0.7625606E-005  0.4495162E+03  0.7818608E-02  0.9596066E-01
         21   -1    0    0  501  502  0.00000000000E+00  0.00000000000E+00  0.39634384046E+03  0.39634384046E+03  0.00000000000E+00 0. -1.
          4   -1    0    0  502    0 -0.00000000000E+00 -0.00000000000E+00 -0.87774767953E+03  0.87774767953E+03  0.00000000000E+00 0.  1.
        -13    1    1    2    0    0  0.43037979252E+03  0.18558159573E+03 -0.55495201900E+03  0.72638767131E+03  0.10566000000E+00 0.  1.
         13    1    1    2    0    0 -0.34582926060E+03 -0.16710367103E+03  0.16833085652E+03  0.41935283805E+03  0.10566000000E+00 0. -1.
          4    1    1    2  501    0 -0.84550531917E+02 -0.18477924705E+02 -0.94782676593E+02  0.12835101064E+03  0.00000000000E+00 0.  1.
</event>
<event>
 5    1  0.7625606E-005  0.1061762E+03  0.7818608E-02  0.1226836E+00
          4   -1    0    0  502    0 -0.00000000000E+00  0.00000000000E+00  0.38876715113E+03  0.38876715113E+03  0.00000000000E+00 0.  1.
         21   -1    0    0  501  502  0.00000000000E+00 -0.00000000000E+00 -0.15397472086E+03  0.15397472086E+03  0.00000000000E+00 0. -1.
        -13    1    1    2    0    0 -0.53537179643E+02 -0.92430761656E+02  0.27084351207E+03  0.29114583030E+03  0.10566000000E+00 0.  1.
         13    1    1    2    0    0  0.18329486888E+02 -0.80297226281E+01 -0.11647387758E+03  0.11818046309E+03  0.10566000000E+00 0. -1.
          4    1    1    2  501    0  0.35207692755E+02  0.10046048428E+03  0.80422795782E+02  0.13341557860E+03  0.00000000000E+00 0.  1.
</event>
<event>
 5    1  0.7625606E-005  0.4526816E+03  0.7818608E-02  0.1024973E+00
         -4   -1    0    0    0  501 -0.00000000000E+00  0.00000000000E+00  0.58631785625E+03  0.58631785625E+03  0.00000000000E+00 0. -1.
         21   -1    0    0  501  502  0.00000000000E+00 -0.00000000000E+00 -0.59503864976E+03  0.59503864976E+03  0.00000000000E+00 0. -1.
        -13    1    1    2    0    0 -0.31983597042E+02 -0.38205481191E+02  0.18546120694E+03  0.19203770389E+03  0.10566000000E+00 0.  1.
         13    1    1    2    0    0 -0.12487270654E+03  0.44433266139E+03 -0.28790447276E+03  0.54397950643E+03  0.10566000000E+00 0. -1.
         -4    1    1    2    0  502  0.15685630358E+03 -0.40612718020E+03  0.93722472310E+02  0.44533929569E+03  0.00000000000E+00 0. -1.
</event>
<event>
 5    1  0.7625606E-005  0.4624155E+03  0.7818608E-02  0.9599468E-01
         21   -1    0    0  501  502  0.00000000000E+00  0.00000000000E+00  0.43535355939E+03  0.43535355939E+03  0.00000000000E+00 0.  1.
          4   -1    0    0  502    0 -0.00000000000E+00 -0.00000000000E+00 -0.29581331429E+04  0.29581331429E+04  0.00000000000E+00 0.  1.
        -13    1    1    2    0    0  0.26057089288E+03  0.34032802213E+03 -0.50074754267E+03  0.65914221949E+03  0.10566000000E+00 0.  1.
         13    1    1    2    0    0 -0.48006165802E+03  0.10911678387E+03 -0.21600766858E+04  0.22154676635E+04  0.10566000000E+00 0. -1.
          4    1    1    2  501    0  0.21949076514E+03 -0.44944480600E+03  0.13804464500E+03  0.51887681933E+03  0.00000000000E+00 0.  1.
</event>
<event>
 5    1  0.7625606E-005  0.3902967E+03  0.7818608E-02  0.9932026E-01
         21   -1    0    0  501  502  0.00000000000E+00  0.00000000000E+00  0.18038943147E+03  0.18038943147E+03  0.00000000000E+00 0. -1.
         -4   -1    0    0    0  501 -0.00000000000E+00 -0.00000000000E+00 -0.21516346719E+04  0.21516346719E+04  0.00000000000E+00 0. -1.
        -13    1    1    2    0    0 -0.10707769894E+03  0.18787480900E+03 -0.21623334210E+03  0.30580949440E+03  0.10566000000E+00 0.  1.
         13    1    1    2    0    0  0.46894230767E+03 -0.22921113964E+03 -0.14814214343E+04  0.15706858730E+04  0.10566000000E+00 0. -1.
         -4    1    1    2    0  502 -0.36186460873E+03  0.41336330641E+02 -0.27359046398E+03  0.45552873594E+03  0.00000000000E+00 0. -1.
</event>
<event>
 5    1  0.7625606E-005  0.5351905E+02  0.7818608E-02  0.1278088E+00
         21   -1    0    0  501  502  0.00000000000E+00  0.00000000000E+00  0.15555119803E+02  0.15555119803E+02  0.00000000000E+00 0. -1.
          4   -1    0    0  502    0 -0.00000000000E+00 -0.00000000000E+00 -0.56405216644E+03  0.56405216644E+03  0.00000000000E+00 0.  1.
        -13    1    1    2    0    0 -0.64731980967E+02 -0.18734160163E+02 -0.39598303935E+03  0.40167620883E+03  0.10566000000E+00 0.  1.
         13    1    1    2    0    0  0.40321902005E+02  0.16011426225E+01 -0.13980655357E+03  0.14551392725E+03  0.10566000000E+00 0. -1.
          4    1    1    2  501    0  0.24410078962E+02  0.17133017540E+02 -0.12707453713E+02  0.32417150165E+02  0.00000000000E+00 0.  1.
</event>
<event>
 5    1  0.7625606E-005  0.4423478E+03  0.7818608E-02  0.9740803E-01
         -4   -1    0    0    0  501 -0.00000000000E+00  0.00000000000E+00  0.15960205393E+04  0.15960205393E+04  0.00000000000E+00 0. -1.
         21   -1    0    0  501  502  0.00000000000E+00 -0.00000000000E+00 -0.28224619072E+03  0.28224619072E+03  0.00000000000E+00 0. -1.
        -13    1    1    2    0    0  0.15906279981E+03  0.23525318657E+03  0.47285041611E+03  0.55157280866E+03  0.10566000000E+00 0.  1.
         13    1    1    2    0    0  0.21281826633E+03 -0.46695050840E+03  0.69695215401E+03  0.86549217669E+03  0.10566000000E+00 0. -1.
         -4    1    1    2    0  502 -0.37188106614E+03  0.23169732183E+03  0.14397177848E+03  0.46120174468E+03  0.00000000000E+00 0. -1.
</event>
<event>
 5    1  0.7625606E-005  0.1133797E+03  0.7818608E-02  0.1144137E+00
         -4   -1    0    0    0  501 -0.00000000000E+00  0.00000000000E+00  0.32025302303E+03  0.32025302303E+03  0.00000000000E+00 0. -1.
         21   -1    0    0  501  502  0.00000000000E+00 -0.00000000000E+00 -0.79588962224E+03  0.79588962224E+03  0.00000000000E+00 0. -1.
        -13    1    1    2    0    0  0.11018869392E+03  0.13775969999E+01 -0.42809173970E+03  0.44204750288E+03  0.10566000000E+00 0.  1.
         13    1    1    2    0    0 -0.10746573894E+03 -0.36771672897E+02  0.30205137340E+03  0.32270123072E+03  0.10566000000E+00 0. -1.
         -4    1    1    2    0  502 -0.27229549762E+01  0.35394075898E+02 -0.34959623291E+03  0.35139391166E+03  0.00000000000E+00 0. -1.
</event>
<event>
 5    1  0.7625606E-005  0.2863431E+03  0.7818608E-02  0.1034301E+00
         -4   -1    0    0    0  501 -0.00000000000E+00  0.00000000000E+00  0.13109148913E+04  0.13109148913E+04  0.00000000000E+00 0. -1.
         21   -1    0    0  501  502  0.00000000000E+00 -0.00000000000E+00 -0.45059556336E+03  0.45059556336E+03  0.00000000000E+00 0. -1.
        -13    1    1    2    0    0 -0.28279320184E+03  0.28135932290E+03  0.51446648521E+03  0.65100755691E+03  0.10566000000E+00 0.  1.
         13    1    1    2    0    0 -0.17032910417E+03  0.79621674633E+02 -0.22768941838E+03  0.29528646634E+03  0.10566000000E+00 0. -1.
         -4    1    1    2    0  502  0.45312230601E+03 -0.36098099753E+03  0.57354226115E+03  0.81521643145E+03  0.00000000000E+00 0. -1.
</event>
<event>
 5    1  0.7625606E-005  0.3586116E+03  0.7818608E-02  0.1017311E+00
         21   -1    0    0  501  502  0.00000000000E+00  0.00000000000E+00  0.35591343089E+03  0.35591343089E+03  0.00000000000E+00 0.  1.
          4   -1    0    0  502    0 -0.00000000000E+00 -0.00000000000E+00 -0.35489816428E+04  0.35489816428E+04  0.00000000000E+00 0.  1.
        -13    1    1    2    0    0 -0.27091620454E+02  0.18244262112E+03  0.11390811404E+03  0.21678176932E+03  0.10566000000E+00 0.  1.
         13    1    1    2    0    0 -0.64826285248E+02  0.59786174523E+03 -0.24616198405E+04  0.25340113188E+04  0.10566000000E+00 0. -1.
          4    1    1    2  501    0  0.91917905702E+02 -0.78030436635E+03 -0.84535648548E+03  0.11541019856E+04  0.00000000000E+00 0.  1.
</event>
<event>
 5    1  0.7625606E-005  0.3478344E+03  0.7818608E-02  0.9893138E-01
         21   -1    0    0  501  502  0.00000000000E+00  0.00000000000E+00  0.36478658403E+03  0.36478658403E+03  0.00000000000E+00 0.  1.
         -4   -1    0    0    0  501 -0.00000000000E+00 -0.00000000000E+00 -0.80746883342E+03  0.80746883342E+03  0.00000000000E+00 0. -1.
        -13    1    1    2    0    0 -0.33259354676E+03 -0.12690689656E+03  0.12561126047E+03  0.37749440745E+03  0.10566000000E+00 0.  1.
         13    1    1    2    0    0  0.35107820517E+03 -0.37391056268E+02 -0.50827892518E+03  0.61887112890E+03  0.10566000000E+00 0. -1.
         -4    1    1    2    0  502 -0.18484658414E+02  0.16429795282E+03 -0.60014584682E+02  0.17588988110E+03  0.00000000000E+00 0. -1.
</event>
<event>
 5    1  0.7625606E-005  0.4768663E+03  0.7818608E-02  0.9657714E-01
         21   -1    0    0  501  502  0.00000000000E+00  0.00000000000E+00  0.38390602840E+03  0.38390602840E+03  0.00000000000E+00 0.  1.
          4   -1    0    0  502    0 -0.00000000000E+00 -0.00000000000E+00 -0.13929685341E+04  0.13929685341E+04  0.00000000000E+00 0.  1.
        -13    1    1    2    0    0 -0.35641408870E+03  0.19042413064E+03 -0.13566519571E+03  0.42625979009E+03  0.10566000000E+00 0.  1.
         13    1    1    2    0    0 -0.41517146899E+02  0.29989682973E+03 -0.58008962760E+03  0.65434376988E+03  0.10566000000E+00 0. -1.
          4    1    1    2  501    0  0.39793123560E+03 -0.49032096037E+03 -0.29330768243E+03  0.69627100257E+03  0.00000000000E+00 0.  1.
</event>
<event>
 5    1  0.7625606E-005  0.4128197E+03  0.7818608E-02  0.9692734E-01
         -4   -1    0    0    0  501 -0.00000000000E+00  0.00000000000E+00  0.20872790091E+04  0.20872790091E+04  0.00000000000E+00 0. -1.
         21   -1    0    0  501  502  0.00000000000E+00 -0.00000000000E+00 -0.39700422833E+03  0.39700422833E+03  0.00000000000E+00 0. -1.
        -13    1    1    2    0    0 -0.23311893836E+03  0.42905617861E+03  0.10921635215E+04  0.11963506228E+04  0.10566000000E+00 0.  1.
         13    1    1    2    0    0  0.22376648808E+03 -0.28650464273E+03  0.89086451036E+03  0.96218290282E+03  0.10566000000E+00 0. -1.
         -4    1    1    2    0  502  0.93524502813E+01 -0.14255153588E+03 -0.29275325110E+03  0.32574971180E+03  0.00000000000E+00 0. -1.
</event>
<event>
 5    1  0.7625606E-005  0.3869009E+03  0.7818608E-02  0.9951443E-01
          4   -1    0    0  502    0 -0.00000000000E+00  0.00000000000E+00  0.21468603708E+04  0.21468603708E+04  0.00000000000E+00 0.  1.
         21   -1    0    0  501  502  0.00000000000E+00 -0.00000000000E+00 -0.17224003283E+03  0.17224003283E+03  0.00000000000E+00 0.  1.
        -13    1    1    2    0    0  0.14181552586E+03  0.31828402935E+03  0.13757533164E+04  0.14191946890E+04  0.10566000000E+00 0.  1.
         13    1    1    2    0    0  0.19007311143E+03 -0.84829770992E+02  0.39341964920E+03  0.44508752991E+03  0.10566000000E+00 0. -1.
          4    1    1    2  501    0 -0.33188863729E+03 -0.23345425836E+03  0.20544737242E+03  0.45481818471E+03  0.00000000000E+00 0.  1.
</event>
<event>
 5    1  0.7625606E-005  0.2369594E+02  0.7818608E-02  0.1464116E+00
         21   -1    0    0  501  502  0.00000000000E+00  0.00000000000E+00  0.95292144095E+02  0.95292144095E+02  0.00000000000E+00 0.  1.
         -4   -1    0    0    0  501 -0.00000000000E+00 -0.00000000000E+00 -0.66189330012E+02  0.66189330012E+02  0.00000000000E+00 0. -1.
        -13    1    1    2    0    0  0.22946342627E+02  0.26521326227E+02  0.60845643239E+02  0.70229045629E+02  0.10566000000E+00 0.  1.
         13    1    1    2    0    0 -0.14149066280E+02 -0.18520039219E+02 -0.57956673590E+02  0.62467392350E+02  0.10566000000E+00 0. -1.
         -4    1    1    2    0  502 -0.87972763470E+01 -0.80012870082E+01  0.26213844434E+02  0.28785036129E+02  0.00000000000E+00 0. -1.
</event>
<event>
 5    1  0.7625606E-005  0.5470681E+02  0.7818608E-02  0.1291237E+00
         21   -1    0    0  501  502  0.00000000000E+00  0.00000000000E+00  0.64737338254E+03  0.64737338254E+03  0.00000000000E+00 0.  1.
          4   -1    0    0  502    0 -0.00000000000E+00 -0.00000000000E+00 -0.13582239900E+02  0.13582239900E+02  0.00000000000E+00 0.  1.
        -13    1    1    2    0    0 -0.53548770780E+02 -0.54096973454E+01  0.12307045501E+03  0.13432454630E+03  0.10566000000E+00 0.  1.
         13    1    1    2    0    0  0.54061575518E+01  0.38208568194E+02  0.54913661432E+02  0.67116634292E+02  0.10566000000E+00 0. -1.
          4    1    1    2  501    0  0.48142613228E+02 -0.32798870848E+02  0.45580702619E+03  0.45951444184E+03  0.00000000000E+00 0.  1.
</event>
<event>
 5    1  0.7625606E-005  0.1070356E+03  0.7818608E-02  0.1153412E+00
         21   -1    0    0  501  502  0.00000000000E+00  0.00000000000E+00  0.79383943637E+03  0.79383943637E+03  0.00000000000E+00 0. -1.
         -4   -1    0    0    0  501 -0.00000000000E+00 -0.00000000000E+00 -0.19040441026E+03  0.19040441026E+03  0.00000000000E+00 0. -1.
        -13    1    1    2    0    0  0.88045328408E+02  0.53559118642E+02  0.16253613951E+03  0.19245406427E+03  0.10566000000E+00 0.  1.
         13    1    1    2    0    0 -0.86133115261E+02 -0.64227319655E+02 -0.15894224111E+03  0.19185074748E+03  0.10566000000E+00 0. -1.
         -4    1    1    2    0  502 -0.19122131468E+01  0.10668201014E+02  0.59984112772E+03  0.59993903488E+03  0.00000000000E+00 0. -1.
</event>
<event>
 5    1  0.7625606E-005  0.4909196E+02  0.7818608E-02  0.1295531E+00
         21   -1    0    0  501  502  0.00000000000E+00  0.00000000000E+00  0.57030733342E+03  0.57030733342E+03  0.00000000000E+00 0. -1.
         -4   -1    0    0    0  501 -0.00000000000E+00 -0.00000000000E+00 -0.66307962604E+02  0.66307962604E+02  0.00000000000E+00 0. -1.
        -13    1    1    2    0    0  0.17833150596E+02 -0.41937366128E+02  0.94111670913E+02  0.10456472495E+03  0.10566000000E+00 0.  1.
         13    1    1    2    0    0  0.17143148284E+02  0.47677626470E+02 -0.49773806746E+02  0.71024549284E+02  0.10566000000E+00 0. -1.
         -4    1    1    2    0  502 -0.34976298880E+02 -0.57402603423E+01  0.45966150665E+03  0.46102602179E+03  0.00000000000E+00 0. -1.
</event>
<event>
 5    1  0.7625606E-005  0.4409410E+03  0.7818608E-02  0.9976107E-01
         21   -1    0    0  501  502  0.00000000000E+00  0.00000000000E+00  0.19909746941E+03  0.19909746941E+03  0.00000000000E+00 0. -1.
         -4   -1    0    0    0  501 -0.00000000000E+00 -0.00000000000E+00 -0.15966818077E+04  0.15966818077E+04  0.00000000000E+00 0. -1.
        -13    1    1    2    0    0  0.76278912340E+02  0.10479219281E+03 -0.15040368528E+03  0.19854761608E+03  0.10566000000E+00 0.  1.
         13    1    1    2    0    0 -0.43313357944E+03  0.12772390240E+03 -0.25759298045E+03  0.51987714666E+03  0.10566000000E+00 0. -1.
         -4    1    1    2    0  502  0.35685466710E+03 -0.23251609521E+03 -0.98958767255E+03  0.10773545144E+04  0.00000000000E+00 0. -1.
</event>
<event>
 5    1  0.7625606E-005  0.3352455E+03  0.7818608E-02  0.9980722E-01
          4   -1    0    0  502    0 -0.00000000000E+00  0.00000000000E+00  0.13932679674E+04  0.13932679674E+04  0.00000000000E+00 0.  1.
         21   -1    0    0  501  502  0.00000000000E+00 -0.00000000000E+00 -0.32280939460E+03  0.32280939460E+03  0.00000000000E+00 0.  1.
        -13    1    1    2    0    0 -0.22846151115E+03 -0.33175493394E+03  0.86326235755E+03  0.95261634848E+03  0.10566000000E+00 0.  1.
         13    1    1    2    0    0  0.29045989191E+03 -0.29337215757E+01  0.29284016027E+03  0.41246930330E+03  0.10566000000E+00 0. -1.
          4    1    1    2  501    0 -0.61998380762E+02  0.33468865552E+03 -0.85643944981E+02  0.35099171025E+03  0.00000000000E+00 0.  1.
</event>
<event>
 5    1  0.7625606E-005  0.3194272E+03  0.7818608E-02  0.9995938E-01
         -4   -1    0    0    0  501 -0.00000000000E+00  0.00000000000E+00  0.91513262960E+03  0.91513262960E+03  0.00000000000E+00 0. -1.
         21   -1    0    0  501  502  0.00000000000E+00 -0.00000000000E+00 -0.31967791093E+03  0.31967791093E+03  0.00000000000E+00 0. -1.
        -13    1    1    2    0    0 -0.83022912068E+01 -0.30633211953E+03  0.54840503887E+03  0.62821683622E+03  0.10566000000E+00 0.  1.
         13    1    1    2    0    0  0.73274065195E+02  0.34803659465E+03  0.21929416559E+03  0.41783788971E+03  0.10566000000E+00 0. -1.
         -4    1    1    2    0  502 -0.64971773988E+02 -0.41704475125E+02 -0.17224448578E+03  0.18875581460E+03  0.00000000000E+00 0. -1.
</event>
<event>
 5    1  0.7625606E-005  0.4718996E+03  0.7818608E-02  0.9867139E-01
         21   -1    0    0  501  502  0.00000000000E+00  0.00000000000E+00  0.62438175244E+03  0.62438175244E+03  0.00000000000E+00 0.  1.
          4   -1    0    0  502    0 -0.00000000000E+00 -0.00000000000E+00 -0.97100426331E+03  0.97100426331E+03  0.00000000000E+00 0.  1.
        -13    1    1    2    0    0 -0.53574035980E+03 -0.77994900386E+02 -0.30906401917E+01  0.54139680534E+03  0.10566000000E+00 0.  1.
         13    1    1    2    0    0  0.12623278530E+03 -0.84686614136E+02 -0.54766110906E+03  0.56836541084E+03  0.10566000000E+00 0. -1.
          4    1    1    2  501    0  0.40950757451E+03  0.16268151452E+03  0.20412923838E+03  0.48562379957E+03  0.00000000000E+00 0.  1.
</event>
<event>
 5    1  0.7625606E-005  0.6164066E+03  0.7818608E-02  0.9253954E-01
         21   -1    0    0  501  502  0.00000000000E+00  0.00000000000E+00  0.51514010391E+03  0.51514010391E+03  0.00000000000E+00 0. -1.
         -4   -1    0    0    0  501 -0.00000000000E+00 -0.00000000000E+00 -0.18622624822E+04  0.18622624822E+04  0.00000000000E+00 0. -1.
        -13    1    1    2    0    0  0.72206344349E+03 -0.41289964167E+02 -0.38105474490E+03  0.81748590651E+03  0.10566000000E+00 0.  1.
         13    1    1    2    0    0 -0.53051960134E+03  0.26722563186E+03 -0.10880002786E+04  0.12395988073E+04  0.10566000000E+00 0. -1.
         -4    1    1    2    0  502 -0.19154384215E+03 -0.22593566769E+03  0.12193264513E+03  0.32031787235E+03  0.00000000000E+00 0. -1.
</event>
<event>
 5    1  0.7625606E-005  0.5219644E+03  0.7818608E-02  0.9671574E-01
         -4   -1    0    0    0  501 -0.00000000000E+00  0.00000000000E+00  0.32052711657E+04  0.32052711657E+04  0.00000000000E+00 0. -1.
         21   -1    0    0  501  502  0.00000000000E+00 -0.00000000000E+00 -0.15497393122E+03  0.15497393122E+03  0.00000000000E+00 0. -1.
        -13    1    1    2    0    0  0.88518430419E+02 -0.20130623248E+03  0.11344031511E+04  0.11555216277E+04  0.10566000000E+00 0.  1.
         13    1    1    2    0    0 -0.46352471365E+03  0.44539138567E+03  0.11673689515E+04  0.13326585934E+04  0.10566000000E+00 0. -1.
         -4    1    1    2    0  502  0.37500628323E+03 -0.24408515319E+03  0.74852513194E+03  0.87206487581E+03  0.00000000000E+00 0. -1.
</event>
<event>
 5    1  0.7625606E-005  0.5335657E+02  0.7818608E-02  0.1279194E+00
         -4   -1    0    0    0  501 -0.00000000000E+00  0.00000000000E+00  0.41648149665E+02  0.41648149665E+02  0.00000000000E+00 0. -1.
         21   -1    0    0  501  502  0.00000000000E+00 -0.00000000000E+00 -0.62476848040E+03  0.62476848040E+03  0.00000000000E+00 0. -1.
        -13    1    1    2    0    0  0.47153362317E+02  0.23813160594E+02 -0.18045663626E+03  0.18802955866E+03  0.10566000000E+00 0.  1.
         13    1    1    2    0    0 -0.68096729801E+02  0.25373885720E+02 -0.48639636571E+00  0.72672184717E+02  0.10566000000E+00 0. -1.
         -4    1    1    2    0  502  0.20943367484E+02 -0.49187046314E+02 -0.40217729811E+03  0.40571488669E+03  0.00000000000E+00 0. -1.
</event>
<event>
 5    1  0.7625606E-005  0.6723808E+02  0.7818608E-02  0.1234166E+00
         21   -1    0    0  501  502  0.00000000000E+00  0.00000000000E+00  0.18401996273E+02  0.18401996273E+02  0.00000000000E+00 0. -1.
          4   -1    0    0  502    0 -0.00000000000E+00 -0.00000000000E+00 -0.38475228520E+03  0.38475228520E+03  0.00000000000E+00 0.  1.
        -13    1    1    2    0    0 -0.63294045454E+02 -0.24318015475E+02 -0.22934329053E+03  0.23915655571E+03  0.10566000000E+00 0.  1.
         13    1    1    2    0    0  0.57672609251E+02  0.33913185931E+02 -0.13744989482E+03  0.15286830537E+03  0.10566000000E+00 0. -1.
          4    1    1    2  501    0  0.56214362030E+01 -0.95951704558E+01  0.44289641290E+00  0.11129420393E+02  0.00000000000E+00 0.  1.
</event>
<event>
 5    1  0.7625606E-005  0.4106370E+03  0.7818608E-02  0.9849751E-01
          4   -1    0    0  502    0 -0.00000000000E+00  0.00000000000E+00  0.16232578546E+04  0.16232578546E+04  0.00000000000E+00 0.  1.
         21   -1    0    0  501  502  0.00000000000E+00 -0.00000000000E+00 -0.39024577216E+03  0.39024577216E+03  0.00000000000E+00 0.  1.
        -13    1    1    2    0    0 -0.35698188480E+03  0.47550337794E+02 -0.58551528488E+02  0.36486352703E+03  0.10566000000E+00 0.  1.
         13    1    1    2    0    0 -0.23771951421E+03 -0.57758209270E+02  0.90923233171E+03  0.94156785330E+03  0.10566000000E+00 0. -1.
          4    1    1    2  501    0  0.59470139901E+03  0.10207871476E+02  0.38233127923E+03  0.70707224645E+03  0.00000000000E+00 0.  1.
</event>
<event>
 5    1  0.7625606E-005  0.4009694E+03  0.7818608E-02  0.1012843E+00
         -4   -1    0    0    0  501 -0.00000000000E+00  0.00000000000E+00  0.68750586133E+03  0.68750586133E+03  0.00000000000E+00 0. -1.
         21   -1    0    0  501  502  0.00000000000E+00 -0.00000000000E+00 -0.57638193094E+03  0.57638193094E+03  0.00000000000E+00 0. -1.
        -13    1    1    2    0    0  0.74651750330E+02 -0.74076261973E+02  0.21044098053E+03  0.23525644277E+03  0.10566000000E+00 0.  1.
         13    1    1    2    0    0  0.67277337370E+02  0.43998911971E+03  0.24364296773E+03  0.50742346465E+03  0.10566000000E+00 0. -1.
         -4    1    1    2    0  502 -0.14192908770E+03 -0.36591285774E+03 -0.34296001786E+03  0.52120788486E+03  0.00000000000E+00 0. -1.
</event>
<event>
 5    1  0.7625606E-005  0.3163946E+03  0.7818608E-02  0.1010571E+00
         21   -1    0    0  501  502  0.00000000000E+00  0.00000000000E+00  0.20175990542E+03  0.20175990542E+03  0.00000000000E+00 0.  1.
          4   -1    0    0  502    0 -0.00000000000E+00 -0.00000000000E+00 -0.14876950194E+04  0.14876950194E+04  0.00000000000E+00 0.  1.
        -13    1    1    2    0    0  0.35042753064E+03  0.46088073977E+02 -0.10396854375E+03  0.36841964395E+03  0.10566000000E+00 0.  1.
         13    1    1    2    0    0 -0.14865214328E+03  0.17578291753E+03 -0.81617211915E+03  0.84801770797E+03  0.10566000000E+00 0. -1.
          4    1    1    2  501    0 -0.20177538736E+03 -0.22187099151E+03 -0.36579445106E+03  0.47301757287E+03  0.00000000000E+00 0.  1.
</event>
<event>
 5    1  0.7625606E-005  0.1884285E+03  0.7818608E-02  0.1068372E+00
          4   -1    0    0  502    0 -0.00000000000E+00  0.00000000000E+00  0.13901402959E+04  0.13901402959E+04  0.00000000000E+00 0.  1.
         21   -1    0    0  501  502  0.00000000000E+00 -0.00000000000E+00 -0.33185811939E+03  0.33185811939E+03  0.00000000000E+00 0.  1.
        -13    1    1    2    0    0  0.20019635185E+03  0.80762593294E+02  0.82094161540E+03  0.84885000019E+03  0.10566000000E+00 0.  1.
         13    1    1    2    0    0 -0.13841165281E+03 -0.91142667462E+02  0.53959406726E+03  0.56447014098E+03  0.10566000000E+00 0. -1.
          4    1    1    2  501    0 -0.61784699031E+02  0.10380074168E+02 -0.30225350612E+03  0.30867827416E+03  0.00000000000E+00 0.  1.
</event>
<event>
 5    1  0.7625606E-005  0.9011377E+02  0.7818608E-02  0.1182037E+00
          4   -1    0    0  502    0 -0.00000000000E+00  0.00000000000E+00  0.12273338115E+03  0.12273338115E+03  0.00000000000E+00 0.  1.
         21   -1    0    0  501  502  0.00000000000E+00 -0.00000000000E+00 -0.25134807820E+03  0.25134807820E+03  0.00000000000E+00 0. -1.
        -13    1    1    2    0    0  0.62502771633E+02  0.61776437860E+02  0.63803774071E+02  0.10859952802E+03  0.10566000000E+00 0.  1.
         13    1    1    2    0    0 -0.85741462770E+02 -0.50138680436E+02 -0.34056784966E+02  0.10500172132E+03  0.10566000000E+00 0. -1.
          4    1    1    2  501    0  0.23238691137E+02 -0.11637757424E+02 -0.15836168615E+03  0.16048021001E+03  0.00000000000E+00 0.  1.
</event>
<event>
 5    1  0.7625606E-005  0.7753257E+03  0.7818608E-02  0.9277268E-01
         21   -1    0    0  501  502  0.00000000000E+00  0.00000000000E+00  0.32981047542E+03  0.32981047542E+03  0.00000000000E+00 0.  1.
          4   -1    0    0  502    0 -0.00000000000E+00 -0.00000000000E+00 -0.33426050879E+04  0.33426050879E+04  0.00000000000E+00 0.  1.
        -13    1    1    2    0    0 -0.30006173415E+03  0.72813158785E+03 -0.52921496969E+03  0.94883146493E+03  0.10566000000E+00 0.  1.
         13    1    1    2    0    0  0.27770240613E+03  0.56378329988E+02 -0.10684871326E+04  0.11054238581E+04  0.10566000000E+00 0. -1.
          4    1    1    2  501    0  0.22359328019E+02 -0.78450991784E+03 -0.14150925102E+04  0.16181602403E+04  0.00000000000E+00 0.  1.
</event>
<event>
 5    1  0.7625606E-005  0.3821637E+03  0.7818608E-02  0.1019175E+00
         -4   -1    0    0    0  501 -0.00000000000E+00  0.00000000000E+00  0.26194399990E+04  0.26194399990E+04  0.00000000000E+00 0. -1.
         21   -1    0    0  501  502  0.00000000000E+00 -0.00000000000E+00 -0.12835556729E+03  0.12835556729E+03  0.00000000000E+00 0. -1.
        -13    1    1    2    0    0 -0.42120328461E+02 -0.89967375922E+02  0.16261365755E+03  0.19055567057E+03  0.10566000000E+00 0.  1.
         13    1    1    2    0    0  0.18522891259E+03 -0.32378003542E+03  0.29054908815E+03  0.47282348206E+03  0.10566000000E+00 0. -1.
         -4    1    1    2    0  502 -0.14310858413E+03  0.41374741134E+03  0.20379216860E+04  0.20844164136E+04  0.00000000000E+00 0. -1.
</event>
<event>
 5    1  0.7625606E-005  0.3115501E+03  0.7818608E-02  0.1002648E+00
          4   -1    0    0  502    0 -0.00000000000E+00  0.00000000000E+00  0.14719866012E+04  0.14719866012E+04  0.00000000000E+00 0.  1.
         21   -1    0    0  501  502  0.00000000000E+00 -0.00000000000E+00 -0.13881513418E+03  0.13881513418E+03  0.00000000000E+00 0. -1.
        -13    1    1    2    0    0 -0.22134469522E+03  0.22090726761E+03  0.11201375777E+04  0.11629710655E+04  0.10566000000E+00 0.  1.
         13    1    1    2    0    0  0.20004786274E+03 -0.23465164779E+03  0.25410884281E+03  0.39956458596E+03  0.10566000000E+00 0. -1.
          4    1    1    2  501    0  0.21296832482E+02  0.13744380175E+02 -0.41074953464E+02  0.48266083975E+02  0.00000000000E+00 0.  1.
</event>
<event>
 5    1  0.7625606E-005  0.1034864E+04  0.7818608E-02  0.8742506E-01
         21   -1    0    0  501  502  0.00000000000E+00  0.00000000000E+00  0.16333000584E+04  0.16333000584E+04  0.00000000000E+00 0. -1.
         -4   -1    0    0    0  501 -0.00000000000E+00 -0.00000000000E+00 -0.20314142660E+04  0.20314142660E+04  0.00000000000E+00 0. -1.
        -13    1    1    2    0    0 -0.11304032801E+04  0.44886524734E+03 -0.13549046255E+04  0.18207301122E+04  0.10566000000E+00 0.  1.
         13    1    1    2    0    0  0.75815925783E+03 -0.38111567306E+02  0.24705819049E+02  0.75951849250E+03  0.10566000000E+00 0. -1.
         -4    1    1    2    0  502  0.37224402225E+03 -0.41075368003E+03  0.93208459893E+03  0.10844657198E+04  0.00000000000E+00 0. -1.
</event>
<event>
 5    1  0.7625606E-005  0.2745264E+03  0.7818608E-02  0.1028365E+00
          4   -1    0    0  502    0 -0.00000000000E+00  0.00000000000E+00  0.13666102219E+04  0.13666102219E+04  0.00000000000E+00 0.  1.
         21   -1    0    0  501  502  0.00000000000E+00 -0.00000000000E+00 -0.23764244755E+03  0.23764244755E+03  0.00000000000E+00 0.  1.
        -13    1    1    2    0    0 -0.34129913302E+03 -0.10217075871E+03  0.10524360581E+04  0.11111010889E+04  0.10566000000E+00 0.  1.
         13    1    1    2    0    0  0.82526321206E+02  0.18330384748E+03  0.92924522220E+02  0.22146302668E+03  0.10566000000E+00 0. -1.
          4    1    1    2  501    0  0.25877281181E+03 -0.81133088776E+02 -0.16392805986E+02  0.27168855389E+03  0.00000000000E+00 0.  1.
</event>
<event>
 5    1  0.7625606E-005  0.3840247E+02  0.7818608E-02  0.1347853E+00
         21   -1    0    0  501  502  0.00000000000E+00  0.00000000000E+00  0.12336610560E+03  0.12336610560E+03  0.00000000000E+00 0.  1.
          4   -1    0    0  502    0 -0.00000000000E+00 -0.00000000000E+00 -0.66796362164E+02  0.66796362164E+02  0.00000000000E+00 0.  1.
        -13    1    1    2    0    0 -0.17388171180E+02 -0.38472845608E+02 -0.43398587486E+02  0.60547146142E+02  0.10566000000E+00 0.  1.
         13    1    1    2    0    0  0.25348290546E+01  0.31714435260E+02  0.37649731250E+01  0.32037742568E+02  0.10566000000E+00 0. -1.
          4    1    1    2  501    0  0.14853342125E+02  0.67584103486E+01  0.96203357801E+02  0.97577579058E+02  0.00000000000E+00 0.  1.
</event>
<event>
 5    1  0.7625606E-005  0.4195569E+03  0.7818608E-02  0.9857671E-01
         -4   -1    0    0    0  501 -0.00000000000E+00  0.00000000000E+00  0.20806185715E+04  0.20806185715E+04  0.00000000000E+00 0. -1.
         21   -1    0    0  501  502  0.00000000000E+00 -0.00000000000E+00 -0.21372876425E+03  0.21372876425E+03  0.00000000000E+00 0. -1.
        -13    1    1    2    0    0 -0.73356351499E+02  0.21091612616E+03  0.76756991245E+03  0.79939373793E+03  0.10566000000E+00 0.  1.
         13    1    1    2    0    0  0.31540685931E+03  0.16863410747E+03  0.95885071555E+03  0.10233834350E+04  0.10566000000E+00 0. -1.
         -4    1    1    2    0  502 -0.24205050781E+03 -0.37955023363E+03  0.14046917928E+03  0.47157016287E+03  0.00000000000E+00 0. -1.
</event>
<event>
 5    1  0.7625606E-005  0.3798395E+03  0.7818608E-02  0.9951620E-01
          4   -1    0    0  502    0 -0.00000000000E+00  0.00000000000E+00  0.15345502913E+04  0.15345502913E+04  0.00000000000E+00 0.  1.
         21   -1    0    0  501  502  0.00000000000E+00 -0.00000000000E+00 -0.82241891039E+03  0.82241891039E+03  0.00000000000E+00 0.  1.
        -13    1    1    2    0    0 -0.44696762063E+02  0.25467225293E+03  0.20414610010E+03  0.32944103919E+03  0.10566000000E+00 0.  1.
         13    1    1    2    0    0 -0.20867846818E+03  0.69161073021E+02  0.12014117049E+04  0.12213599195E+04  0.10566000000E+00 0. -1.
          4    1    1    2  501    0  0.25337523024E+03 -0.32383332595E+03 -0.69342642412E+03  0.80616824297E+03  0.00000000000E+00 0.  1.
</event>
<event>
 5    1  0.7625606E-005  0.2966989E+03  0.7818608E-02  0.1008678E+00
         21   -1    0    0  501  502  0.00000000000E+00  0.00000000000E+00  0.30817953535E+03  0.30817953535E+03  0.00000000000E+00 0.  1.
          4   -1    0    0  502    0 -0.00000000000E+00 -0.00000000000E+00 -0.16912688906E+04  0.16912688906E+04  0.00000000000E+00 0.  1.
        -13    1    1    2    0    0 -0.33297126783E+02 -0.93594832888E+02  0.24151223129E+03  0.26114528604E+03  0.10566000000E+00 0.  1.
         13    1    1    2    0    0 -0.11481434469E+03  0.31051470708E+03 -0.65717927172E+03  0.73585754287E+03  0.10566000000E+00 0. -1.
          4    1    1    2  501    0  0.14811147147E+03 -0.21691987419E+03 -0.96742231483E+03  0.10024455970E+04  0.00000000000E+00 0.  1.
</event>
<event>
 5    1  0.7625606E-005  0.4107746E+03  0.7818608E-02  0.9835865E-01
         21   -1    0    0  501  502  0.00000000000E+00  0.00000000000E+00  0.20304764244E+03  0.20304764244E+03  0.00000000000E+00 0. -1.
          4   -1    0    0  502    0 -0.00000000000E+00 -0.00000000000E+00 -0.16170764788E+04  0.16170764788E+04  0.00000000000E+00 0.  1.
        -13    1    1    2    0    0 -0.25604250230E+03  0.45288553957E+03 -0.67004773225E+03  0.84830834582E+03  0.10566000000E+00 0.  1.
         13    1    1    2    0    0  0.24021205977E+03 -0.88943779738E+02 -0.36732673262E+03  0.44781890232E+03  0.10566000000E+00 0. -1.
          4    1    1    2  501    0  0.15830442529E+02 -0.36394175983E+03 -0.37665437151E+03  0.52399687311E+03  0.00000000000E+00 0.  1.
</event>
<event>
 5    1  0.7625606E-005  0.3109422E+02  0.7818608E-02  0.1396332E+00
          4   -1    0    0  502    0 -0.00000000000E+00  0.00000000000E+00  0.34437680550E+02  0.34437680550E+02  0.00000000000E+00 0.  1.
         21   -1    0    0  501  502  0.00000000000E+00 -0.00000000000E+00 -0.40554845781E+02  0.40554845781E+02  0.00000000000E+00 0. -1.
        -13    1    1    2    0    0  0.20952567834E+02 -0.22106478650E+02  0.22795463050E+01  0.30543640787E+02  0.10566000000E+00 0.  1.
         13    1    1    2    0    0 -0.13755732481E+02  0.29959861475E+02 -0.56432287292E+01  0.33446534502E+02  0.10566000000E+00 0. -1.
          4    1    1    2  501    0 -0.71968353530E+01 -0.78533828247E+01 -0.27534828071E+01  0.11002351042E+02  0.00000000000E+00 0.  1.
</event>
<event>
 5    1  0.7625606E-005  0.4966525E+03  0.7818608E-02  0.9650177E-01
         21   -1    0    0  501  502  0.00000000000E+00  0.00000000000E+00  0.43364865265E+03  0.43364865265E+03  0.00000000000E+00 0.  1.
         -4   -1    0    0    0  501 -0.00000000000E+00 -0.00000000000E+00 -0.11801503174E+04  0.11801503174E+04  0.00000000000E+00 0. -1.
        -13    1    1    2    0    0 -0.21459901210E+03 -0.17227393335E+03  0.79867664139E+02  0.28654824907E+03  0.10566000000E+00 0.  1.
         13    1    1    2    0    0  0.58052005165E+03  0.28552301379E+03 -0.43473921535E+03  0.77943897663E+03  0.10566000000E+00 0. -1.
         -4    1    1    2    0  502 -0.36592103955E+03 -0.11324908044E+03 -0.39163011354E+03  0.54781174434E+03  0.00000000000E+00 0. -1.
</event>
<event>
 5    1  0.7625606E-005  0.4746849E+03  0.7818608E-02  0.1000332E+00
         21   -1    0    0  501  502  0.00000000000E+00  0.00000000000E+00  0.15725909989E+03  0.15725909989E+03  0.00000000000E+00 0.  1.
          4   -1    0    0  502    0 -0.00000000000E+00 -0.00000000000E+00 -0.20345045467E+04  0.20345045467E+04  0.00000000000E+00 0.  1.
        -13    1    1    2    0    0  0.40021405672E+03  0.18422189488E+03 -0.10682154081E+04  0.11555055893E+04  0.10566000000E+00 0.  1.
         13    1    1    2    0    0  0.79521434489E+01  0.94674608210E+02 -0.34642065618E+03  0.35921275063E+03  0.10566000000E+00 0. -1.
          4    1    1    2  501    0 -0.40816620016E+03 -0.27889650309E+03 -0.46260938254E+03  0.67704530662E+03  0.00000000000E+00 0.  1.
</event>
<event>
 5    1  0.7625606E-005  0.5843094E+03  0.7818608E-02  0.9476065E-01
         21   -1    0    0  501  502  0.00000000000E+00  0.00000000000E+00  0.14792250192E+04  0.14792250192E+04  0.00000000000E+00 0.  1.
         -4   -1    0    0    0  501 -0.00000000000E+00 -0.00000000000E+00 -0.12550597431E+04  0.12550597431E+04  0.00000000000E+00 0. -1.
        -13    1    1    2    0    0  0.10991216975E+03  0.11153241965E+04 -0.24626453128E+03  0.11474645872E+04  0.10566000000E+00 0.  1.
         13    1    1    2    0    0 -0.18119659658E+02 -0.32543954850E+03 -0.32626402803E+03  0.46118049498E+03  0.10566000000E+00 0. -1.
         -4    1    1    2    0  502 -0.91792510087E+02 -0.78988464800E+03  0.79669383538E+03  0.11256396801E+04  0.00000000000E+00 0. -1.
</event>
<event>
 5    1  0.7625606E-005  0.4423975E+02  0.7818608E-02  0.1317202E+00
         21   -1    0    0  501  502  0.00000000000E+00  0.00000000000E+00  0.14755998424E+03  0.14755998424E+03  0.00000000000E+00 0. -1.
          4   -1    0    0  502    0 -0.00000000000E+00 -0.00000000000E+00 -0.36650020823E+02  0.36650020823E+02  0.00000000000E+00 0.  1.
        -13    1    1    2    0    0 -0.29852061890E+02  0.34974005778E+02 -0.14986906126E+02  0.48362642592E+02  0.10566000000E+00 0.  1.
         13    1    1    2    0    0  0.27371112097E+02 -0.20166348686E+02  0.10300824603E+03  0.10847381855E+03  0.10566000000E+00 0. -1.
          4    1    1    2  501    0  0.24809497928E+01 -0.14807657092E+02  0.22888623509E+02  0.27373543917E+02  0.00000000000E+00 0.  1.
</event>
<event>
 5    1  0.7625606E-005  0.2566123E+03  0.7818608E-02  0.1027022E+00
         -4   -1    0    0    0  501 -0.00000000000E+00  0.00000000000E+00  0.17133305060E+04  0.17133305060E+04  0.00000000000E+00 0. -1.
         21   -1    0    0  501  502  0.00000000000E+00 -0.00000000000E+00 -0.47630341696E+03  0.47630341696E+03  0.00000000000E+00 0. -1.
        -13    1    1    2    0    0  0.25400419972E+03  0.31432577467E+02  0.11074340433E+04  0.11366249653E+04  0.10566000000E+00 0.  1.
         13    1    1    2    0    0 -0.26128260741E+03 -0.14275578188E+03 -0.40737115258E+03  0.50457812211E+03  0.10566000000E+00 0. -1.
         -4    1    1    2    0  502  0.72784076979E+01  0.11132320442E+03  0.53696419834E+03  0.54843083553E+03  0.00000000000E+00 0. -1.
</event>
<event>
 5    1  0.7625606E-005  0.4789883E+03  0.7818608E-02  0.9600966E-01
          4   -1    0    0  502    0 -0.00000000000E+00  0.00000000000E+00  0.19532834538E+04  0.19532834538E+04  0.00000000000E+00 0.  1.
         21   -1    0    0  501  502  0.00000000000E+00 -0.00000000000E+00 -0.26213172259E+03  0.26213172259E+03  0.00000000000E+00 0. -1.
        -13    1    1    2    0    0 -0.24355747526E+03  0.20580540905E+03  0.89806234745E+03  0.95299113386E+03  0.10566000000E+00 0.  1.
         13    1    1    2    0    0  0.72439050265E+02  0.35786096829E+03  0.45445012760E+03  0.58295524551E+03  0.10566000000E+00 0. -1.
          4    1    1    2  501    0  0.17111842499E+03 -0.56366637734E+03  0.33863925617E+03  0.67946879703E+03  0.00000000000E+00 0.  1.
</event>
<event>
 5    1  0.7625606E-005  0.1890099E+03  0.7818608E-02  0.1067943E+00
         21   -1    0    0  501  502  0.00000000000E+00  0.00000000000E+00  0.19306267820E+03  0.19306267820E+03  0.00000000000E+00 0.  1.
          4   -1    0    0  502    0 -0.00000000000E+00 -0.00000000000E+00 -0.86573772344E+03  0.86573772344E+03  0.00000000000E+00 0.  1.
        -13    1    1    2    0    0  0.16159101574E+03 -0.11316689350E+03 -0.78892028843E+03  0.81321192490E+03  0.10566000000E+00 0.  1.
         13    1    1    2    0    0 -0.11386697794E+03  0.69296809066E+02  0.28187526142E+02  0.13624347399E+03  0.10566000000E+00 0. -1.
          4    1    1    2  501    0 -0.47724037806E+02  0.43870084433E+02  0.88057717046E+02  0.10934500274E+03  0.00000000000E+00 0.  1.
</event>
<event>
 5    1  0.7625606E-005  0.4236842E+03  0.7818608E-02  0.9855152E-01
         -4   -1    0    0    0  501 -0.00000000000E+00  0.00000000000E+00  0.19883966876E+04  0.19883966876E+04  0.00000000000E+00 0. -1.
         21   -1    0    0  501  502  0.00000000000E+00 -0.00000000000E+00 -0.23972650997E+03  0.23972650997E+03  0.00000000000E+00 0. -1.
        -13    1    1    2    0    0 -0.11762563630E+03 -0.18437176993E+03  0.60690161012E+03  0.64510333698E+03  0.10566000000E+00 0.  1.
         13    1    1    2    0    0 -0.16731432048E+03 -0.18386849641E+03  0.10859911644E+04  0.11140819207E+04  0.10566000000E+00 0. -1.
         -4    1    1    2    0  502  0.28493995678E+03  0.36824026633E+03  0.55777403111E+02  0.46893793983E+03  0.00000000000E+00 0. -1.
</event>
<event>
 5    1  0.7625606E-005  0.2854187E+03  0.7818608E-02  0.1013512E+00
         -4   -1    0    0    0  501 -0.00000000000E+00  0.00000000000E+00  0.24070669026E+03  0.24070669026E+03  0.00000000000E+00 0. -1.
         21   -1    0    0  501  502  0.00000000000E+00 -0.00000000000E+00 -0.93738154401E+03  0.93738154401E+03  0.00000000000E+00 0.  1.
        -13    1    1    2    0    0 -0.27931440237E+03  0.13083542657E+02 -0.32042631986E+03  0.42527726495E+03  0.10566000000E+00 0.  1.
         13    1    1    2    0    0  0.28639100072E+03  0.28772815357E+02  0.76700615009E+02  0.29787694725E+03  0.10566000000E+00 0. -1.
         -4    1    1    2    0  502 -0.70765983445E+01 -0.41856358014E+02 -0.45294914890E+03  0.45493402207E+03  0.00000000000E+00 0. -1.
</event>
<event>
 5    1  0.7625606E-005  0.5000477E+03  0.7818608E-02  0.9519398E-01
         21   -1    0    0  501  502  0.00000000000E+00  0.00000000000E+00  0.31581825366E+03  0.31581825366E+03  0.00000000000E+00 0. -1.
         -4   -1    0    0    0  501 -0.00000000000E+00 -0.00000000000E+00 -0.18568110044E+04  0.18568110044E+04  0.00000000000E+00 0. -1.
        -13    1    1    2    0    0  0.42951127348E+03  0.20344895409E+02 -0.54512830944E+03  0.69430449641E+03  0.10566000000E+00 0.  1.
         13    1    1    2    0    0  0.24368595670E+03 -0.24940012919E+03 -0.50724499788E+03  0.61553291461E+03  0.10566000000E+00 0. -1.
         -4    1    1    2    0  502 -0.67319723018E+03  0.22905523378E+03 -0.48861944345E+03  0.86279184707E+03  0.00000000000E+00 0. -1.
</event>
<event>
 5    1  0.7625606E-005  0.2379154E+03  0.7818608E-02  0.1036853E+00
         21   -1    0    0  501  502  0.00000000000E+00  0.00000000000E+00  0.12710953987E+03  0.12710953987E+03  0.00000000000E+00 0. -1.
         -4   -1    0    0    0  501 -0.00000000000E+00 -0.00000000000E+00 -0.16198811168E+04  0.16198811168E+04  0.00000000000E+00 0. -1.
        -13    1    1    2    0    0  0.18435137742E+03 -0.69515051552E+02 -0.58946599955E+03  0.62152067426E+03  0.10566000000E+00 0.  1.
         13    1    1    2    0    0 -0.34134946687E+03 -0.42542225879E+02 -0.86215046957E+03  0.92824174807E+03  0.10566000000E+00 0. -1.
         -4    1    1    2    0  502  0.15699808945E+03  0.11205727743E+03 -0.41155107792E+02  0.19722823432E+03  0.00000000000E+00 0. -1.
</event>
<event>
 5    1  0.7625606E-005  0.3163026E+02  0.7818608E-02  0.1406826E+00
         21   -1    0    0  501  502  0.00000000000E+00  0.00000000000E+00  0.27682483561E+03  0.27682483561E+03  0.00000000000E+00 0.  1.
         -4   -1    0    0    0  501 -0.00000000000E+00 -0.00000000000E+00 -0.41927739027E+02  0.41927739027E+02  0.00000000000E+00 0. -1.
        -13    1    1    2    0    0  0.43176896782E+02 -0.23308145057E+02  0.17716725744E+03  0.18383623776E+03  0.10566000000E+00 0.  1.
         13    1    1    2    0    0 -0.24324568617E+02 -0.20899421698E+01 -0.31726359085E+02  0.40032805566E+02  0.10566000000E+00 0. -1.
         -4    1    1    2    0  502 -0.18852328165E+02  0.25398087227E+02  0.89456198229E+02  0.94883531309E+02  0.00000000000E+00 0. -1.
</event>
<event>
 5    1  0.7625606E-005  0.3650259E+03  0.7818608E-02  0.9949420E-01
         21   -1    0    0  501  502  0.00000000000E+00  0.00000000000E+00  0.71164684704E+03  0.71164684704E+03  0.00000000000E+00 0.  1.
          4   -1    0    0  502    0 -0.00000000000E+00 -0.00000000000E+00 -0.80947488524E+03  0.80947488524E+03  0.00000000000E+00 0.  1.
        -13    1    1    2    0    0 -0.32179059816E+03  0.17982138314E+03  0.48137758237E+03  0.60630793074E+03  0.10566000000E+00 0.  1.
         13    1    1    2    0    0 -0.89097699456E+02 -0.23306773153E+03 -0.38121518609E+03  0.45561386809E+03  0.10566000000E+00 0. -1.
          4    1    1    2  501    0  0.41088829762E+03  0.53246348384E+02 -0.19799043449E+03  0.45919993345E+03  0.00000000000E+00 0.  1.
</event>
<event>
 5    1  0.7625606E-005  0.4557534E+03  0.7818608E-02  0.9580951E-01
         -4   -1    0    0    0  501 -0.00000000000E+00  0.00000000000E+00  0.57244358237E+03  0.57244358237E+03  0.00000000000E+00 0. -1.
         21   -1    0    0  501  502  0.00000000000E+00 -0.00000000000E+00 -0.10347802497E+04  0.10347802497E+04  0.00000000000E+00 0.  1.
        -13    1    1    2    0    0  0.41229214916E+03  0.19488403110E+03  0.64092539250E+02  0.46051326429E+03  0.10566000000E+00 0.  1.
         13    1    1    2    0    0 -0.12199882272E+03  0.35088414237E+03 -0.69340212401E+02  0.37790404911E+03  0.10566000000E+00 0. -1.
         -4    1    1    2    0  502 -0.29029332643E+03 -0.54576817348E+03 -0.45708899420E+03  0.76880651868E+03  0.00000000000E+00 0. -1.
</event>
<event>
 5    1  0.7625606E-005  0.3927995E+03  0.7818608E-02  0.9836830E-01
         21   -1    0    0  501  502  0.00000000000E+00  0.00000000000E+00  0.15587646764E+03  0.15587646764E+03  0.00000000000E+00 0. -1.
         -4   -1    0    0    0  501 -0.00000000000E+00 -0.00000000000E+00 -0.28738486859E+04  0.28738486859E+04  0.00000000000E+00 0. -1.
        -13    1    1    2    0    0  0.51098516237E+02  0.28748709396E+03 -0.69560207580E+03  0.75440184688E+03  0.10566000000E+00 0.  1.
         13    1    1    2    0    0 -0.37830568980E+03 -0.43473932172E+03 -0.16924874564E+04  0.17879114279E+04  0.10566000000E+00 0. -1.
         -4    1    1    2    0  502  0.32720717356E+03  0.14725222777E+03 -0.32988268614E+03  0.48741187883E+03  0.00000000000E+00 0. -1.
</event>
<event>
 5    1  0.7625606E-005  0.4715122E+03  0.7818608E-02  0.9848347E-01
         21   -1    0    0  501  502  0.00000000000E+00  0.00000000000E+00  0.90727037904E+03  0.90727037904E+03  0.00000000000E+00 0. -1.
         -4   -1    0    0    0  501 -0.00000000000E+00 -0.00000000000E+00 -0.38091635985E+03  0.38091635985E+03  0.00000000000E+00 0. -1.
        -13    1    1    2    0    0  0.21229312741E+00 -0.16235905762E+03  0.13554442121E+03  0.21150132374E+03  0.10566000000E+00 0.  1.
         13    1    1    2    0    0 -0.47007129312E+03  0.14445635175E+03  0.46618712303E+02  0.49397163247E+03  0.10566000000E+00 0. -1.
         -4    1    1    2    0  502  0.46985900000E+03  0.17902705864E+02  0.34419088567E+03  0.58271378269E+03  0.00000000000E+00 0. -1.
</event>
<event>
 5    1  0.7625606E-005  0.4991412E+03  0.7818608E-02  0.9848110E-01
         -4   -1    0    0    0  501 -0.00000000000E+00  0.00000000000E+00  0.27701519993E+04  0.27701519993E+04  0.00000000000E+00 0. -1.
         21   -1    0    0  501  502  0.00000000000E+00 -0.00000000000E+00 -0.13120744720E+03  0.13120744720E+03  0.00000000000E+00 0. -1.
        -13    1    1    2    0    0 -0.11486242922E+03  0.74619190929E+02  0.72526984417E+03  0.73809061729E+03  0.10566000000E+00 0.  1.
         13    1    1    2    0    0 -0.28905308001E+03 -0.39572293379E+03  0.10113999338E+04  0.11238675014E+04  0.10566000000E+00 0. -1.
         -4    1    1    2    0  502  0.40391550923E+03  0.32110374286E+03  0.90227477411E+03  0.10394013278E+04  0.00000000000E+00 0. -1.
</event>
<event>
 5    1  0.7625606E-005  0.9709098E+02  0.7818608E-02  0.1169460E+00
          4   -1    0    0  502    0 -0.00000000000E+00  0.00000000000E+00  0.19946985143E+03  0.19946985143E+03  0.00000000000E+00 0.  1.
         21   -1    0    0  501  502  0.00000000000E+00 -0.00000000000E+00 -0.10926257310E+03  0.10926257310E+03  0.00000000000E+00 0. -1.
        -13    1    1    2    0    0  0.93969257542E+02  0.14139712934E+02  0.14031688419E+03  0.16946678730E+03  0.10566000000E+00 0.  1.
         13    1    1    2    0    0 -0.10369973484E+03 -0.30240743101E+02 -0.30840350425E+02  0.11233555060E+03  0.10566000000E+00 0. -1.
          4    1    1    2  501    0  0.97304772999E+01  0.16101030167E+02 -0.19269255431E+02  0.26930086628E+02  0.00000000000E+00 0.  1.
</event>
<event>
 5    1  0.7625606E-005  0.4631632E+03  0.7818608E-02  0.9807092E-01
          4   -1    0    0  502    0 -0.00000000000E+00  0.00000000000E+00  0.17169808068E+04  0.17169808068E+04  0.00000000000E+00 0.  1.
         21   -1    0    0  501  502  0.00000000000E+00 -0.00000000000E+00 -0.22644603257E+03  0.22644603257E+03  0.00000000000E+00 0.  1.
        -13    1    1    2    0    0  0.38841685983E+03  0.21766958670E+03  0.88646082284E+03  0.99199823970E+03  0.10566000000E+00 0.  1.
         13    1    1    2    0    0  0.92049866569E+02 -0.17422987022E+03  0.36087358768E+03  0.41116782834E+03  0.10566000000E+00 0. -1.
          4    1    1    2  501    0 -0.48046672640E+03 -0.43439716479E+02  0.24320036373E+03  0.54026077135E+03  0.00000000000E+00 0.  1.
</event>
<event>
 5    1  0.7625606E-005  0.7859468E+02  0.7818608E-02  0.1254432E+00
         -4   -1    0    0    0  501 -0.00000000000E+00  0.00000000000E+00  0.60233162989E+03  0.60233162989E+03  0.00000000000E+00 0. -1.
         21   -1    0    0  501  502  0.00000000000E+00 -0.00000000000E+00 -0.29926261883E+02  0.29926261883E+02  0.00000000000E+00 0.  1.
        -13    1    1    2    0    0  0.26868025946E+02 -0.54195506432E+01 -0.77126568737E+01  0.28473822847E+02  0.10566000000E+00 0.  1.
         13    1    1    2    0    0 -0.79846118200E+02  0.51458516544E+02  0.38080488508E+03  0.39247388853E+03  0.10566000000E+00 0. -1.
         -4    1    1    2    0  502  0.52978092253E+02 -0.46038965901E+02  0.19931313980E+03  0.21131018039E+03  0.00000000000E+00 0. -1.
</event>
<event>
 5    1  0.7625606E-005  0.3175836E+03  0.7818608E-02  0.1000300E+00
          4   -1    0    0  502    0 -0.00000000000E+00  0.00000000000E+00  0.24352279591E+03  0.24352279591E+03  0.00000000000E+00 0.  1.
         21   -1    0    0  501  502  0.00000000000E+00 -0.00000000000E+00 -0.47608395365E+03  0.47608395365E+03  0.00000000000E+00 0. -1.
        -13    1    1    2    0    0  0.32724127633E+03  0.11093751818E+02 -0.13680248338E+03  0.35485892252E+03  0.10566000000E+00 0.  1.
         13    1    1    2    0    0 -0.30673813557E+03 -0.46027706489E+02 -0.94397569865E+02  0.32421866994E+03  0.10566000000E+00 0. -1.
          4    1    1    2  501    0 -0.20503140766E+02  0.34933954671E+02 -0.13611044840E+01  0.40529157105E+02  0.00000000000E+00 0.  1.
</event>
<event>
 5    1  0.7625606E-005  0.1923346E+03  0.7818608E-02  0.1072776E+00
          4   -1    0    0  502    0 -0.00000000000E+00  0.00000000000E+00  0.38874911895E+03  0.38874911895E+03  0.00000000000E+00 0.  1.
         21   -1    0    0  501  502  0.00000000000E+00 -0.00000000000E+00 -0.40208443610E+03  0.40208443610E+03  0.00000000000E+00 0.  1.
        -13    1    1    2    0    0  0.31411762894E+03  0.33908084605E+02  0.21336728375E+03  0.38124172378E+03  0.10566000000E+00 0.  1.
         13    1    1    2    0    0 -0.14002407423E+03 -0.69247899914E+02 -0.64390325258E+02  0.16896194292E+03  0.10566000000E+00 0. -1.
          4    1    1    2  501    0 -0.17409355471E+03  0.35339815309E+02 -0.16231227564E+03  0.24062988834E+03  0.00000000000E+00 0.  1.
</event>
<event>
 5    1  0.7625606E-005  0.2598030E+03  0.7818608E-02  0.1025434E+00
          4   -1    0    0  502    0 -0.00000000000E+00  0.00000000000E+00  0.26629100528E+03  0.26629100528E+03  0.00000000000E+00 0.  1.
         21   -1    0    0  501  502  0.00000000000E+00 -0.00000000000E+00 -0.33639007248E+03  0.33639007248E+03  0.00000000000E+00 0. -1.
        -13    1    1    2    0    0  0.19646965438E+03  0.17597747576E+03  0.94779959856E+02  0.28027067099E+03  0.10566000000E+00 0.  1.
         13    1    1    2    0    0 -0.18692225606E+03 -0.16775110784E+03 -0.12491610855E+03  0.28050741404E+03  0.10566000000E+00 0. -1.
          4    1    1    2  501    0 -0.95473983146E+01 -0.82263679106E+01 -0.39962918510E+02  0.41902992726E+02  0.00000000000E+00 0.  1.
</event>
<event>
 5    1  0.7625606E-005  0.4977543E+03  0.7818608E-02  0.9736345E-01
         21   -1    0    0  501  502  0.00000000000E+00  0.00000000000E+00  0.15333754779E+03  0.15333754779E+03  0.00000000000E+00 0.  1.
          4   -1    0    0  502    0 -0.00000000000E+00 -0.00000000000E+00 -0.26339243660E+04  0.26339243660E+04  0.00000000000E+00 0.  1.
        -13    1    1    2    0    0 -0.25669286529E+03  0.50817873925E+03 -0.82782407488E+03  0.10047037216E+04  0.10566000000E+00 0.  1.
         13    1    1    2    0    0 -0.50201578268E+02 -0.19608293417E+03 -0.78470706466E+03  0.81039120432E+03  0.10566000000E+00 0. -1.
          4    1    1    2  501    0  0.30689444356E+03 -0.31209580508E+03 -0.86805567870E+03  0.97216698790E+03  0.00000000000E+00 0.  1.
</event>
<event>
 5    1  0.7625606E-005  0.1460375E+03  0.7818608E-02  0.1122896E+00
         21   -1    0    0  501  502  0.00000000000E+00  0.00000000000E+00  0.16784924334E+03  0.16784924334E+03  0.00000000000E+00 0. -1.
         -4   -1    0    0    0  501 -0.00000000000E+00 -0.00000000000E+00 -0.19251688171E+04  0.19251688171E+04  0.00000000000E+00 0. -1.
        -13    1    1    2    0    0  0.77308029173E+02 -0.48453270675E+02 -0.45156125176E+03  0.46068625556E+03  0.10566000000E+00 0.  1.
         13    1    1    2    0    0  0.12163936947E+03  0.79189097152E+02  0.12251634244E+03  0.18994029231E+03  0.10566000000E+00 0. -1.
         -4    1    1    2    0  502 -0.19894739865E+03 -0.30735826477E+02 -0.14282746644E+04  0.14423915126E+04  0.00000000000E+00 0. -1.
</event>
<event>
 5    1  0.7625606E-005  0.2051507E+03  0.7818608E-02  0.1056661E+00
         -4   -1    0    0    0  501 -0.00000000000E+00  0.00000000000E+00  0.79211701271E+03  0.79211701271E+03  0.00000000000E+00 0. -1.
         21   -1    0    0  501  502  0.00000000000E+00 -0.00000000000E+00 -0.38875930858E+03  0.38875930858E+03  0.00000000000E+00 0.  1.
        -13    1    1    2    0    0 -0.16358674856E+03 -0.16462647110E+03 -0.20470104812E+03  0.30945925347E+03  0.10566000000E+00 0.  1.
         13    1    1    2    0    0  0.15129837716E+03  0.13638447645E+03  0.72366077430E+03  0.75178244977E+03  0.10566000000E+00 0. -1.
         -4    1    1    2    0  502  0.12288371401E+02  0.28241994647E+02 -0.11560202206E+03  0.11963461806E+03  0.00000000000E+00 0. -1.
</event>
<event>
 5    1  0.7625606E-005  0.9538769E+02  0.7818608E-02  0.1172421E+00
         21   -1    0    0  501  502  0.00000000000E+00  0.00000000000E+00  0.25593233388E+03  0.25593233388E+03  0.00000000000E+00 0. -1.
          4   -1    0    0  502    0 -0.00000000000E+00 -0.00000000000E+00 -0.14293059839E+03  0.14293059839E+03  0.00000000000E+00 0.  1.
        -13    1    1    2    0    0  0.40757318216E+02  0.85610870146E+02 -0.11160032850E+03  0.14644119830E+03  0.10566000000E+00 0.  1.
         13    1    1    2    0    0 -0.37135028360E+02 -0.96047534378E+02  0.21183763089E+03  0.23554051077E+03  0.10566000000E+00 0. -1.
          4    1    1    2  501    0 -0.36222898562E+01  0.10436664233E+02  0.12764433101E+02  0.16881223193E+02  0.00000000000E+00 0.  1.
</event>
<event>
 5    1  0.7625606E-005  0.2025709E+03  0.7818608E-02  0.1103720E+00
         -4   -1    0    0    0  501 -0.00000000000E+00  0.00000000000E+00  0.15952349953E+03  0.15952349953E+03  0.00000000000E+00 0. -1.
         21   -1    0    0  501  502  0.00000000000E+00 -0.00000000000E+00 -0.77420435067E+03  0.77420435067E+03  0.00000000000E+00 0. -1.
        -13    1    1    2    0    0  0.35822916407E+02  0.44033449961E+02 -0.13585133091E+03  0.14723390007E+03  0.10566000000E+00 0.  1.
         13    1    1    2    0    0  0.10950512494E+03 -0.18415663666E+03  0.50369937800E+02  0.22009584506E+03  0.10566000000E+00 0. -1.
         -4    1    1    2    0  502 -0.14532804135E+03  0.14012318670E+03 -0.52919945803E+03  0.56639810508E+03  0.00000000000E+00 0. -1.
</event>
<event>
 5    1  0.7625606E-005  0.1921219E+03  0.7818608E-02  0.1065675E+00
         21   -1    0    0  501  502  0.00000000000E+00  0.00000000000E+00  0.73922474029E+03  0.73922474029E+03  0.00000000000E+00 0.  1.
          4   -1    0    0  502    0 -0.00000000000E+00 -0.00000000000E+00 -0.52394803690E+03  0.52394803690E+03  0.00000000000E+00 0.  1.
        -13    1    1    2    0    0  0.78399173960E+02 -0.18603720022E+03 -0.33635852284E+03  0.39229241312E+03  0.10566000000E+00 0.  1.
         13    1    1    2    0    0 -0.87838491891E+02  0.15255033021E+03 -0.11049457791E+03  0.20783711607E+03  0.10566000000E+00 0. -1.
          4    1    1    2  501    0  0.94393179303E+01  0.33486870014E+02  0.66212980414E+03  0.66304324800E+03  0.00000000000E+00 0.  1.
</event>
<event>
 5    1  0.7625606E-005  0.6488563E+03  0.7818608E-02  0.9501913E-01
         21   -1    0    0  501  502  0.00000000000E+00  0.00000000000E+00  0.60021192424E+03  0.60021192424E+03  0.00000000000E+00 0. -1.
         -4   -1    0    0    0  501 -0.00000000000E+00 -0.00000000000E+00 -0.13554862675E+04  0.13554862675E+04  0.00000000000E+00 0. -1.
        -13    1    1    2    0    0 -0.48246888248E+02 -0.20406454557E+03  0.90402966267E+02  0.22834799858E+03  0.10566000000E+00 0.  1.
         13    1    1    2    0    0 -0.60236072948E+03  0.26847963063E+03 -0.84711937703E+03  0.10735599707E+04  0.10566000000E+00 0. -1.
         -4    1    1    2    0  502  0.65060761772E+03 -0.64415085068E+02  0.14420675492E+01  0.65379022246E+03  0.00000000000E+00 0. -1.
</event>
<event>
 5    1  0.7625606E-005  0.4441038E+02  0.7818608E-02  0.1316387E+00
          4   -1    0    0  502    0 -0.00000000000E+00  0.00000000000E+00  0.31291273344E+03  0.31291273344E+03  0.00000000000E+00 0.  1.
         21   -1    0    0  501  502  0.00000000000E+00 -0.00000000000E+00 -0.16032618752E+02  0.16032618752E+02  0.00000000000E+00 0.  1.
        -13    1    1    2    0    0 -0.43366866834E+02 -0.46326624308E+02  0.79143889222E+02  0.10144263218E+03  0.10566000000E+00 0.  1.
         13    1    1    2    0    0  0.20426937608E+02  0.34254720366E+02  0.13903450207E+03  0.14464179747E+03  0.10566000000E+00 0. -1.
          4    1    1    2  501    0  0.22939929226E+02  0.12071903942E+02  0.78701723394E+02  0.82860922532E+02  0.00000000000E+00 0.  1.
</event>
<event>
 5    1  0.7625606E-005  0.4967156E+03  0.7818608E-02  0.1003744E+00
         21   -1    0    0  501  502  0.00000000000E+00  0.00000000000E+00  0.11537749574E+04  0.11537749574E+04  0.00000000000E+00 0.  1.
          4   -1    0    0  502    0 -0.00000000000E+00 -0.00000000000E+00 -0.31652556633E+03  0.31652556633E+03  0.00000000000E+00 0.  1.
        -13    1    1    2    0    0 -0.29267810873E+03 -0.36105713846E+03  0.36368776356E+03  0.59016229385E+03  0.10566000000E+00 0.  1.
         13    1    1    2    0    0 -0.47736773776E+01 -0.74027120523E+02 -0.84565984109E+02  0.11249097475E+03  0.10566000000E+00 0. -1.
          4    1    1    2  501    0  0.29745178610E+03  0.43508425898E+03  0.55812761164E+03  0.76764725515E+03  0.00000000000E+00 0.  1.
</event>
<event>
 5    1  0.7625606E-005  0.4797041E+03  0.7818608E-02  0.9841812E-01
          4   -1    0    0  502    0 -0.00000000000E+00  0.00000000000E+00  0.80859447877E+03  0.80859447877E+03  0.00000000000E+00 0.  1.
         21   -1    0    0  501  502  0.00000000000E+00 -0.00000000000E+00 -0.51159441053E+03  0.51159441053E+03  0.00000000000E+00 0.  1.
        -13    1    1    2    0    0 -0.44561398258E+03 -0.17292645714E+03 -0.15886103148E+03  0.50369854034E+03  0.10566000000E+00 0.  1.
         13    1    1    2    0    0 -0.55299742016E+02  0.14761043250E+03  0.19629595922E+03  0.25175189378E+03  0.10566000000E+00 0. -1.
          4    1    1    2  501    0  0.50091372460E+03  0.25316024641E+02  0.25956514050E+03  0.56473845518E+03  0.00000000000E+00 0.  1.
</event>
<event>
 5    1  0.7625606E-005  0.1988465E+03  0.7818608E-02  0.1060929E+00
         21   -1    0    0  501  502  0.00000000000E+00  0.00000000000E+00  0.24766120658E+03  0.24766120658E+03  0.00000000000E+00 0. -1.
          4   -1    0    0  502    0 -0.00000000000E+00 -0.00000000000E+00 -0.26319747007E+03  0.26319747007E+03  0.00000000000E+00 0.  1.
        -13    1    1    2    0    0  0.18915067760E+03  0.39639623368E+02 -0.10939651420E+03  0.22207405760E+03  0.10566000000E+00 0.  1.
         13    1    1    2    0    0 -0.20082745264E+03 -0.66078898978E+02  0.23502561740E+02  0.21272157436E+03  0.10566000000E+00 0. -1.
          4    1    1    2  501    0  0.11676775043E+02  0.26439275609E+02  0.70357688977E+02  0.76063044695E+02  0.00000000000E+00 0.  1.
</event>
<event>
 5    1  0.7625606E-005  0.5041014E+03  0.7818608E-02  0.9951211E-01
          4   -1    0    0  502    0 -0.00000000000E+00  0.00000000000E+00  0.14340018388E+04  0.14340018388E+04  0.00000000000E+00 0.  1.
         21   -1    0    0  501  502  0.00000000000E+00 -0.00000000000E+00 -0.28548660598E+03  0.28548660598E+03  0.00000000000E+00 0.  1.
        -13    1    1    2    0    0 -0.34042310903E+02 -0.45030452363E+03  0.41711674181E+03  0.61475151924E+03  0.10566000000E+00 0.  1.
         13    1    1    2    0    0 -0.11882992795E+02 -0.93423910394E+02  0.50543860634E+03  0.51413755795E+03  0.10566000000E+00 0. -1.
          4    1    1    2  501    0  0.45925303698E+02  0.54372843403E+03  0.22595988462E+03  0.59059936755E+03  0.00000000000E+00 0.  1.
</event>
<event>
 5    1  0.7625606E-005  0.3928609E+03  0.7818608E-02  0.1013616E+00
         -4   -1    0    0    0  501 -0.00000000000E+00  0.00000000000E+00  0.97165422941E+03  0.97165422941E+03  0.00000000000E+00 0. -1.
         21   -1    0    0  501  502  0.00000000000E+00 -0.00000000000E+00 -0.34468808072E+03  0.34468808072E+03  0.00000000000E+00 0. -1.
        -13    1    1    2    0    0  0.31818012567E+02 -0.10434530786E+03  0.19279070064E+03  0.22151432146E+03  0.10566000000E+00 0.  1.
         13    1    1    2    0    0 -0.21025510617E+03 -0.31569241740E+03 -0.99989529413E+02  0.39225862544E+03  0.10566000000E+00 0. -1.
         -4    1    1    2    0  502  0.17843709360E+03  0.42003772526E+03  0.53416497745E+03  0.70256936323E+03  0.00000000000E+00 0. -1.
</event>
<event>
 5    1  0.7625606E-005  0.3252192E+03  0.7818608E-02  0.1004476E+00
         -4   -1    0    0    0  501 -0.00000000000E+00  0.00000000000E+00  0.17701349959E+04  0.17701349959E+04  0.00000000000E+00 0. -1.
         21   -1    0    0  501  502  0.00000000000E+00 -0.00000000000E+00 -0.62916571464E+03  0.62916571464E+03  0.00000000000E+00 0. -1.
        -13    1    1    2    0    0 -0.64735374097E+02 -0.44058168927E+03 -0.30432433850E+03  0.53936648742E+03  0.10566000000E+00 0.  1.
         13    1    1    2    0    0  0.20892113839E+03  0.14907186644E+03  0.15071826626E+04  0.15288786915E+04  0.10566000000E+00 0. -1.
         -4    1    1    2    0  502 -0.14418576429E+03  0.29150982283E+03 -0.61889042879E+02  0.33105553168E+03  0.00000000000E+00 0. -1.
</event>
<event>
 5    1  0.7625606E-005  0.2762180E+03  0.7818608E-02  0.1017635E+00
         21   -1    0    0  501  502  0.00000000000E+00  0.00000000000E+00  0.56265065490E+02  0.56265065490E+02  0.00000000000E+00 0. -1.
          4   -1    0    0  502    0 -0.00000000000E+00 -0.00000000000E+00 -0.18324017821E+04  0.18324017821E+04  0.00000000000E+00 0.  1.
        -13    1    1    2    0    0  0.25421359360E+03  0.10427961394E+03 -0.11490613322E+04  0.11814570434E+04  0.10566000000E+00 0.  1.
         13    1    1    2    0    0 -0.26464000521E+03 -0.89093426675E+02 -0.62947847278E+03  0.68863279757E+03  0.10566000000E+00 0. -1.
          4    1    1    2  501    0  0.10426411613E+02 -0.15186187269E+02  0.24030883364E+01  0.18577006660E+02  0.00000000000E+00 0.  1.
</event>
<event>
 5    1  0.7625606E-005  0.4466653E+03  0.7818608E-02  0.9603220E-01
         -4   -1    0    0    0  501 -0.00000000000E+00  0.00000000000E+00  0.35563662390E+04  0.35563662390E+04  0.00000000000E+00 0. -1.
         21   -1    0    0  501  502  0.00000000000E+00 -0.00000000000E+00 -0.19719379009E+03  0.19719379009E+03  0.00000000000E+00 0. -1.
        -13    1    1    2    0    0  0.24562282091E+03  0.34495750721E+03  0.18411553437E+04  0.18892271602E+04  0.10566000000E+00 0.  1.
         13    1    1    2    0    0 -0.11151636878E+03 -0.63018472542E+03  0.54187512935E+03  0.83856863501E+03  0.10566000000E+00 0. -1.
         -4    1    1    2    0  502 -0.13410645213E+03  0.28522721821E+03  0.97614197584E+03  0.10257642339E+04  0.00000000000E+00 0. -1.
</event>
<event>
 5    1  0.7625606E-005  0.8310956E+02  0.7818608E-02  0.1195998E+00
         -4   -1    0    0    0  501 -0.00000000000E+00  0.00000000000E+00  0.76139227369E+03  0.76139227369E+03  0.00000000000E+00 0. -1.
         21   -1    0    0  501  502  0.00000000000E+00 -0.00000000000E+00 -0.13057840700E+02  0.13057840700E+02  0.00000000000E+00 0.  1.
        -13    1    1    2    0    0 -0.42444885602E+02  0.75257200738E+02  0.35346258605E+03  0.36386951711E+03  0.10566000000E+00 0.  1.
         13    1    1    2    0    0  0.51081949876E+02 -0.62820397442E+02  0.38264790673E+03  0.39112044133E+03  0.10566000000E+00 0. -1.
         -4    1    1    2    0  502 -0.86370642748E+01 -0.12436803296E+02  0.12223940212E+02  0.19460155956E+02  0.00000000000E+00 0. -1.
</event>
<event>
 5    1  0.7625606E-005  0.3565121E+03  0.7818608E-02  0.1011946E+00
          4   -1    0    0  502    0 -0.00000000000E+00  0.00000000000E+00  0.57413123696E+03  0.57413123696E+03  0.00000000000E+00 0.  1.
         21   -1    0    0  501  502  0.00000000000E+00 -0.00000000000E+00 -0.61369175537E+03  0.61369175537E+03  0.00000000000E+00 0.  1.
        -13    1    1    2    0    0  0.38289388629E+03 -0.16788053207E+03  0.23016934396E+03  0.47725207099E+03  0.10566000000E+00 0.  1.
         13    1    1    2    0    0 -0.13366757796E+03 -0.76433230783E+02  0.11421226242E+03  0.19171205549E+03  0.10566000000E+00 0. -1.
          4    1    1    2  501    0 -0.24922630833E+03  0.24431376286E+03 -0.38394212479E+03  0.51885886585E+03  0.00000000000E+00 0.  1.
</event>
<event>
 5    1  0.7625606E-005  0.4210619E+03  0.7818608E-02  0.9773694E-01
         -4   -1    0    0    0  501 -0.00000000000E+00  0.00000000000E+00  0.22388163933E+04  0.22388163933E+04  0.00000000000E+00 0. -1.
         21   -1    0    0  501  502  0.00000000000E+00 -0.00000000000E+00 -0.27785062912E+03  0.27785062912E+03  0.00000000000E+00 0. -1.
        -13    1    1    2    0    0 -0.15517016099E+03 -0.24972490329E+03  0.12017036379E+04  0.12371466974E+04  0.10566000000E+00 0.  1.
         13    1    1    2    0    0  0.39771137363E+03  0.50477127764E+03  0.64244336559E+03  0.90868139004E+03  0.10566000000E+00 0. -1.
         -4    1    1    2    0  502 -0.24254121264E+03 -0.25504637435E+03  0.11681876066E+03  0.37083893504E+03  0.00000000000E+00 0. -1.
</event>
<event>
 5    1  0.7625606E-005  0.4283256E+03  0.7818608E-02  0.9896796E-01
          4   -1    0    0  502    0 -0.00000000000E+00  0.00000000000E+00  0.62703449698E+03  0.62703449698E+03  0.00000000000E+00 0.  1.
         21   -1    0    0  501  502  0.00000000000E+00 -0.00000000000E+00 -0.69769727728E+03  0.69769727728E+03  0.00000000000E+00 0.  1.
        -13    1    1    2    0    0 -0.56256524551E+03 -0.46549593423E+02  0.90210323083E+02  0.57165062202E+03  0.10566000000E+00 0.  1.
         13    1    1    2    0    0  0.17167198039E+03  0.66251829977E+02  0.16241642538E+03  0.24543773187E+03  0.10566000000E+00 0. -1.
          4    1    1    2  501    0  0.39089326512E+03 -0.19702236554E+02 -0.32328952877E+03  0.50764342038E+03  0.00000000000E+00 0.  1.
</event>
<event>
 5    1  0.7625606E-005  0.3929002E+03  0.7818608E-02  0.9749777E-01
          4   -1    0    0  502    0 -0.00000000000E+00  0.00000000000E+00  0.12029400445E+04  0.12029400445E+04  0.00000000000E+00 0.  1.
         21   -1    0    0  501  502  0.00000000000E+00 -0.00000000000E+00 -0.16492797777E+03  0.16492797777E+03  0.00000000000E+00 0. -1.
        -13    1    1    2    0    0  0.28538837880E+03  0.27763535967E+03  0.40451485550E+03  0.56759157779E+03  0.10566000000E+00 0.  1.
         13    1    1    2    0    0 -0.27253844240E+03 -0.27830838941E+03  0.66250952436E+03  0.76853864134E+03  0.10566000000E+00 0. -1.
          4    1    1    2  501    0 -0.12849936400E+02  0.67302973925E+00 -0.29012313133E+02  0.31737803135E+02  0.00000000000E+00 0.  1.
</event>
<event>
 5    1  0.7625606E-005  0.5521321E+02  0.7818608E-02  0.1271905E+00
         -4   -1    0    0    0  501 -0.00000000000E+00  0.00000000000E+00  0.13128240593E+03  0.13128240593E+03  0.00000000000E+00 0. -1.
         21   -1    0    0  501  502  0.00000000000E+00 -0.00000000000E+00 -0.13206876071E+03  0.13206876071E+03  0.00000000000E+00 0. -1.
        -13    1    1    2    0    0 -0.66293054944E+02  0.75507773190E+01 -0.65559528785E+02  0.93540613375E+02  0.10566000000E+00 0.  1.
         13    1    1    2    0    0  0.53962306077E+02 -0.60237351152E+01  0.11012724899E+03  0.12278533298E+03  0.10566000000E+00 0. -1.
         -4    1    1    2    0  502  0.12330748867E+02 -0.15270422038E+01 -0.45354074980E+02  0.47025220285E+02  0.00000000000E+00 0. -1.
</event>
<event>
 5    1  0.7625606E-005  0.5105121E+03  0.7818608E-02  0.9727428E-01
         21   -1    0    0  501  502  0.00000000000E+00  0.00000000000E+00  0.88889510895E+03  0.88889510895E+03  0.00000000000E+00 0.  1.
          4   -1    0    0  502    0 -0.00000000000E+00 -0.00000000000E+00 -0.49321696620E+03  0.49321696620E+03  0.00000000000E+00 0.  1.
        -13    1    1    2    0    0  0.53943856349E+03  0.45301492729E+00  0.29410937303E+03  0.61440581334E+03  0.10566000000E+00 0.  1.
         13    1    1    2    0    0 -0.73944179530E+02 -0.17880140509E+03 -0.11402958635E+03  0.22458949636E+03  0.10566000000E+00 0. -1.
          4    1    1    2  501    0 -0.46549438396E+03  0.17834839016E+03  0.21559835608E+03  0.54311676545E+03  0.00000000000E+00 0.  1.
</event>
<event>
 5    1  0.7625606E-005  0.3117527E+03  0.7818608E-02  0.1036688E+00
         -4   -1    0    0    0  501 -0.00000000000E+00  0.00000000000E+00  0.18441052250E+03  0.18441052250E+03  0.00000000000E+00 0. -1.
         21   -1    0    0  501  502  0.00000000000E+00 -0.00000000000E+00 -0.17826828980E+04  0.17826828980E+04  0.00000000000E+00 0. -1.
        -13    1    1    2    0    0 -0.24019940728E+01  0.10624927767E+03 -0.62757672534E+02  0.12342291200E+03  0.10566000000E+00 0.  1.
         13    1    1    2    0    0  0.20526998169E+03 -0.24606470159E+03 -0.15632297768E+04  0.15957352377E+04  0.10566000000E+00 0. -1.
         -4    1    1    2    0  502 -0.20286798762E+03  0.13981542393E+03  0.27715073828E+02  0.24793527075E+03  0.00000000000E+00 0. -1.
</event>
<event>
 5    1  0.7625606E-005  0.3154961E+03  0.7818608E-02  0.1003125E+00
          4   -1    0    0  502    0 -0.00000000000E+00  0.00000000000E+00  0.14272410951E+04  0.14272410951E+04  0.00000000000E+00 0.  1.
         21   -1    0    0  501  502  0.00000000000E+00 -0.00000000000E+00 -0.87896644003E+03  0.87896644003E+03  0.00000000000E+00 0.  1.
        -13    1    1    2    0    0  0.10281152977E+03  0.28919865204E+03 -0.66054483313E+03  0.72837185471E+03  0.10566000000E+00 0.  1.
         13    1    1    2    0    0  0.29519259187E+03 -0.10468685628E+02  0.10109069702E+04  0.10531767057E+04  0.10566000000E+00 0. -1.
          4    1    1    2  501    0 -0.39800412164E+03 -0.27872996641E+03  0.19791251790E+03  0.52465897472E+03  0.00000000000E+00 0.  1.
</event>
<event>
 5    1  0.7625606E-005  0.3092361E+03  0.7818608E-02  0.1030832E+00
         21   -1    0    0  501  502  0.00000000000E+00  0.00000000000E+00  0.22144682735E+03  0.22144682735E+03  0.00000000000E+00 0.  1.
          4   -1    0    0  502    0 -0.00000000000E+00 -0.00000000000E+00 -0.68240831555E+03  0.68240831555E+03  0.00000000000E+00 0.  1.
        -13    1    1    2    0    0 -0.29967592767E+02  0.38217026680E+03 -0.18974083416E+03  0.42773094902E+03  0.10566000000E+00 0.  1.
         13    1    1    2    0    0  0.35566456311E+02 -0.12536803215E+03 -0.12491806170E+03  0.18051772656E+03  0.10566000000E+00 0. -1.
          4    1    1    2  501    0 -0.55988635438E+01 -0.25680223465E+03 -0.14630259234E+03  0.29560646731E+03  0.00000000000E+00 0.  1.
</event>
<event>
 5    1  0.7625606E-005  0.2176329E+03  0.7818608E-02  0.1048677E+00
         21   -1    0    0  501  502  0.00000000000E+00  0.00000000000E+00  0.12173531598E+03  0.12173531598E+03  0.00000000000E+00 0. -1.
          4   -1    0    0  502    0 -0.00000000000E+00 -0.00000000000E+00 -0.13129125248E+04  0.13129125248E+04  0.00000000000E+00 0.  1.
        -13    1    1    2    0    0  0.21699337863E+03  0.57097150347E+02 -0.11513918606E+04  0.11730513368E+04  0.10566000000E+00 0.  1.
         13    1    1    2    0    0 -0.17106091790E+03  0.88915531875E+01  0.13206791299E+01  0.17129697227E+03  0.10566000000E+00 0. -1.
          4    1    1    2  501    0 -0.45932460729E+02 -0.65988703534E+02 -0.41106027329E+02  0.90299531702E+02  0.00000000000E+00 0.  1.
</event>
<event>
 5    1  0.7625606E-005  0.4264597E+03  0.7818608E-02  0.9856558E-01
          4   -1    0    0  502    0 -0.00000000000E+00  0.00000000000E+00  0.23260058117E+03  0.23260058117E+03  0.00000000000E+00 0.  1.
         21   -1    0    0  501  502  0.00000000000E+00 -0.00000000000E+00 -0.19034158624E+04  0.19034158624E+04  0.00000000000E+00 0.  1.
        -13    1    1    2    0    0  0.25649984207E+03  0.50889341990E+03 -0.60621066924E+03  0.83201927169E+03  0.10566000000E+00 0.  1.
         13    1    1    2    0    0 -0.10270716089E+02 -0.21319269931E+03 -0.50486300749E+02  0.21932964317E+03  0.10566000000E+00 0. -1.
          4    1    1    2  501    0 -0.24622912598E+03 -0.29570072059E+03 -0.10141183113E+04  0.10846675287E+04  0.00000000000E+00 0.  1.
</event>
<event>
 5    1  0.7625606E-005  0.5867839E+03  0.7818608E-02  0.9533505E-01
         21   -1    0    0  501  502  0.00000000000E+00  0.00000000000E+00  0.16827087668E+03  0.16827087668E+03  0.00000000000E+00 0. -1.
         -4   -1    0    0    0  501 -0.00000000000E+00 -0.00000000000E+00 -0.34488528590E+04  0.34488528590E+04  0.00000000000E+00 0. -1.
        -13    1    1    2    0    0 -0.24414792947E+03  0.65903059370E+02 -0.10899744772E+04  0.11189261803E+04  0.10566000000E+00 0.  1.
         13    1    1    2    0    0 -0.45600889167E+02 -0.59535141757E+03 -0.10621781653E+04  0.12185012177E+04  0.10566000000E+00 0. -1.
         -4    1    1    2    0  502  0.28974881864E+03  0.52944835820E+03 -0.11284293398E+04  0.12796963377E+04  0.00000000000E+00 0. -1.
</event>
<event>
 5    1  0.7625606E-005  0.1544682E+03  0.7818608E-02  0.1127889E+00
         21   -1    0    0  501  502  0.00000000000E+00  0.00000000000E+00  0.41036530533E+03  0.41036530533E+03  0.00000000000E+00 0. -1.
         -4   -1    0    0    0  501 -0.00000000000E+00 -0.00000000000E+00 -0.95975989218E+03  0.95975989218E+03  0.00000000000E+00 0. -1.
        -13    1    1    2    0    0  0.21233106195E+03 -0.96519965327E+02 -0.12703254189E+03  0.26558964859E+03  0.10566000000E+00 0.  1.
         13    1    1    2    0    0 -0.46193600677E+02 -0.91358891635E+02  0.31208535205E+03  0.32844721638E+03  0.10566000000E+00 0. -1.
         -4    1    1    2    0  502 -0.16613746128E+03  0.18787885696E+03 -0.73444739700E+03  0.77608833253E+03  0.00000000000E+00 0. -1.
</event>
<event>
 5    1  0.1692528E-004  0.2138514E+03  0.7818608E-02  0.1085337E+00
         21   -1    0    0  501  502  0.00000000000E+00  0.00000000000E+00  0.93037266283E+03  0.93037266283E+03  0.00000000000E+00 0. -1.
         -4   -1    0    0    0  501 -0.00000000000E+00 -0.00000000000E+00 -0.64842271295E+03  0.64842271295E+03  0.00000000000E+00 0. -1.
        -13    1    1    2    0    0 -0.11644134922E+03  0.20638232757E+03 -0.30943243266E+03  0.38974439635E+03  0.10566000000E+00 0.  1.
         13    1    1    2    0    0  0.73027328028E+02  0.30159225102E+01 -0.28125258695E+03  0.29059441712E+03  0.10566000000E+00 0. -1.
         -4    1    1    2    0  502  0.43414021190E+02 -0.20939825008E+03  0.87263496950E+03  0.89845656231E+03  0.00000000000E+00 0. -1.
</event>
<event>
 5    1  0.7625606E-005  0.2961308E+03  0.7818608E-02  0.1008916E+00
         21   -1    0    0  501  502  0.00000000000E+00  0.00000000000E+00  0.80558501819E+03  0.80558501819E+03  0.00000000000E+00 0. -1.
         -4   -1    0    0    0  501 -0.00000000000E+00 -0.00000000000E+00 -0.34411268169E+03  0.34411268169E+03  0.00000000000E+00 0. -1.
        -13    1    1    2    0    0 -0.10717358306E+03  0.28203246616E+03 -0.15520483958E+03  0.33928902468E+03  0.10566000000E+00 0.  1.
         13    1    1    2    0    0  0.72544851118E+02 -0.27509990589E+03  0.11400286146E+03  0.30649531355E+03  0.10566000000E+00 0. -1.
         -4    1    1    2    0  502  0.34628731947E+02 -0.69325602749E+01  0.50267431462E+03  0.50391336164E+03  0.00000000000E+00 0. -1.
</event>
<event>
 5    1  0.7625606E-005  0.4131760E+03  0.7818608E-02  0.9825755E-01
          4   -1    0    0  502    0 -0.00000000000E+00  0.00000000000E+00  0.58850804701E+03  0.58850804701E+03  0.00000000000E+00 0.  1.
         21   -1    0    0  501  502  0.00000000000E+00 -0.00000000000E+00 -0.70357742129E+03  0.70357742129E+03  0.00000000000E+00 0.  1.
        -13    1    1    2    0    0  0.73561524993E+02  0.42578345124E+03 -0.94798103474E+02  0.44236810113E+03  0.10566000000E+00 0.  1.
         13    1    1    2    0    0 -0.25826124876E+03 -0.34030070349E+02  0.23171354574E+03  0.34863748614E+03  0.10566000000E+00 0. -1.
          4    1    1    2  501    0  0.18469972377E+03 -0.39175338090E+03 -0.25198481654E+03  0.50107988103E+03  0.00000000000E+00 0.  1.
</event>
<event>
 5    1  0.7625606E-005  0.5163802E+02  0.7818608E-02  0.1285260E+00
         -4   -1    0    0    0  501 -0.00000000000E+00  0.00000000000E+00  0.15681418192E+03  0.15681418192E+03  0.00000000000E+00 0. -1.
         21   -1    0    0  501  502  0.00000000000E+00 -0.00000000000E+00 -0.18936522274E+03  0.18936522274E+03  0.00000000000E+00 0.  1.
        -13    1    1    2    0    0  0.49611027729E+02  0.20510861265E+02 -0.10490635872E+03  0.11784440914E+03  0.10566000000E+00 0.  1.
         13    1    1    2    0    0 -0.50901715683E+02 -0.85133485427E+01  0.14540665031E+03  0.15429376812E+03  0.10566000000E+00 0. -1.
         -4    1    1    2    0  502  0.12906879538E+01 -0.11997512723E+02 -0.73051332414E+02  0.74041227396E+02  0.00000000000E+00 0. -1.
</event>
<event>
 5    1  0.7625606E-005  0.1016797E+03  0.7818608E-02  0.1161806E+00
         21   -1    0    0  501  502  0.00000000000E+00  0.00000000000E+00  0.18522188530E+03  0.18522188530E+03  0.00000000000E+00 0. -1.
          4   -1    0    0  502    0 -0.00000000000E+00 -0.00000000000E+00 -0.12347340843E+03  0.12347340843E+03  0.00000000000E+00 0.  1.
        -13    1    1    2    0    0  0.10695160724E+03  0.45400307364E+01 -0.30836184298E+02  0.11140080609E+03  0.10566000000E+00 0.  1.
         13    1    1    2    0    0 -0.89999383294E+02 -0.41815464556E+02  0.35595044960E+01  0.99303088097E+02  0.10566000000E+00 0. -1.
          4    1    1    2  501    0 -0.16952223950E+02  0.37275433820E+02  0.89025156675E+02  0.97991399543E+02  0.00000000000E+00 0.  1.
</event>
<event>
 5    1  0.7625606E-005  0.9538711E+02  0.7818608E-02  0.1172422E+00
         21   -1    0    0  501  502  0.00000000000E+00  0.00000000000E+00  0.18303111577E+03  0.18303111577E+03  0.00000000000E+00 0. -1.
         -4   -1    0    0    0  501 -0.00000000000E+00 -0.00000000000E+00 -0.38768862594E+03  0.38768862594E+03  0.00000000000E+00 0. -1.
        -13    1    1    2    0    0  0.79141279180E+02  0.63334939737E+02 -0.20869726078E+03  0.23201123784E+03  0.10566000000E+00 0.  1.
         13    1    1    2    0    0 -0.68055204596E+02 -0.57804968095E+02 -0.15516488872E+03  0.17902256580E+03  0.10566000000E+00 0. -1.
         -4    1    1    2    0  502 -0.11086074583E+02 -0.55299716423E+01  0.15920463933E+03  0.15968593808E+03  0.00000000000E+00 0. -1.
</event>
<event>
 5    1  0.7625606E-005  0.4400788E+03  0.7818608E-02  0.9909930E-01
         -4   -1    0    0    0  501 -0.00000000000E+00  0.00000000000E+00  0.31390083518E+04  0.31390083518E+04  0.00000000000E+00 0. -1.
         21   -1    0    0  501  502  0.00000000000E+00 -0.00000000000E+00 -0.11326074250E+03  0.11326074250E+03  0.00000000000E+00 0. -1.
        -13    1    1    2    0    0  0.22458888729E+02  0.16081046757E+03  0.85645156820E+03  0.87170735227E+03  0.10566000000E+00 0.  1.
         13    1    1    2    0    0 -0.41258121689E+03 -0.30420269667E+03  0.15674641888E+04  0.16491532784E+04  0.10566000000E+00 0. -1.
         -4    1    1    2    0  502  0.39012232816E+03  0.14339222910E+03  0.60183185226E+03  0.73140846364E+03  0.00000000000E+00 0. -1.
</event>
<event>
 5    1  0.7625606E-005  0.7644744E+03  0.7818608E-02  0.9034352E-01
         -4   -1    0    0    0  501 -0.00000000000E+00  0.00000000000E+00  0.16161999350E+04  0.16161999350E+04  0.00000000000E+00 0. -1.
         21   -1    0    0  501  502  0.00000000000E+00 -0.00000000000E+00 -0.61151466767E+03  0.61151466767E+03  0.00000000000E+00 0.  1.
        -13    1    1    2    0    0 -0.71947500745E+03 -0.16929525682E+02  0.57755023815E+03  0.92276496679E+03  0.10566000000E+00 0.  1.
         13    1    1    2    0    0  0.81376320879E+03  0.45466559197E+02  0.66216156305E+03  0.10501122391E+04  0.10566000000E+00 0. -1.
         -4    1    1    2    0  502 -0.94288201337E+02 -0.28537033515E+02 -0.23502653384E+03  0.25483739679E+03  0.00000000000E+00 0. -1.
</event>
<event>
 5    1  0.7625606E-005  0.5004624E+03  0.7818608E-02  0.9646197E-01
         -4   -1    0    0    0  501 -0.00000000000E+00  0.00000000000E+00  0.24948327542E+04  0.24948327542E+04  0.00000000000E+00 0. -1.
         21   -1    0    0  501  502  0.00000000000E+00 -0.00000000000E+00 -0.17661527997E+03  0.17661527997E+03  0.00000000000E+00 0.  1.
        -13    1    1    2    0    0  0.13235837330E+03 -0.23848288859E+03  0.32406614096E+03  0.42357018546E+03  0.10566000000E+00 0.  1.
         13    1    1    2    0    0 -0.55817996174E+03  0.29673447265E+02  0.97715944018E+03  0.11257379650E+04  0.10566000000E+00 0. -1.
         -4    1    1    2    0  502  0.42582158844E+03  0.20880944133E+03  0.10169918931E+04  0.11221398837E+04  0.00000000000E+00 0. -1.
</event>
<event>
 5    1  0.7625606E-005  0.4792919E+03  0.7818608E-02  0.9943620E-01
         21   -1    0    0  501  502  0.00000000000E+00  0.00000000000E+00  0.43318943183E+03  0.43318943183E+03  0.00000000000E+00 0. -1.
         -4   -1    0    0    0  501 -0.00000000000E+00 -0.00000000000E+00 -0.11670859445E+04  0.11670859445E+04  0.00000000000E+00 0. -1.
        -13    1    1    2    0    0  0.10604190020E+03 -0.37151879251E+02 -0.55899123300E+03  0.57017221650E+03  0.10566000000E+00 0.  1.
         13    1    1    2    0    0 -0.45855268818E+03 -0.25563652509E+03 -0.22085626812E+03  0.56955956943E+03  0.10566000000E+00 0. -1.
         -4    1    1    2    0  502  0.35251078799E+03  0.29278840434E+03  0.45950988400E+02  0.46054359044E+03  0.00000000000E+00 0. -1.
</event>
<event>
 5    1  0.7625606E-005  0.4616964E+03  0.7818608E-02  0.9723871E-01
          4   -1    0    0  502    0 -0.00000000000E+00  0.00000000000E+00  0.22868154201E+04  0.22868154201E+04  0.00000000000E+00 0.  1.
         21   -1    0    0  501  502  0.00000000000E+00 -0.00000000000E+00 -0.26881249235E+03  0.26881249235E+03  0.00000000000E+00 0.  1.
        -13    1    1    2    0    0  0.27064448509E+02  0.45230412185E+03  0.16025014832E+03  0.48061588011E+03  0.10566000000E+00 0.  1.
         13    1    1    2    0    0  0.26462032146E+03 -0.10369350941E+02  0.12086602252E+04  0.12373322064E+04  0.10566000000E+00 0. -1.
          4    1    1    2  501    0 -0.29168476997E+03 -0.44193477091E+03  0.64909255427E+03  0.83767982594E+03  0.00000000000E+00 0.  1.
</event>
<event>
 5    1  0.7625606E-005  0.7816020E+02  0.7818608E-02  0.1206811E+00
         21   -1    0    0  501  502  0.00000000000E+00  0.00000000000E+00  0.37228883300E+02  0.37228883300E+02  0.00000000000E+00 0.  1.
         -4   -1    0    0    0  501 -0.00000000000E+00 -0.00000000000E+00 -0.38066740154E+03  0.38066740154E+03  0.00000000000E+00 0. -1.
        -13    1    1    2    0    0  0.56584670374E+02  0.70326007370E+02 -0.64331933223E+02  0.11084304683E+03  0.10566000000E+00 0.  1.
         13    1    1    2    0    0 -0.45288368265E+02 -0.60506824630E+02 -0.28187539031E+03  0.29183190188E+03  0.10566000000E+00 0. -1.
         -4    1    1    2    0  502 -0.11296302109E+02 -0.98191827394E+01  0.27688052919E+01  0.15221336136E+02  0.00000000000E+00 0. -1.
</event>
<event>
 5    1  0.7625606E-005  0.3753234E+03  0.7818608E-02  0.9803149E-01
         21   -1    0    0  501  502  0.00000000000E+00  0.00000000000E+00  0.33500155542E+03  0.33500155542E+03  0.00000000000E+00 0.  1.
          4   -1    0    0  502    0 -0.00000000000E+00 -0.00000000000E+00 -0.21143652589E+04  0.21143652589E+04  0.00000000000E+00 0.  1.
        -13    1    1    2    0    0 -0.31481539192E+03  0.22298378370E+03 -0.14851217383E+04  0.15344109904E+04  0.10566000000E+00 0.  1.
         13    1    1    2    0    0  0.44407216013E+03  0.11528283530E+03 -0.30797464425E+03  0.55257452727E+03  0.10566000000E+00 0. -1.
          4    1    1    2  501    0 -0.12925676822E+03 -0.33826661900E+03  0.13732679095E+02  0.36238129661E+03  0.00000000000E+00 0.  1.
</event>
<event>
 5    1  0.7625606E-005  0.2984030E+03  0.7818608E-02  0.1056647E+00
         21   -1    0    0  501  502  0.00000000000E+00  0.00000000000E+00  0.56236092489E+03  0.56236092489E+03  0.00000000000E+00 0.  1.
          4   -1    0    0  502    0 -0.00000000000E+00 -0.00000000000E+00 -0.54852574647E+03  0.54852574647E+03  0.00000000000E+00 0.  1.
        -13    1    1    2    0    0  0.32481738939E+03  0.60873635028E+02 -0.31210942912E+03  0.45455939414E+03  0.10566000000E+00 0.  1.
         13    1    1    2    0    0 -0.29632943429E+02 -0.59744255253E+02 -0.11071766920E+03  0.12925130873E+03  0.10566000000E+00 0. -1.
          4    1    1    2  501    0 -0.29518444596E+03 -0.11293797746E+01  0.43666227673E+03  0.52707596849E+03  0.00000000000E+00 0.  1.
</event>
<event>
 5    1  0.7625606E-005  0.4449393E+03  0.7818608E-02  0.9607578E-01
         21   -1    0    0  501  502  0.00000000000E+00  0.00000000000E+00  0.18378665060E+03  0.18378665060E+03  0.00000000000E+00 0.  1.
         -4   -1    0    0    0  501 -0.00000000000E+00 -0.00000000000E+00 -0.23152204979E+04  0.23152204979E+04  0.00000000000E+00 0. -1.
        -13    1    1    2    0    0 -0.72311279817E+02  0.44190701276E+03 -0.44436961843E+03  0.63085267540E+03  0.10566000000E+00 0.  1.
         13    1    1    2    0    0  0.19074528807E+03 -0.40553378190E+03 -0.16856981542E+04  0.17442533335E+04  0.10566000000E+00 0. -1.
         -4    1    1    2    0  502 -0.11843400825E+03 -0.36373230855E+02 -0.13660746648E+01  0.12390113959E+03  0.00000000000E+00 0. -1.
</event>
<event>
 5    1  0.7625606E-005  0.4935880E+03  0.7818608E-02  0.9682456E-01
         -4   -1    0    0    0  501 -0.00000000000E+00  0.00000000000E+00  0.17682972976E+04  0.17682972976E+04  0.00000000000E+00 0. -1.
         21   -1    0    0  501  502  0.00000000000E+00 -0.00000000000E+00 -0.40959258229E+03  0.40959258229E+03  0.00000000000E+00 0. -1.
        -13    1    1    2    0    0  0.24931588049E+03  0.22630267553E+02  0.10743490945E+04  0.11031303301E+04  0.10566000000E+00 0.  1.
         13    1    1    2    0    0  0.13060767179E+03 -0.42056509183E+03  0.28505032643E+03  0.52458274863E+03  0.10566000000E+00 0. -1.
         -4    1    1    2    0  502 -0.37992355228E+03  0.39793482427E+03 -0.69470553490E+00  0.55017680119E+03  0.00000000000E+00 0. -1.
</event>
<event>
 5    1  0.7625606E-005  0.1227095E+03  0.7818608E-02  0.1131646E+00
          4   -1    0    0  502    0 -0.00000000000E+00  0.00000000000E+00  0.23332635313E+02  0.23332635313E+02  0.00000000000E+00 0.  1.
         21   -1    0    0  501  502  0.00000000000E+00 -0.00000000000E+00 -0.11095786372E+04  0.11095786372E+04  0.00000000000E+00 0. -1.
        -13    1    1    2    0    0 -0.56651193594E+02  0.10253332663E+03 -0.28321354298E+03  0.30648387054E+03  0.10566000000E+00 0.  1.
         13    1    1    2    0    0  0.61060621039E+02 -0.11424272053E+03 -0.34967514791E+03  0.37289746428E+03  0.10566000000E+00 0. -1.
          4    1    1    2  501    0 -0.44094274447E+01  0.11709393894E+02 -0.45335731102E+03  0.45352993772E+03  0.00000000000E+00 0.  1.
</event>
<event>
 5    1  0.7625606E-005  0.4877982E+03  0.7818608E-02  0.9505124E-01
          4   -1    0    0  502    0 -0.00000000000E+00  0.00000000000E+00  0.28917061534E+04  0.28917061534E+04  0.00000000000E+00 0.  1.
         21   -1    0    0  501  502  0.00000000000E+00 -0.00000000000E+00 -0.83238686782E+03  0.83238686782E+03  0.00000000000E+00 0.  1.
        -13    1    1    2    0    0 -0.29189502005E+03 -0.59512496064E+03 -0.42074266931E+03  0.78511198338E+03  0.10566000000E+00 0.  1.
         13    1    1    2    0    0 -0.94777339197E+02  0.47670404068E+03  0.24874744791E+04  0.25345135198E+04  0.10566000000E+00 0. -1.
          4    1    1    2  501    0  0.38667235925E+03  0.11842091996E+03 -0.74125241923E+01  0.40446751811E+03  0.00000000000E+00 0.  1.
</event>
<event>
 5    1  0.7625606E-005  0.4495302E+03  0.7818608E-02  0.9787360E-01
         21   -1    0    0  501  502  0.00000000000E+00  0.00000000000E+00  0.31444777674E+03  0.31444777674E+03  0.00000000000E+00 0.  1.
          4   -1    0    0  502    0 -0.00000000000E+00 -0.00000000000E+00 -0.15158148223E+04  0.15158148223E+04  0.00000000000E+00 0.  1.
        -13    1    1    2    0    0  0.19085986614E+03  0.47965493578E+03 -0.40868093242E+03  0.65841966982E+03  0.10566000000E+00 0.  1.
         13    1    1    2    0    0 -0.22538867379E+03 -0.48541831448E+02 -0.68975744162E+03  0.72727003452E+03  0.10566000000E+00 0. -1.
          4    1    1    2  501    0  0.34528807650E+02 -0.43111310433E+03 -0.10292867152E+03  0.44457289471E+03  0.00000000000E+00 0.  1.
</event>
<event>
 5    1  0.7625606E-005  0.4658593E+03  0.7818608E-02  0.9637072E-01
          4   -1    0    0  502    0 -0.00000000000E+00  0.00000000000E+00  0.12832794759E+04  0.12832794759E+04  0.00000000000E+00 0.  1.
         21   -1    0    0  501  502  0.00000000000E+00 -0.00000000000E+00 -0.38328011344E+03  0.38328011344E+03  0.00000000000E+00 0.  1.
        -13    1    1    2    0    0  0.26039474920E+03  0.29944673190E+02  0.61541720904E+03  0.66890990515E+03  0.10566000000E+00 0.  1.
         13    1    1    2    0    0  0.28774076820E+03 -0.19787518562E+03  0.23773925461E+03  0.42245627361E+03  0.10566000000E+00 0. -1.
          4    1    1    2  501    0 -0.54813551740E+03  0.16793051243E+03  0.46842898846E+02  0.57519341061E+03  0.00000000000E+00 0.  1.
</event>
<event>
 5    1  0.7625606E-005  0.4941115E+03  0.7818608E-02  0.9601195E-01
         21   -1    0    0  501  502  0.00000000000E+00  0.00000000000E+00  0.31441195825E+03  0.31441195825E+03  0.00000000000E+00 0. -1.
         -4   -1    0    0    0  501 -0.00000000000E+00 -0.00000000000E+00 -0.16444766744E+04  0.16444766744E+04  0.00000000000E+00 0. -1.
        -13    1    1    2    0    0 -0.37550336345E+02 -0.33020996636E+03 -0.49523332315E+03  0.59640984664E+03  0.10566000000E+00 0.  1.
         13    1    1    2    0    0 -0.42520787332E+03  0.41492301288E+03 -0.56639992850E+03  0.82083599600E+03  0.10566000000E+00 0. -1.
         -4    1    1    2    0  502  0.46275820966E+03 -0.84713046523E+02 -0.26843146454E+03  0.54164279006E+03  0.00000000000E+00 0. -1.
</event>
<event>
 5    1  0.7625606E-005  0.6945815E+02  0.7818608E-02  0.1233254E+00
          4   -1    0    0  502    0 -0.00000000000E+00  0.00000000000E+00  0.31602507008E+03  0.31602507008E+03  0.00000000000E+00 0.  1.
         21   -1    0    0  501  502  0.00000000000E+00 -0.00000000000E+00 -0.11479033545E+03  0.11479033545E+03  0.00000000000E+00 0. -1.
        -13    1    1    2    0    0 -0.12170739433E+02  0.11318716924E+03  0.25928997466E+03  0.28317973851E+03  0.10566000000E+00 0.  1.
         13    1    1    2    0    0 -0.22967443661E+02 -0.57809886593E+02 -0.53234178398E+02  0.81874143476E+02  0.10566000000E+00 0. -1.
          4    1    1    2  501    0  0.35138183094E+02 -0.55377282643E+02 -0.48210616295E+01  0.65761523548E+02  0.00000000000E+00 0.  1.
</event>
<event>
 5    1  0.7625606E-005  0.1078967E+03  0.7818608E-02  0.1155506E+00
         -4   -1    0    0    0  501 -0.00000000000E+00  0.00000000000E+00  0.91913396284E+02  0.91913396284E+02  0.00000000000E+00 0. -1.
         21   -1    0    0  501  502  0.00000000000E+00 -0.00000000000E+00 -0.14297584384E+04  0.14297584384E+04  0.00000000000E+00 0. -1.
        -13    1    1    2    0    0 -0.97791916442E+02  0.16935879955E+02 -0.19656788543E+03  0.22020224272E+03  0.10566000000E+00 0.  1.
         13    1    1    2    0    0  0.20235941088E+03 -0.90976406874E+01 -0.54666133393E+02  0.20981061828E+03  0.10566000000E+00 0. -1.
         -4    1    1    2    0  502 -0.10456749444E+03 -0.78382392676E+01 -0.10866110233E+04  0.10916589737E+04  0.00000000000E+00 0. -1.
</event>
<event>
 5    1  0.7625606E-005  0.4000183E+03  0.7818608E-02  0.9728993E-01
         21   -1    0    0  501  502  0.00000000000E+00  0.00000000000E+00  0.23845274240E+03  0.23845274240E+03  0.00000000000E+00 0. -1.
         -4   -1    0    0    0  501 -0.00000000000E+00 -0.00000000000E+00 -0.23874778756E+04  0.23874778756E+04  0.00000000000E+00 0. -1.
        -13    1    1    2    0    0 -0.31096640137E+03  0.15509742934E+03 -0.97495078600E+03  0.10350286767E+04  0.10566000000E+00 0.  1.
         13    1    1    2    0    0  0.59746810201E+03 -0.34136950018E+03 -0.55608576549E+03  0.88472179713E+03  0.10566000000E+00 0. -1.
         -4    1    1    2    0  502 -0.28650170064E+03  0.18627207084E+03 -0.61798858174E+03  0.70618014416E+03  0.00000000000E+00 0. -1.
</event>
<event>
 5    1  0.7625606E-005  0.1234638E+03  0.7818608E-02  0.1130689E+00
          4   -1    0    0  502    0 -0.00000000000E+00  0.00000000000E+00  0.48436062064E+02  0.48436062064E+02  0.00000000000E+00 0.  1.
         21   -1    0    0  501  502  0.00000000000E+00 -0.00000000000E+00 -0.86161209624E+03  0.86161209624E+03  0.00000000000E+00 0.  1.
        -13    1    1    2    0    0 -0.25840543195E+02  0.11590866201E+03 -0.15068951680E+03  0.19185904524E+03  0.10566000000E+00 0.  1.
         13    1    1    2    0    0  0.15865885576E+02 -0.12677329385E+03 -0.11929836434E+03  0.17480075874E+03  0.10566000000E+00 0. -1.
          4    1    1    2  501    0  0.99746576188E+01  0.10864631841E+02 -0.54318815304E+03  0.54338835433E+03  0.00000000000E+00 0.  1.
</event>
<event>
 5    1  0.7625606E-005  0.5001205E+03  0.7818608E-02  0.9670298E-01
         21   -1    0    0  501  502  0.00000000000E+00  0.00000000000E+00  0.60396411082E+03  0.60396411082E+03  0.00000000000E+00 0.  1.
          4   -1    0    0  502    0 -0.00000000000E+00 -0.00000000000E+00 -0.12081824620E+04  0.12081824620E+04  0.00000000000E+00 0.  1.
        -13    1    1    2    0    0  0.44863953589E+03  0.21983416220E+03  0.16221562927E+03  0.52527936718E+03  0.10566000000E+00 0.  1.
         13    1    1    2    0    0 -0.12998412090E+03  0.21486199319E+03 -0.70015247959E+03  0.74382461216E+03  0.10566000000E+00 0. -1.
          4    1    1    2  501    0 -0.31865541499E+03 -0.43469615539E+03 -0.66281500887E+02  0.54304259352E+03  0.00000000000E+00 0.  1.
</event>
<event>
 5    1  0.7625606E-005  0.2069154E+03  0.7818608E-02  0.1055496E+00
         21   -1    0    0  501  502  0.00000000000E+00  0.00000000000E+00  0.27800510616E+03  0.27800510616E+03  0.00000000000E+00 0. -1.
          4   -1    0    0  502    0 -0.00000000000E+00 -0.00000000000E+00 -0.29015291310E+03  0.29015291310E+03  0.00000000000E+00 0.  1.
        -13    1    1    2    0    0  0.18122678761E+03 -0.53251907368E+02 -0.10926347568E+03  0.21821418943E+03  0.10566000000E+00 0.  1.
         13    1    1    2    0    0 -0.24891320881E+03  0.58681205983E+02  0.35382435797E+02  0.25817280528E+03  0.10566000000E+00 0. -1.
          4    1    1    2  501    0  0.67686421203E+02 -0.54292986149E+01  0.61733232948E+02  0.91771024561E+02  0.00000000000E+00 0.  1.
</event>
<event>
 5    1  0.7625606E-005  0.5402617E+03  0.7818608E-02  0.9393839E-01
          4   -1    0    0  502    0 -0.00000000000E+00  0.00000000000E+00  0.21919308441E+04  0.21919308441E+04  0.00000000000E+00 0.  1.
         21   -1    0    0  501  502  0.00000000000E+00 -0.00000000000E+00 -0.37983689678E+03  0.37983689678E+03  0.00000000000E+00 0.  1.
        -13    1    1    2    0    0  0.62096050752E+03 -0.20603248417E+03  0.60590176868E+03  0.89171649131E+03  0.10566000000E+00 0.  1.
         13    1    1    2    0    0 -0.50827058440E+03 -0.12649078568E+03  0.12210406274E+04  0.13286380736E+04  0.10566000000E+00 0. -1.
          4    1    1    2  501    0 -0.11268992312E+03  0.33252326984E+03 -0.14848448785E+02  0.35141317589E+03  0.00000000000E+00 0.  1.
</event>
<event>
 5    1  0.7625606E-005  0.9345192E+02  0.7818608E-02  0.1175869E+00
          4   -1    0    0  502    0 -0.00000000000E+00  0.00000000000E+00  0.26317051417E+03  0.26317051417E+03  0.00000000000E+00 0.  1.
         21   -1    0    0  501  502  0.00000000000E+00 -0.00000000000E+00 -0.67490328121E+02  0.67490328121E+02  0.00000000000E+00 0.  1.
        -13    1    1    2    0    0 -0.89166256218E+02 -0.16744558294E+02  0.83791798321E+02  0.12349930409E+03  0.10566000000E+00 0.  1.
         13    1    1    2    0    0  0.95602175761E+02  0.55239459238E+01  0.14377728038E+03  0.17274897252E+03  0.10566000000E+00 0. -1.
          4    1    1    2  501    0 -0.64359195432E+01  0.11220612370E+02 -0.31888892653E+02  0.34412565684E+02  0.00000000000E+00 0.  1.
</event>
<event>
 5    1  0.7625606E-005  0.7334071E+03  0.7818608E-02  0.9075876E-01
         -4   -1    0    0    0  501 -0.00000000000E+00  0.00000000000E+00  0.25175958735E+04  0.25175958735E+04  0.00000000000E+00 0. -1.
         21   -1    0    0  501  502  0.00000000000E+00 -0.00000000000E+00 -0.10030266737E+04  0.10030266737E+04  0.00000000000E+00 0. -1.
        -13    1    1    2    0    0  0.37947269423E+03 -0.10711888988E+04  0.15765066456E+04  0.19434038173E+04  0.10566000000E+00 0.  1.
         13    1    1    2    0    0  0.42113087144E+02  0.51080744115E+03  0.47126864292E+03  0.69626999003E+03  0.10566000000E+00 0. -1.
         -4    1    1    2    0  502 -0.42158578137E+03  0.56038145765E+03 -0.53320608866E+03  0.88094873978E+03  0.00000000000E+00 0. -1.
</event>
<event>
 5    1  0.7625606E-005  0.1737758E+03  0.7818608E-02  0.1079770E+00
         -4   -1    0    0    0  501 -0.00000000000E+00  0.00000000000E+00  0.49358559048E+03  0.49358559048E+03  0.00000000000E+00 0. -1.
         21   -1    0    0  501  502  0.00000000000E+00 -0.00000000000E+00 -0.22120596794E+03  0.22120596794E+03  0.00000000000E+00 0.  1.
        -13    1    1    2    0    0 -0.15851512641E+03 -0.74223408977E+02  0.40513252758E+03  0.44132588391E+03  0.10566000000E+00 0.  1.
         13    1    1    2    0    0  0.13022144534E+03  0.11111762862E+03 -0.49650768954E+02  0.17824130340E+03  0.10566000000E+00 0. -1.
         -4    1    1    2    0  502  0.28293681070E+02 -0.36894219645E+02 -0.83102136089E+02  0.95224371115E+02  0.00000000000E+00 0. -1.
</event>
<event>
 5    1  0.7625606E-005  0.1851845E+04  0.7818608E-02  0.8231534E-01
         -4   -1    0    0    0  501 -0.00000000000E+00  0.00000000000E+00  0.25379001633E+04  0.25379001633E+04  0.00000000000E+00 0. -1.
         21   -1    0    0  501  502  0.00000000000E+00 -0.00000000000E+00 -0.20772309640E+04  0.20772309640E+04  0.00000000000E+00 0.  1.
        -13    1    1    2    0    0  0.10452468052E+04  0.16498009578E+04 -0.21350777885E+02  0.19531615271E+04  0.10566000000E+00 0.  1.
         13    1    1    2    0    0 -0.63763828140E+03 -0.16938183654E+04  0.94651464210E+03  0.20424233674E+04  0.10566000000E+00 0. -1.
         -4    1    1    2    0  502 -0.40760852385E+03  0.44017407616E+02 -0.46449466483E+03  0.61954623277E+03  0.00000000000E+00 0. -1.
</event>
<event>
 5    1  0.7625606E-005  0.8070723E+02  0.7818608E-02  0.1201140E+00
         21   -1    0    0  501  502  0.00000000000E+00  0.00000000000E+00  0.70972872103E+02  0.70972872103E+02  0.00000000000E+00 0. -1.
          4   -1    0    0  502    0 -0.00000000000E+00 -0.00000000000E+00 -0.20911746875E+03  0.20911746875E+03  0.00000000000E+00 0.  1.
        -13    1    1    2    0    0 -0.63541459020E+02  0.35032828714E+02 -0.83868757252E+02  0.11089993557E+03  0.10566000000E+00 0.  1.
         13    1    1    2    0    0  0.92492390717E+02 -0.23680725195E+02 -0.83260126434E+02  0.12668022302E+03  0.10566000000E+00 0. -1.
          4    1    1    2  501    0 -0.28950931697E+02 -0.11352103519E+02  0.28984287044E+02  0.42510182261E+02  0.00000000000E+00 0.  1.
</event>
<event>
 5    1  0.7625606E-005  0.4638684E+02  0.7818608E-02  0.1307242E+00
         21   -1    0    0  501  502  0.00000000000E+00  0.00000000000E+00  0.14024878529E+02  0.14024878529E+02  0.00000000000E+00 0. -1.
         -4   -1    0    0    0  501 -0.00000000000E+00 -0.00000000000E+00 -0.35582161573E+03  0.35582161573E+03  0.00000000000E+00 0. -1.
        -13    1    1    2    0    0  0.25874092801E+02 -0.54145922469E+02 -0.15792715937E+03  0.16894451287E+03  0.10566000000E+00 0.  1.
         13    1    1    2    0    0 -0.17187952115E+02  0.36813059176E+02 -0.17486979161E+03  0.17952738567E+03  0.10566000000E+00 0. -1.
         -4    1    1    2    0  502 -0.86861406858E+01  0.17332863293E+02 -0.89997862130E+01  0.21374595712E+02  0.00000000000E+00 0. -1.
</event>
<event>
 5    1  0.7625606E-005  0.6968084E+03  0.7818608E-02  0.9127621E-01
          4   -1    0    0  502    0 -0.00000000000E+00  0.00000000000E+00  0.25673672183E+04  0.25673672183E+04  0.00000000000E+00 0.  1.
         21   -1    0    0  501  502  0.00000000000E+00 -0.00000000000E+00 -0.35717288260E+03  0.35717288260E+03  0.00000000000E+00 0. -1.
        -13    1    1    2    0    0 -0.67910502487E+03 -0.28539723953E+03  0.20180099074E+04  0.21482549236E+04  0.10566000000E+00 0.  1.
         13    1    1    2    0    0  0.49001973781E+03  0.26984529498E+03  0.11302995288E+03  0.57071149286E+03  0.10566000000E+00 0. -1.
          4    1    1    2  501    0  0.18908528706E+03  0.15551944551E+02  0.79154475402E+02  0.20557368445E+03  0.00000000000E+00 0.  1.
</event>
<event>
 5    1  0.7625606E-005  0.4894267E+03  0.7818608E-02  0.9574887E-01
         21   -1    0    0  501  502  0.00000000000E+00  0.00000000000E+00  0.10113308380E+04  0.10113308380E+04  0.00000000000E+00 0.  1.
          4   -1    0    0  502    0 -0.00000000000E+00 -0.00000000000E+00 -0.81313291358E+03  0.81313291358E+03  0.00000000000E+00 0.  1.
        -13    1    1    2    0    0  0.84575221567E+02  0.28376254407E+03  0.12983321887E+03  0.32331227228E+03  0.10566000000E+00 0.  1.
         13    1    1    2    0    0  0.21417021753E+02  0.55826660731E+03 -0.22631112923E+03  0.60277444540E+03  0.10566000000E+00 0. -1.
          4    1    1    2  501    0 -0.10599224332E+03 -0.84202915138E+03  0.29467583477E+03  0.89837703389E+03  0.00000000000E+00 0.  1.
</event>
<event>
 5    1  0.7625606E-005  0.4081957E+03  0.7818608E-02  0.1015907E+00
         21   -1    0    0  501  502  0.00000000000E+00  0.00000000000E+00  0.32749887690E+03  0.32749887690E+03  0.00000000000E+00 0. -1.
         -4   -1    0    0    0  501 -0.00000000000E+00 -0.00000000000E+00 -0.73643581240E+03  0.73643581240E+03  0.00000000000E+00 0. -1.
        -13    1    1    2    0    0 -0.88903684107E+02 -0.16420954693E+02 -0.12959455522E+03  0.15801352065E+03  0.10566000000E+00 0.  1.
         13    1    1    2    0    0  0.40506205639E+03 -0.15752543760E+03  0.22897503945E+02  0.43521700319E+03  0.10566000000E+00 0. -1.
         -4    1    1    2    0  502 -0.31615837228E+03  0.17394639229E+03 -0.30223988423E+03  0.47070416545E+03  0.00000000000E+00 0. -1.
</event>
<event>
 5    1  0.7625606E-005  0.2759200E+03  0.7818608E-02  0.1053023E+00
          4   -1    0    0  502    0 -0.00000000000E+00  0.00000000000E+00  0.65421823582E+03  0.65421823582E+03  0.00000000000E+00 0.  1.
         21   -1    0    0  501  502  0.00000000000E+00 -0.00000000000E+00 -0.26181247235E+03  0.26181247235E+03  0.00000000000E+00 0.  1.
        -13    1    1    2    0    0  0.31540135200E+03 -0.13362831069E+03  0.40024211157E+03  0.52680954557E+03  0.10566000000E+00 0.  1.
         13    1    1    2    0    0 -0.60239038388E+02  0.71986299184E+02  0.68087009185E+02  0.11595956623E+03  0.10566000000E+00 0. -1.
          4    1    1    2  501    0 -0.25516231362E+03  0.61642011504E+02 -0.75923357276E+02  0.27326159637E+03  0.00000000000E+00 0.  1.
</event>
<event>
 5    1  0.7625606E-005  0.2147820E+03  0.7818608E-02  0.1050449E+00
         21   -1    0    0  501  502  0.00000000000E+00  0.00000000000E+00  0.46902397336E+02  0.46902397336E+02  0.00000000000E+00 0.  1.
         -4   -1    0    0    0  501 -0.00000000000E+00 -0.00000000000E+00 -0.15773097031E+04  0.15773097031E+04  0.00000000000E+00 0. -1.
        -13    1    1    2    0    0 -0.17043855753E+03  0.10945695684E+03 -0.29269225069E+03  0.35594787831E+03  0.10566000000E+00 0.  1.
         13    1    1    2    0    0  0.18800352157E+03 -0.11141346798E+03 -0.12295068289E+04  0.12487775376E+04  0.10566000000E+00 0. -1.
         -4    1    1    2    0  502 -0.17564964037E+02  0.19565111390E+01 -0.82082262241E+01  0.19486684562E+02  0.00000000000E+00 0. -1.
</event>
<event>
 5    1  0.7625606E-005  0.1085131E+03  0.7818608E-02  0.1151190E+00
          4   -1    0    0  502    0 -0.00000000000E+00  0.00000000000E+00  0.61400242384E+03  0.61400242384E+03  0.00000000000E+00 0.  1.
         21   -1    0    0  501  502  0.00000000000E+00 -0.00000000000E+00 -0.63372943370E+02  0.63372943370E+02  0.00000000000E+00 0.  1.
        -13    1    1    2    0    0  0.10865943789E+03 -0.22428482557E+02  0.26423021095E+03  0.28657900449E+03  0.10566000000E+00 0.  1.
         13    1    1    2    0    0 -0.10623536127E+03  0.11695647524E+02  0.32945481507E+03  0.34635707946E+03  0.10566000000E+00 0. -1.
          4    1    1    2  501    0 -0.24240766115E+01  0.10732835033E+02 -0.43055545543E+02  0.44439283267E+02  0.00000000000E+00 0.  1.
</event>
<event>
 5    1  0.7625606E-005  0.4317811E+03  0.7818608E-02  0.9878498E-01
         21   -1    0    0  501  502  0.00000000000E+00  0.00000000000E+00  0.44657013630E+03  0.44657013630E+03  0.00000000000E+00 0.  1.
          4   -1    0    0  502    0 -0.00000000000E+00 -0.00000000000E+00 -0.16519788804E+04  0.16519788804E+04  0.00000000000E+00 0.  1.
        -13    1    1    2    0    0  0.26431188317E+03  0.36316734761E+03 -0.33056767093E+03  0.55769731054E+03  0.10566000000E+00 0.  1.
         13    1    1    2    0    0 -0.17962531121E+03  0.64924406502E+02 -0.10524971115E+04  0.10696871560E+04  0.10566000000E+00 0. -1.
          4    1    1    2  501    0 -0.84686571965E+02 -0.42809175411E+03  0.17765603825E+03  0.47116455017E+03  0.00000000000E+00 0.  1.
</event>
<event>
 5    1  0.7625606E-005  0.5970570E+02  0.7818608E-02  0.1256648E+00
          4   -1    0    0  502    0 -0.00000000000E+00  0.00000000000E+00  0.24753332014E+03  0.24753332014E+03  0.00000000000E+00 0.  1.
         21   -1    0    0  501  502  0.00000000000E+00 -0.00000000000E+00 -0.54434261818E+02  0.54434261818E+02  0.00000000000E+00 0.  1.
        -13    1    1    2    0    0 -0.20722944830E+02  0.59602494647E+02  0.17435149896E+03  0.18541940072E+03  0.10566000000E+00 0.  1.
         13    1    1    2    0    0  0.23959419281E+02 -0.47774369685E+02  0.55951173769E+02  0.77375636871E+02  0.10566000000E+00 0. -1.
          4    1    1    2  501    0 -0.32364744516E+01 -0.11828124962E+02 -0.37203614407E+02  0.39172544364E+02  0.00000000000E+00 0.  1.
</event>
<event>
 5    1  0.1536164E-004  0.4761745E+03  0.7818608E-02  0.9738484E-01
         21   -1    0    0  501  502  0.00000000000E+00  0.00000000000E+00  0.35268897268E+03  0.35268897268E+03  0.00000000000E+00 0.  1.
          4   -1    0    0  502    0 -0.00000000000E+00 -0.00000000000E+00 -0.13255846197E+04  0.13255846197E+04  0.00000000000E+00 0.  1.
        -13    1    1    2    0    0  0.29045138265E+03  0.19693440645E+03 -0.46223946838E+03  0.58035377436E+03  0.10566000000E+00 0.  1.
         13    1    1    2    0    0  0.66182609623E+02  0.21973865293E+03 -0.49911069917E+03  0.54934207430E+03  0.10566000000E+00 0. -1.
          4    1    1    2  501    0 -0.35663399227E+03 -0.41667305937E+03 -0.11545479522E+02  0.54857774376E+03  0.00000000000E+00 0.  1.
</event>
<event>
 5    1  0.7625606E-005  0.3908163E+03  0.7818608E-02  0.9984836E-01
         21   -1    0    0  501  502  0.00000000000E+00  0.00000000000E+00  0.40762085955E+03  0.40762085955E+03  0.00000000000E+00 0.  1.
          4   -1    0    0  502    0 -0.00000000000E+00 -0.00000000000E+00 -0.87548624543E+03  0.87548624543E+03  0.00000000000E+00 0.  1.
        -13    1    1    2    0    0  0.11987324067E+03  0.21532403899E+03 -0.54954477324E+03  0.60227361270E+03  0.10566000000E+00 0.  1.
         13    1    1    2    0    0  0.11772453682E+03  0.13733306041E+03 -0.11287142579E+03  0.21321211498E+03  0.10566000000E+00 0. -1.
          4    1    1    2  501    0 -0.23759777748E+03 -0.35265709940E+03  0.19455081315E+03  0.46762137731E+03  0.00000000000E+00 0.  1.
</event>
<event>
 5    1  0.7625606E-005  0.9273213E+02  0.7818608E-02  0.1177175E+00
         21   -1    0    0  501  502  0.00000000000E+00  0.00000000000E+00  0.52540790985E+02  0.52540790985E+02  0.00000000000E+00 0.  1.
         -4   -1    0    0    0  501 -0.00000000000E+00 -0.00000000000E+00 -0.23273185020E+03  0.23273185020E+03  0.00000000000E+00 0. -1.
        -13    1    1    2    0    0  0.40749374667E+02 -0.73320270598E+02 -0.19652875516E+02  0.86154630151E+02  0.10566000000E+00 0.  1.
         13    1    1    2    0    0 -0.35343068821E+02  0.90061989697E+02 -0.15034748158E+03  0.17878666304E+03  0.10566000000E+00 0. -1.
         -4    1    1    2    0  502 -0.54063058461E+01 -0.16741719099E+02 -0.10190702118E+02  0.20331347987E+02  0.00000000000E+00 0. -1.
</event>
<event>
 5    1  0.7625606E-005  0.1613096E+03  0.7818608E-02  0.1090464E+00
         21   -1    0    0  501  502  0.00000000000E+00  0.00000000000E+00  0.30266371112E+02  0.30266371112E+02  0.00000000000E+00 0. -1.
         -4   -1    0    0    0  501 -0.00000000000E+00 -0.00000000000E+00 -0.11920804981E+04  0.11920804981E+04  0.00000000000E+00 0. -1.
        -13    1    1    2    0    0  0.62255299379E+01 -0.15178325016E+03 -0.61501145172E+03  0.63349507430E+03  0.10566000000E+00 0.  1.
         13    1    1    2    0    0  0.13644963250E+02  0.17666584646E+03 -0.51143980008E+03  0.54126489503E+03  0.10566000000E+00 0. -1.
         -4    1    1    2    0  502 -0.19870493188E+02 -0.24882596299E+02 -0.35362875183E+02  0.47586899871E+02  0.00000000000E+00 0. -1.
</event>
<event>
 5    1  0.7625606E-005  0.6613914E+03  0.7818608E-02  0.9180949E-01
         21   -1    0    0  501  502  0.00000000000E+00  0.00000000000E+00  0.57427715859E+03  0.57427715859E+03  0.00000000000E+00 0.  1.
          4   -1    0    0  502    0 -0.00000000000E+00 -0.00000000000E+00 -0.13273257910E+04  0.13273257910E+04  0.00000000000E+00 0.  1.
        -13    1    1    2    0    0 -0.63133596491E+03  0.44593208412E+03 -0.58314528472E+03  0.96824529872E+03  0.10566000000E+00 0.  1.
         13    1    1    2    0    0  0.35542123179E+03 -0.44701353196E+03 -0.28030500807E+03  0.63617313561E+03  0.10566000000E+00 0. -1.
          4    1    1    2  501    0  0.27591473312E+03  0.10814478411E+01  0.11040166039E+03  0.29718451524E+03  0.00000000000E+00 0.  1.
</event>
<event>
 5    1  0.7625606E-005  0.6573133E+03  0.7818608E-02  0.9223365E-01
         21   -1    0    0  501  502  0.00000000000E+00  0.00000000000E+00  0.70864375611E+03  0.70864375611E+03  0.00000000000E+00 0. -1.
          4   -1    0    0  502    0 -0.00000000000E+00 -0.00000000000E+00 -0.18010756774E+04  0.18010756774E+04  0.00000000000E+00 0.  1.
        -13    1    1    2    0    0  0.50772053685E+03  0.18361775088E+03 -0.73421407050E+03  0.91135390188E+03  0.10566000000E+00 0.  1.
         13    1    1    2    0    0 -0.79408705626E+03  0.40803674421E+03 -0.28403180034E+03  0.93687902758E+03  0.10566000000E+00 0. -1.
          4    1    1    2  501    0  0.28636651941E+03 -0.59165449509E+03 -0.74186050488E+02  0.66148650409E+03  0.00000000000E+00 0.  1.
</event>
<event>
 5    1  0.7625606E-005  0.2670016E+02  0.7818608E-02  0.1437800E+00
         -4   -1    0    0    0  501 -0.00000000000E+00  0.00000000000E+00  0.77175278606E+02  0.77175278606E+02  0.00000000000E+00 0. -1.
         21   -1    0    0  501  502  0.00000000000E+00 -0.00000000000E+00 -0.51559031594E+02  0.51559031594E+02  0.00000000000E+00 0.  1.
        -13    1    1    2    0    0 -0.22735565791E+02  0.10280981593E+02  0.37699622877E+02  0.45209260815E+02  0.10566000000E+00 0.  1.
         13    1    1    2    0    0  0.19090785480E+02 -0.35612626961E+02  0.17822864515E+02  0.44163140206E+02  0.10566000000E+00 0. -1.
         -4    1    1    2    0  502  0.36447803108E+01  0.25331645367E+02 -0.29906240380E+02  0.39361909179E+02  0.00000000000E+00 0. -1.
</event>
<event>
 5    1  0.7625606E-005  0.3386171E+03  0.7818608E-02  0.1000114E+00
         21   -1    0    0  501  502  0.00000000000E+00  0.00000000000E+00  0.25264652507E+03  0.25264652507E+03  0.00000000000E+00 0.  1.
          4   -1    0    0  502    0 -0.00000000000E+00 -0.00000000000E+00 -0.19919376752E+04  0.19919376752E+04  0.00000000000E+00 0.  1.
        -13    1    1    2    0    0  0.56499077784E+03  0.40093107708E+02 -0.92407525796E+03  0.10838529097E+04  0.10566000000E+00 0.  1.
         13    1    1    2    0    0 -0.26360539575E+03  0.13212848904E+01 -0.81493929800E+03  0.85651364324E+03  0.10566000000E+00 0. -1.
          4    1    1    2  501    0 -0.30138538209E+03 -0.41414392599E+02 -0.27659417302E+00  0.30421764734E+03  0.00000000000E+00 0.  1.
</event>
<event>
 5    1  0.7625606E-005  0.4510961E+03  0.7818608E-02  0.9916202E-01
          4   -1    0    0  502    0 -0.00000000000E+00  0.00000000000E+00  0.85564108491E+03  0.85564108491E+03  0.00000000000E+00 0.  1.
         21   -1    0    0  501  502  0.00000000000E+00 -0.00000000000E+00 -0.42580732947E+03  0.42580732947E+03  0.00000000000E+00 0.  1.
        -13    1    1    2    0    0  0.37815337618E+03 -0.12978773353E+02  0.50382666864E+03  0.63008709531E+03  0.10566000000E+00 0.  1.
         13    1    1    2    0    0  0.89809388764E+02 -0.11718324052E+03 -0.75076493751E+02  0.16563251265E+03  0.10566000000E+00 0. -1.
          4    1    1    2  501    0 -0.46796276495E+03  0.13016201387E+03  0.10835805440E+01  0.48572880641E+03  0.00000000000E+00 0.  1.
</event>
<event>
 5    1  0.7625606E-005  0.4415484E+03  0.7818608E-02  0.1022892E+00
         21   -1    0    0  501  502  0.00000000000E+00  0.00000000000E+00  0.97056095967E+03  0.97056095967E+03  0.00000000000E+00 0.  1.
          4   -1    0    0  502    0 -0.00000000000E+00 -0.00000000000E+00 -0.40198659703E+03  0.40198659703E+03  0.00000000000E+00 0.  1.
        -13    1    1    2    0    0 -0.38974623520E+03 -0.24049127482E+03  0.48661673370E+02  0.46054983524E+03  0.10566000000E+00 0.  1.
         13    1    1    2    0    0  0.47808474443E+02 -0.31586198779E+02 -0.12239315782E+03  0.13514227476E+03  0.10566000000E+00 0. -1.
          4    1    1    2  501    0  0.34193776076E+03  0.27207747360E+03  0.64230584708E+03  0.77685544670E+03  0.00000000000E+00 0.  1.
</event>
<event>
 5    1  0.7625606E-005  0.4768554E+03  0.7818608E-02  0.9672475E-01
         21   -1    0    0  501  502  0.00000000000E+00  0.00000000000E+00  0.17990523595E+03  0.17990523595E+03  0.00000000000E+00 0.  1.
          4   -1    0    0  502    0 -0.00000000000E+00 -0.00000000000E+00 -0.23477005887E+04  0.23477005887E+04  0.00000000000E+00 0.  1.
        -13    1    1    2    0    0  0.56743904761E+03 -0.16902292446E+03 -0.64142201866E+03  0.87291353463E+03  0.10566000000E+00 0.  1.
         13    1    1    2    0    0 -0.25721264622E+03  0.12843757217E+03 -0.45195639103E+03  0.53564834161E+03  0.10566000000E+00 0. -1.
          4    1    1    2  501    0 -0.31022640139E+03  0.40585352296E+02 -0.10744169430E+04  0.11190439484E+04  0.00000000000E+00 0.  1.
</event>
<event>
 5    1  0.7625606E-005  0.1915546E+03  0.7818608E-02  0.1095293E+00
         21   -1    0    0  501  502  0.00000000000E+00  0.00000000000E+00  0.10949919489E+04  0.10949919489E+04  0.00000000000E+00 0. -1.
         -4   -1    0    0    0  501 -0.00000000000E+00 -0.00000000000E+00 -0.63505060130E+03  0.63505060130E+03  0.00000000000E+00 0. -1.
        -13    1    1    2    0    0  0.24027575708E+02  0.80876801153E+02 -0.40499142961E+03  0.41368641576E+03  0.10566000000E+00 0.  1.
         13    1    1    2    0    0  0.15226670234E+03  0.11182466119E+03  0.10032029524E+04  0.10208359704E+04  0.10566000000E+00 0. -1.
         -4    1    1    2    0  502 -0.17629427805E+03 -0.19270146235E+03 -0.13827017516E+03  0.29552016412E+03  0.00000000000E+00 0. -1.
</event>
<event>
 5    1  0.7625606E-005  0.3246085E+03  0.7818608E-02  0.9989071E-01
         21   -1    0    0  501  502  0.00000000000E+00  0.00000000000E+00  0.51327970850E+03  0.51327970850E+03  0.00000000000E+00 0. -1.
         -4   -1    0    0    0  501 -0.00000000000E+00 -0.00000000000E+00 -0.98049414024E+03  0.98049414024E+03  0.00000000000E+00 0. -1.
        -13    1    1    2    0    0 -0.31538813257E+03  0.16206653861E+03 -0.24165057216E+03  0.42910400522E+03  0.10566000000E+00 0.  1.
         13    1    1    2    0    0  0.25301237383E+03  0.16347972246E+03  0.31164321524E+03  0.43343094691E+03  0.10566000000E+00 0. -1.
         -4    1    1    2    0  502  0.62375758738E+02 -0.32554626107E+03 -0.53720707481E+03  0.63123889661E+03  0.00000000000E+00 0. -1.
</event>
<event>
 5    1  0.7625606E-005  0.8749877E+02  0.7818608E-02  0.1187080E+00
         21   -1    0    0  501  502  0.00000000000E+00  0.00000000000E+00  0.63891175959E+03  0.63891175959E+03  0.00000000000E+00 0.  1.
         -4   -1    0    0    0  501 -0.00000000000E+00 -0.00000000000E+00 -0.23509225029E+02  0.23509225029E+02  0.00000000000E+00 0. -1.
        -13    1    1    2    0    0 -0.46179463119E+02 -0.81664884225E+02  0.33180136962E+03  0.34480988410E+03  0.10566000000E+00 0.  1.
         13    1    1    2    0    0  0.57919894130E+02  0.63530083560E+02  0.96392321255E+02  0.12915988702E+03  0.10566000000E+00 0. -1.
         -4    1    1    2    0  502 -0.11740431011E+02  0.18134800665E+02  0.18720884369E+03  0.18845121351E+03  0.00000000000E+00 0. -1.
</event>
<event>
 5    1  0.7625606E-005  0.6712701E+02  0.7818608E-02  0.1234474E+00
         -4   -1    0    0    0  501 -0.00000000000E+00  0.00000000000E+00  0.20201153627E+03  0.20201153627E+03  0.00000000000E+00 0. -1.
         21   -1    0    0  501  502  0.00000000000E+00 -0.00000000000E+00 -0.55900776359E+02  0.55900776359E+02  0.00000000000E+00 0.  1.
        -13    1    1    2    0    0 -0.57455231035E+02  0.40924373293E+02 -0.85342550886E+01  0.71054574635E+02  0.10566000000E+00 0.  1.
         13    1    1    2    0    0  0.62139755718E+02 -0.24617906869E+02  0.15612176032E+03  0.16982757665E+03  0.10566000000E+00 0. -1.
         -4    1    1    2    0  502 -0.46845246832E+01 -0.16306466424E+02 -0.14767453233E+01  0.17030161347E+02  0.00000000000E+00 0. -1.
</event>
<event>
 5    1  0.7625606E-005  0.1068390E+03  0.7818608E-02  0.1153711E+00
          4   -1    0    0  502    0 -0.00000000000E+00  0.00000000000E+00  0.24900894782E+03  0.24900894782E+03  0.00000000000E+00 0.  1.
         21   -1    0    0  501  502  0.00000000000E+00 -0.00000000000E+00 -0.76715596873E+02  0.76715596873E+02  0.00000000000E+00 0. -1.
        -13    1    1    2    0    0 -0.36179099783E+02 -0.10390762983E+03  0.16996407302E+03  0.20246856566E+03  0.10566000000E+00 0.  1.
         13    1    1    2    0    0  0.39598110154E+02  0.90836433217E+02  0.19920726372E+02  0.10107479622E+03  0.10566000000E+00 0. -1.
          4    1    1    2  501    0 -0.34190103713E+01  0.13071196616E+02 -0.17591448442E+02  0.22181182817E+02  0.00000000000E+00 0.  1.
</event>
<event>
 5    1  0.7625606E-005  0.3635149E+03  0.7818608E-02  0.9840770E-01
         21   -1    0    0  501  502  0.00000000000E+00  0.00000000000E+00  0.16521956513E+03  0.16521956513E+03  0.00000000000E+00 0.  1.
         -4   -1    0    0    0  501 -0.00000000000E+00 -0.00000000000E+00 -0.27805628396E+04  0.27805628396E+04  0.00000000000E+00 0. -1.
        -13    1    1    2    0    0  0.14847735863E+03  0.24919552751E+03 -0.34971354696E+03  0.45436055402E+03  0.10566000000E+00 0.  1.
         13    1    1    2    0    0 -0.33196537768E+03 -0.21494298432E+03 -0.22705157235E+04  0.23047002322E+04  0.10566000000E+00 0. -1.
         -4    1    1    2    0  502  0.18348801905E+03 -0.34252543192E+02  0.48859960141E+01  0.18672161848E+03  0.00000000000E+00 0. -1.
</event>
<event>
 5    1  0.7625606E-005  0.3737324E+03  0.7818608E-02  0.1051326E+00
         21   -1    0    0  501  502  0.00000000000E+00  0.00000000000E+00  0.16996332659E+03  0.16996332659E+03  0.00000000000E+00 0.  1.
          4   -1    0    0  502    0 -0.00000000000E+00 -0.00000000000E+00 -0.14090743058E+04  0.14090743058E+04  0.00000000000E+00 0.  1.
        -13    1    1    2    0    0  0.14428728281E+03  0.33612343124E+03 -0.13745075631E+03  0.39075632124E+03  0.10566000000E+00 0.  1.
         13    1    1    2    0    0  0.13230288577E+02  0.37450082991E+02 -0.87863305888E+02  0.96423653413E+02  0.10566000000E+00 0. -1.
          4    1    1    2  501    0 -0.15751757139E+03 -0.37357351423E+03 -0.10137969170E+04  0.10918576578E+04  0.00000000000E+00 0.  1.
</event>
<event>
 5    1  0.7625606E-005  0.5681012E+02  0.7818608E-02  0.1266300E+00
          4   -1    0    0  502    0 -0.00000000000E+00  0.00000000000E+00  0.58392642392E+03  0.58392642392E+03  0.00000000000E+00 0.  1.
         21   -1    0    0  501  502  0.00000000000E+00 -0.00000000000E+00 -0.26640444414E+02  0.26640444414E+02  0.00000000000E+00 0.  1.
        -13    1    1    2    0    0  0.52009811272E+02  0.33681130272E+02  0.36994713692E+03  0.37510043226E+03  0.10566000000E+00 0.  1.
         13    1    1    2    0    0 -0.49776084237E+02 -0.14070289074E+02  0.20349083554E+03  0.20996228925E+03  0.10566000000E+00 0. -1.
          4    1    1    2  501    0 -0.22337270350E+01 -0.19610841198E+02 -0.16151992947E+02  0.25504146822E+02  0.00000000000E+00 0.  1.
</event>
<event>
 5    1  0.7625606E-005  0.1276816E+03  0.7818608E-02  0.1125474E+00
         -4   -1    0    0    0  501 -0.00000000000E+00  0.00000000000E+00  0.12775193061E+03  0.12775193061E+03  0.00000000000E+00 0. -1.
         21   -1    0    0  501  502  0.00000000000E+00 -0.00000000000E+00 -0.44690481979E+03  0.44690481979E+03  0.00000000000E+00 0.  1.
        -13    1    1    2    0    0 -0.63042458171E+02  0.10636892554E+03 -0.37581098115E+03  0.39562937779E+03  0.10566000000E+00 0.  1.
         13    1    1    2    0    0  0.81864859648E+02 -0.98646532828E+02  0.77584569133E+02  0.14984114994E+03  0.10566000000E+00 0. -1.
         -4    1    1    2    0  502 -0.18822401477E+02 -0.77223927163E+01 -0.20926477163E+02  0.29186222659E+02  0.00000000000E+00 0. -1.
</event>
<event>
 5    1  0.7625606E-005  0.4933287E+03  0.7818608E-02  0.9735983E-01
          4   -1    0    0  502    0 -0.00000000000E+00  0.00000000000E+00  0.96961050589E+03  0.96961050589E+03  0.00000000000E+00 0.  1.
         21   -1    0    0  501  502  0.00000000000E+00 -0.00000000000E+00 -0.61822815454E+03  0.61822815454E+03  0.00000000000E+00 0.  1.
        -13    1    1    2    0    0  0.30431492523E+03 -0.25629599092E+03  0.33836657047E+01  0.39787770613E+03  0.10566000000E+00 0.  1.
         13    1    1    2    0    0  0.12062073873E+03 -0.16965576090E+03  0.52337559829E+03  0.56325346680E+03  0.10566000000E+00 0. -1.
          4    1    1    2  501    0 -0.42493566396E+03  0.42595175183E+03 -0.17537691265E+03  0.62670748749E+03  0.00000000000E+00 0.  1.
</event>
<event>
 5    1  0.7625606E-005  0.2271839E+03  0.7818608E-02  0.1042945E+00
         21   -1    0    0  501  502  0.00000000000E+00  0.00000000000E+00  0.14965207484E+03  0.14965207484E+03  0.00000000000E+00 0. -1.
          4   -1    0    0  502    0 -0.00000000000E+00 -0.00000000000E+00 -0.88658684956E+03  0.88658684956E+03  0.00000000000E+00 0.  1.
        -13    1    1    2    0    0 -0.20314044764E+03 -0.37396328741E+02 -0.17655260907E+03  0.27172663065E+03  0.10566000000E+00 0.  1.
         13    1    1    2    0    0  0.22515267370E+03 -0.14533547352E+03 -0.50601605812E+03  0.57259792925E+03  0.10566000000E+00 0. -1.
          4    1    1    2  501    0 -0.22012226060E+02  0.18273180226E+03 -0.54366107525E+02  0.19191436450E+03  0.00000000000E+00 0.  1.
</event>
<event>
 5    1  0.7625606E-005  0.4488108E+03  0.7818608E-02  0.9739973E-01
         21   -1    0    0  501  502  0.00000000000E+00  0.00000000000E+00  0.19347382551E+03  0.19347382551E+03  0.00000000000E+00 0. -1.
          4   -1    0    0  502    0 -0.00000000000E+00 -0.00000000000E+00 -0.20612883338E+04  0.20612883338E+04  0.00000000000E+00 0.  1.
        -13    1    1    2    0    0 -0.50331005088E+03 -0.79730298466E+02 -0.74526289250E+03  0.90282596214E+03  0.10566000000E+00 0.  1.
         13    1    1    2    0    0  0.10056692372E+03  0.25344519956E+03 -0.66194056240E+03  0.71590047817E+03  0.10566000000E+00 0. -1.
          4    1    1    2  501    0  0.40274312716E+03 -0.17371490109E+03 -0.46061105338E+03  0.63603571899E+03  0.00000000000E+00 0.  1.
</event>
<event>
 5    1  0.7625606E-005  0.1328043E+03  0.7818608E-02  0.1119428E+00
         21   -1    0    0  501  502  0.00000000000E+00  0.00000000000E+00  0.12317967353E+03  0.12317967353E+03  0.00000000000E+00 0.  1.
          4   -1    0    0  502    0 -0.00000000000E+00 -0.00000000000E+00 -0.20167167013E+03  0.20167167013E+03  0.00000000000E+00 0.  1.
        -13    1    1    2    0    0 -0.12342990040E+03  0.62221117632E+02 -0.10100210340E+03  0.17119533828E+03  0.10566000000E+00 0.  1.
         13    1    1    2    0    0  0.10992496693E+03 -0.56390775706E+02 -0.36996118990E+01  0.12360063200E+03  0.10566000000E+00 0. -1.
          4    1    1    2  501    0  0.13504933472E+02 -0.58303419256E+01  0.26209718690E+02  0.30055373378E+02  0.00000000000E+00 0.  1.
</event>
<event>
 5    1  0.7625606E-005  0.1347738E+03  0.7818608E-02  0.1124471E+00
         -4   -1    0    0    0  501 -0.00000000000E+00  0.00000000000E+00  0.24150994242E+03  0.24150994242E+03  0.00000000000E+00 0. -1.
         21   -1    0    0  501  502  0.00000000000E+00 -0.00000000000E+00 -0.26186697609E+03  0.26186697609E+03  0.00000000000E+00 0.  1.
        -13    1    1    2    0    0  0.14803162375E+03  0.77989071354E+02  0.10794113327E+03  0.19911543460E+03  0.10566000000E+00 0.  1.
         13    1    1    2    0    0 -0.28369818232E+01 -0.10779308763E+03  0.59995453005E+00  0.10783213490E+03  0.10566000000E+00 0. -1.
         -4    1    1    2    0  502 -0.14519464193E+03  0.29804016279E+02 -0.12889812148E+03  0.19642934901E+03  0.00000000000E+00 0. -1.
</event>
<event>
 5    1  0.7625606E-005  0.2856627E+03  0.7818608E-02  0.1041004E+00
         -4   -1    0    0    0  501 -0.00000000000E+00  0.00000000000E+00  0.83820097920E+03  0.83820097920E+03  0.00000000000E+00 0. -1.
         21   -1    0    0  501  502  0.00000000000E+00 -0.00000000000E+00 -0.50988597176E+03  0.50988597176E+03  0.00000000000E+00 0.  1.
        -13    1    1    2    0    0 -0.11077419694E+03 -0.49103450262E+02 -0.34134766792E+03  0.36221583772E+03  0.10566000000E+00 0.  1.
         13    1    1    2    0    0  0.84818369573E+02 -0.24638671806E+03  0.63603451321E+03  0.68734306123E+03  0.10566000000E+00 0. -1.
         -4    1    1    2    0  502  0.25955827367E+02  0.29549016833E+03  0.33628162147E+02  0.29852805202E+03  0.00000000000E+00 0. -1.
</event>
<event>
 5    1  0.7625606E-005  0.5225542E+03  0.7818608E-02  0.9429862E-01
         21   -1    0    0  501  502  0.00000000000E+00  0.00000000000E+00  0.18105551328E+03  0.18105551328E+03  0.00000000000E+00 0. -1.
          4   -1    0    0  502    0 -0.00000000000E+00 -0.00000000000E+00 -0.20490153070E+04  0.20490153070E+04  0.00000000000E+00 0.  1.
        -13    1    1    2    0    0  0.44891752073E+03 -0.29146029258E+03 -0.11237881780E+04  0.12447392991E+04  0.10566000000E+00 0.  1.
         13    1    1    2    0    0 -0.35468761632E+03  0.36982372899E+03 -0.66461431252E+03  0.83921695125E+03  0.10566000000E+00 0. -1.
          4    1    1    2  501    0 -0.94229904406E+02 -0.78363436402E+02 -0.79557303214E+02  0.14611456992E+03  0.00000000000E+00 0.  1.
</event>
<event>
 5    1  0.7625606E-005  0.3695761E+02  0.7818608E-02  0.1398567E+00
         -4   -1    0    0    0  501 -0.00000000000E+00  0.00000000000E+00  0.15529609446E+03  0.15529609446E+03  0.00000000000E+00 0. -1.
         21   -1    0    0  501  502  0.00000000000E+00 -0.00000000000E+00 -0.17033964945E+02  0.17033964945E+02  0.00000000000E+00 0.  1.
        -13    1    1    2    0    0  0.15324956507E+02  0.91257599776E+01  0.89669456694E+01  0.19963743781E+02  0.10566000000E+00 0.  1.
         13    1    1    2    0    0  0.89940512023E+01 -0.37655241651E+02  0.90424974699E+02  0.98364106228E+02  0.10566000000E+00 0. -1.
         -4    1    1    2    0  502 -0.24319007709E+02  0.28529481673E+02  0.38870209147E+02  0.54002209396E+02  0.00000000000E+00 0. -1.
</event>
<event>
 5    1  0.7625606E-005  0.3726124E+03  0.7818608E-02  0.9849021E-01
         21   -1    0    0  501  502  0.00000000000E+00  0.00000000000E+00  0.14961630486E+04  0.14961630486E+04  0.00000000000E+00 0. -1.
         -4   -1    0    0    0  501 -0.00000000000E+00 -0.00000000000E+00 -0.35776365532E+03  0.35776365532E+03  0.00000000000E+00 0. -1.
        -13    1    1    2    0    0 -0.24008242297E+03  0.22383723248E+03  0.27040443073E+02  0.32935372047E+03  0.10566000000E+00 0.  1.
         13    1    1    2    0    0  0.14871595237E+03 -0.55484716299E+03  0.31000246647E+03  0.65274294262E+03  0.10566000000E+00 0. -1.
         -4    1    1    2    0  502  0.91366470603E+02  0.33100993051E+03  0.80135648374E+03  0.87183004082E+03  0.00000000000E+00 0. -1.
</event>
<event>
 5    1  0.7625606E-005  0.3947243E+03  0.7818608E-02  0.9753902E-01
         -4   -1    0    0    0  501 -0.00000000000E+00  0.00000000000E+00  0.18568863889E+04  0.18568863889E+04  0.00000000000E+00 0. -1.
         21   -1    0    0  501  502  0.00000000000E+00 -0.00000000000E+00 -0.36284622298E+03  0.36284622298E+03  0.00000000000E+00 0. -1.
        -13    1    1    2    0    0  0.63686411027E+02 -0.39615377673E+03  0.93693224381E+03  0.10192329539E+04  0.10566000000E+00 0.  1.
         13    1    1    2    0    0  0.30207295516E+03  0.15916090923E+03  0.66851242355E+03  0.75065913494E+03  0.10566000000E+00 0. -1.
         -4    1    1    2    0  502 -0.36575936618E+03  0.23699286749E+03 -0.11140450143E+03  0.44984052300E+03  0.00000000000E+00 0. -1.
</event>
<event>
 5    1  0.7625606E-005  0.2830921E+03  0.7818608E-02  0.1028460E+00
         21   -1    0    0  501  502  0.00000000000E+00  0.00000000000E+00  0.87388484839E+03  0.87388484839E+03  0.00000000000E+00 0. -1.
          4   -1    0    0  502    0 -0.00000000000E+00 -0.00000000000E+00 -0.18137014727E+03  0.18137014727E+03  0.00000000000E+00 0.  1.
        -13    1    1    2    0    0 -0.37702660811E+03 -0.11369621680E+03  0.34206441267E+03  0.52161668543E+03  0.10566000000E+00 0.  1.
         13    1    1    2    0    0  0.17778895659E+03  0.42457108927E+02  0.21592129413E+03  0.28290198940E+03  0.10566000000E+00 0. -1.
          4    1    1    2  501    0  0.19923765152E+03  0.71239107872E+02  0.13452899432E+03  0.25073632083E+03  0.00000000000E+00 0.  1.
</event>
<event>
 5    1  0.7625606E-005  0.2598721E+03  0.7818608E-02  0.1025400E+00
         21   -1    0    0  501  502  0.00000000000E+00  0.00000000000E+00  0.23020276901E+03  0.23020276901E+03  0.00000000000E+00 0. -1.
          4   -1    0    0  502    0 -0.00000000000E+00 -0.00000000000E+00 -0.23823196505E+04  0.23823196505E+04  0.00000000000E+00 0.  1.
        -13    1    1    2    0    0  0.10536097936E+03 -0.26821040505E+03 -0.11995671643E+04  0.12336932966E+04  0.10566000000E+00 0.  1.
         13    1    1    2    0    0  0.61098295375E+02  0.25166571686E+03 -0.11155799911E+04  0.11452455468E+04  0.10566000000E+00 0. -1.
          4    1    1    2  501    0 -0.16645927473E+03  0.16544688192E+02  0.16303027384E+03  0.23358357614E+03  0.00000000000E+00 0.  1.
</event>
<event>
 5    1  0.7625606E-005  0.4524262E+03  0.7818608E-02  0.1016953E+00
         21   -1    0    0  501  502  0.00000000000E+00  0.00000000000E+00  0.86285401770E+03  0.86285401770E+03  0.00000000000E+00 0.  1.
          4   -1    0    0  502    0 -0.00000000000E+00 -0.00000000000E+00 -0.42298714166E+03  0.42298714166E+03  0.00000000000E+00 0.  1.
        -13    1    1    2    0    0  0.41513633007E+03 -0.21553329188E+03  0.57888496077E+03  0.74424497406E+03  0.10566000000E+00 0.  1.
         13    1    1    2    0    0 -0.64223223239E+02 -0.10577425559E+01 -0.11103425683E+03  0.12827454376E+03  0.10566000000E+00 0. -1.
          4    1    1    2  501    0 -0.35091310683E+03  0.21659103444E+03 -0.27983827889E+02  0.41332164154E+03  0.00000000000E+00 0.  1.
</event>
<event>
 5    1  0.7625606E-005  0.8902838E+02  0.7818608E-02  0.1184107E+00
         21   -1    0    0  501  502  0.00000000000E+00  0.00000000000E+00  0.71387699577E+02  0.71387699577E+02  0.00000000000E+00 0. -1.
         -4   -1    0    0    0  501 -0.00000000000E+00 -0.00000000000E+00 -0.41782100758E+03  0.41782100758E+03  0.00000000000E+00 0. -1.
        -13    1    1    2    0    0 -0.17149985482E+02 -0.61943050562E+02 -0.17162106374E+01  0.64296345604E+02  0.10566000000E+00 0.  1.
         13    1    1    2    0    0 -0.34734906428E+02  0.90019069730E+02 -0.35244517241E+03  0.36541422709E+03  0.10566000000E+00 0. -1.
         -4    1    1    2    0  502  0.51884891911E+02 -0.28076019168E+02  0.77280750439E+01  0.59498134465E+02  0.00000000000E+00 0. -1.
</event>
<event>
 5    1  0.7625606E-005  0.3792892E+03  0.7818608E-02  0.9991210E-01
          4   -1    0    0  502    0 -0.00000000000E+00  0.00000000000E+00  0.74238080925E+03  0.74238080925E+03  0.00000000000E+00 0.  1.
         21   -1    0    0  501  502  0.00000000000E+00 -0.00000000000E+00 -0.49139333124E+03  0.49139333124E+03  0.00000000000E+00 0.  1.
        -13    1    1    2    0    0 -0.21403432946E+03 -0.12355248948E+03  0.47327108215E+03  0.53391145352E+03  0.10566000000E+00 0.  1.
         13    1    1    2    0    0 -0.18853038368E+03  0.44808354041E+02  0.58912812495E+02  0.20253944011E+03  0.10566000000E+00 0. -1.
          4    1    1    2  501    0  0.40256471314E+03  0.78744135443E+02 -0.28119641664E+03  0.49732324685E+03  0.00000000000E+00 0.  1.
</event>
<event>
 5    1  0.7625606E-005  0.6810396E+02  0.7818608E-02  0.1231792E+00
         21   -1    0    0  501  502  0.00000000000E+00  0.00000000000E+00  0.66591378315E+02  0.66591378315E+02  0.00000000000E+00 0. -1.
          4   -1    0    0  502    0 -0.00000000000E+00 -0.00000000000E+00 -0.19671056407E+03  0.19671056407E+03  0.00000000000E+00 0.  1.
        -13    1    1    2    0    0  0.50517182055E+02  0.42348234289E+02 -0.13270702625E+03  0.14817734176E+03  0.10566000000E+00 0.  1.
         13    1    1    2    0    0 -0.62533867120E+02 -0.42688225785E+02 -0.29191472037E+02  0.81147534537E+02  0.10566000000E+00 0. -1.
          4    1    1    2  501    0  0.12016685065E+02  0.33999149646E+00  0.31779312539E+02  0.33977066084E+02  0.00000000000E+00 0.  1.
</event>
<event>
 5    1  0.7625606E-005  0.2383307E+03  0.7818608E-02  0.1036624E+00
          4   -1    0    0  502    0 -0.00000000000E+00  0.00000000000E+00  0.15592202698E+04  0.15592202698E+04  0.00000000000E+00 0.  1.
         21   -1    0    0  501  502  0.00000000000E+00 -0.00000000000E+00 -0.14296703877E+03  0.14296703877E+03  0.00000000000E+00 0.  1.
        -13    1    1    2    0    0  0.56789220198E+02  0.22078484415E+03  0.31313856159E+03  0.38733284506E+03  0.10566000000E+00 0.  1.
         13    1    1    2    0    0 -0.20772808819E+02 -0.24163773088E+03  0.11921515423E+04  0.12165712529E+04  0.10566000000E+00 0. -1.
          4    1    1    2  501    0 -0.36016411379E+02  0.20852886722E+02 -0.89036872792E+02  0.98283210620E+02  0.00000000000E+00 0.  1.
</event>
<event>
 5    1  0.7625606E-005  0.3475739E+03  0.7818608E-02  0.1004096E+00
         21   -1    0    0  501  502  0.00000000000E+00  0.00000000000E+00  0.43111223555E+03  0.43111223555E+03  0.00000000000E+00 0. -1.
         -4   -1    0    0    0  501 -0.00000000000E+00 -0.00000000000E+00 -0.14616372533E+04  0.14616372533E+04  0.00000000000E+00 0. -1.
        -13    1    1    2    0    0 -0.34705290858E+03  0.27518367974E+03 -0.54137755750E+03  0.69947226527E+03  0.10566000000E+00 0.  1.
         13    1    1    2    0    0 -0.24330536880E+03  0.75313666509E+00  0.14562060230E+03  0.28355500468E+03  0.10566000000E+00 0. -1.
         -4    1    1    2    0  502  0.59035827738E+03 -0.27593681641E+03 -0.63476806255E+03  0.90972221890E+03  0.00000000000E+00 0. -1.
</event>
<event>
 5    1  0.7625606E-005  0.3629305E+03  0.7818608E-02  0.1027507E+00
         -4   -1    0    0    0  501 -0.00000000000E+00  0.00000000000E+00  0.25802415306E+04  0.25802415306E+04  0.00000000000E+00 0. -1.
         21   -1    0    0  501  502  0.00000000000E+00 -0.00000000000E+00 -0.12877545117E+03  0.12877545117E+03  0.00000000000E+00 0. -1.
        -13    1    1    2    0    0  0.77670584546E+02  0.44166215206E+02  0.48691241128E+03  0.49504250494E+03  0.10566000000E+00 0.  1.
         13    1    1    2    0    0 -0.31426877140E+02  0.32372646899E+03  0.17614057739E+04  0.17911830691E+04  0.10566000000E+00 0. -1.
         -4    1    1    2    0  502 -0.46243707406E+02 -0.36789268419E+03  0.20314789424E+03  0.42279140778E+03  0.00000000000E+00 0. -1.
</event>
<event>
 5    1  0.7625606E-005  0.3272327E+03  0.7818608E-02  0.9966586E-01
         21   -1    0    0  501  502  0.00000000000E+00  0.00000000000E+00  0.32474521817E+03  0.32474521817E+03  0.00000000000E+00 0. -1.
         -4   -1    0    0    0  501 -0.00000000000E+00 -0.00000000000E+00 -0.16188004684E+04  0.16188004684E+04  0.00000000000E+00 0. -1.
        -13    1    1    2    0    0 -0.12224939323E+03 -0.27405072991E+03 -0.66041476752E+03  0.72539395713E+03  0.10566000000E+00 0.  1.
         13    1    1    2    0    0  0.12473891846E+03  0.54204333590E+03 -0.29219803518E+02  0.55697808202E+03  0.10566000000E+00 0. -1.
         -4    1    1    2    0  502 -0.24895252217E+01 -0.26799260599E+03 -0.60442067915E+03  0.66117364737E+03  0.00000000000E+00 0. -1.
</event>
<event>
 5    1  0.7625606E-005  0.2415660E+03  0.7818608E-02  0.1073841E+00
         21   -1    0    0  501  502  0.00000000000E+00  0.00000000000E+00  0.23679948862E+03  0.23679948862E+03  0.00000000000E+00 0.  1.
         -4   -1    0    0    0  501 -0.00000000000E+00 -0.00000000000E+00 -0.83028598847E+03  0.83028598847E+03  0.00000000000E+00 0. -1.
        -13    1    1    2    0    0  0.16332162704E+02  0.74730068721E+02  0.12629860295E+03  0.14765727541E+03  0.10566000000E+00 0.  1.
         13    1    1    2    0    0  0.14457381130E+03 -0.24049418067E+03 -0.59268802443E+03  0.65575768644E+03  0.10566000000E+00 0. -1.
         -4    1    1    2    0  502 -0.16090597401E+03  0.16576411195E+03 -0.12709707836E+03  0.26367051524E+03  0.00000000000E+00 0. -1.
</event>
<event>
 5    1  0.7625606E-005  0.2510794E+03  0.7818608E-02  0.1029835E+00
          4   -1    0    0  502    0 -0.00000000000E+00  0.00000000000E+00  0.14803640865E+04  0.14803640865E+04  0.00000000000E+00 0.  1.
         21   -1    0    0  501  502  0.00000000000E+00 -0.00000000000E+00 -0.22242790363E+03  0.22242790363E+03  0.00000000000E+00 0.  1.
        -13    1    1    2    0    0  0.17533108114E+03  0.20100197610E+03  0.12637697456E+04  0.12916101438E+04  0.10566000000E+00 0.  1.
         13    1    1    2    0    0 -0.10317810888E+03 -0.16760800372E+03  0.14242759926E+03  0.24294813698E+03  0.10566000000E+00 0. -1.
          4    1    1    2  501    0 -0.72152972259E+02 -0.33393972372E+02 -0.14826116203E+03  0.16823370935E+03  0.00000000000E+00 0.  1.
</event>
<event>
 5    1  0.7625606E-005  0.8980238E+02  0.7818608E-02  0.1182628E+00
         -4   -1    0    0    0  501 -0.00000000000E+00  0.00000000000E+00  0.23224541975E+03  0.23224541975E+03  0.00000000000E+00 0. -1.
         21   -1    0    0  501  502  0.00000000000E+00 -0.00000000000E+00 -0.11167516166E+04  0.11167516166E+04  0.00000000000E+00 0.  1.
        -13    1    1    2    0    0 -0.10403749553E+03 -0.26297509282E+02 -0.21444704653E+03  0.23979763635E+03  0.10566000000E+00 0.  1.
         13    1    1    2    0    0  0.81519373484E+02  0.36118590286E+02  0.21033996642E+03  0.22845759662E+03  0.10566000000E+00 0. -1.
         -4    1    1    2    0  502  0.22518122050E+02 -0.98210810035E+01 -0.88039911677E+03  0.88074180341E+03  0.00000000000E+00 0. -1.
</event>
<event>
 5    1  0.7625606E-005  0.5904129E+03  0.7818608E-02  0.9424042E-01
         -4   -1    0    0    0  501 -0.00000000000E+00  0.00000000000E+00  0.35452773232E+04  0.35452773232E+04  0.00000000000E+00 0. -1.
         21   -1    0    0  501  502  0.00000000000E+00 -0.00000000000E+00 -0.48276302840E+03  0.48276302840E+03  0.00000000000E+00 0. -1.
        -13    1    1    2    0    0 -0.67561552260E+03  0.31552820544E+03  0.26137831754E+04  0.27180649150E+04  0.10566000000E+00 0.  1.
         13    1    1    2    0    0 -0.22957811578E+03 -0.91947793796E+02  0.25969048044E+03  0.35860795421E+03  0.10566000000E+00 0. -1.
         -4    1    1    2    0  502  0.90519363838E+03 -0.22358041165E+03  0.18904063895E+03  0.95136748242E+03  0.00000000000E+00 0. -1.
</event>
<event>
 5    1  0.7625606E-005  0.2844835E+02  0.7818608E-02  0.1417818E+00
         21   -1    0    0  501  502  0.00000000000E+00  0.00000000000E+00  0.23373175235E+03  0.23373175235E+03  0.00000000000E+00 0.  1.
          4   -1    0    0  502    0 -0.00000000000E+00 -0.00000000000E+00 -0.13483425290E+02  0.13483425290E+02  0.00000000000E+00 0.  1.
        -13    1    1    2    0    0  0.28491263739E+02  0.30634271082E+01  0.69853703770E+01  0.29494800532E+02  0.10566000000E+00 0.  1.
         13    1    1    2    0    0 -0.27919892829E+02  0.70124057884E+01  0.10151901985E+03  0.10552164141E+03  0.10566000000E+00 0. -1.
          4    1    1    2  501    0 -0.57137090979E+00 -0.10075832897E+02  0.11174393683E+03  0.11219873570E+03  0.00000000000E+00 0.  1.
</event>
<event>
 5    1  0.7625606E-005  0.4741691E+03  0.7818608E-02  0.9563077E-01
          4   -1    0    0  502    0 -0.00000000000E+00  0.00000000000E+00  0.34123739064E+04  0.34123739064E+04  0.00000000000E+00 0.  1.
         21   -1    0    0  501  502  0.00000000000E+00 -0.00000000000E+00 -0.19338273509E+03  0.19338273509E+03  0.00000000000E+00 0.  1.
        -13    1    1    2    0    0  0.14322611519E+03 -0.36528874983E+03  0.55884660204E+03  0.68283169712E+03  0.10566000000E+00 0.  1.
         13    1    1    2    0    0 -0.40162224412E+03 -0.29345645870E+03  0.12461810327E+04  0.13417839981E+04  0.10566000000E+00 0. -1.
          4    1    1    2  501    0  0.25839612893E+03  0.65874520852E+03  0.14139635365E+04  0.15811409462E+04  0.00000000000E+00 0.  1.
</event>
<event>
 5    1  0.7625606E-005  0.4089365E+03  0.7818608E-02  0.9908330E-01
         21   -1    0    0  501  502  0.00000000000E+00  0.00000000000E+00  0.77715787511E+03  0.77715787511E+03  0.00000000000E+00 0. -1.
         -4   -1    0    0    0  501 -0.00000000000E+00 -0.00000000000E+00 -0.52324013097E+03  0.52324013097E+03  0.00000000000E+00 0. -1.
        -13    1    1    2    0    0  0.77074091529E+02 -0.18828296001E+03  0.22780887984E+03  0.30543049211E+03  0.10566000000E+00 0.  1.
         13    1    1    2    0    0  0.33991844199E+03  0.23318570096E+03 -0.25991712485E+03  0.48731616153E+03  0.10566000000E+00 0. -1.
         -4    1    1    2    0  502 -0.41699253352E+03 -0.44902740956E+02  0.28602598916E+03  0.50765135243E+03  0.00000000000E+00 0. -1.
</event>
<event>
 5    1  0.7625606E-005  0.1848156E+03  0.7818608E-02  0.1071075E+00
         -4   -1    0    0    0  501 -0.00000000000E+00  0.00000000000E+00  0.41299162206E+03  0.41299162206E+03  0.00000000000E+00 0. -1.
         21   -1    0    0  501  502  0.00000000000E+00 -0.00000000000E+00 -0.32548273771E+03  0.32548273771E+03  0.00000000000E+00 0.  1.
        -13    1    1    2    0    0 -0.12571071890E+03 -0.12749565199E+03 -0.23354137973E+03  0.29427863214E+03  0.10566000000E+00 0.  1.
         13    1    1    2    0    0  0.13659490929E+03  0.12524818338E+03  0.35934584045E+03  0.40432007234E+03  0.10566000000E+00 0. -1.
         -4    1    1    2    0  502 -0.10884190392E+02  0.22474686070E+01 -0.38295576362E+02  0.39875655286E+02  0.00000000000E+00 0. -1.
</event>
<event>
 5    1  0.7625606E-005  0.3006447E+03  0.7818608E-02  0.1007040E+00
         -4   -1    0    0    0  501 -0.00000000000E+00  0.00000000000E+00  0.17867485374E+04  0.17867485374E+04  0.00000000000E+00 0. -1.
         21   -1    0    0  501  502  0.00000000000E+00 -0.00000000000E+00 -0.11878774756E+03  0.11878774756E+03  0.00000000000E+00 0.  1.
        -13    1    1    2    0    0 -0.29102937768E+03  0.12614894269E+03  0.72901315936E+03  0.79502946618E+03  0.10566000000E+00 0.  1.
         13    1    1    2    0    0  0.19569341030E+03 -0.23027741604E+03  0.91963235940E+03  0.96801202823E+03  0.10566000000E+00 0. -1.
         -4    1    1    2    0  502  0.95335967381E+02  0.10412847335E+03  0.19315271098E+02  0.14249479056E+03  0.00000000000E+00 0. -1.
</event>
<event>
 5    1  0.7625606E-005  0.5762456E+03  0.7818608E-02  0.9324894E-01
         21   -1    0    0  501  502  0.00000000000E+00  0.00000000000E+00  0.64747577444E+03  0.64747577444E+03  0.00000000000E+00 0.  1.
          4   -1    0    0  502    0 -0.00000000000E+00 -0.00000000000E+00 -0.19493116172E+04  0.19493116172E+04  0.00000000000E+00 0.  1.
        -13    1    1    2    0    0  0.71812832281E+03 -0.11853609115E+03 -0.74835132707E+02  0.73168258225E+03  0.10566000000E+00 0.  1.
         13    1    1    2    0    0 -0.54194526651E+03 -0.14049802615E+03 -0.13996064542E+04  0.15074291377E+04  0.10566000000E+00 0. -1.
          4    1    1    2  501    0 -0.17618305630E+03  0.25903411730E+03  0.17260574413E+03  0.35767567175E+03  0.00000000000E+00 0.  1.
</event>
<event>
 5    1  0.7625606E-005  0.5890607E+03  0.7818608E-02  0.9342728E-01
          4   -1    0    0  502    0 -0.00000000000E+00  0.00000000000E+00  0.28838591179E+04  0.28838591179E+04  0.00000000000E+00 0.  1.
         21   -1    0    0  501  502  0.00000000000E+00 -0.00000000000E+00 -0.48279710272E+03  0.48279710272E+03  0.00000000000E+00 0. -1.
        -13    1    1    2    0    0  0.61340361285E+03 -0.61409453623E+03  0.15898879978E+04  0.18113861953E+04  0.10566000000E+00 0.  1.
         13    1    1    2    0    0 -0.60745636481E+02  0.50077461219E+03  0.85146631384E+03  0.98967678529E+03  0.10566000000E+00 0. -1.
          4    1    1    2  501    0 -0.55265797637E+03  0.11331992404E+03 -0.40292296490E+02  0.56559324005E+03  0.00000000000E+00 0.  1.
</event>
<event>
 5    1  0.7625606E-005  0.3819471E+03  0.7818608E-02  0.1010888E+00
          4   -1    0    0  502    0 -0.00000000000E+00  0.00000000000E+00  0.12227574940E+04  0.12227574940E+04  0.00000000000E+00 0.  1.
         21   -1    0    0  501  502  0.00000000000E+00 -0.00000000000E+00 -0.30051042244E+03  0.30051042244E+03  0.00000000000E+00 0.  1.
        -13    1    1    2    0    0 -0.19939532882E+03 -0.20096579606E+03  0.50660718582E+03  0.58034179604E+03  0.10566000000E+00 0.  1.
         13    1    1    2    0    0 -0.81997438212E+02 -0.10027746887E+03  0.50481228349E+03  0.52116657928E+03  0.10566000000E+00 0. -1.
          4    1    1    2  501    0  0.28139276703E+03  0.30124326493E+03 -0.89172397756E+02  0.42175954112E+03  0.00000000000E+00 0.  1.
</event>
<event>
 5    1  0.7625606E-005  0.5607690E+03  0.7818608E-02  0.9467266E-01
         21   -1    0    0  501  502  0.00000000000E+00  0.00000000000E+00  0.34614284068E+03  0.34614284068E+03  0.00000000000E+00 0.  1.
          4   -1    0    0  502    0 -0.00000000000E+00 -0.00000000000E+00 -0.18908281897E+04  0.18908281897E+04  0.00000000000E+00 0.  1.
        -13    1    1    2    0    0 -0.42562752562E+03  0.12569239255E+03 -0.46515426726E+03  0.64290424763E+03  0.10566000000E+00 0.  1.
         13    1    1    2    0    0 -0.28431116533E+03 -0.23454237929E+03 -0.67674043040E+03  0.77059755237E+03  0.10566000000E+00 0. -1.
          4    1    1    2  501    0  0.70993869095E+03  0.10884998674E+03 -0.40279065132E+03  0.82346923033E+03  0.00000000000E+00 0.  1.
</event>
<event>
 5    1  0.7625606E-005  0.2538153E+03  0.7818608E-02  0.1028434E+00
         21   -1    0    0  501  502  0.00000000000E+00  0.00000000000E+00  0.50437935031E+03  0.50437935031E+03  0.00000000000E+00 0.  1.
          4   -1    0    0  502    0 -0.00000000000E+00 -0.00000000000E+00 -0.51829545404E+03  0.51829545404E+03  0.00000000000E+00 0.  1.
        -13    1    1    2    0    0  0.31017987469E+03  0.34343025679E+02 -0.36388805172E+03  0.47938035361E+03  0.10566000000E+00 0.  1.
         13    1    1    2    0    0 -0.16762475224E+03  0.10791933642E+02  0.58324896102E+01  0.16807305702E+03  0.10566000000E+00 0. -1.
          4    1    1    2  501    0 -0.14255512244E+03 -0.45134959321E+02  0.34413945838E+03  0.37522139372E+03  0.00000000000E+00 0.  1.
</event>
<event>
 5    1  0.7625606E-005  0.3442105E+03  0.7818608E-02  0.9905658E-01
         21   -1    0    0  501  502  0.00000000000E+00  0.00000000000E+00  0.14812730351E+04  0.14812730351E+04  0.00000000000E+00 0.  1.
         -4   -1    0    0    0  501 -0.00000000000E+00 -0.00000000000E+00 -0.40638138622E+03  0.40638138622E+03  0.00000000000E+00 0. -1.
        -13    1    1    2    0    0 -0.34626437488E+03  0.12286650005E+02  0.13607258100E+04  0.14041455481E+04  0.10566000000E+00 0.  1.
         13    1    1    2    0    0  0.34409502830E+03  0.60461520060E-01 -0.30552924167E+03  0.46016249395E+03  0.10566000000E+00 0. -1.
         -4    1    1    2    0  502  0.21693465760E+01 -0.12347111525E+02  0.19695080586E+02  0.23346379309E+02  0.00000000000E+00 0. -1.
</event>
<event>
 5    1  0.7625606E-005  0.3666162E+03  0.7818608E-02  0.1048861E+00
         21   -1    0    0  501  502  0.00000000000E+00  0.00000000000E+00  0.13937066525E+04  0.13937066525E+04  0.00000000000E+00 0. -1.
         -4   -1    0    0    0  501 -0.00000000000E+00 -0.00000000000E+00 -0.29861662811E+03  0.29861662811E+03  0.00000000000E+00 0. -1.
        -13    1    1    2    0    0  0.42552062759E+02 -0.15469994888E+02 -0.15243231682E+03  0.15901453129E+03  0.10566000000E+00 0.  1.
         13    1    1    2    0    0  0.29055842417E+03  0.21441065524E+03  0.10233891365E+04  0.10852287606E+04  0.10566000000E+00 0. -1.
         -4    1    1    2    0  502 -0.33311048693E+03 -0.19894066036E+03  0.22413320471E+03  0.44807998873E+03  0.00000000000E+00 0. -1.
</event>
<event>
 5    1  0.7625606E-005  0.2812411E+03  0.7818608E-02  0.1015364E+00
         21   -1    0    0  501  502  0.00000000000E+00  0.00000000000E+00  0.15524231071E+03  0.15524231071E+03  0.00000000000E+00 0.  1.
         -4   -1    0    0    0  501 -0.00000000000E+00 -0.00000000000E+00 -0.29652253486E+04  0.29652253486E+04  0.00000000000E+00 0. -1.
        -13    1    1    2    0    0  0.23910059571E+03  0.17718852546E+03 -0.80937664550E+03  0.86235458708E+03  0.10566000000E+00 0.  1.
         13    1    1    2    0    0 -0.10596426061E+03 -0.19370022693E+03  0.30230414383E+02  0.22284993058E+03  0.10566000000E+00 0. -1.
         -4    1    1    2    0  502 -0.13313633509E+03  0.16511701472E+02 -0.20308368068E+04  0.20352631417E+04  0.00000000000E+00 0. -1.
</event>
<event>
 5    1  0.7625606E-005  0.2221047E+03  0.7818608E-02  0.1077026E+00
         21   -1    0    0  501  502  0.00000000000E+00  0.00000000000E+00  0.22497386870E+03  0.22497386870E+03  0.00000000000E+00 0. -1.
         -4   -1    0    0    0  501 -0.00000000000E+00 -0.00000000000E+00 -0.13097643545E+04  0.13097643545E+04  0.00000000000E+00 0. -1.
        -13    1    1    2    0    0 -0.87594405183E+02  0.20326841488E+02 -0.14871657863E+03  0.17378893010E+03  0.10566000000E+00 0.  1.
         13    1    1    2    0    0 -0.28948509745E+02 -0.22063306625E+03  0.13821113422E+03  0.26195284867E+03  0.10566000000E+00 0. -1.
         -4    1    1    2    0  502  0.11654291493E+03  0.20030622476E+03 -0.10742850414E+04  0.10989964445E+04  0.00000000000E+00 0. -1.
</event>
<event>
 5    1  0.7625606E-005  0.3256176E+03  0.7818608E-02  0.1003724E+00
         -4   -1    0    0    0  501 -0.00000000000E+00  0.00000000000E+00  0.13131872126E+04  0.13131872126E+04  0.00000000000E+00 0. -1.
         21   -1    0    0  501  502  0.00000000000E+00 -0.00000000000E+00 -0.38742032365E+03  0.38742032365E+03  0.00000000000E+00 0. -1.
        -13    1    1    2    0    0  0.13569962493E+02 -0.26314674327E+03  0.51435203917E+03  0.57791728105E+03  0.10566000000E+00 0.  1.
         13    1    1    2    0    0 -0.33388547637E+03  0.28118929107E+03  0.60646626383E+03  0.74722705322E+03  0.10566000000E+00 0. -1.
         -4    1    1    2    0  502  0.32031551388E+03 -0.18042547795E+02 -0.19505141400E+03  0.37546320201E+03  0.00000000000E+00 0. -1.
</event>
<event>
 5    1  0.7625606E-005  0.5443959E+03  0.7818608E-02  0.9385636E-01
         -4   -1    0    0    0  501 -0.00000000000E+00  0.00000000000E+00  0.17557614138E+04  0.17557614138E+04  0.00000000000E+00 0. -1.
         21   -1    0    0  501  502  0.00000000000E+00 -0.00000000000E+00 -0.31835914836E+03  0.31835914836E+03  0.00000000000E+00 0.  1.
        -13    1    1    2    0    0 -0.25370454388E+03  0.31902399906E+03  0.20741190520E+03  0.45734234130E+03  0.10566000000E+00 0.  1.
         13    1    1    2    0    0  0.49650381566E+03 -0.51176862853E+03  0.67926277128E+03  0.98479494907E+03  0.10566000000E+00 0. -1.
         -4    1    1    2    0  502 -0.24279927177E+03  0.19274462947E+03  0.55072758892E+03  0.63198327174E+03  0.00000000000E+00 0. -1.
</event>
<event>
 5    1  0.7625606E-005  0.2388486E+03  0.7818608E-02  0.1036339E+00
         21   -1    0    0  501  502  0.00000000000E+00  0.00000000000E+00  0.36064349609E+03  0.36064349609E+03  0.00000000000E+00 0. -1.
         -4   -1    0    0    0  501 -0.00000000000E+00 -0.00000000000E+00 -0.95985713322E+03  0.95985713322E+03  0.00000000000E+00 0. -1.
        -13    1    1    2    0    0 -0.99724653266E+02 -0.15910467269E+03 -0.11830768565E+03  0.22193697977E+03  0.10566000000E+00 0.  1.
         13    1    1    2    0    0  0.22604344261E+03  0.14380650459E+03 -0.75243043871E+03  0.79870365279E+03  0.10566000000E+00 0. -1.
         -4    1    1    2    0  502 -0.12631878934E+03  0.15298168098E+02  0.27152448723E+03  0.29985999676E+03  0.00000000000E+00 0. -1.
</event>
<event>
 5    1  0.7625606E-005  0.9088413E+02  0.7818608E-02  0.1254639E+00
          4   -1    0    0  502    0 -0.00000000000E+00  0.00000000000E+00  0.23424568937E+02  0.23424568937E+02  0.00000000000E+00 0.  1.
         21   -1    0    0  501  502  0.00000000000E+00 -0.00000000000E+00 -0.64544844556E+03  0.64544844556E+03  0.00000000000E+00 0.  1.
        -13    1    1    2    0    0 -0.95352694800E+02  0.14762526967E+02 -0.44893053218E+03  0.45918264612E+03  0.10566000000E+00 0.  1.
         13    1    1    2    0    0  0.16687525803E+02  0.57476397098E+01  0.86776133783E+00  0.17671249346E+02  0.10566000000E+00 0. -1.
          4    1    1    2  501    0  0.78665168997E+02 -0.20510166677E+02 -0.17396110578E+03  0.19201911904E+03  0.00000000000E+00 0.  1.
</event>
<event>
 5    1  0.7625606E-005  0.6610153E+03  0.7818608E-02  0.9181534E-01
         -4   -1    0    0    0  501 -0.00000000000E+00  0.00000000000E+00  0.12253433610E+04  0.12253433610E+04  0.00000000000E+00 0. -1.
         21   -1    0    0  501  502  0.00000000000E+00 -0.00000000000E+00 -0.12672018072E+04  0.12672018072E+04  0.00000000000E+00 0. -1.
        -13    1    1    2    0    0  0.60789646501E+03 -0.26510548879E+03  0.76018294083E+03  0.10088097675E+04  0.10566000000E+00 0.  1.
         13    1    1    2    0    0 -0.75804450887E+03 -0.17796929737E+03 -0.46217430027E+03  0.90548862126E+03  0.10566000000E+00 0. -1.
         -4    1    1    2    0  502  0.15014804386E+03  0.44307478616E+03 -0.33986708680E+03  0.57824677941E+03  0.00000000000E+00 0. -1.
</event>
<event>
 5    1  0.7625606E-005  0.4770325E+03  0.7818608E-02  0.9715893E-01
         21   -1    0    0  501  502  0.00000000000E+00  0.00000000000E+00  0.11665247315E+04  0.11665247315E+04  0.00000000000E+00 0.  1.
          4   -1    0    0  502    0 -0.00000000000E+00 -0.00000000000E+00 -0.50320525438E+03  0.50320525438E+03  0.00000000000E+00 0.  1.
        -13    1    1    2    0    0  0.45496228036E+03  0.34902465694E+03  0.82727986807E+03  0.10065787992E+04  0.10566000000E+00 0.  1.
         13    1    1    2    0    0 -0.18154190122E+03 -0.16723775926E+03 -0.21930463574E+03  0.33018247143E+03  0.10566000000E+00 0. -1.
          4    1    1    2  501    0 -0.27342037914E+03 -0.18178689768E+03  0.55344244777E+02  0.33296871524E+03  0.00000000000E+00 0.  1.
</event>
<event>
 5    1  0.7625606E-005  0.2130588E+03  0.7818608E-02  0.1057688E+00
         21   -1    0    0  501  502  0.00000000000E+00  0.00000000000E+00  0.85132064028E+03  0.85132064028E+03  0.00000000000E+00 0. -1.
         -4   -1    0    0    0  501 -0.00000000000E+00 -0.00000000000E+00 -0.40418084561E+03  0.40418084561E+03  0.00000000000E+00 0. -1.
        -13    1    1    2    0    0  0.11379796036E+03  0.13649005763E+03 -0.18456798066E+02  0.17866218451E+03  0.10566000000E+00 0.  1.
         13    1    1    2    0    0 -0.13665793996E+03 -0.34041054557E+03 -0.17337615879E+03  0.40572655285E+03  0.10566000000E+00 0. -1.
         -4    1    1    2    0  502  0.22859979608E+02  0.20392048793E+03  0.63897275152E+03  0.67111274854E+03  0.00000000000E+00 0. -1.
</event>
<event>
 5    1  0.7625606E-005  0.2711677E+03  0.7818608E-02  0.1037080E+00
          4   -1    0    0  502    0 -0.00000000000E+00  0.00000000000E+00  0.61658045002E+03  0.61658045002E+03  0.00000000000E+00 0.  1.
         21   -1    0    0  501  502  0.00000000000E+00 -0.00000000000E+00 -0.54621493087E+03  0.54621493087E+03  0.00000000000E+00 0.  1.
        -13    1    1    2    0    0  0.39953544741E+03  0.11047808506E+03  0.40994651820E+03  0.58300097767E+03  0.10566000000E+00 0.  1.
         13    1    1    2    0    0 -0.14466776628E+03 -0.67347420007E+02 -0.85629394570E+01  0.15980542130E+03  0.10566000000E+00 0. -1.
          4    1    1    2  501    0 -0.25486768113E+03 -0.43130665055E+02 -0.33101805959E+03  0.41998898191E+03  0.00000000000E+00 0.  1.
</event>
<event>
 5    1  0.7625606E-005  0.3795166E+03  0.7818608E-02  0.9803019E-01
          4   -1    0    0  502    0 -0.00000000000E+00  0.00000000000E+00  0.16668014035E+04  0.16668014035E+04  0.00000000000E+00 0.  1.
         21   -1    0    0  501  502  0.00000000000E+00 -0.00000000000E+00 -0.40511007504E+03  0.40511007504E+03  0.00000000000E+00 0.  1.
        -13    1    1    2    0    0  0.61386977408E+02  0.36755868910E+03  0.90233620247E+03  0.97625733513E+03  0.10566000000E+00 0.  1.
         13    1    1    2    0    0 -0.43025842030E+03 -0.24737018319E+03  0.47891494691E+03  0.68969112892E+03  0.10566000000E+00 0. -1.
          4    1    1    2  501    0  0.36887144289E+03 -0.12018850591E+03 -0.11955982096E+03  0.40596301447E+03  0.00000000000E+00 0.  1.
</event>
<event>
 5    1  0.7625606E-005  0.1599044E+03  0.7818608E-02  0.1091734E+00
         -4   -1    0    0    0  501 -0.00000000000E+00  0.00000000000E+00  0.26393087567E+03  0.26393087567E+03  0.00000000000E+00 0. -1.
         21   -1    0    0  501  502  0.00000000000E+00 -0.00000000000E+00 -0.17254541223E+03  0.17254541223E+03  0.00000000000E+00 0.  1.
        -13    1    1    2    0    0  0.11137807240E+02 -0.10687239784E+03 -0.61371943987E+02  0.12374282542E+03  0.10566000000E+00 0.  1.
         13    1    1    2    0    0 -0.26090120717E+02  0.18476789652E+03  0.13792404587E+03  0.23204077999E+03  0.10566000000E+00 0. -1.
         -4    1    1    2    0  502  0.14952313477E+02 -0.77895498687E+02  0.14833361556E+02  0.80692682500E+02  0.00000000000E+00 0. -1.
</event>
<event>
 5    1  0.7625606E-005  0.4988456E+03  0.7818608E-02  0.9803118E-01
         21   -1    0    0  501  502  0.00000000000E+00  0.00000000000E+00  0.26581212137E+03  0.26581212137E+03  0.00000000000E+00 0. -1.
         -4   -1    0    0    0  501 -0.00000000000E+00 -0.00000000000E+00 -0.15898723998E+04  0.15898723998E+04  0.00000000000E+00 0. -1.
        -13    1    1    2    0    0  0.78947253861E+02 -0.13901795926E+03 -0.57784038594E+03  0.59954831722E+03  0.10566000000E+00 0.  1.
         13    1    1    2    0    0  0.15569665442E+03  0.52809280179E+03 -0.34304761568E+03  0.64869494625E+03  0.10566000000E+00 0. -1.
         -4    1    1    2    0  502 -0.23464390828E+03 -0.38907484252E+03 -0.40317227682E+03  0.60744125772E+03  0.00000000000E+00 0. -1.
</event>
<event>
 5    1  0.7625606E-005  0.4975731E+03  0.7818608E-02  0.9871334E-01
         21   -1    0    0  501  502  0.00000000000E+00  0.00000000000E+00  0.35335681792E+03  0.35335681792E+03  0.00000000000E+00 0.  1.
          4   -1    0    0  502    0 -0.00000000000E+00 -0.00000000000E+00 -0.13054688494E+04  0.13054688494E+04  0.00000000000E+00 0.  1.
        -13    1    1    2    0    0  0.50559040844E+03 -0.98557243002E+02 -0.19300725378E+03  0.55007908743E+03  0.10566000000E+00 0.  1.
         13    1    1    2    0    0 -0.17948273034E+02  0.12658744041E+03 -0.57131135530E+03  0.58544273540E+03  0.10566000000E+00 0. -1.
          4    1    1    2  501    0 -0.48764213540E+03 -0.28030197406E+02 -0.18779342244E+03  0.52330384453E+03  0.00000000000E+00 0.  1.
</event>
<event>
 5    1  0.7625606E-005  0.1671752E+03  0.7818608E-02  0.1085307E+00
          4   -1    0    0  502    0 -0.00000000000E+00  0.00000000000E+00  0.38494780200E+03  0.38494780200E+03  0.00000000000E+00 0.  1.
         21   -1    0    0  501  502  0.00000000000E+00 -0.00000000000E+00 -0.10347008757E+03  0.10347008757E+03  0.00000000000E+00 0. -1.
        -13    1    1    2    0    0 -0.10200560469E+02  0.15507929138E+03  0.12995078932E+03  0.20258543101E+03  0.10566000000E+00 0.  1.
         13    1    1    2    0    0  0.19836938314E+01 -0.17954547740E+03  0.17515709715E+03  0.25083965663E+03  0.10566000000E+00 0. -1.
          4    1    1    2  501    0  0.82168666372E+01  0.24466186019E+02 -0.23630172037E+02  0.34992801919E+02  0.00000000000E+00 0.  1.
</event>
<event>
 5    1  0.7625606E-005  0.4909782E+03  0.7818608E-02  0.9897393E-01
          4   -1    0    0  502    0 -0.00000000000E+00  0.00000000000E+00  0.99677789327E+03  0.99677789327E+03  0.00000000000E+00 0.  1.
         21   -1    0    0  501  502  0.00000000000E+00 -0.00000000000E+00 -0.32023003639E+03  0.32023003639E+03  0.00000000000E+00 0.  1.
        -13    1    1    2    0    0  0.29849337548E+03 -0.41737960601E+03  0.19107361712E+03  0.54755197839E+03  0.10566000000E+00 0.  1.
         13    1    1    2    0    0  0.56184184832E+02  0.10821501558E+03  0.14049428613E+03  0.18602636325E+03  0.10566000000E+00 0. -1.
          4    1    1    2  501    0 -0.35467756031E+03  0.30916459043E+03  0.34497995363E+03  0.58342958802E+03  0.00000000000E+00 0.  1.
</event>
<event>
 5    1  0.7625606E-005  0.4492086E+03  0.7818608E-02  0.9610265E-01
         21   -1    0    0  501  502  0.00000000000E+00  0.00000000000E+00  0.85844627159E+03  0.85844627159E+03  0.00000000000E+00 0.  1.
          4   -1    0    0  502    0 -0.00000000000E+00 -0.00000000000E+00 -0.84630038943E+03  0.84630038943E+03  0.00000000000E+00 0.  1.
        -13    1    1    2    0    0  0.46136287678E+03  0.36012669234E+03  0.31794605893E+01  0.58528374208E+03  0.10566000000E+00 0.  1.
         13    1    1    2    0    0 -0.20184887479E+02 -0.42779251102E+03 -0.34488920012E+03  0.54987492550E+03  0.10566000000E+00 0. -1.
          4    1    1    2  501    0 -0.44117798930E+03  0.67665818682E+02  0.35385562170E+03  0.56958799344E+03  0.00000000000E+00 0.  1.
</event>
<event>
 5    1  0.7625606E-005  0.4486849E+03  0.7818608E-02  0.9701420E-01
         21   -1    0    0  501  502  0.00000000000E+00  0.00000000000E+00  0.24275491876E+03  0.24275491876E+03  0.00000000000E+00 0. -1.
         -4   -1    0    0    0  501 -0.00000000000E+00 -0.00000000000E+00 -0.19926990821E+04  0.19926990821E+04  0.00000000000E+00 0. -1.
        -13    1    1    2    0    0  0.31177883999E+03  0.10060504262E+02 -0.20993109716E+03  0.37600310575E+03  0.10566000000E+00 0.  1.
         13    1    1    2    0    0 -0.26121293222E+03  0.43986007845E+03 -0.11620393420E+04  0.12696631554E+04  0.10566000000E+00 0. -1.
         -4    1    1    2    0  502 -0.50565907778E+02 -0.44992058271E+03 -0.37797372414E+03  0.58978773971E+03  0.00000000000E+00 0. -1.
</event>
<event>
 5    1  0.7625606E-005  0.1930904E+03  0.7818608E-02  0.1064979E+00
         21   -1    0    0  501  502  0.00000000000E+00  0.00000000000E+00  0.94265336961E+02  0.94265336961E+02  0.00000000000E+00 0.  1.
         -4   -1    0    0    0  501 -0.00000000000E+00 -0.00000000000E+00 -0.60679138791E+03  0.60679138791E+03  0.00000000000E+00 0. -1.
        -13    1    1    2    0    0  0.80888406193E+02 -0.18530623833E+03 -0.22535678122E+03  0.30276562921E+03  0.10566000000E+00 0.  1.
         13    1    1    2    0    0 -0.35000795739E+02  0.18541675773E+03 -0.29651428388E+03  0.35146146511E+03  0.10566000000E+00 0. -1.
         -4    1    1    2    0  502 -0.45887610454E+02 -0.11051940137E+00  0.93450141582E+01  0.46829630549E+02  0.00000000000E+00 0. -1.
</event>
<event>
 5    1  0.7625606E-005  0.4101018E+03  0.7818608E-02  0.9745712E-01
          4   -1    0    0  502    0 -0.00000000000E+00  0.00000000000E+00  0.51445269867E+03  0.51445269867E+03  0.00000000000E+00 0.  1.
         21   -1    0    0  501  502  0.00000000000E+00 -0.00000000000E+00 -0.10467795997E+04  0.10467795997E+04  0.00000000000E+00 0.  1.
        -13    1    1    2    0    0  0.42042965486E+03 -0.10929578180E+02 -0.58803292451E+03  0.72295455032E+03  0.10566000000E+00 0.  1.
         13    1    1    2    0    0 -0.87961228626E+02 -0.33916346840E+03  0.59829027641E+02  0.35545542583E+03  0.10566000000E+00 0. -1.
          4    1    1    2  501    0 -0.33246842623E+03  0.35009304658E+03 -0.41230041913E+01  0.48282232226E+03  0.00000000000E+00 0.  1.
</event>
<event>
 5    1  0.7625606E-005  0.2435478E+03  0.7818608E-02  0.1042364E+00
         21   -1    0    0  501  502  0.00000000000E+00  0.00000000000E+00  0.80676290613E+03  0.80676290613E+03  0.00000000000E+00 0. -1.
         -4   -1    0    0    0  501 -0.00000000000E+00 -0.00000000000E+00 -0.46168267755E+03  0.46168267755E+03  0.00000000000E+00 0. -1.
        -13    1    1    2    0    0 -0.85400119326E+02 -0.16710012610E+03  0.37326517918E+02  0.19133455681E+03  0.10566000000E+00 0.  1.
         13    1    1    2    0    0  0.10348518873E+03 -0.21260264392E+03  0.56879056672E+03  0.61598034744E+03  0.10566000000E+00 0. -1.
         -4    1    1    2    0  502 -0.18085069407E+02  0.37970277002E+03 -0.26103685606E+03  0.46113067944E+03  0.00000000000E+00 0. -1.
</event>
<event>
 5    1  0.7625606E-005  0.5028028E+03  0.7818608E-02  0.9707434E-01
         21   -1    0    0  501  502  0.00000000000E+00  0.00000000000E+00  0.33137885865E+03  0.33137885865E+03  0.00000000000E+00 0. -1.
         -4   -1    0    0    0  501 -0.00000000000E+00 -0.00000000000E+00 -0.13775520542E+04  0.13775520542E+04  0.00000000000E+00 0. -1.
        -13    1    1    2    0    0 -0.14032632203E+03 -0.16562424242E+03 -0.42636297128E+03  0.47844358160E+03  0.10566000000E+00 0.  1.
         13    1    1    2    0    0  0.42917832791E+02  0.60486179859E+03 -0.42341457597E+03  0.73958072586E+03  0.10566000000E+00 0. -1.
         -4    1    1    2    0  502  0.97408489234E+02 -0.43923755617E+03 -0.19639564827E+03  0.49090660536E+03  0.00000000000E+00 0. -1.
</event>
<event>
 5    1  0.7625606E-005  0.2414122E+03  0.7818608E-02  0.1034942E+00
         21   -1    0    0  501  502  0.00000000000E+00  0.00000000000E+00  0.48350480727E+03  0.48350480727E+03  0.00000000000E+00 0. -1.
         -4   -1    0    0    0  501 -0.00000000000E+00 -0.00000000000E+00 -0.93532258905E+03  0.93532258905E+03  0.00000000000E+00 0. -1.
        -13    1    1    2    0    0  0.45334486147E+01  0.25247206682E+03 -0.28717451986E+03  0.38240281471E+03  0.10566000000E+00 0.  1.
         13    1    1    2    0    0 -0.88254725518E+01 -0.14088094050E+03  0.41902861858E+03  0.44216549245E+03  0.10566000000E+00 0. -1.
         -4    1    1    2    0  502  0.42920239372E+01 -0.11159112632E+03 -0.58367188051E+03  0.59425908916E+03  0.00000000000E+00 0. -1.
</event>
<event>
 5    1  0.7625606E-005  0.4649064E+03  0.7818608E-02  0.1002831E+00
         21   -1    0    0  501  502  0.00000000000E+00  0.00000000000E+00  0.25668722620E+03  0.25668722620E+03  0.00000000000E+00 0. -1.
         -4   -1    0    0    0  501 -0.00000000000E+00 -0.00000000000E+00 -0.12192319593E+04  0.12192319593E+04  0.00000000000E+00 0. -1.
        -13    1    1    2    0    0 -0.44761811550E+02 -0.81752140746E+02 -0.15219093108E+03  0.17846322578E+03  0.10566000000E+00 0.  1.
         13    1    1    2    0    0  0.44746626609E+02 -0.40795772594E+03 -0.67399833371E+03  0.78911693161E+03  0.10566000000E+00 0. -1.
         -4    1    1    2    0  502  0.15184940771E-01  0.48970986669E+03 -0.13635546832E+03  0.50833902811E+03  0.00000000000E+00 0. -1.
</event>
<event>
 5    1  0.7625606E-005  0.3846633E+02  0.7818608E-02  0.1347485E+00
         21   -1    0    0  501  502  0.00000000000E+00  0.00000000000E+00  0.40443450851E+03  0.40443450851E+03  0.00000000000E+00 0.  1.
          4   -1    0    0  502    0 -0.00000000000E+00 -0.00000000000E+00 -0.97702328699E+02  0.97702328699E+02  0.00000000000E+00 0.  1.
        -13    1    1    2    0    0 -0.38604399497E+01 -0.36414014772E+02 -0.75455786397E+02  0.83871749315E+02  0.10566000000E+00 0.  1.
         13    1    1    2    0    0  0.48377977307E+01  0.65689218220E+02  0.44917322206E+02  0.79724868613E+02  0.10566000000E+00 0. -1.
          4    1    1    2  501    0 -0.97735778107E+00 -0.29275203448E+02  0.33727064400E+03  0.33854021928E+03  0.00000000000E+00 0.  1.
</event>
<event>
 5    1  0.7625606E-005  0.5019995E+03  0.7818608E-02  0.9653130E-01
         21   -1    0    0  501  502  0.00000000000E+00  0.00000000000E+00  0.63667402798E+03  0.63667402798E+03  0.00000000000E+00 0.  1.
          4   -1    0    0  502    0 -0.00000000000E+00 -0.00000000000E+00 -0.15342228180E+04  0.15342228180E+04  0.00000000000E+00 0.  1.
        -13    1    1    2    0    0 -0.12383316322E+03 -0.17989873478E+03 -0.50093166277E+03  0.54647117858E+03  0.10566000000E+00 0.  1.
         13    1    1    2    0    0  0.61313881964E+03  0.67722534537E+02 -0.77879533741E+03  0.99350276425E+03  0.10566000000E+00 0. -1.
          4    1    1    2  501    0 -0.48930565642E+03  0.11217620024E+03  0.38217821020E+03  0.63092290310E+03  0.00000000000E+00 0.  1.
</event>
<event>
 5    1  0.7625606E-005  0.4847905E+03  0.7818608E-02  0.9700177E-01
         21   -1    0    0  501  502  0.00000000000E+00  0.00000000000E+00  0.67500938169E+03  0.67500938169E+03  0.00000000000E+00 0. -1.
         -4   -1    0    0    0  501 -0.00000000000E+00 -0.00000000000E+00 -0.60787797560E+03  0.60787797560E+03  0.00000000000E+00 0. -1.
        -13    1    1    2    0    0  0.23325685691E+03 -0.85342901888E+02 -0.65129401912E+02  0.25677621065E+03  0.10566000000E+00 0.  1.
         13    1    1    2    0    0  0.38913623195E+03  0.86794863799E+01  0.26253181260E+02  0.39011739411E+03  0.10566000000E+00 0. -1.
         -4    1    1    2    0  502 -0.62239308886E+03  0.76663415508E+02  0.10600762674E+03  0.63599375253E+03  0.00000000000E+00 0. -1.
</event>
<event>
 5    1  0.7625606E-005  0.4931329E+03  0.7818608E-02  0.9745571E-01
          4   -1    0    0  502    0 -0.00000000000E+00  0.00000000000E+00  0.19164686243E+04  0.19164686243E+04  0.00000000000E+00 0.  1.
         21   -1    0    0  501  502  0.00000000000E+00 -0.00000000000E+00 -0.25505253307E+03  0.25505253307E+03  0.00000000000E+00 0.  1.
        -13    1    1    2    0    0 -0.58487211807E+03  0.69859298988E+02  0.36825198320E+03  0.69466916619E+03  0.10566000000E+00 0.  1.
         13    1    1    2    0    0  0.19677882754E+03  0.43927695658E+02  0.86375175827E+03  0.88697162328E+03  0.10566000000E+00 0. -1.
          4    1    1    2  501    0  0.38809329053E+03 -0.11378699465E+03  0.42941234971E+03  0.58988036786E+03  0.00000000000E+00 0.  1.
</event>
<event>
 5    1  0.7625606E-005  0.3306912E+03  0.7818608E-02  0.1011059E+00
          4   -1    0    0  502    0 -0.00000000000E+00  0.00000000000E+00  0.85482774048E+03  0.85482774048E+03  0.00000000000E+00 0.  1.
         21   -1    0    0  501  502  0.00000000000E+00 -0.00000000000E+00 -0.51396747486E+03  0.51396747486E+03  0.00000000000E+00 0.  1.
        -13    1    1    2    0    0 -0.38846035508E+03  0.21209882389E+03  0.34033754724E+03  0.55831623279E+03  0.10566000000E+00 0.  1.
         13    1    1    2    0    0  0.70991545260E+02 -0.18536391067E+03  0.30884061316E+03  0.36712683691E+03  0.10566000000E+00 0. -1.
          4    1    1    2  501    0  0.31746880982E+03 -0.26734913216E+02 -0.30831789479E+03  0.44335214564E+03  0.00000000000E+00 0.  1.
</event>
<event>
 5    1  0.7625606E-005  0.4870679E+03  0.7818608E-02  0.9677542E-01
         -4   -1    0    0    0  501 -0.00000000000E+00  0.00000000000E+00  0.29377917099E+04  0.29377917099E+04  0.00000000000E+00 0. -1.
         21   -1    0    0  501  502  0.00000000000E+00 -0.00000000000E+00 -0.18116005297E+03  0.18116005297E+03  0.00000000000E+00 0. -1.
        -13    1    1    2    0    0  0.15404610869E+03 -0.21568279286E+03  0.14085680792E+04  0.14332875900E+04  0.10566000000E+00 0.  1.
         13    1    1    2    0    0 -0.36240741994E+03 -0.28302770288E+03  0.74833965881E+03  0.87832572247E+03  0.10566000000E+00 0. -1.
         -4    1    1    2    0  502  0.20836131126E+03  0.49871049574E+03  0.59972391894E+03  0.80733845043E+03  0.00000000000E+00 0. -1.
</event>
<event>
 5    1  0.7625606E-005  0.4624834E+03  0.7818608E-02  0.9564223E-01
         21   -1    0    0  501  502  0.00000000000E+00  0.00000000000E+00  0.42067912153E+03  0.42067912153E+03  0.00000000000E+00 0.  1.
          4   -1    0    0  502    0 -0.00000000000E+00 -0.00000000000E+00 -0.14188478627E+04  0.14188478627E+04  0.00000000000E+00 0.  1.
        -13    1    1    2    0    0  0.59096949221E+03  0.27790617202E+03 -0.17743473937E+02  0.65329290766E+03  0.10566000000E+00 0.  1.
         13    1    1    2    0    0 -0.36882079874E+03 -0.19599519260E+03 -0.50681253320E+03  0.65673575514E+03  0.10566000000E+00 0. -1.
          4    1    1    2  501    0 -0.22214869347E+03 -0.81910979420E+02 -0.47361273402E+03  0.52949832142E+03  0.00000000000E+00 0.  1.
</event>
<event>
 5    1  0.7625606E-005  0.3500551E+03  0.7818608E-02  0.9885545E-01
         21   -1    0    0  501  502  0.00000000000E+00  0.00000000000E+00  0.53231720597E+03  0.53231720597E+03  0.00000000000E+00 0. -1.
         -4   -1    0    0    0  501 -0.00000000000E+00 -0.00000000000E+00 -0.70243176418E+03  0.70243176418E+03  0.00000000000E+00 0. -1.
        -13    1    1    2    0    0  0.33741037856E+03 -0.34561029283E+01  0.19909862337E+03  0.39178818410E+03  0.10566000000E+00 0.  1.
         13    1    1    2    0    0 -0.33190453400E+03 -0.12935350839E+03 -0.52734382719E+03  0.63638390384E+03  0.10566000000E+00 0. -1.
         -4    1    1    2    0  502 -0.55058445617E+01  0.13280961132E+03  0.15813064561E+03  0.20657688222E+03  0.00000000000E+00 0. -1.
</event>
<event>
 5    1  0.7625606E-005  0.4932858E+03  0.7818608E-02  0.9798681E-01
         21   -1    0    0  501  502  0.00000000000E+00  0.00000000000E+00  0.76538977655E+03  0.76538977655E+03  0.00000000000E+00 0. -1.
         -4   -1    0    0    0  501 -0.00000000000E+00 -0.00000000000E+00 -0.63213985502E+03  0.63213985502E+03  0.00000000000E+00 0. -1.
        -13    1    1    2    0    0 -0.16543725429E+03 -0.28420050824E+02 -0.25489641459E+03  0.30520382981E+03  0.10566000000E+00 0.  1.
         13    1    1    2    0    0  0.31964035219E+03 -0.41177884176E+03  0.34237142591E+03  0.62365853936E+03  0.10566000000E+00 0. -1.
         -4    1    1    2    0  502 -0.15420309790E+03  0.44019889259E+03  0.45774910210E+02  0.46866726240E+03  0.00000000000E+00 0. -1.
</event>
<event>
 5    1  0.7625606E-005  0.4136852E+03  0.7818608E-02  0.9690333E-01
         21   -1    0    0  501  502  0.00000000000E+00  0.00000000000E+00  0.18395001887E+03  0.18395001887E+03  0.00000000000E+00 0. -1.
         -4   -1    0    0    0  501 -0.00000000000E+00 -0.00000000000E+00 -0.27438100686E+04  0.27438100686E+04  0.00000000000E+00 0. -1.
        -13    1    1    2    0    0 -0.34179682028E+03  0.97886803253E+02 -0.59114147740E+03  0.68982254969E+03  0.10566000000E+00 0.  1.
         13    1    1    2    0    0  0.43693202611E+03 -0.39198813046E+03 -0.61816513772E+03  0.85246257309E+03  0.10566000000E+00 0. -1.
         -4    1    1    2    0  502 -0.95135205838E+02  0.29410132720E+03 -0.13505534346E+04  0.13854749647E+04  0.00000000000E+00 0. -1.
</event>
<event>
 5    1  0.7625606E-005  0.4559913E+03  0.7818608E-02  0.9580026E-01
          4   -1    0    0  502    0 -0.00000000000E+00  0.00000000000E+00  0.23763174767E+04  0.23763174767E+04  0.00000000000E+00 0.  1.
         21   -1    0    0  501  502  0.00000000000E+00 -0.00000000000E+00 -0.39336238602E+03  0.39336238602E+03  0.00000000000E+00 0. -1.
        -13    1    1    2    0    0 -0.38544712511E+03 -0.55102160756E+03  0.39923859754E+03  0.78203949208E+03  0.10566000000E+00 0.  1.
         13    1    1    2    0    0  0.36233693861E+02  0.43246219874E+03  0.15587171994E+04  0.16180036318E+04  0.10566000000E+00 0. -1.
          4    1    1    2  501    0  0.34921343124E+03  0.11855940882E+03  0.24999293799E+02  0.36963673880E+03  0.00000000000E+00 0.  1.
</event>
<event>
 5    1  0.7625606E-005  0.6497325E+03  0.7818608E-02  0.9199272E-01
         -4   -1    0    0    0  501 -0.00000000000E+00  0.00000000000E+00  0.14634425759E+04  0.14634425759E+04  0.00000000000E+00 0. -1.
         21   -1    0    0  501  502  0.00000000000E+00 -0.00000000000E+00 -0.54485890671E+03  0.54485890671E+03  0.00000000000E+00 0. -1.
        -13    1    1    2    0    0  0.69551401079E+02 -0.58490139968E+03  0.45198554832E+03  0.74245403346E+03  0.10566000000E+00 0.  1.
         13    1    1    2    0    0 -0.17266901761E+03  0.78784793889E+03  0.71305932511E+02  0.80969346769E+03  0.10566000000E+00 0. -1.
         -4    1    1    2    0  502  0.10311761654E+03 -0.20294653920E+03  0.39529218835E+03  0.45615398144E+03  0.00000000000E+00 0. -1.
</event>
<event>
 5    1  0.7625606E-005  0.4701628E+03  0.7818608E-02  0.9699696E-01
         21   -1    0    0  501  502  0.00000000000E+00  0.00000000000E+00  0.15233633038E+04  0.15233633038E+04  0.00000000000E+00 0.  1.
          4   -1    0    0  502    0 -0.00000000000E+00 -0.00000000000E+00 -0.27219244382E+03  0.27219244382E+03  0.00000000000E+00 0.  1.
        -13    1    1    2    0    0  0.55358132008E+03  0.29562481941E+03  0.57070778400E+03  0.84826511049E+03  0.10566000000E+00 0.  1.
         13    1    1    2    0    0 -0.17777750051E+03 -0.20684730501E+03  0.29141073146E+03  0.39913766152E+03  0.10566000000E+00 0. -1.
          4    1    1    2  501    0 -0.37580381958E+03 -0.88777514408E+02  0.38905234448E+03  0.54815297556E+03  0.00000000000E+00 0.  1.
</event>
<event>
 5    1  0.7625606E-005  0.1112223E+03  0.7818608E-02  0.1147215E+00
         21   -1    0    0  501  502  0.00000000000E+00  0.00000000000E+00  0.19700700895E+03  0.19700700895E+03  0.00000000000E+00 0. -1.
          4   -1    0    0  502    0 -0.00000000000E+00 -0.00000000000E+00 -0.10945500204E+03  0.10945500204E+03  0.00000000000E+00 0.  1.
        -13    1    1    2    0    0 -0.94366584673E+02  0.48562942793E+02 -0.33807618428E+02  0.11138392139E+03  0.10566000000E+00 0.  1.
         13    1    1    2    0    0  0.10908623506E+03 -0.65958642004E+02  0.88883675774E+02  0.15540485230E+03  0.10566000000E+00 0. -1.
          4    1    1    2  501    0 -0.14719650391E+02  0.17395699210E+02  0.32475949563E+02  0.39673237310E+02  0.00000000000E+00 0.  1.
</event>
<event>
 5    1  0.7625606E-005  0.4935269E+03  0.7818608E-02  0.9492274E-01
         21   -1    0    0  501  502  0.00000000000E+00  0.00000000000E+00  0.25222943726E+03  0.25222943726E+03  0.00000000000E+00 0. -1.
         -4   -1    0    0    0  501 -0.00000000000E+00 -0.00000000000E+00 -0.23184747094E+04  0.23184747094E+04  0.00000000000E+00 0. -1.
        -13    1    1    2    0    0 -0.41996817683E+03 -0.54182728003E+02 -0.87688786940E+03  0.97377686572E+03  0.10566000000E+00 0.  1.
         13    1    1    2    0    0  0.63096221501E+03  0.33436192452E+03 -0.82684544011E+03  0.10925129777E+04  0.10566000000E+00 0. -1.
         -4    1    1    2    0  502 -0.21099403819E+03 -0.28017919652E+03 -0.36251196263E+03  0.50441430329E+03  0.00000000000E+00 0. -1.
</event>
<event>
 5    1  0.7625606E-005  0.1225023E+03  0.7818608E-02  0.1131910E+00
         21   -1    0    0  501  502  0.00000000000E+00  0.00000000000E+00  0.13171596074E+03  0.13171596074E+03  0.00000000000E+00 0.  1.
         -4   -1    0    0    0  501 -0.00000000000E+00 -0.00000000000E+00 -0.18730625303E+03  0.18730625303E+03  0.00000000000E+00 0. -1.
        -13    1    1    2    0    0  0.50209595854E+02 -0.10669891487E+03 -0.72533542904E+02  0.13844416911E+03  0.10566000000E+00 0.  1.
         13    1    1    2    0    0 -0.58613263627E+02  0.11576303671E+03 -0.29037143717E+02  0.13296526697E+03  0.10566000000E+00 0. -1.
         -4    1    1    2    0  502  0.84036677734E+01 -0.90641218403E+01  0.45980394327E+02  0.47612777689E+02  0.00000000000E+00 0. -1.
</event>
<event>
 5    1  0.7625606E-005  0.4764553E+03  0.7818608E-02  0.9700310E-01
          4   -1    0    0  502    0 -0.00000000000E+00  0.00000000000E+00  0.13803995274E+04  0.13803995274E+04  0.00000000000E+00 0.  1.
         21   -1    0    0  501  502  0.00000000000E+00 -0.00000000000E+00 -0.55870196348E+03  0.55870196348E+03  0.00000000000E+00 0.  1.
        -13    1    1    2    0    0  0.43844268204E+03  0.70717311749E+02 -0.99175805810E+02  0.45504810211E+03  0.10566000000E+00 0.  1.
         13    1    1    2    0    0  0.21683530337E+02  0.26062263001E+03  0.87720855236E+03  0.91536287136E+03  0.10566000000E+00 0. -1.
          4    1    1    2  501    0 -0.46012621238E+03 -0.33133994176E+03  0.43664817379E+02  0.56869051741E+03  0.00000000000E+00 0.  1.
</event>
<event>
 5    1  0.7625606E-005  0.4173315E+03  0.7818608E-02  0.9680284E-01
         21   -1    0    0  501  502  0.00000000000E+00  0.00000000000E+00  0.15783554290E+03  0.15783554290E+03  0.00000000000E+00 0.  1.
         -4   -1    0    0    0  501 -0.00000000000E+00 -0.00000000000E+00 -0.19235139726E+04  0.19235139726E+04  0.00000000000E+00 0. -1.
        -13    1    1    2    0    0 -0.38575479557E+03 -0.18137202227E+03 -0.54715062656E+03  0.69359670708E+03  0.10566000000E+00 0.  1.
         13    1    1    2    0    0  0.36967219800E+03  0.18497137611E+03 -0.12690156224E+04  0.13346432501E+04  0.10566000000E+00 0. -1.
         -4    1    1    2    0  502  0.16082597572E+02 -0.35993538437E+01  0.50487819258E+02  0.53109558332E+02  0.00000000000E+00 0. -1.
</event>
<event>
 5    1  0.7625606E-005  0.3389577E+03  0.7818608E-02  0.1014757E+00
         -4   -1    0    0    0  501 -0.00000000000E+00  0.00000000000E+00  0.63282884197E+03  0.63282884197E+03  0.00000000000E+00 0. -1.
         21   -1    0    0  501  502  0.00000000000E+00 -0.00000000000E+00 -0.58640626590E+03  0.58640626590E+03  0.00000000000E+00 0. -1.
        -13    1    1    2    0    0 -0.10044133540E+02  0.16347404746E+03 -0.32762050343E+02  0.16702697961E+03  0.10566000000E+00 0.  1.
         13    1    1    2    0    0  0.25338635219E+03 -0.24642100852E+03 -0.38434366401E+03  0.52215708379E+03  0.10566000000E+00 0. -1.
         -4    1    1    2    0  502 -0.24334221865E+03  0.82946961066E+02  0.46352829043E+03  0.53005104448E+03  0.00000000000E+00 0. -1.
</event>
<event>
 5    1  0.7625606E-005  0.3477985E+03  0.7818608E-02  0.1026890E+00
         -4   -1    0    0    0  501 -0.00000000000E+00  0.00000000000E+00  0.17525592177E+04  0.17525592177E+04  0.00000000000E+00 0. -1.
         21   -1    0    0  501  502  0.00000000000E+00 -0.00000000000E+00 -0.12835058678E+03  0.12835058678E+03  0.00000000000E+00 0. -1.
        -13    1    1    2    0    0 -0.61610898036E+02  0.83153977635E+02  0.29613863827E+03  0.31370143608E+03  0.10566000000E+00 0.  1.
         13    1    1    2    0    0  0.38877989915E+03  0.25356423541E+01  0.10798009557E+04  0.11476612543E+04  0.10566000000E+00 0. -1.
         -4    1    1    2    0  502 -0.32716900111E+03 -0.85689619989E+02  0.24826903693E+03  0.41954711412E+03  0.00000000000E+00 0. -1.
</event>
<event>
 5    1  0.7625606E-005  0.3199637E+03  0.7818608E-02  0.1027355E+00
          4   -1    0    0  502    0 -0.00000000000E+00  0.00000000000E+00  0.28126340254E+03  0.28126340254E+03  0.00000000000E+00 0.  1.
         21   -1    0    0  501  502  0.00000000000E+00 -0.00000000000E+00 -0.13522388148E+04  0.13522388148E+04  0.00000000000E+00 0.  1.
        -13    1    1    2    0    0 -0.38703379289E+03 -0.10051807482E+03 -0.79257769806E+02  0.40765284918E+03  0.10566000000E+00 0.  1.
         13    1    1    2    0    0  0.11854906203E+03 -0.55774935284E+02  0.48904973934E+02  0.13984431041E+03  0.10566000000E+00 0. -1.
          4    1    1    2  501    0  0.26848473086E+03  0.15629301010E+03 -0.10406226164E+04  0.10860050577E+04  0.00000000000E+00 0.  1.
</event>
<event>
 5    1  0.7625606E-005  0.2735323E+03  0.7818608E-02  0.1018871E+00
         21   -1    0    0  501  502  0.00000000000E+00  0.00000000000E+00  0.24844558941E+03  0.24844558941E+03  0.00000000000E+00 0.  1.
          4   -1    0    0  502    0 -0.00000000000E+00 -0.00000000000E+00 -0.72494045338E+03  0.72494045338E+03  0.00000000000E+00 0.  1.
        -13    1    1    2    0    0 -0.26331172366E+03 -0.21821232326E+03 -0.22061095058E+03  0.40696300142E+03  0.10566000000E+00 0.  1.
         13    1    1    2    0    0  0.24927409414E+03  0.42551641710E+02 -0.29227097293E+03  0.38648486258E+03  0.10566000000E+00 0. -1.
          4    1    1    2  501    0  0.14037629517E+02  0.17566068155E+03  0.36387059549E+02  0.17993817880E+03  0.00000000000E+00 0.  1.
</event>
<event>
 5    1  0.7625606E-005  0.5488554E+03  0.7818608E-02  0.9376872E-01
          4   -1    0    0  502    0 -0.00000000000E+00  0.00000000000E+00  0.20541085141E+04  0.20541085141E+04  0.00000000000E+00 0.  1.
         21   -1    0    0  501  502  0.00000000000E+00 -0.00000000000E+00 -0.30615058264E+03  0.30615058264E+03  0.00000000000E+00 0. -1.
        -13    1    1    2    0    0  0.44569689068E+03 -0.32010443915E+03  0.15295562856E+04  0.16250092346E+04  0.10566000000E+00 0.  1.
         13    1    1    2    0    0 -0.43813834311E+03  0.33143501169E+03  0.31796663873E+03  0.63475756725E+03  0.10566000000E+00 0. -1.
          4    1    1    2  501    0 -0.75585475726E+01 -0.11330572541E+02 -0.99564992929E+02  0.10049229489E+03  0.00000000000E+00 0.  1.
</event>
<event>
 5    1  0.7625606E-005  0.1257739E+03  0.7818608E-02  0.1127805E+00
         21   -1    0    0  501  502  0.00000000000E+00  0.00000000000E+00  0.51022393292E+02  0.51022393292E+02  0.00000000000E+00 0. -1.
          4   -1    0    0  502    0 -0.00000000000E+00 -0.00000000000E+00 -0.47039318880E+03  0.47039318880E+03  0.00000000000E+00 0.  1.
        -13    1    1    2    0    0  0.11397759256E+03  0.53998044981E+02 -0.16463019418E+03  0.20738802392E+03  0.10566000000E+00 0.  1.
         13    1    1    2    0    0 -0.11847876118E+03 -0.42270989610E+02 -0.26782121321E+03  0.29589232302E+03  0.10566000000E+00 0. -1.
          4    1    1    2  501    0  0.45011686269E+01 -0.11727055371E+02  0.13080611882E+02  0.18135235148E+02  0.00000000000E+00 0.  1.
</event>
<event>
 5    1  0.7625606E-005  0.4195682E+03  0.7818608E-02  0.9840314E-01
         21   -1    0    0  501  502  0.00000000000E+00  0.00000000000E+00  0.25689415202E+03  0.25689415202E+03  0.00000000000E+00 0. -1.
         -4   -1    0    0    0  501 -0.00000000000E+00 -0.00000000000E+00 -0.17370812490E+04  0.17370812490E+04  0.00000000000E+00 0. -1.
        -13    1    1    2    0    0  0.17805400052E+03 -0.15608720579E+03 -0.56823757564E+03  0.61559759295E+03  0.10566000000E+00 0.  1.
         13    1    1    2    0    0 -0.22818988879E+03  0.40994140861E+03 -0.42330394437E+02  0.47107797369E+03  0.10566000000E+00 0. -1.
         -4    1    1    2    0  502  0.50135888272E+02 -0.25385420283E+03 -0.86961912687E+03  0.90729983435E+03  0.00000000000E+00 0. -1.
</event>
<event>
 5    1  0.7625606E-005  0.1641831E+03  0.7818608E-02  0.1087908E+00
         21   -1    0    0  501  502  0.00000000000E+00  0.00000000000E+00  0.19620300591E+03  0.19620300591E+03  0.00000000000E+00 0. -1.
         -4   -1    0    0    0  501 -0.00000000000E+00 -0.00000000000E+00 -0.17861273596E+04  0.17861273596E+04  0.00000000000E+00 0. -1.
        -13    1    1    2    0    0  0.11375790867E+03 -0.12920490516E+03 -0.33588092054E+03  0.37742651370E+03  0.10566000000E+00 0.  1.
         13    1    1    2    0    0  0.43382808084E+02  0.16116945617E+03  0.13002581561E+03  0.21157595688E+03  0.10566000000E+00 0. -1.
         -4    1    1    2    0  502 -0.15714071675E+03 -0.31964551010E+02 -0.13840692487E+04  0.13933278949E+04  0.00000000000E+00 0. -1.
</event>
<event>
 5    1  0.7625606E-005  0.4453073E+03  0.7818608E-02  0.9851333E-01
         -4   -1    0    0    0  501 -0.00000000000E+00  0.00000000000E+00  0.82410937614E+03  0.82410937614E+03  0.00000000000E+00 0. -1.
         21   -1    0    0  501  502  0.00000000000E+00 -0.00000000000E+00 -0.64584464191E+03  0.64584464191E+03  0.00000000000E+00 0. -1.
        -13    1    1    2    0    0 -0.18253186351E+03 -0.55580721424E+02  0.38237377070E+03  0.42733688055E+03  0.10566000000E+00 0.  1.
         13    1    1    2    0    0 -0.31970319350E+03  0.26456352737E+03 -0.26937046594E+03  0.49473674923E+03  0.10566000000E+00 0. -1.
         -4    1    1    2    0  502  0.50223505702E+03 -0.20898280595E+03  0.65261429468E+02  0.54788038827E+03  0.00000000000E+00 0. -1.
</event>
<event>
 5    1  0.7625606E-005  0.3071872E+03  0.7818608E-02  0.1004382E+00
         21   -1    0    0  501  502  0.00000000000E+00  0.00000000000E+00  0.59630997190E+03  0.59630997190E+03  0.00000000000E+00 0. -1.
         -4   -1    0    0    0  501 -0.00000000000E+00 -0.00000000000E+00 -0.10017195659E+04  0.10017195659E+04  0.00000000000E+00 0. -1.
        -13    1    1    2    0    0  0.99642571329E+02 -0.32282145014E+03 -0.29393388504E+03  0.44781633582E+03  0.10566000000E+00 0.  1.
         13    1    1    2    0    0 -0.78272703036E+02  0.28296834903E+03 -0.59557388231E+03  0.66400750225E+03  0.10566000000E+00 0. -1.
         -4    1    1    2    0  502 -0.21369868292E+02  0.39853101108E+02  0.48409817339E+03  0.48620569969E+03  0.00000000000E+00 0. -1.
</event>
<event>
 5    1  0.7625606E-005  0.5368920E+03  0.7818608E-02  0.9400582E-01
          4   -1    0    0  502    0 -0.00000000000E+00  0.00000000000E+00  0.50342447490E+03  0.50342447490E+03  0.00000000000E+00 0.  1.
         21   -1    0    0  501  502  0.00000000000E+00 -0.00000000000E+00 -0.12269600453E+04  0.12269600453E+04  0.00000000000E+00 0.  1.
        -13    1    1    2    0    0  0.64190636721E+03 -0.25706402987E+03 -0.23588729907E+03  0.73059464051E+03  0.10566000000E+00 0.  1.
         13    1    1    2    0    0 -0.24621631250E+03  0.38440490055E+03 -0.27413871367E+03  0.53248628678E+03  0.10566000000E+00 0. -1.
          4    1    1    2  501    0 -0.39569005471E+03 -0.12734087068E+03 -0.21350955769E+03  0.46730359293E+03  0.00000000000E+00 0.  1.
</event>
<event>
 5    1  0.7625606E-005  0.6903625E+02  0.7818608E-02  0.1229279E+00
         -4   -1    0    0    0  501 -0.00000000000E+00  0.00000000000E+00  0.29708968255E+03  0.29708968255E+03  0.00000000000E+00 0. -1.
         21   -1    0    0  501  502  0.00000000000E+00 -0.00000000000E+00 -0.53756115714E+02  0.53756115714E+02  0.00000000000E+00 0. -1.
        -13    1    1    2    0    0  0.69484758033E+02 -0.10333741136E+02  0.63461893444E+02  0.94669640795E+02  0.10566000000E+00 0.  1.
         13    1    1    2    0    0 -0.67828900222E+02 -0.17844106020E+02  0.20606175438E+03  0.21767092045E+03  0.10566000000E+00 0. -1.
         -4    1    1    2    0  502 -0.16558578105E+01  0.28177847156E+02 -0.26190080993E+02  0.38505237018E+02  0.00000000000E+00 0. -1.
</event>
<event>
 5    1  0.7625606E-005  0.3204967E+03  0.7818608E-02  0.9991863E-01
         -4   -1    0    0    0  501 -0.00000000000E+00  0.00000000000E+00  0.14528789306E+04  0.14528789306E+04  0.00000000000E+00 0. -1.
         21   -1    0    0  501  502  0.00000000000E+00 -0.00000000000E+00 -0.17741013123E+03  0.17741013123E+03  0.00000000000E+00 0.  1.
        -13    1    1    2    0    0 -0.38208205080E+02 -0.31850687584E+03  0.84532649220E+02  0.33174127998E+03  0.10566000000E+00 0.  1.
         13    1    1    2    0    0  0.48779205545E+02  0.31673910479E+03  0.12232342920E+04  0.12645177799E+04  0.10566000000E+00 0. -1.
         -4    1    1    2    0  502 -0.10571000466E+02  0.17677710539E+01 -0.32298141856E+02  0.34030001949E+02  0.00000000000E+00 0. -1.
</event>
<event>
 5    1  0.7625606E-005  0.2715126E+03  0.7818608E-02  0.1033736E+00
         21   -1    0    0  501  502  0.00000000000E+00  0.00000000000E+00  0.16848099597E+03  0.16848099597E+03  0.00000000000E+00 0.  1.
          4   -1    0    0  502    0 -0.00000000000E+00 -0.00000000000E+00 -0.22385692603E+04  0.22385692603E+04  0.00000000000E+00 0.  1.
        -13    1    1    2    0    0 -0.12801568647E+03  0.22849470925E+03 -0.52011293644E+01  0.26196356817E+03  0.10566000000E+00 0.  1.
         13    1    1    2    0    0 -0.17144409932E+03  0.40126567423E+02 -0.53719583646E+03  0.56531637026E+03  0.10566000000E+00 0. -1.
          4    1    1    2  501    0  0.29945978579E+03 -0.26862127667E+03 -0.15276912985E+04  0.15797703178E+04  0.00000000000E+00 0.  1.
</event>
<event>
 5    1  0.7625606E-005  0.4973374E+03  0.7818608E-02  0.9865621E-01
          4   -1    0    0  502    0 -0.00000000000E+00  0.00000000000E+00  0.51427433411E+03  0.51427433411E+03  0.00000000000E+00 0.  1.
         21   -1    0    0  501  502  0.00000000000E+00 -0.00000000000E+00 -0.72738868959E+03  0.72738868959E+03  0.00000000000E+00 0.  1.
        -13    1    1    2    0    0  0.41961324833E+03  0.21854196317E+03 -0.36300639696E+02  0.47450354629E+03  0.10566000000E+00 0.  1.
         13    1    1    2    0    0 -0.30455327338E+02  0.12691903948E+03  0.11202081368E+03  0.17200187036E+03  0.10566000000E+00 0. -1.
          4    1    1    2  501    0 -0.38915792099E+03 -0.34546100264E+03 -0.28883452946E+03  0.59515760705E+03  0.00000000000E+00 0.  1.
</event>
<event>
 5    1  0.7625606E-005  0.5022151E+03  0.7818608E-02  0.9834988E-01
         21   -1    0    0  501  502  0.00000000000E+00  0.00000000000E+00  0.41065271652E+03  0.41065271652E+03  0.00000000000E+00 0. -1.
         -4   -1    0    0    0  501 -0.00000000000E+00 -0.00000000000E+00 -0.83500982392E+03  0.83500982392E+03  0.00000000000E+00 0. -1.
        -13    1    1    2    0    0 -0.32435637810E+02  0.13678836760E+03 -0.11594910436E+03  0.18222879597E+03  0.10566000000E+00 0.  1.
         13    1    1    2    0    0  0.46195095618E+03  0.15986556035E+03 -0.21097651979E+03  0.53241598996E+03  0.10566000000E+00 0. -1.
         -4    1    1    2    0  502 -0.42951531837E+03 -0.29665392796E+03 -0.97431483249E+02  0.53101775451E+03  0.00000000000E+00 0. -1.
</event>
<event>
 5    1  0.7625606E-005  0.2398133E+03  0.7818608E-02  0.1035811E+00
          4   -1    0    0  502    0 -0.00000000000E+00  0.00000000000E+00  0.39022475760E+03  0.39022475760E+03  0.00000000000E+00 0.  1.
         21   -1    0    0  501  502  0.00000000000E+00 -0.00000000000E+00 -0.31559753914E+03  0.31559753914E+03  0.00000000000E+00 0. -1.
        -13    1    1    2    0    0 -0.20670520241E+03 -0.14189661850E+03  0.22386113184E+03  0.33611829548E+03  0.10566000000E+00 0.  1.
         13    1    1    2    0    0  0.21821737655E+03  0.31106811145E+02 -0.13218597656E+03  0.25702062308E+03  0.10566000000E+00 0. -1.
          4    1    1    2  501    0 -0.11512174135E+02  0.11078980735E+03 -0.17047936831E+02  0.11268337817E+03  0.00000000000E+00 0.  1.
</event>
<event>
 5    1  0.7625606E-005  0.3472085E+03  0.7818608E-02  0.9895288E-01
         -4   -1    0    0    0  501 -0.00000000000E+00  0.00000000000E+00  0.84005603123E+02  0.84005603123E+02  0.00000000000E+00 0. -1.
         21   -1    0    0  501  502  0.00000000000E+00 -0.00000000000E+00 -0.23573585694E+04  0.23573585694E+04  0.00000000000E+00 0.  1.
        -13    1    1    2    0    0 -0.35328540535E+03  0.53221306876E+02 -0.65854852651E+03  0.74921909884E+03  0.10566000000E+00 0.  1.
         13    1    1    2    0    0  0.32959247770E+03 -0.70130299385E+02 -0.70006908012E+03  0.77694670883E+03  0.10566000000E+00 0. -1.
         -4    1    1    2    0  502  0.23692927646E+02  0.16908992509E+02 -0.91473535962E+03  0.91519836483E+03  0.00000000000E+00 0. -1.
</event>
<event>
 5    1  0.7625606E-005  0.1471552E+03  0.7818608E-02  0.1103951E+00
         21   -1    0    0  501  502  0.00000000000E+00  0.00000000000E+00  0.59677574187E+03  0.59677574187E+03  0.00000000000E+00 0.  1.
         -4   -1    0    0    0  501 -0.00000000000E+00 -0.00000000000E+00 -0.57954890814E+03  0.57954890814E+03  0.00000000000E+00 0. -1.
        -13    1    1    2    0    0 -0.71984279710E+02 -0.86100212107E+02  0.45278669414E+03  0.46648771109E+03  0.10566000000E+00 0.  1.
         13    1    1    2    0    0  0.69066002798E+02  0.13082548277E+03 -0.55914022517E+03  0.57837982525E+03  0.10566000000E+00 0. -1.
         -4    1    1    2    0  502  0.29182769118E+01 -0.44725270664E+02  0.12358036477E+03  0.13145711366E+03  0.00000000000E+00 0. -1.
</event>
<event>
 5    1  0.7625606E-005  0.9215132E+02  0.7818608E-02  0.1178238E+00
         21   -1    0    0  501  502  0.00000000000E+00  0.00000000000E+00  0.19248841958E+02  0.19248841958E+02  0.00000000000E+00 0.  1.
          4   -1    0    0  502    0 -0.00000000000E+00 -0.00000000000E+00 -0.92637163548E+03  0.92637163548E+03  0.00000000000E+00 0.  1.
        -13    1    1    2    0    0  0.92214252553E+02 -0.89046582413E+01 -0.50783129961E+03  0.51621255442E+03  0.10566000000E+00 0.  1.
         13    1    1    2    0    0 -0.92054378312E+02 -0.14054252689E+02 -0.39527986673E+03  0.40610062151E+03  0.10566000000E+00 0. -1.
          4    1    1    2  501    0 -0.15987424146E+00  0.22958910930E+02 -0.40116271795E+01  0.23307301506E+02  0.00000000000E+00 0.  1.
</event>
<event>
 5    1  0.7625606E-005  0.1048387E+03  0.7818608E-02  0.1157500E+00
         21   -1    0    0  501  502  0.00000000000E+00  0.00000000000E+00  0.15408567753E+03  0.15408567753E+03  0.00000000000E+00 0.  1.
         -4   -1    0    0    0  501 -0.00000000000E+00 -0.00000000000E+00 -0.21733874217E+03  0.21733874217E+03  0.00000000000E+00 0. -1.
        -13    1    1    2    0    0 -0.77700070288E+02 -0.67657698580E+02  0.95410818732E+01  0.10346936023E+03  0.10566000000E+00 0.  1.
         13    1    1    2    0    0 -0.31000524772E+02  0.10675369700E+03 -0.99724607914E+02  0.14933985720E+03  0.10566000000E+00 0. -1.
         -4    1    1    2    0  502  0.10870059506E+03 -0.39095998421E+02  0.26930461395E+02  0.11861520227E+03  0.00000000000E+00 0. -1.
</event>
<event>
 5    1  0.7625606E-005  0.1446948E+03  0.7818608E-02  0.1106465E+00
         21   -1    0    0  501  502  0.00000000000E+00  0.00000000000E+00  0.79876807289E+03  0.79876807289E+03  0.00000000000E+00 0.  1.
         -4   -1    0    0    0  501 -0.00000000000E+00 -0.00000000000E+00 -0.13632585654E+03  0.13632585654E+03  0.00000000000E+00 0. -1.
        -13    1    1    2    0    0  0.43041878231E+02 -0.19967706048E+03  0.62728214905E+03  0.65970177917E+03  0.10566000000E+00 0.  1.
         13    1    1    2    0    0  0.80886015963E+00  0.14075164418E+03 -0.61823651052E+02  0.15373306277E+03  0.10566000000E+00 0. -1.
         -4    1    1    2    0  502 -0.43850738391E+02  0.58925416295E+02  0.96983718361E+02  0.12165908750E+03  0.00000000000E+00 0. -1.
</event>
<event>
 5    1  0.7625606E-005  0.4242223E+03  0.7818608E-02  0.9920213E-01
         21   -1    0    0  501  502  0.00000000000E+00  0.00000000000E+00  0.44378552018E+03  0.44378552018E+03  0.00000000000E+00 0. -1.
         -4   -1    0    0    0  501 -0.00000000000E+00 -0.00000000000E+00 -0.15912399988E+04  0.15912399988E+04  0.00000000000E+00 0. -1.
        -13    1    1    2    0    0  0.12852934977E+03  0.11899562409E+03 -0.98178252090E+03  0.99728465436E+03  0.10566000000E+00 0.  1.
         13    1    1    2    0    0 -0.49548777560E+03  0.59341882205E+02 -0.32958948592E+03  0.59804584703E+03  0.10566000000E+00 0. -1.
         -4    1    1    2    0  502  0.36695842584E+03 -0.17833750629E+03  0.16391752820E+03  0.43969501759E+03  0.00000000000E+00 0. -1.
</event>
<event>
 5    1  0.7625606E-005  0.3785180E+03  0.7818608E-02  0.1024974E+00
         21   -1    0    0  501  502  0.00000000000E+00  0.00000000000E+00  0.30599505025E+04  0.30599505025E+04  0.00000000000E+00 0.  1.
          4   -1    0    0  502    0 -0.00000000000E+00 -0.00000000000E+00 -0.16388311962E+03  0.16388311962E+03  0.00000000000E+00 0.  1.
        -13    1    1    2    0    0 -0.51434000865E+02  0.31848454359E+03  0.37670107309E+03  0.49596529171E+03  0.10566000000E+00 0.  1.
         13    1    1    2    0    0 -0.62837732130E+02  0.57568167287E+02 -0.69110929143E+02  0.10972240498E+03  0.10566000000E+00 0. -1.
          4    1    1    2  501    0  0.11427173299E+03 -0.37605271088E+03  0.25884772389E+04  0.26181459254E+04  0.00000000000E+00 0.  1.
</event>
<event>
 5    1  0.7625606E-005  0.1364301E+03  0.7818608E-02  0.1150355E+00
          4   -1    0    0  502    0 -0.00000000000E+00  0.00000000000E+00  0.82338306307E+02  0.82338306307E+02  0.00000000000E+00 0.  1.
         21   -1    0    0  501  502  0.00000000000E+00 -0.00000000000E+00 -0.10734606346E+04  0.10734606346E+04  0.00000000000E+00 0.  1.
        -13    1    1    2    0    0  0.10384383515E+03  0.14677190372E+03 -0.38513920233E+02  0.18387187669E+03  0.10566000000E+00 0.  1.
         13    1    1    2    0    0 -0.70277597933E+01 -0.55295562024E+02 -0.19996469713E+03  0.20758824594E+03  0.10566000000E+00 0. -1.
          4    1    1    2  501    0 -0.96816075360E+02 -0.91476341696E+02 -0.75264371090E+03  0.76433881826E+03  0.00000000000E+00 0.  1.
</event>
<event>
 5    1  0.7625606E-005  0.9517857E+03  0.7818608E-02  0.8821260E-01
         21   -1    0    0  501  502  0.00000000000E+00  0.00000000000E+00  0.13173666233E+04  0.13173666233E+04  0.00000000000E+00 0.  1.
         -4   -1    0    0    0  501 -0.00000000000E+00 -0.00000000000E+00 -0.10951363815E+04  0.10951363815E+04  0.00000000000E+00 0. -1.
        -13    1    1    2    0    0  0.87016300493E+03 -0.33864032723E+03 -0.24376047600E+03  0.96502855253E+03  0.10566000000E+00 0.  1.
         13    1    1    2    0    0 -0.83416688476E+03  0.53094361767E+03  0.52691408992E+02  0.99020801477E+03  0.10566000000E+00 0. -1.
         -4    1    1    2    0  502 -0.35996120172E+02 -0.19230329044E+03  0.41329930877E+03  0.45726643744E+03  0.00000000000E+00 0. -1.
</event>
<event>
 5    1  0.7625606E-005  0.3346713E+03  0.7818608E-02  0.1014843E+00
         21   -1    0    0  501  502  0.00000000000E+00  0.00000000000E+00  0.25901297406E+03  0.25901297406E+03  0.00000000000E+00 0.  1.
          4   -1    0    0  502    0 -0.00000000000E+00 -0.00000000000E+00 -0.16131147174E+04  0.16131147174E+04  0.00000000000E+00 0.  1.
        -13    1    1    2    0    0  0.31086692188E+03  0.12732305781E+03  0.72238590118E+02  0.34360999583E+03  0.10566000000E+00 0.  1.
         13    1    1    2    0    0 -0.77888829088E+02  0.15075766884E+03 -0.64694196222E+03  0.66882617926E+03  0.10566000000E+00 0. -1.
          4    1    1    2  501    0 -0.23297809279E+03 -0.27808072665E+03 -0.77939837127E+03  0.85969151642E+03  0.00000000000E+00 0.  1.
</event>
<event>
 5    1  0.7625606E-005  0.2615565E+03  0.7818608E-02  0.1024572E+00
         21   -1    0    0  501  502  0.00000000000E+00  0.00000000000E+00  0.33942952589E+03  0.33942952589E+03  0.00000000000E+00 0. -1.
         -4   -1    0    0    0  501 -0.00000000000E+00 -0.00000000000E+00 -0.10424294956E+04  0.10424294956E+04  0.00000000000E+00 0. -1.
        -13    1    1    2    0    0 -0.16536861358E+03  0.34330069337E+02  0.48809641169E+02  0.17580592781E+03  0.10566000000E+00 0.  1.
         13    1    1    2    0    0  0.27494194316E+03 -0.42066955258E+02 -0.94430796358E+03  0.98441873310E+03  0.10566000000E+00 0. -1.
         -4    1    1    2    0  502 -0.10957332958E+03  0.77368859214E+01  0.19249835275E+03  0.22163436054E+03  0.00000000000E+00 0. -1.
</event>
<event>
 5    1  0.7625606E-005  0.4037139E+03  0.7818608E-02  0.9718381E-01
         21   -1    0    0  501  502  0.00000000000E+00  0.00000000000E+00  0.11132686554E+03  0.11132686554E+03  0.00000000000E+00 0. -1.
          4   -1    0    0  502    0 -0.00000000000E+00 -0.00000000000E+00 -0.25582930971E+04  0.25582930971E+04  0.00000000000E+00 0.  1.
        -13    1    1    2    0    0  0.40946646273E+03  0.45021841242E+02 -0.18043873964E+04  0.18508116160E+04  0.10566000000E+00 0.  1.
         13    1    1    2    0    0 -0.38744996802E+03  0.14716585161E+02 -0.64775612285E+03  0.75493182570E+03  0.10566000000E+00 0. -1.
          4    1    1    2  501    0 -0.22016494705E+02 -0.59738426403E+02  0.51772876729E+01  0.63876521006E+02  0.00000000000E+00 0.  1.
</event>
<event>
 5    1  0.7625606E-005  0.2596993E+03  0.7818608E-02  0.1025486E+00
         21   -1    0    0  501  502  0.00000000000E+00  0.00000000000E+00  0.71662559146E+02  0.71662559146E+02  0.00000000000E+00 0. -1.
         -4   -1    0    0    0  501 -0.00000000000E+00 -0.00000000000E+00 -0.20717524570E+04  0.20717524570E+04  0.00000000000E+00 0. -1.
        -13    1    1    2    0    0 -0.77052871243E+01 -0.20097762489E+03 -0.27141498806E+03  0.33781279440E+03  0.10566000000E+00 0.  1.
         13    1    1    2    0    0  0.79202694307E+02  0.27114514290E+03 -0.16606715493E+04  0.16845244911E+04  0.10566000000E+00 0. -1.
         -4    1    1    2    0  502 -0.71497407183E+02 -0.70167518018E+02 -0.68003360492E+02  0.12107773064E+03  0.00000000000E+00 0. -1.
</event>
<event>
 5    1  0.7625606E-005  0.3399321E+03  0.7818608E-02  0.9995610E-01
         21   -1    0    0  501  502  0.00000000000E+00  0.00000000000E+00  0.19515830799E+03  0.19515830799E+03  0.00000000000E+00 0. -1.
         -4   -1    0    0    0  501 -0.00000000000E+00 -0.00000000000E+00 -0.15618460537E+04  0.15618460537E+04  0.00000000000E+00 0. -1.
        -13    1    1    2    0    0  0.98405154877E+02  0.24640125107E+03 -0.33549118584E+03  0.42772829925E+03  0.10566000000E+00 0.  1.
         13    1    1    2    0    0  0.74202731206E+02 -0.49277267696E+03 -0.82754981768E+03  0.96600707471E+03  0.10566000000E+00 0. -1.
         -4    1    1    2    0  502 -0.17260788608E+03  0.24637142589E+03 -0.20364674213E+03  0.36326898769E+03  0.00000000000E+00 0. -1.
</event>
<event>
 5    1  0.7625606E-005  0.1309267E+03  0.7818608E-02  0.1121609E+00
         -4   -1    0    0    0  501 -0.00000000000E+00  0.00000000000E+00  0.62544676223E+02  0.62544676223E+02  0.00000000000E+00 0. -1.
         21   -1    0    0  501  502  0.00000000000E+00 -0.00000000000E+00 -0.47844447123E+03  0.47844447123E+03  0.00000000000E+00 0.  1.
        -13    1    1    2    0    0  0.10694971761E+03  0.61691572861E+02 -0.28598559951E+03  0.31149938451E+03  0.10566000000E+00 0.  1.
         13    1    1    2    0    0 -0.10936151500E+03 -0.76194732382E+02 -0.41119634308E+02  0.13948624912E+03  0.10566000000E+00 0. -1.
         -4    1    1    2    0  502  0.24117973830E+01  0.14503159521E+02 -0.88794561196E+02  0.90003513824E+02  0.00000000000E+00 0. -1.
</event>
<event>
 5    1  0.7625606E-005  0.2566348E+03  0.7818608E-02  0.1027011E+00
         21   -1    0    0  501  502  0.00000000000E+00  0.00000000000E+00  0.76236513203E+03  0.76236513203E+03  0.00000000000E+00 0.  1.
         -4   -1    0    0    0  501 -0.00000000000E+00 -0.00000000000E+00 -0.36385257390E+03  0.36385257390E+03  0.00000000000E+00 0. -1.
        -13    1    1    2    0    0  0.25170398220E+03  0.17499425410E+03 -0.21076501342E+02  0.30728181479E+03  0.10566000000E+00 0.  1.
         13    1    1    2    0    0 -0.21739214446E+03 -0.87744464706E+02 -0.12545319274E+03  0.26588898114E+03  0.10566000000E+00 0. -1.
         -4    1    1    2    0  502 -0.34311837743E+02 -0.87249789398E+02  0.54504225221E+03  0.55304691000E+03  0.00000000000E+00 0. -1.
</event>
<event>
 5    1  0.7625606E-005  0.4293351E+03  0.7818608E-02  0.9829059E-01
         21   -1    0    0  501  502  0.00000000000E+00  0.00000000000E+00  0.36029355713E+03  0.36029355713E+03  0.00000000000E+00 0.  1.
          4   -1    0    0  502    0 -0.00000000000E+00 -0.00000000000E+00 -0.11290705129E+04  0.11290705129E+04  0.00000000000E+00 0.  1.
        -13    1    1    2    0    0 -0.12840730968E+03  0.53782155229E+03 -0.41754919680E+03  0.69288368591E+03  0.10566000000E+00 0.  1.
         13    1    1    2    0    0 -0.88938473963E+02 -0.21165716486E+03 -0.33253297681E+03  0.40408786102E+03  0.10566000000E+00 0. -1.
          4    1    1    2  501    0  0.21734578364E+03 -0.32616438743E+03 -0.18694782133E+02  0.39239252308E+03  0.00000000000E+00 0.  1.
</event>
<event>
 5    1  0.7625606E-005  0.3991022E+03  0.7818608E-02  0.1002735E+00
         21   -1    0    0  501  502  0.00000000000E+00  0.00000000000E+00  0.23662228388E+03  0.23662228388E+03  0.00000000000E+00 0. -1.
         -4   -1    0    0    0  501 -0.00000000000E+00 -0.00000000000E+00 -0.19948704847E+04  0.19948704847E+04  0.00000000000E+00 0. -1.
        -13    1    1    2    0    0  0.12340631576E+03  0.81314558647E+02 -0.86586692135E+03  0.87838870261E+03  0.10566000000E+00 0.  1.
         13    1    1    2    0    0  0.33315798846E+03 -0.19374579397E+03 -0.50337042435E+02  0.38867146404E+03  0.10566000000E+00 0. -1.
         -4    1    1    2    0  502 -0.45656430422E+03  0.11243123532E+03 -0.84204423703E+03  0.96443260194E+03  0.00000000000E+00 0. -1.
</event>
<event>
 5    1  0.7625606E-005  0.2426689E+03  0.7818608E-02  0.1050488E+00
          4   -1    0    0  502    0 -0.00000000000E+00  0.00000000000E+00  0.86074060270E+03  0.86074060270E+03  0.00000000000E+00 0.  1.
         21   -1    0    0  501  502  0.00000000000E+00 -0.00000000000E+00 -0.40280151849E+03  0.40280151849E+03  0.00000000000E+00 0.  1.
        -13    1    1    2    0    0  0.20747892896E+03  0.13643274158E+03 -0.28610564585E+03  0.37883749905E+03  0.10566000000E+00 0.  1.
         13    1    1    2    0    0 -0.16218470453E+02 -0.14785960130E+03  0.38558380510E+02  0.15366281383E+03  0.10566000000E+00 0. -1.
          4    1    1    2  501    0 -0.19126045851E+03  0.11426859722E+02  0.70548634955E+03  0.73104180832E+03  0.00000000000E+00 0.  1.
</event>
<event>
 5    1  0.7625606E-005  0.4901503E+03  0.7818608E-02  0.9906013E-01
          4   -1    0    0  502    0 -0.00000000000E+00  0.00000000000E+00  0.24480765220E+03  0.24480765220E+03  0.00000000000E+00 0.  1.
         21   -1    0    0  501  502  0.00000000000E+00 -0.00000000000E+00 -0.13496638208E+04  0.13496638208E+04  0.00000000000E+00 0.  1.
        -13    1    1    2    0    0  0.63956145972E+02  0.50848444150E+03 -0.38327566277E+03  0.63995863983E+03  0.10566000000E+00 0.  1.
         13    1    1    2    0    0  0.10443958662E+03 -0.57179305530E+02 -0.52637222087E+02  0.13018367236E+03  0.10566000000E+00 0. -1.
          4    1    1    2  501    0 -0.16839573259E+03 -0.45130513597E+03 -0.66894328376E+03  0.82432916084E+03  0.00000000000E+00 0.  1.
</event>
<event>
 5    1  0.7625606E-005  0.4752901E+03  0.7818608E-02  0.9707383E-01
         21   -1    0    0  501  502  0.00000000000E+00  0.00000000000E+00  0.37476784182E+03  0.37476784182E+03  0.00000000000E+00 0. -1.
         -4   -1    0    0    0  501 -0.00000000000E+00 -0.00000000000E+00 -0.13296571243E+04  0.13296571243E+04  0.00000000000E+00 0. -1.
        -13    1    1    2    0    0  0.11310305725E+03  0.23082504388E+03 -0.50300586990E+03  0.56487823357E+03  0.10566000000E+00 0.  1.
         13    1    1    2    0    0 -0.51110894403E+03 -0.43803292736E+02 -0.56117504094E+01  0.51301323962E+03  0.10566000000E+00 0. -1.
         -4    1    1    2    0  502  0.39800588677E+03 -0.18702175114E+03 -0.44627166213E+03  0.62653349290E+03  0.00000000000E+00 0. -1.
</event>
<event>
 5    1  0.7625606E-005  0.4439417E+03  0.7818608E-02  0.9902675E-01
         21   -1    0    0  501  502  0.00000000000E+00  0.00000000000E+00  0.10156502465E+04  0.10156502465E+04  0.00000000000E+00 0. -1.
         -4   -1    0    0    0  501 -0.00000000000E+00 -0.00000000000E+00 -0.34326332124E+03  0.34326332124E+03  0.00000000000E+00 0. -1.
        -13    1    1    2    0    0 -0.13395658361E+03 -0.91191269074E+02  0.55502481890E+02  0.17129141983E+03  0.10566000000E+00 0.  1.
         13    1    1    2    0    0  0.66490658256E+02  0.46736744625E+03  0.65075067813E+03  0.80394638733E+03  0.10566000000E+00 0. -1.
         -4    1    1    2    0  502  0.67465925355E+02 -0.37617617718E+03 -0.33866234800E+02  0.38367576053E+03  0.00000000000E+00 0. -1.
</event>
<event>
 5    1  0.7625606E-005  0.1691457E+03  0.7818608E-02  0.1104199E+00
         21   -1    0    0  501  502  0.00000000000E+00  0.00000000000E+00  0.16991271529E+03  0.16991271529E+03  0.00000000000E+00 0.  1.
          4   -1    0    0  502    0 -0.00000000000E+00 -0.00000000000E+00 -0.65367276037E+03  0.65367276037E+03  0.00000000000E+00 0.  1.
        -13    1    1    2    0    0 -0.41296025559E+02  0.24055628616E+03 -0.51014059443E+03  0.56552287822E+03  0.10566000000E+00 0.  1.
         13    1    1    2    0    0 -0.22446271338E+02 -0.93602380057E+02  0.41611623013E+01  0.96346079760E+02  0.10566000000E+00 0. -1.
          4    1    1    2  501    0  0.63742296897E+02 -0.14695390610E+03  0.22219387042E+02  0.16171651768E+03  0.00000000000E+00 0.  1.
</event>
<event>
 5    1  0.7625606E-005  0.3936507E+03  0.7818608E-02  0.9747564E-01
          4   -1    0    0  502    0 -0.00000000000E+00  0.00000000000E+00  0.22728111951E+04  0.22728111951E+04  0.00000000000E+00 0.  1.
         21   -1    0    0  501  502  0.00000000000E+00 -0.00000000000E+00 -0.12599054234E+03  0.12599054234E+03  0.00000000000E+00 0. -1.
        -13    1    1    2    0    0 -0.32256786948E+03 -0.25635116798E+03  0.65417839680E+03  0.77312051955E+03  0.10566000000E+00 0.  1.
         13    1    1    2    0    0  0.35990625017E+03  0.15100334746E+03  0.14569933263E+04  0.15083647052E+04  0.10566000000E+00 0. -1.
          4    1    1    2  501    0 -0.37338380691E+02  0.10534782052E+03  0.35648929644E+02  0.11731651268E+03  0.00000000000E+00 0.  1.
</event>
<event>
 5    1  0.7625606E-005  0.4905067E+03  0.7818608E-02  0.9569759E-01
         21   -1    0    0  501  502  0.00000000000E+00  0.00000000000E+00  0.41279722689E+03  0.41279722689E+03  0.00000000000E+00 0.  1.
          4   -1    0    0  502    0 -0.00000000000E+00 -0.00000000000E+00 -0.13513086754E+04  0.13513086754E+04  0.00000000000E+00 0.  1.
        -13    1    1    2    0    0  0.11207700033E+03 -0.49951777759E+03 -0.37259531446E+03  0.63317181212E+03  0.10566000000E+00 0.  1.
         13    1    1    2    0    0  0.32577355029E+03  0.19572186478E+03 -0.44363480907E+03  0.58416376933E+03  0.10566000000E+00 0. -1.
          4    1    1    2  501    0 -0.43785055062E+03  0.30379591281E+03 -0.12228132498E+03  0.54677032085E+03  0.00000000000E+00 0.  1.
</event>
<event>
 5    1  0.7625606E-005  0.1629712E+03  0.7818608E-02  0.1100630E+00
          4   -1    0    0  502    0 -0.00000000000E+00  0.00000000000E+00  0.11104928448E+04  0.11104928448E+04  0.00000000000E+00 0.  1.
         21   -1    0    0  501  502  0.00000000000E+00 -0.00000000000E+00 -0.29471325050E+03  0.29471325050E+03  0.00000000000E+00 0.  1.
        -13    1    1    2    0    0  0.27122611886E+03 -0.50813391640E+02  0.82964745495E+03  0.87433432907E+03  0.10566000000E+00 0.  1.
         13    1    1    2    0    0 -0.11194455158E+03  0.38839938382E+02  0.21869848343E+03  0.24873512269E+03  0.10566000000E+00 0. -1.
          4    1    1    2  501    0 -0.15928156728E+03  0.11973453258E+02 -0.23256634405E+03  0.28213664357E+03  0.00000000000E+00 0.  1.
</event>
<event>
 5    1  0.7625606E-005  0.1970933E+03  0.7818608E-02  0.1062147E+00
          4   -1    0    0  502    0 -0.00000000000E+00  0.00000000000E+00  0.28808358396E+03  0.28808358396E+03  0.00000000000E+00 0.  1.
         21   -1    0    0  501  502  0.00000000000E+00 -0.00000000000E+00 -0.86345247729E+03  0.86345247729E+03  0.00000000000E+00 0. -1.
        -13    1    1    2    0    0 -0.12933380195E+03  0.14487314995E+03  0.20196055349E+03  0.28018482870E+03  0.10566000000E+00 0.  1.
         13    1    1    2    0    0  0.22388423996E+03 -0.96867184534E+02 -0.32274946664E+03  0.40456721780E+03  0.10566000000E+00 0. -1.
          4    1    1    2  501    0 -0.94550438006E+02 -0.48005965413E+02 -0.45457998018E+03  0.46678401475E+03  0.00000000000E+00 0.  1.
</event>
<event>
 5    1  0.7625606E-005  0.3447183E+03  0.7818608E-02  0.9903894E-01
         21   -1    0    0  501  502  0.00000000000E+00  0.00000000000E+00  0.25552121295E+03  0.25552121295E+03  0.00000000000E+00 0. -1.
         -4   -1    0    0    0  501 -0.00000000000E+00 -0.00000000000E+00 -0.18530811878E+04  0.18530811878E+04  0.00000000000E+00 0. -1.
        -13    1    1    2    0    0 -0.66987207942E+00 -0.34044075460E+03 -0.19678870821E+03  0.39322533357E+03  0.10566000000E+00 0.  1.
         13    1    1    2    0    0 -0.17378315425E+02  0.34519213226E+03 -0.15382681550E+04  0.15766193396E+04  0.10566000000E+00 0. -1.
         -4    1    1    2    0  502  0.18048187505E+02 -0.47513776557E+01  0.13749688837E+03  0.13875772761E+03  0.00000000000E+00 0. -1.
</event>
<event>
 5    1  0.7625606E-005  0.5410849E+03  0.7818608E-02  0.9392199E-01
         21   -1    0    0  501  502  0.00000000000E+00  0.00000000000E+00  0.43546607060E+03  0.43546607060E+03  0.00000000000E+00 0. -1.
          4   -1    0    0  502    0 -0.00000000000E+00 -0.00000000000E+00 -0.24526138161E+04  0.24526138161E+04  0.00000000000E+00 0.  1.
        -13    1    1    2    0    0 -0.34373571163E+03 -0.34315444977E+03 -0.84957598307E+03  0.97861564366E+03  0.10566000000E+00 0.  1.
         13    1    1    2    0    0  0.71671358905E+03  0.43637964724E+02 -0.12328164931E+04  0.14266811689E+04  0.10566000000E+00 0. -1.
          4    1    1    2  501    0 -0.37297787742E+03  0.29951648505E+03  0.65244730675E+02  0.48278307420E+03  0.00000000000E+00 0.  1.
</event>
<event>
 5    1  0.7625606E-005  0.7198518E+03  0.7818608E-02  0.9094667E-01
          4   -1    0    0  502    0 -0.00000000000E+00  0.00000000000E+00  0.42938394012E+04  0.42938394012E+04  0.00000000000E+00 0.  1.
         21   -1    0    0  501  502  0.00000000000E+00 -0.00000000000E+00 -0.25530456970E+03  0.25530456970E+03  0.00000000000E+00 0. -1.
        -13    1    1    2    0    0  0.35619604022E+03 -0.62187427193E+03  0.16924457281E+04  0.18379270342E+04  0.10566000000E+00 0.  1.
         13    1    1    2    0    0 -0.69136448810E+03  0.36514138682E+03  0.20541427531E+04  0.21979116336E+04  0.10566000000E+00 0. -1.
          4    1    1    2  501    0  0.33516844789E+03  0.25673288512E+03  0.29194635024E+03  0.51330530309E+03  0.00000000000E+00 0.  1.
</event>
<event>
 5    1  0.7625606E-005  0.2072392E+03  0.7818608E-02  0.1055283E+00
         21   -1    0    0  501  502  0.00000000000E+00  0.00000000000E+00  0.34690312899E+02  0.34690312899E+02  0.00000000000E+00 0. -1.
          4   -1    0    0  502    0 -0.00000000000E+00 -0.00000000000E+00 -0.22815818387E+04  0.22815818387E+04  0.00000000000E+00 0.  1.
        -13    1    1    2    0    0  0.10646294144E+03  0.17713232867E+03 -0.10478307967E+04  0.10680166710E+04  0.10566000000E+00 0.  1.
         13    1    1    2    0    0 -0.88022742924E+02 -0.18876777410E+03 -0.12071592756E+04  0.12249958382E+04  0.10566000000E+00 0. -1.
          4    1    1    2  501    0 -0.18440198512E+02  0.11635445431E+02  0.80985464834E+01  0.23259642446E+02  0.00000000000E+00 0.  1.
</event>
<event>
 5    1  0.7625606E-005  0.4416089E+03  0.7818608E-02  0.9722194E-01
         21   -1    0    0  501  502  0.00000000000E+00  0.00000000000E+00  0.25355290404E+03  0.25355290404E+03  0.00000000000E+00 0.  1.
          4   -1    0    0  502    0 -0.00000000000E+00 -0.00000000000E+00 -0.18274148811E+04  0.18274148811E+04  0.00000000000E+00 0.  1.
        -13    1    1    2    0    0 -0.31427351112E+03 -0.18357673852E+03 -0.25580235928E+03  0.44486303161E+03  0.10566000000E+00 0.  1.
         13    1    1    2    0    0 -0.28912818276E+03 -0.95190209063E+02 -0.43063497342E+03  0.52735450454E+03  0.10566000000E+00 0. -1.
          4    1    1    2  501    0  0.60340169388E+03  0.27876694758E+03 -0.88742464438E+03  0.11087502490E+04  0.00000000000E+00 0.  1.
</event>
<event>
 5    1  0.7625606E-005  0.4939859E+03  0.7818608E-02  0.1001142E+00
          4   -1    0    0  502    0 -0.00000000000E+00  0.00000000000E+00  0.13777345099E+04  0.13777345099E+04  0.00000000000E+00 0.  1.
         21   -1    0    0  501  502  0.00000000000E+00 -0.00000000000E+00 -0.26689773545E+03  0.26689773545E+03  0.00000000000E+00 0.  1.
        -13    1    1    2    0    0  0.22437780117E+03  0.41732616283E+03  0.28620900581E+03  0.55355408951E+03  0.10566000000E+00 0.  1.
         13    1    1    2    0    0  0.81940011500E+02  0.50479985600E+01  0.42768065177E+03  0.43548868968E+03  0.10566000000E+00 0. -1.
          4    1    1    2  501    0 -0.30631781267E+03 -0.42237416139E+03  0.39694711691E+03  0.65558946620E+03  0.00000000000E+00 0.  1.
</event>
<event>
 5    1  0.7625606E-005  0.7314630E+03  0.7818608E-02  0.9163029E-01
          4   -1    0    0  502    0 -0.00000000000E+00  0.00000000000E+00  0.21320608794E+04  0.21320608794E+04  0.00000000000E+00 0.  1.
         21   -1    0    0  501  502  0.00000000000E+00 -0.00000000000E+00 -0.47875416525E+03  0.47875416525E+03  0.00000000000E+00 0. -1.
        -13    1    1    2    0    0 -0.42895865457E+03  0.28919644874E+03  0.36093438109E+03  0.63080405191E+03  0.10566000000E+00 0.  1.
         13    1    1    2    0    0 -0.15219614760E+03 -0.73337788115E+03  0.81317016157E+03  0.11055552934E+04  0.10566000000E+00 0. -1.
          4    1    1    2  501    0  0.58115480217E+03  0.44418143241E+03  0.47920217153E+03  0.87445569938E+03  0.00000000000E+00 0.  1.
</event>
<event>
 5    1  0.7625606E-005  0.4094415E+03  0.7818608E-02  0.9702167E-01
          4   -1    0    0  502    0 -0.00000000000E+00  0.00000000000E+00  0.37024832396E+03  0.37024832396E+03  0.00000000000E+00 0.  1.
         21   -1    0    0  501  502  0.00000000000E+00 -0.00000000000E+00 -0.11296482739E+04  0.11296482739E+04  0.00000000000E+00 0.  1.
        -13    1    1    2    0    0  0.43577590376E+03 -0.19789908450E+03  0.10698335716E+03  0.49041832736E+03  0.10566000000E+00 0.  1.
         13    1    1    2    0    0 -0.26659946538E+03  0.17161561149E+02 -0.39189412873E+03  0.47428979898E+03  0.10566000000E+00 0. -1.
          4    1    1    2  501    0 -0.16917643838E+03  0.18073752335E+03 -0.47448917839E+03  0.53518847153E+03  0.00000000000E+00 0.  1.
</event>
<event>
 5    1  0.7625606E-005  0.1248491E+03  0.7818608E-02  0.1140345E+00
         21   -1    0    0  501  502  0.00000000000E+00  0.00000000000E+00  0.97087122599E+02  0.97087122599E+02  0.00000000000E+00 0.  1.
          4   -1    0    0  502    0 -0.00000000000E+00 -0.00000000000E+00 -0.70773213065E+03  0.70773213065E+03  0.00000000000E+00 0.  1.
        -13    1    1    2    0    0  0.90434398840E+02  0.20112933736E+02 -0.10088070970E+02  0.93191689206E+02  0.10566000000E+00 0.  1.
         13    1    1    2    0    0  0.13507590832E+03  0.50886208278E+02 -0.20306688178E+03  0.24914067681E+03  0.10566000000E+00 0. -1.
          4    1    1    2  501    0 -0.22551030716E+03 -0.70999142015E+02 -0.39749005529E+03  0.46248688723E+03  0.00000000000E+00 0.  1.
</event>
<event>
 5    1  0.7625606E-005  0.5391839E+03  0.7818608E-02  0.9395990E-01
         -4   -1    0    0    0  501 -0.00000000000E+00  0.00000000000E+00  0.18576990788E+04  0.18576990788E+04  0.00000000000E+00 0. -1.
         21   -1    0    0  501  502  0.00000000000E+00 -0.00000000000E+00 -0.53738699216E+03  0.53738699216E+03  0.00000000000E+00 0. -1.
        -13    1    1    2    0    0 -0.55033181175E+03 -0.48628388607E+01  0.62463701366E+03  0.83250234848E+03  0.10566000000E+00 0.  1.
         13    1    1    2    0    0  0.53244005601E+03 -0.67098794334E+01  0.10660282362E+04  0.11916180795E+04  0.10566000000E+00 0. -1.
         -4    1    1    2    0  502  0.17891755744E+02  0.11572718294E+02 -0.37035316327E+03  0.37096564299E+03  0.00000000000E+00 0. -1.
</event>
<event>
 5    1  0.7625606E-005  0.1807998E+03  0.7818608E-02  0.1074160E+00
         21   -1    0    0  501  502  0.00000000000E+00  0.00000000000E+00  0.29955829822E+03  0.29955829822E+03  0.00000000000E+00 0. -1.
          4   -1    0    0  502    0 -0.00000000000E+00 -0.00000000000E+00 -0.14240249073E+03  0.14240249073E+03  0.00000000000E+00 0.  1.
        -13    1    1    2    0    0 -0.15389469494E+03 -0.11180081508E+03  0.13636315602E+02  0.19070647511E+03  0.10566000000E+00 0.  1.
         13    1    1    2    0    0  0.12404611396E+03  0.11382561918E+03  0.92456597537E+02  0.19207275591E+03  0.10566000000E+00 0. -1.
          4    1    1    2  501    0  0.29848580985E+02 -0.20248041067E+01  0.51062894349E+02  0.59181557920E+02  0.00000000000E+00 0.  1.
</event>
<event>
 5    1  0.7625606E-005  0.2722882E+02  0.7818608E-02  0.1428645E+00
         21   -1    0    0  501  502  0.00000000000E+00  0.00000000000E+00  0.18063521944E+03  0.18063521944E+03  0.00000000000E+00 0.  1.
          4   -1    0    0  502    0 -0.00000000000E+00 -0.00000000000E+00 -0.38026495363E+02  0.38026495363E+02  0.00000000000E+00 0.  1.
        -13    1    1    2    0    0 -0.24110595144E+02 -0.20782492744E+01  0.52886225294E+02  0.58160157395E+02  0.10566000000E+00 0.  1.
         13    1    1    2    0    0  0.25361776857E+02 -0.11414485412E+02 -0.29481412729E+02  0.40529927992E+02  0.10566000000E+00 0. -1.
          4    1    1    2  501    0 -0.12511817130E+01  0.13492734686E+02  0.11920391151E+03  0.11997162942E+03  0.00000000000E+00 0.  1.
</event>
<event>
 5    1  0.7625606E-005  0.4581317E+03  0.7818608E-02  0.9646577E-01
         -4   -1    0    0    0  501 -0.00000000000E+00  0.00000000000E+00  0.17353438677E+04  0.17353438677E+04  0.00000000000E+00 0. -1.
         21   -1    0    0  501  502  0.00000000000E+00 -0.00000000000E+00 -0.39315839080E+03  0.39315839080E+03  0.00000000000E+00 0. -1.
        -13    1    1    2    0    0  0.32803830377E+03  0.40396467216E+03  0.44689710828E+03  0.68593995484E+03  0.10566000000E+00 0.  1.
         13    1    1    2    0    0  0.24938420437E+03 -0.33267774187E+03  0.53385612148E+02  0.41918611150E+03  0.10566000000E+00 0. -1.
         -4    1    1    2    0  502 -0.57742250814E+03 -0.71286930288E+02  0.84190275651E+03  0.10233761922E+04  0.00000000000E+00 0. -1.
</event>
<event>
 5    1  0.7625606E-005  0.4747813E+03  0.7818608E-02  0.9535028E-01
         21   -1    0    0  501  502  0.00000000000E+00  0.00000000000E+00  0.46234041466E+03  0.46234041466E+03  0.00000000000E+00 0. -1.
          4   -1    0    0  502    0 -0.00000000000E+00 -0.00000000000E+00 -0.17322876568E+04  0.17322876568E+04  0.00000000000E+00 0.  1.
        -13    1    1    2    0    0  0.28369196376E+03 -0.37764583113E+03 -0.13460509724E+04  0.14265169944E+04  0.10566000000E+00 0.  1.
         13    1    1    2    0    0 -0.28858486725E+03  0.38998496271E+03 -0.17568000952E+03  0.51597768717E+03  0.10566000000E+00 0. -1.
          4    1    1    2  501    0  0.48929034890E+01 -0.12339131589E+02  0.25178373975E+03  0.25213338985E+03  0.00000000000E+00 0.  1.
</event>
<event>
 5    1  0.7625606E-005  0.6317547E+03  0.7818608E-02  0.9633898E-01
          4   -1    0    0  502    0 -0.00000000000E+00  0.00000000000E+00  0.15505683158E+04  0.15505683158E+04  0.00000000000E+00 0.  1.
         21   -1    0    0  501  502  0.00000000000E+00 -0.00000000000E+00 -0.34291444290E+03  0.34291444290E+03  0.00000000000E+00 0. -1.
        -13    1    1    2    0    0  0.27719636362E+02  0.55624172889E+03  0.80322864874E+03  0.97741982408E+03  0.10566000000E+00 0.  1.
         13    1    1    2    0    0 -0.71514533071E+02  0.12221788803E+03  0.58030733493E+02  0.15303306109E+03  0.10566000000E+00 0. -1.
          4    1    1    2  501    0  0.43794896709E+02 -0.67845961691E+03  0.34639449072E+03  0.76302987357E+03  0.00000000000E+00 0.  1.
</event>
<event>
 5    1  0.7625606E-005  0.6963094E+03  0.7818608E-02  0.9165465E-01
         21   -1    0    0  501  502  0.00000000000E+00  0.00000000000E+00  0.80660440449E+03  0.80660440449E+03  0.00000000000E+00 0.  1.
          4   -1    0    0  502    0 -0.00000000000E+00 -0.00000000000E+00 -0.17826010122E+04  0.17826010122E+04  0.00000000000E+00 0.  1.
        -13    1    1    2    0    0  0.22028755249E+03 -0.79147575585E+03 -0.12462439268E+03  0.83095831923E+03  0.10566000000E+00 0.  1.
         13    1    1    2    0    0  0.39878335610E+03  0.45103734410E+03 -0.86227884507E+03  0.10516594832E+04  0.10566000000E+00 0. -1.
          4    1    1    2  501    0 -0.61907090859E+03  0.34043841175E+03  0.10906630002E+02  0.70658761426E+03  0.00000000000E+00 0.  1.
</event>
<event>
 5    1  0.7625606E-005  0.4917755E+03  0.7818608E-02  0.9694933E-01
          4   -1    0    0  502    0 -0.00000000000E+00  0.00000000000E+00  0.30863055072E+03  0.30863055072E+03  0.00000000000E+00 0.  1.
         21   -1    0    0  501  502  0.00000000000E+00 -0.00000000000E+00 -0.20256826525E+04  0.20256826525E+04  0.00000000000E+00 0.  1.
        -13    1    1    2    0    0  0.18516071828E+03 -0.34280803992E+03 -0.60729075210E+03  0.72152887162E+03  0.10566000000E+00 0.  1.
         13    1    1    2    0    0  0.12959357529E+03 -0.20476890388E+03  0.88721201779E+02  0.25806251483E+03  0.10566000000E+00 0. -1.
          4    1    1    2  501    0 -0.31475429357E+03  0.54757694380E+03 -0.11984825515E+04  0.13547218168E+04  0.00000000000E+00 0.  1.
</event>
<event>
 5    1  0.7625606E-005  0.6671539E+03  0.7818608E-02  0.9172038E-01
         21   -1    0    0  501  502  0.00000000000E+00  0.00000000000E+00  0.19826891755E+04  0.19826891755E+04  0.00000000000E+00 0.  1.
         -4   -1    0    0    0  501 -0.00000000000E+00 -0.00000000000E+00 -0.38943153552E+03  0.38943153552E+03  0.00000000000E+00 0. -1.
        -13    1    1    2    0    0  0.49479451457E+03 -0.30321248957E+03  0.71053099667E+03  0.91739508058E+03  0.10566000000E+00 0.  1.
         13    1    1    2    0    0 -0.47930950708E+03  0.55548926115E+03  0.25286787030E+03  0.77604645081E+03  0.10566000000E+00 0. -1.
         -4    1    1    2    0  502 -0.15485007489E+02 -0.25227677158E+03  0.62985877304E+03  0.67867917967E+03  0.00000000000E+00 0. -1.
</event>
<event>
 5    1  0.7625606E-005  0.2986121E+03  0.7818608E-02  0.1009239E+00
          4   -1    0    0  502    0 -0.00000000000E+00  0.00000000000E+00  0.15066259176E+04  0.15066259176E+04  0.00000000000E+00 0.  1.
         21   -1    0    0  501  502  0.00000000000E+00 -0.00000000000E+00 -0.34251173599E+03  0.34251173599E+03  0.00000000000E+00 0.  1.
        -13    1    1    2    0    0  0.54775459128E+02 -0.35690922085E+03  0.67681701129E+03  0.76711525913E+03  0.10566000000E+00 0.  1.
         13    1    1    2    0    0 -0.25575276798E+03  0.12759282205E+03  0.66869977892E+03  0.72721992000E+03  0.10566000000E+00 0. -1.
          4    1    1    2  501    0  0.20097730885E+03  0.22931639880E+03 -0.18140260864E+03  0.35480247442E+03  0.00000000000E+00 0.  1.
</event>
<event>
 5    1  0.7625606E-005  0.6138058E+03  0.7818608E-02  0.9258374E-01
         21   -1    0    0  501  502  0.00000000000E+00  0.00000000000E+00  0.13017889599E+03  0.13017889599E+03  0.00000000000E+00 0.  1.
         -4   -1    0    0    0  501 -0.00000000000E+00 -0.00000000000E+00 -0.54491723275E+04  0.54491723275E+04  0.00000000000E+00 0. -1.
        -13    1    1    2    0    0 -0.65904285758E+02  0.56336650544E+03 -0.17631342138E+04  0.18521251203E+04  0.10566000000E+00 0.  1.
         13    1    1    2    0    0 -0.31314658533E+03 -0.65555299802E+03 -0.23697556942E+04  0.24786190870E+04  0.10566000000E+00 0. -1.
         -4    1    1    2    0  502  0.37905087109E+03  0.92186492584E+02 -0.11861035235E+04  0.12486070161E+04  0.00000000000E+00 0. -1.
</event>
<event>
 5    1  0.7625606E-005  0.4498784E+03  0.7818608E-02  0.1004237E+00
          4   -1    0    0  502    0 -0.00000000000E+00  0.00000000000E+00  0.16784362797E+04  0.16784362797E+04  0.00000000000E+00 0.  1.
         21   -1    0    0  501  502  0.00000000000E+00 -0.00000000000E+00 -0.20330093145E+03  0.20330093145E+03  0.00000000000E+00 0.  1.
        -13    1    1    2    0    0  0.25093022229E+03  0.37621947701E+03  0.11343842846E+04  0.12212021895E+04  0.10566000000E+00 0.  1.
         13    1    1    2    0    0  0.75150792447E+02 -0.63302004271E+02  0.65958213297E+01  0.98479954169E+02  0.10566000000E+00 0. -1.
          4    1    1    2  501    0 -0.32608101473E+03 -0.31291747273E+03  0.33415524234E+03  0.56205506749E+03  0.00000000000E+00 0.  1.
</event>
<event>
 5    1  0.7625606E-005  0.2046302E+02  0.7818608E-02  0.1521629E+00
          4   -1    0    0  502    0 -0.00000000000E+00  0.00000000000E+00  0.22056024888E+03  0.22056024888E+03  0.00000000000E+00 0.  1.
         21   -1    0    0  501  502  0.00000000000E+00 -0.00000000000E+00 -0.10303906545E+02  0.10303906545E+02  0.00000000000E+00 0.  1.
        -13    1    1    2    0    0 -0.15386545839E+02  0.82540290116E+01  0.83595096358E+02  0.85399215962E+02  0.10566000000E+00 0.  1.
         13    1    1    2    0    0  0.22092109039E+02  0.14059108030E+02  0.11757676417E+03  0.12045757111E+03  0.10566000000E+00 0. -1.
          4    1    1    2  501    0 -0.67055631995E+01 -0.22313137042E+02  0.90844818101E+01  0.25007368358E+02  0.00000000000E+00 0.  1.
</event>
<event>
 5    1  0.7625606E-005  0.2551694E+02  0.7818608E-02  0.1445000E+00
         21   -1    0    0  501  502  0.00000000000E+00  0.00000000000E+00  0.18868270393E+02  0.18868270393E+02  0.00000000000E+00 0.  1.
          4   -1    0    0  502    0 -0.00000000000E+00 -0.00000000000E+00 -0.92132139539E+02  0.92132139539E+02  0.00000000000E+00 0.  1.
        -13    1    1    2    0    0  0.14489028500E+02  0.29933072448E+02 -0.19677187052E+02  0.38640957899E+02  0.10566000000E+00 0.  1.
         13    1    1    2    0    0 -0.16015848362E+02 -0.17564226398E+02 -0.54902658957E+02  0.59827439961E+02  0.10566000000E+00 0. -1.
          4    1    1    2  501    0  0.15268198623E+01 -0.12368846049E+02  0.13159768620E+01  0.12532012073E+02  0.00000000000E+00 0.  1.
</event>
<event>
 5    1  0.7625606E-005  0.4713119E+03  0.7818608E-02  0.9651996E-01
         21   -1    0    0  501  502  0.00000000000E+00  0.00000000000E+00  0.30154318579E+03  0.30154318579E+03  0.00000000000E+00 0. -1.
         -4   -1    0    0    0  501 -0.00000000000E+00 -0.00000000000E+00 -0.20756767149E+04  0.20756767149E+04  0.00000000000E+00 0. -1.
        -13    1    1    2    0    0 -0.15476845624E+03 -0.28003188284E+03 -0.10547777746E+04  0.11022374043E+04  0.10566000000E+00 0.  1.
         13    1    1    2    0    0  0.31951699655E+03 -0.29509962756E+03 -0.18436704143E+03  0.47240461302E+03  0.10566000000E+00 0. -1.
         -4    1    1    2    0  502 -0.16474854031E+03  0.57513151039E+03 -0.53498871306E+03  0.80257788338E+03  0.00000000000E+00 0. -1.
</event>
<event>
 5    1  0.7625606E-005  0.7064687E+02  0.7818608E-02  0.1225040E+00
          4   -1    0    0  502    0 -0.00000000000E+00  0.00000000000E+00  0.64040861184E+02  0.64040861184E+02  0.00000000000E+00 0.  1.
         21   -1    0    0  501  502  0.00000000000E+00 -0.00000000000E+00 -0.83017282256E+03  0.83017282256E+03  0.00000000000E+00 0.  1.
        -13    1    1    2    0    0  0.67818809230E+02 -0.18400322685E+02  0.32587345792E+02  0.77459079714E+02  0.10566000000E+00 0.  1.
         13    1    1    2    0    0 -0.86961320327E+02 -0.37380536710E+02 -0.30045478433E+03  0.31501216540E+03  0.10566000000E+00 0. -1.
          4    1    1    2  501    0  0.19142511097E+02  0.55780859395E+02 -0.49826452284E+03  0.50174243863E+03  0.00000000000E+00 0.  1.
</event>
<event>
 5    1  0.7625606E-005  0.3030589E+03  0.7818608E-02  0.1006051E+00
         21   -1    0    0  501  502  0.00000000000E+00  0.00000000000E+00  0.49757116685E+03  0.49757116685E+03  0.00000000000E+00 0. -1.
          4   -1    0    0  502    0 -0.00000000000E+00 -0.00000000000E+00 -0.21133207163E+03  0.21133207163E+03  0.00000000000E+00 0.  1.
        -13    1    1    2    0    0  0.24813724373E+03  0.19540174052E+03  0.20172015992E+03  0.37475987780E+03  0.10566000000E+00 0.  1.
         13    1    1    2    0    0 -0.23369856734E+03 -0.18018167666E+03  0.58700070316E+02  0.30087566602E+03  0.10566000000E+00 0. -1.
          4    1    1    2  501    0 -0.14438676388E+02 -0.15220063860E+02  0.25818864976E+02  0.33267694666E+02  0.00000000000E+00 0.  1.
</event>
<event>
 5    1  0.7625606E-005  0.2073376E+03  0.7818608E-02  0.1055219E+00
         21   -1    0    0  501  502  0.00000000000E+00  0.00000000000E+00  0.38298987995E+03  0.38298987995E+03  0.00000000000E+00 0. -1.
          4   -1    0    0  502    0 -0.00000000000E+00 -0.00000000000E+00 -0.25539596966E+03  0.25539596966E+03  0.00000000000E+00 0.  1.
        -13    1    1    2    0    0 -0.18103382030E+03  0.37451212452E+02 -0.40176361738E+02  0.18918242153E+03  0.10566000000E+00 0.  1.
         13    1    1    2    0    0  0.24304531166E+03 -0.13553260650E+01 -0.24210851915E+02  0.24425199476E+03  0.10566000000E+00 0. -1.
          4    1    1    2  501    0 -0.62011491355E+02 -0.36095886387E+02  0.19198112394E+03  0.20495143333E+03  0.00000000000E+00 0.  1.
</event>
<event>
 5    1  0.7625606E-005  0.3268295E+03  0.7818608E-02  0.1014287E+00
         21   -1    0    0  501  502  0.00000000000E+00  0.00000000000E+00  0.42089353002E+03  0.42089353002E+03  0.00000000000E+00 0.  1.
          4   -1    0    0  502    0 -0.00000000000E+00 -0.00000000000E+00 -0.13883463237E+04  0.13883463237E+04  0.00000000000E+00 0.  1.
        -13    1    1    2    0    0 -0.18613034024E+03 -0.16967849639E+03  0.18112777833E+03  0.31022988080E+03  0.10566000000E+00 0.  1.
         13    1    1    2    0    0  0.36480389445E+03 -0.23486860711E+03 -0.25830822266E+03  0.50494385141E+03  0.10566000000E+00 0. -1.
          4    1    1    2  501    0 -0.17867355422E+03  0.40454710350E+03 -0.89027234932E+03  0.99406612149E+03  0.00000000000E+00 0.  1.
</event>
<event>
 5    1  0.7625606E-005  0.2040094E+03  0.7818608E-02  0.1057421E+00
         21   -1    0    0  501  502  0.00000000000E+00  0.00000000000E+00  0.16627257362E+03  0.16627257362E+03  0.00000000000E+00 0. -1.
          4   -1    0    0  502    0 -0.00000000000E+00 -0.00000000000E+00 -0.52420592429E+03  0.52420592429E+03  0.00000000000E+00 0.  1.
        -13    1    1    2    0    0 -0.11117410601E+03 -0.17860032283E+03 -0.34919371950E+03  0.40766901043E+03  0.10566000000E+00 0.  1.
         13    1    1    2    0    0  0.12833353099E+03  0.14258588510E+03 -0.74583934152E+02  0.20582274948E+03  0.10566000000E+00 0. -1.
          4    1    1    2  501    0 -0.17159424984E+02  0.36014437734E+02  0.65844302989E+02  0.76986737996E+02  0.00000000000E+00 0.  1.
</event>
<event>
 5    1  0.7625606E-005  0.4719048E+03  0.7818608E-02  0.9636920E-01
          4   -1    0    0  502    0 -0.00000000000E+00  0.00000000000E+00  0.14273157890E+04  0.14273157890E+04  0.00000000000E+00 0.  1.
         21   -1    0    0  501  502  0.00000000000E+00 -0.00000000000E+00 -0.45054226328E+03  0.45054226328E+03  0.00000000000E+00 0.  1.
        -13    1    1    2    0    0 -0.27631412675E+03 -0.53185620747E+03  0.27536080965E+03  0.65957873580E+03  0.10566000000E+00 0.  1.
         13    1    1    2    0    0  0.32292057675E+03  0.93346686318E+02  0.70085906512E+03  0.77729964818E+03  0.10566000000E+00 0. -1.
          4    1    1    2  501    0 -0.46606449996E+02  0.43850952115E+03  0.55365093868E+00  0.44097966829E+03  0.00000000000E+00 0.  1.
</event>
<event>
 5    1  0.7625606E-005  0.4907081E+03  0.7818608E-02  0.9984827E-01
         21   -1    0    0  501  502  0.00000000000E+00  0.00000000000E+00  0.11852498709E+03  0.11852498709E+03  0.00000000000E+00 0.  1.
          4   -1    0    0  502    0 -0.00000000000E+00 -0.00000000000E+00 -0.25750462626E+04  0.25750462626E+04  0.00000000000E+00 0.  1.
        -13    1    1    2    0    0  0.35687387227E+03  0.28004379301E+03 -0.14359009868E+04  0.15058536256E+04  0.10566000000E+00 0.  1.
         13    1    1    2    0    0  0.89004530275E+02 -0.20711281421E+02 -0.16649443274E+03  0.18992411876E+03  0.10566000000E+00 0. -1.
          4    1    1    2  501    0 -0.44587840254E+03 -0.25933251159E+03 -0.85412585600E+03  0.99779350534E+03  0.00000000000E+00 0.  1.
</event>
<event>
 5    1  0.7625606E-005  0.4392511E+03  0.7818608E-02  0.1018111E+00
         -4   -1    0    0    0  501 -0.00000000000E+00  0.00000000000E+00  0.12420774736E+04  0.12420774736E+04  0.00000000000E+00 0. -1.
         21   -1    0    0  501  502  0.00000000000E+00 -0.00000000000E+00 -0.23291495108E+03  0.23291495108E+03  0.00000000000E+00 0. -1.
        -13    1    1    2    0    0  0.20307534053E+02  0.64539975123E+02  0.37905692707E+03  0.38504800929E+03  0.10566000000E+00 0.  1.
         13    1    1    2    0    0 -0.34582602500E+03 -0.30953659112E+03  0.22642237256E+03  0.51640647050E+03  0.10566000000E+00 0. -1.
         -4    1    1    2    0  502  0.32551849095E+03  0.24499661600E+03  0.40368322293E+03  0.57353794493E+03  0.00000000000E+00 0. -1.
</event>
<event>
 5    1  0.7625606E-005  0.3487298E+03  0.7818608E-02  0.1023565E+00
         -4   -1    0    0    0  501 -0.00000000000E+00  0.00000000000E+00  0.28161089356E+03  0.28161089356E+03  0.00000000000E+00 0. -1.
         21   -1    0    0  501  502  0.00000000000E+00 -0.00000000000E+00 -0.12883474176E+04  0.12883474176E+04  0.00000000000E+00 0. -1.
        -13    1    1    2    0    0 -0.96382908620E+02  0.60668478568E+02  0.12250367609E+02  0.11454436711E+03  0.10566000000E+00 0.  1.
         13    1    1    2    0    0  0.33678958871E+03 -0.29266161480E+03 -0.72934055301E+02  0.45210334596E+03  0.10566000000E+00 0. -1.
         -4    1    1    2    0  502 -0.24040668009E+03  0.23199313623E+03 -0.94605283636E+03  0.10033105981E+04  0.00000000000E+00 0. -1.
</event>
<event>
 5    1  0.7625606E-005  0.2072644E+03  0.7818608E-02  0.1055267E+00
          4   -1    0    0  502    0 -0.00000000000E+00  0.00000000000E+00  0.60651457756E+03  0.60651457756E+03  0.00000000000E+00 0.  1.
         21   -1    0    0  501  502  0.00000000000E+00 -0.00000000000E+00 -0.37341306794E+03  0.37341306794E+03  0.00000000000E+00 0. -1.
        -13    1    1    2    0    0 -0.18417044789E+03 -0.65982409245E+02  0.38723247224E+03  0.43384493880E+03  0.10566000000E+00 0.  1.
         13    1    1    2    0    0  0.34148706910E+03 -0.23668798941E+02 -0.89360734724E+02  0.35377815433E+03  0.10566000000E+00 0. -1.
          4    1    1    2  501    0 -0.15731662121E+03  0.89651208187E+02 -0.64770227895E+02  0.19230455236E+03  0.00000000000E+00 0.  1.
</event>
<event>
 5    1  0.7625606E-005  0.2906265E+03  0.7818608E-02  0.1011251E+00
         21   -1    0    0  501  502  0.00000000000E+00  0.00000000000E+00  0.18120558148E+03  0.18120558148E+03  0.00000000000E+00 0.  1.
         -4   -1    0    0    0  501 -0.00000000000E+00 -0.00000000000E+00 -0.15488475912E+04  0.15488475912E+04  0.00000000000E+00 0. -1.
        -13    1    1    2    0    0  0.17546331546E+03 -0.23667229111E+03 -0.28816126818E+02  0.29602622989E+03  0.10566000000E+00 0.  1.
         13    1    1    2    0    0 -0.20512392142E+03  0.20569086215E+03 -0.13567809013E+04  0.13875298120E+04  0.10566000000E+00 0. -1.
         -4    1    1    2    0  502  0.29660605952E+02  0.30981428954E+02  0.17955018399E+02  0.46497130785E+02  0.00000000000E+00 0. -1.
</event>
<event>
 5    1  0.7625606E-005  0.3604853E+03  0.7818608E-02  0.9883036E-01
          4   -1    0    0  502    0 -0.00000000000E+00  0.00000000000E+00  0.20937745507E+04  0.20937745507E+04  0.00000000000E+00 0.  1.
         21   -1    0    0  501  502  0.00000000000E+00 -0.00000000000E+00 -0.20338991665E+03  0.20338991665E+03  0.00000000000E+00 0.  1.
        -13    1    1    2    0    0 -0.22719923903E+03 -0.18738102040E+03  0.34419068894E+03  0.45298828080E+03  0.10566000000E+00 0.  1.
         13    1    1    2    0    0 -0.24404613943E+03  0.29216416647E+03  0.11752447478E+04  0.12353617473E+04  0.10566000000E+00 0. -1.
          4    1    1    2  501    0  0.47124537846E+03 -0.10478314608E+03  0.37094919726E+03  0.60881443919E+03  0.00000000000E+00 0.  1.
</event>
<event>
 5    1  0.7625606E-005  0.3770539E+03  0.7818608E-02  0.9983795E-01
          4   -1    0    0  502    0 -0.00000000000E+00  0.00000000000E+00  0.17477049174E+04  0.17477049174E+04  0.00000000000E+00 0.  1.
         21   -1    0    0  501  502  0.00000000000E+00 -0.00000000000E+00 -0.47202105328E+03  0.47202105328E+03  0.00000000000E+00 0.  1.
        -13    1    1    2    0    0  0.39761108803E+03  0.37585452000E+02 -0.30690222883E+03  0.50368267068E+03  0.10566000000E+00 0.  1.
         13    1    1    2    0    0 -0.14004242304E+03  0.14573329244E+03  0.12128456464E+04  0.12295709194E+04  0.10566000000E+00 0. -1.
          4    1    1    2  501    0 -0.25756866498E+03 -0.18331874444E+03  0.36974044662E+03  0.48647238063E+03  0.00000000000E+00 0.  1.
</event>
<event>
 5    1  0.7625606E-005  0.4696864E+02  0.7818608E-02  0.1304648E+00
         21   -1    0    0  501  502  0.00000000000E+00  0.00000000000E+00  0.10228457460E+03  0.10228457460E+03  0.00000000000E+00 0. -1.
         -4   -1    0    0    0  501 -0.00000000000E+00 -0.00000000000E+00 -0.11773831923E+03  0.11773831923E+03  0.00000000000E+00 0. -1.
        -13    1    1    2    0    0 -0.24382648306E+02  0.32431709140E+02  0.64393052263E+01  0.41082905350E+02  0.10566000000E+00 0.  1.
         13    1    1    2    0    0 -0.66941407500E+01 -0.51227760021E+02 -0.88843503154E+02  0.10277292510E+03  0.10566000000E+00 0. -1.
         -4    1    1    2    0  502  0.31076789056E+02  0.18796050881E+02  0.66950453294E+02  0.76167063374E+02  0.00000000000E+00 0. -1.
</event>
<event>
 5    1  0.7625606E-005  0.4814012E+03  0.7818608E-02  0.9640716E-01
         -4   -1    0    0    0  501 -0.00000000000E+00  0.00000000000E+00  0.21270492779E+04  0.21270492779E+04  0.00000000000E+00 0. -1.
         21   -1    0    0  501  502  0.00000000000E+00 -0.00000000000E+00 -0.21535407033E+03  0.21535407033E+03  0.00000000000E+00 0. -1.
        -13    1    1    2    0    0 -0.63417007534E+02 -0.30592298076E+03  0.46656763935E+03  0.56151220846E+03  0.10566000000E+00 0.  1.
         13    1    1    2    0    0  0.27916985067E+03 -0.22721049332E+03  0.97084156038E+03  0.10354196059E+04  0.10566000000E+00 0. -1.
         -4    1    1    2    0  502 -0.21575284314E+03  0.53313347409E+03  0.47428600781E+03  0.74547153381E+03  0.00000000000E+00 0. -1.
</event>
<event>
 5    1  0.7625606E-005  0.5009373E+03  0.7818608E-02  0.9670396E-01
         21   -1    0    0  501  502  0.00000000000E+00  0.00000000000E+00  0.27493625296E+03  0.27493625296E+03  0.00000000000E+00 0.  1.
          4   -1    0    0  502    0 -0.00000000000E+00 -0.00000000000E+00 -0.15073985457E+04  0.15073985457E+04  0.00000000000E+00 0.  1.
        -13    1    1    2    0    0 -0.38987412544E+03 -0.41679590455E+03 -0.54850318322E+03  0.79156579821E+03  0.10566000000E+00 0.  1.
         13    1    1    2    0    0 -0.41416501082E+02  0.24635050034E+03 -0.19535034058E+03  0.31712089542E+03  0.10566000000E+00 0. -1.
          4    1    1    2  501    0  0.43129062653E+03  0.17044540420E+03 -0.48860876897E+03  0.67364810506E+03  0.00000000000E+00 0.  1.
</event>
<event>
 5    1  0.7625606E-005  0.1145555E+03  0.7818608E-02  0.1149368E+00
         21   -1    0    0  501  502  0.00000000000E+00  0.00000000000E+00  0.37278443836E+03  0.37278443836E+03  0.00000000000E+00 0. -1.
         -4   -1    0    0    0  501 -0.00000000000E+00 -0.00000000000E+00 -0.14632743175E+03  0.14632743175E+03  0.00000000000E+00 0. -1.
        -13    1    1    2    0    0  0.64046941796E+02  0.72167008121E+02  0.85976647897E+00  0.96492684577E+02  0.10566000000E+00 0.  1.
         13    1    1    2    0    0 -0.13859337122E+03 -0.14229889020E+03  0.28689071250E+02  0.20069920447E+03  0.10566000000E+00 0. -1.
         -4    1    1    2    0  502  0.74546429429E+02  0.70131882081E+02  0.19690816888E+03  0.22191998107E+03  0.00000000000E+00 0. -1.
</event>
<event>
 5    1  0.7625606E-005  0.4740265E+03  0.7818608E-02  0.9568461E-01
          4   -1    0    0  502    0 -0.00000000000E+00  0.00000000000E+00  0.20809812281E+04  0.20809812281E+04  0.00000000000E+00 0.  1.
         21   -1    0    0  501  502  0.00000000000E+00 -0.00000000000E+00 -0.33519317127E+03  0.33519317127E+03  0.00000000000E+00 0. -1.
        -13    1    1    2    0    0  0.38083061403E+03 -0.33260483519E+03  0.81989811828E+03  0.96327092165E+03  0.10566000000E+00 0.  1.
         13    1    1    2    0    0  0.86995423021E+02  0.51404543179E+03  0.76538265082E+03  0.92607857276E+03  0.10566000000E+00 0. -1.
          4    1    1    2  501    0 -0.46782603705E+03 -0.18144059661E+03  0.16050728768E+03  0.52682490491E+03  0.00000000000E+00 0.  1.
</event>
<event>
 5    1  0.7625606E-005  0.3781424E+03  0.7818608E-02  0.1003487E+00
          4   -1    0    0  502    0 -0.00000000000E+00  0.00000000000E+00  0.68878882427E+03  0.68878882427E+03  0.00000000000E+00 0.  1.
         21   -1    0    0  501  502  0.00000000000E+00 -0.00000000000E+00 -0.53204279366E+03  0.53204279366E+03  0.00000000000E+00 0.  1.
        -13    1    1    2    0    0 -0.46123810884E+03  0.12594422809E+03  0.30222252531E+03  0.56563328014E+03  0.10566000000E+00 0.  1.
         13    1    1    2    0    0  0.15611431391E+03  0.66133260995E+02  0.11978020293E+03  0.20758756079E+03  0.10566000000E+00 0. -1.
          4    1    1    2  501    0  0.30512379493E+03 -0.19207748909E+03 -0.26525669763E+03  0.44761077700E+03  0.00000000000E+00 0.  1.
</event>
<event>
 5    1  0.7625606E-005  0.8064679E+03  0.7818608E-02  0.8981393E-01
         21   -1    0    0  501  502  0.00000000000E+00  0.00000000000E+00  0.51166906483E+03  0.51166906483E+03  0.00000000000E+00 0. -1.
         -4   -1    0    0    0  501 -0.00000000000E+00 -0.00000000000E+00 -0.24114750523E+04  0.24114750523E+04  0.00000000000E+00 0. -1.
        -13    1    1    2    0    0 -0.34623434775E+03  0.66738883154E+03 -0.13277010898E+04  0.15258034838E+04  0.10566000000E+00 0.  1.
         13    1    1    2    0    0  0.34624492507E+03 -0.93739822173E+03 -0.39558416154E+03  0.10747501171E+04  0.10566000000E+00 0. -1.
         -4    1    1    2    0  502 -0.10577322199E-01  0.27000939019E+03 -0.17652073616E+03  0.32259051628E+03  0.00000000000E+00 0. -1.
</event>
<event>
 5    1  0.7625606E-005  0.4177086E+03  0.7818608E-02  0.1012842E+00
         -4   -1    0    0    0  501 -0.00000000000E+00  0.00000000000E+00  0.20297366899E+03  0.20297366899E+03  0.00000000000E+00 0. -1.
         21   -1    0    0  501  502  0.00000000000E+00 -0.00000000000E+00 -0.14653233725E+04  0.14653233725E+04  0.00000000000E+00 0. -1.
        -13    1    1    2    0    0 -0.63574603942E+02  0.67912355269E+02 -0.54421379989E+02  0.10777530343E+03  0.10566000000E+00 0.  1.
         13    1    1    2    0    0 -0.33447854172E+03 -0.21848487131E+03 -0.16160846081E+03  0.43096268937E+03  0.10566000000E+00 0. -1.
         -4    1    1    2    0  502  0.39805314566E+03  0.15057251604E+03 -0.10463198628E+04  0.11295590487E+04  0.00000000000E+00 0. -1.
</event>
<event>
 5    1  0.7625606E-005  0.4673093E+02  0.7818608E-02  0.1305703E+00
         21   -1    0    0  501  502  0.00000000000E+00  0.00000000000E+00  0.47229566728E+02  0.47229566728E+02  0.00000000000E+00 0.  1.
         -4   -1    0    0    0  501 -0.00000000000E+00 -0.00000000000E+00 -0.15402758684E+03  0.15402758684E+03  0.00000000000E+00 0. -1.
        -13    1    1    2    0    0  0.29612463673E+02 -0.28929096026E+02  0.18336871923E+02  0.45277396541E+02  0.10566000000E+00 0.  1.
         13    1    1    2    0    0 -0.43083516020E+02  0.20481234333E+02 -0.13069965891E+03  0.13913332568E+03  0.10566000000E+00 0. -1.
         -4    1    1    2    0  502  0.13471052347E+02  0.84478616927E+01  0.55647668787E+01  0.16846431341E+02  0.00000000000E+00 0. -1.
</event>
<event>
 5    1  0.7625606E-005  0.3388391E+03  0.7818608E-02  0.9924522E-01
         -4   -1    0    0    0  501 -0.00000000000E+00  0.00000000000E+00  0.74950487868E+03  0.74950487868E+03  0.00000000000E+00 0. -1.
         21   -1    0    0  501  502  0.00000000000E+00 -0.00000000000E+00 -0.42718067357E+03  0.42718067357E+03  0.00000000000E+00 0.  1.
        -13    1    1    2    0    0 -0.29549216137E+03 -0.16327285217E+03 -0.61817410204E+02  0.34321282764E+03  0.10566000000E+00 0.  1.
         13    1    1    2    0    0  0.30764963027E+03  0.14305560816E+03  0.56069160013E+03  0.65535355622E+03  0.10566000000E+00 0. -1.
         -4    1    1    2    0  502 -0.12157468900E+02  0.20217244011E+02 -0.17654998482E+03  0.17811916838E+03  0.00000000000E+00 0. -1.
</event>
<event>
 5    1  0.2114158E-004  0.2921365E+03  0.7818608E-02  0.1031246E+00
         21   -1    0    0  501  502  0.00000000000E+00  0.00000000000E+00  0.59254363075E+03  0.59254363075E+03  0.00000000000E+00 0. -1.
         -4   -1    0    0    0  501 -0.00000000000E+00 -0.00000000000E+00 -0.73834668514E+03  0.73834668514E+03  0.00000000000E+00 0. -1.
        -13    1    1    2    0    0 -0.11727130355E+03  0.97654779758E+02 -0.27294736496E+03  0.31271279131E+03  0.10566000000E+00 0.  1.
         13    1    1    2    0    0 -0.17307996671E+03 -0.17417668819E+03 -0.36604386978E+03  0.44077468094E+03  0.10566000000E+00 0. -1.
         -4    1    1    2    0  502  0.29035127026E+03  0.76521908435E+02  0.49318818035E+03  0.57740284365E+03  0.00000000000E+00 0. -1.
</event>
<event>
 5    1  0.7625606E-005  0.1778481E+03  0.7818608E-02  0.1076484E+00
         -4   -1    0    0    0  501 -0.00000000000E+00  0.00000000000E+00  0.13709562650E+03  0.13709562650E+03  0.00000000000E+00 0. -1.
         21   -1    0    0  501  502  0.00000000000E+00 -0.00000000000E+00 -0.42143716687E+03  0.42143716687E+03  0.00000000000E+00 0. -1.
        -13    1    1    2    0    0  0.16353796119E+03  0.10057458040E+02 -0.10731676729E+03  0.19586402661E+03  0.10566000000E+00 0.  1.
         13    1    1    2    0    0 -0.18601351435E+03  0.34421402170E+02 -0.11183686962E+02  0.18950183764E+03  0.10566000000E+00 0. -1.
         -4    1    1    2    0  502  0.22475553160E+02 -0.44478860210E+02 -0.16584108612E+03  0.17316692912E+03  0.00000000000E+00 0. -1.
</event>
<event>
 5    1  0.7625606E-005  0.2963101E+02  0.7818608E-02  0.1407897E+00
         21   -1    0    0  501  502  0.00000000000E+00  0.00000000000E+00  0.97128894115E+02  0.97128894115E+02  0.00000000000E+00 0.  1.
         -4   -1    0    0    0  501 -0.00000000000E+00 -0.00000000000E+00 -0.56033681541E+02  0.56033681541E+02  0.00000000000E+00 0. -1.
        -13    1    1    2    0    0  0.23289489893E+02 -0.38328823081E+02  0.41241579951E+02  0.60929287696E+02  0.10566000000E+00 0.  1.
         13    1    1    2    0    0 -0.13448356668E+02  0.24895743154E+02 -0.40025299714E+02  0.49017263341E+02  0.10566000000E+00 0. -1.
         -4    1    1    2    0  502 -0.98411332246E+01  0.13433079927E+02  0.39878932337E+02  0.43216024618E+02  0.00000000000E+00 0. -1.
</event>
<event>
 5    1  0.9253825E-005  0.4509456E+03  0.7818608E-02  0.1032098E+00
         21   -1    0    0  501  502  0.00000000000E+00  0.00000000000E+00  0.65674904037E+03  0.65674904037E+03  0.00000000000E+00 0. -1.
         -4   -1    0    0    0  501 -0.00000000000E+00 -0.00000000000E+00 -0.53604565419E+03  0.53604565419E+03  0.00000000000E+00 0. -1.
        -13    1    1    2    0    0 -0.38577260499E+02 -0.12053294896E+02 -0.15636305890E+03  0.16150202567E+03  0.10566000000E+00 0.  1.
         13    1    1    2    0    0 -0.11445785707E+03 -0.41952768880E+03 -0.90414104931E+02  0.44416078648E+03  0.10566000000E+00 0. -1.
         -4    1    1    2    0  502  0.15303511757E+03  0.43158098369E+03  0.36748055001E+03  0.58713188240E+03  0.00000000000E+00 0. -1.
</event>
<event>
 5    1  0.7625606E-005  0.4282147E+03  0.7818608E-02  0.9989315E-01
         21   -1    0    0  501  502  0.00000000000E+00  0.00000000000E+00  0.57308614720E+03  0.57308614720E+03  0.00000000000E+00 0. -1.
         -4   -1    0    0    0  501 -0.00000000000E+00 -0.00000000000E+00 -0.62900196265E+03  0.62900196265E+03  0.00000000000E+00 0. -1.
        -13    1    1    2    0    0 -0.27314723115E+02  0.13271974029E+03 -0.14823758086E+03  0.20083579140E+03  0.10566000000E+00 0.  1.
         13    1    1    2    0    0  0.33922035886E+02 -0.52742335382E+03 -0.13531784358E+03  0.54556120521E+03  0.10566000000E+00 0. -1.
         -4    1    1    2    0  502 -0.66073127714E+01  0.39470361353E+03  0.22763960898E+03  0.45569111325E+03  0.00000000000E+00 0. -1.
</event>
<event>
 5    1  0.7625606E-005  0.7713773E+02  0.7818608E-02  0.1209155E+00
          4   -1    0    0  502    0 -0.00000000000E+00  0.00000000000E+00  0.31758683104E+03  0.31758683104E+03  0.00000000000E+00 0.  1.
         21   -1    0    0  501  502  0.00000000000E+00 -0.00000000000E+00 -0.47024881903E+02  0.47024881903E+02  0.00000000000E+00 0. -1.
        -13    1    1    2    0    0  0.40119068428E+02  0.96381200888E+02  0.48254145657E+02  0.11501021378E+03  0.10566000000E+00 0.  1.
         13    1    1    2    0    0 -0.10420980855E+02 -0.70931195723E+02  0.16816843238E+03  0.18281264776E+03  0.10566000000E+00 0. -1.
          4    1    1    2  501    0 -0.29698087573E+02 -0.25450005166E+02  0.54139371096E+02  0.66788851398E+02  0.00000000000E+00 0.  1.
</event>
<event>
 5    1  0.7625606E-005  0.5174999E+03  0.7818608E-02  0.9569644E-01
         21   -1    0    0  501  502  0.00000000000E+00  0.00000000000E+00  0.56164080093E+03  0.56164080093E+03  0.00000000000E+00 0. -1.
         -4   -1    0    0    0  501 -0.00000000000E+00 -0.00000000000E+00 -0.99223940534E+03  0.99223940534E+03  0.00000000000E+00 0. -1.
        -13    1    1    2    0    0  0.93500594884E+01  0.32362245491E+03 -0.33348187384E+03  0.46478929449E+03  0.10566000000E+00 0.  1.
         13    1    1    2    0    0  0.40770214818E+03 -0.47064495192E+03  0.45804248875E+02  0.62436027482E+03  0.10566000000E+00 0. -1.
         -4    1    1    2    0  502 -0.41705220767E+03  0.14702249701E+03 -0.14292097945E+03  0.46473063694E+03  0.00000000000E+00 0. -1.
</event>
<event>
 5    1  0.7625606E-005  0.4584903E+03  0.7818608E-02  0.9601729E-01
         -4   -1    0    0    0  501 -0.00000000000E+00  0.00000000000E+00  0.16499596212E+04  0.16499596212E+04  0.00000000000E+00 0. -1.
         21   -1    0    0  501  502  0.00000000000E+00 -0.00000000000E+00 -0.51650133822E+03  0.51650133822E+03  0.00000000000E+00 0. -1.
        -13    1    1    2    0    0  0.11387761096E+03  0.39926155531E+03  0.99309341827E+03  0.10763886140E+04  0.10566000000E+00 0.  1.
         13    1    1    2    0    0 -0.19003122208E+03  0.31048507749E+03  0.81735461175E+01  0.36411490869E+03  0.10566000000E+00 0. -1.
         -4    1    1    2    0  502  0.76153611120E+02 -0.70974663279E+03  0.13219131864E+03  0.72595743675E+03  0.00000000000E+00 0. -1.
</event>
<event>
 5    1  0.7625606E-005  0.2230561E+03  0.7818608E-02  0.1075992E+00
         21   -1    0    0  501  502  0.00000000000E+00  0.00000000000E+00  0.96588639248E+03  0.96588639248E+03  0.00000000000E+00 0. -1.
         -4   -1    0    0    0  501 -0.00000000000E+00 -0.00000000000E+00 -0.53278472389E+03  0.53278472389E+03  0.00000000000E+00 0. -1.
        -13    1    1    2    0    0  0.34840999885E+03 -0.40353215379E+01 -0.38526885703E+02  0.35055690438E+03  0.10566000000E+00 0.  1.
         13    1    1    2    0    0  0.85718543688E+02 -0.10812401802E+03  0.65079423061E+03  0.66526056081E+03  0.10566000000E+00 0. -1.
         -4    1    1    2    0  502 -0.43412854254E+03  0.11215933955E+03 -0.17916567632E+03  0.48285365119E+03  0.00000000000E+00 0. -1.
</event>
<event>
 5    1  0.7625606E-005  0.3320310E+02  0.7818608E-02  0.1395239E+00
         -4   -1    0    0    0  501 -0.00000000000E+00  0.00000000000E+00  0.13373517222E+02  0.13373517222E+02  0.00000000000E+00 0. -1.
         21   -1    0    0  501  502  0.00000000000E+00 -0.00000000000E+00 -0.26872734940E+03  0.26872734940E+03  0.00000000000E+00 0. -1.
        -13    1    1    2    0    0 -0.20939022251E+02 -0.15431658285E+02 -0.12299870637E+03  0.12571901870E+03  0.10566000000E+00 0.  1.
         13    1    1    2    0    0  0.42281294369E+02 -0.85882617289E+01 -0.40913756255E+02  0.59459336592E+02  0.10566000000E+00 0. -1.
         -4    1    1    2    0  502 -0.21342272118E+02  0.24019920014E+02 -0.91441369557E+02  0.96922511334E+02  0.00000000000E+00 0. -1.
</event>
<event>
 5    1  0.7625606E-005  0.4079376E+03  0.7818608E-02  0.9706397E-01
         21   -1    0    0  501  502  0.00000000000E+00  0.00000000000E+00  0.69843979357E+03  0.69843979357E+03  0.00000000000E+00 0.  1.
          4   -1    0    0  502    0 -0.00000000000E+00 -0.00000000000E+00 -0.13120669335E+04  0.13120669335E+04  0.00000000000E+00 0.  1.
        -13    1    1    2    0    0 -0.43370039585E+03 -0.53695805358E+03  0.20312145693E+03  0.71949866024E+03  0.10566000000E+00 0.  1.
         13    1    1    2    0    0  0.34642308506E+03  0.17197765460E+03 -0.82980366186E+03  0.91551045649E+03  0.10566000000E+00 0. -1.
          4    1    1    2  501    0  0.87277310789E+02  0.36498039898E+03  0.13055065030E+02  0.37549761030E+03  0.00000000000E+00 0.  1.
</event>
<event>
 5    1  0.7625606E-005  0.2253325E+03  0.7818608E-02  0.1045280E+00
         21   -1    0    0  501  502  0.00000000000E+00  0.00000000000E+00  0.14923555400E+03  0.14923555400E+03  0.00000000000E+00 0.  1.
          4   -1    0    0  502    0 -0.00000000000E+00 -0.00000000000E+00 -0.25935782569E+04  0.25935782569E+04  0.00000000000E+00 0.  1.
        -13    1    1    2    0    0 -0.28804965997E+03 -0.23172073404E+03 -0.20880817981E+04  0.21205548123E+04  0.10566000000E+00 0.  1.
         13    1    1    2    0    0  0.21572454625E+03  0.23890889175E+02 -0.33768523262E+03  0.40142145176E+03  0.10566000000E+00 0. -1.
          4    1    1    2  501    0  0.72325113724E+02  0.20782984487E+03 -0.18575672145E+02  0.22083754683E+03  0.00000000000E+00 0.  1.
</event>
<event>
 5    1  0.7625606E-005  0.4231898E+03  0.7818608E-02  0.9772967E-01
          4   -1    0    0  502    0 -0.00000000000E+00  0.00000000000E+00  0.17775197714E+04  0.17775197714E+04  0.00000000000E+00 0.  1.
         21   -1    0    0  501  502  0.00000000000E+00 -0.00000000000E+00 -0.36562905405E+03  0.36562905405E+03  0.00000000000E+00 0.  1.
        -13    1    1    2    0    0 -0.30967156366E+03  0.26971857078E+03  0.20566545331E+03  0.45928517788E+03  0.10566000000E+00 0.  1.
         13    1    1    2    0    0 -0.16210718375E+03 -0.24084365985E+03  0.11748202466E+04  0.12101599194E+04  0.10566000000E+00 0. -1.
          4    1    1    2  501    0  0.47177874741E+03 -0.28874910935E+02  0.31405017450E+02  0.47370372820E+03  0.00000000000E+00 0.  1.
</event>
<event>
 5    1  0.7625606E-005  0.1416948E+03  0.7818608E-02  0.1109604E+00
         21   -1    0    0  501  502  0.00000000000E+00  0.00000000000E+00  0.57995564499E+03  0.57995564499E+03  0.00000000000E+00 0.  1.
         -4   -1    0    0    0  501 -0.00000000000E+00 -0.00000000000E+00 -0.74126592963E+02  0.74126592963E+02  0.00000000000E+00 0. -1.
        -13    1    1    2    0    0 -0.73549704033E+02  0.13503551740E+03  0.39622640712E+03  0.42501708999E+03  0.10566000000E+00 0.  1.
         13    1    1    2    0    0  0.10703801237E+03 -0.91308485004E+02  0.53711763511E+02  0.15059661427E+03  0.10566000000E+00 0. -1.
         -4    1    1    2    0  502 -0.33488308333E+02 -0.43727032393E+02  0.55890881398E+02  0.78468533696E+02  0.00000000000E+00 0. -1.
</event>
<event>
 5    1  0.7625606E-005  0.4970217E+03  0.7818608E-02  0.1004381E+00
         21   -1    0    0  501  502  0.00000000000E+00  0.00000000000E+00  0.24992793985E+03  0.24992793985E+03  0.00000000000E+00 0. -1.
         -4   -1    0    0    0  501 -0.00000000000E+00 -0.00000000000E+00 -0.12357921548E+04  0.12357921548E+04  0.00000000000E+00 0. -1.
        -13    1    1    2    0    0  0.42510339847E+02 -0.58762394396E+02 -0.19617439999E+03  0.20915198867E+03  0.10566000000E+00 0.  1.
         13    1    1    2    0    0  0.41091816813E+03  0.27390194538E+03 -0.46849799949E+03  0.68071021975E+03  0.10566000000E+00 0. -1.
         -4    1    1    2    0  502 -0.45342850798E+03 -0.21513955098E+03 -0.32119181546E+03  0.59585788621E+03  0.00000000000E+00 0. -1.
</event>
<event>
 5    1  0.7625606E-005  0.4784155E+02  0.7818608E-02  0.1339338E+00
         21   -1    0    0  501  502  0.00000000000E+00  0.00000000000E+00  0.82908151079E+02  0.82908151079E+02  0.00000000000E+00 0.  1.
          4   -1    0    0  502    0 -0.00000000000E+00 -0.00000000000E+00 -0.69817564809E+02  0.69817564809E+02  0.00000000000E+00 0.  1.
        -13    1    1    2    0    0  0.19666881845E+02  0.57097894466E+02 -0.33816567306E+02  0.69213634368E+02  0.10566000000E+00 0.  1.
         13    1    1    2    0    0 -0.19942717200E+02 -0.11821954048E+02  0.21368684048E+02  0.31529389287E+02  0.10566000000E+00 0. -1.
          4    1    1    2  501    0  0.27583535477E+00 -0.45275940418E+02  0.25538469528E+02  0.51982692233E+02  0.00000000000E+00 0.  1.
</event>
<event>
 5    1  0.7625606E-005  0.4909801E+03  0.7818608E-02  0.9851969E-01
         21   -1    0    0  501  502  0.00000000000E+00  0.00000000000E+00  0.68824748728E+03  0.68824748728E+03  0.00000000000E+00 0.  1.
          4   -1    0    0  502    0 -0.00000000000E+00 -0.00000000000E+00 -0.83533580973E+03  0.83533580973E+03  0.00000000000E+00 0.  1.
        -13    1    1    2    0    0 -0.38279708666E+03  0.40523094673E+03  0.22860712861E+03  0.60250058934E+03  0.10566000000E+00 0.  1.
         13    1    1    2    0    0  0.49649565684E+02 -0.13309286065E+03 -0.46112714229E+03  0.48251118272E+03  0.10566000000E+00 0. -1.
          4    1    1    2  501    0  0.33314752098E+03 -0.27213808608E+03  0.85431691234E+02  0.43857152495E+03  0.00000000000E+00 0.  1.
</event>
<event>
 5    1  0.7625606E-005  0.1269289E+03  0.7818608E-02  0.1126389E+00
         21   -1    0    0  501  502  0.00000000000E+00  0.00000000000E+00  0.84128710966E+02  0.84128710966E+02  0.00000000000E+00 0.  1.
          4   -1    0    0  502    0 -0.00000000000E+00 -0.00000000000E+00 -0.47712255445E+03  0.47712255445E+03  0.00000000000E+00 0.  1.
        -13    1    1    2    0    0  0.10048391878E+03 -0.85402045134E+02 -0.36982650546E+03  0.39263492273E+03  0.10566000000E+00 0.  1.
         13    1    1    2    0    0 -0.94224747252E+02  0.61743467234E+02 -0.57480904706E+02  0.12646985534E+03  0.10566000000E+00 0. -1.
          4    1    1    2  501    0 -0.62591715300E+01  0.23658577900E+02  0.34313566681E+02  0.42146487337E+02  0.00000000000E+00 0.  1.
</event>
<event>
 5    1  0.7625606E-005  0.4192391E+02  0.7818608E-02  0.1358333E+00
         -4   -1    0    0    0  501 -0.00000000000E+00  0.00000000000E+00  0.37340527490E+02  0.37340527490E+02  0.00000000000E+00 0. -1.
         21   -1    0    0  501  502  0.00000000000E+00 -0.00000000000E+00 -0.14161282478E+03  0.14161282478E+03  0.00000000000E+00 0. -1.
        -13    1    1    2    0    0 -0.22977309540E+02  0.84047995546E+01 -0.75774636694E+01  0.25613014835E+02  0.10566000000E+00 0.  1.
         13    1    1    2    0    0  0.24352640220E+02 -0.48756691699E+02 -0.69628814084E+01  0.54943233911E+02  0.10566000000E+00 0. -1.
         -4    1    1    2    0  502 -0.13753306801E+01  0.40351892144E+02 -0.89731952217E+02  0.98397103528E+02  0.00000000000E+00 0. -1.
</event>
<event>
 5    1  0.7625606E-005  0.2152317E+02  0.7818608E-02  0.1536671E+00
         21   -1    0    0  501  502  0.00000000000E+00  0.00000000000E+00  0.28590003850E+02  0.28590003850E+02  0.00000000000E+00 0.  1.
         -4   -1    0    0    0  501 -0.00000000000E+00 -0.00000000000E+00 -0.12133771487E+03  0.12133771487E+03  0.00000000000E+00 0. -1.
        -13    1    1    2    0    0  0.10029563774E+02  0.44818684127E+01  0.18093635961E+02  0.21167666859E+02  0.10566000000E+00 0.  1.
         13    1    1    2    0    0 -0.27070161634E+02  0.73907749889E+01 -0.10267989031E+03  0.10644523589E+03  0.10566000000E+00 0. -1.
         -4    1    1    2    0  502  0.17040597860E+02 -0.11872643402E+02 -0.81614566693E+01  0.22314815969E+02  0.00000000000E+00 0. -1.
</event>
<event>
 5    1  0.7625606E-005  0.1262130E+03  0.7818608E-02  0.1129631E+00
         21   -1    0    0  501  502  0.00000000000E+00  0.00000000000E+00  0.80291008911E+03  0.80291008911E+03  0.00000000000E+00 0.  1.
          4   -1    0    0  502    0 -0.00000000000E+00 -0.00000000000E+00 -0.23668924568E+03  0.23668924568E+03  0.00000000000E+00 0.  1.
        -13    1    1    2    0    0  0.50559585507E+02 -0.22899240319E+03 -0.12598954616E+03  0.26620888286E+03  0.10566000000E+00 0.  1.
         13    1    1    2    0    0  0.40723470901E+01  0.11868429579E+03  0.67355015001E+02  0.13652565799E+03  0.10566000000E+00 0. -1.
          4    1    1    2  501    0 -0.54631932597E+02  0.11030810740E+03  0.62485537459E+03  0.63686479394E+03  0.00000000000E+00 0.  1.
</event>
<event>
 5    1  0.7625606E-005  0.4933528E+03  0.7818608E-02  0.9721999E-01
          4   -1    0    0  502    0 -0.00000000000E+00  0.00000000000E+00  0.13556931245E+04  0.13556931245E+04  0.00000000000E+00 0.  1.
         21   -1    0    0  501  502  0.00000000000E+00 -0.00000000000E+00 -0.41750487367E+03  0.41750487367E+03  0.00000000000E+00 0.  1.
        -13    1    1    2    0    0 -0.29050658822E+03 -0.24594985757E+03  0.26123948087E+03  0.46166165941E+03  0.10566000000E+00 0.  1.
         13    1    1    2    0    0 -0.21183044428E+03 -0.53408191164E+02  0.69292524319E+03  0.72654660953E+03  0.10566000000E+00 0. -1.
          4    1    1    2  501    0  0.50233703250E+03  0.29935804874E+03 -0.15976473260E+02  0.58498972919E+03  0.00000000000E+00 0.  1.
</event>
<event>
 5    1  0.7625606E-005  0.3571164E+02  0.7818608E-02  0.1364155E+00
         21   -1    0    0  501  502  0.00000000000E+00  0.00000000000E+00  0.20763770924E+03  0.20763770924E+03  0.00000000000E+00 0.  1.
         -4   -1    0    0    0  501 -0.00000000000E+00 -0.00000000000E+00 -0.20552895548E+02  0.20552895548E+02  0.00000000000E+00 0. -1.
        -13    1    1    2    0    0 -0.17870263982E+02 -0.18719814251E+02  0.12541632981E+03  0.12805875498E+03  0.10566000000E+00 0.  1.
         13    1    1    2    0    0  0.12816018262E+02  0.35278327376E+02  0.15457390992E+01  0.37566090826E+02  0.10566000000E+00 0. -1.
         -4    1    1    2    0  502  0.50542457197E+01 -0.16558513125E+02  0.60122744786E+02  0.62565758985E+02  0.00000000000E+00 0. -1.
</event>
<event>
 5    1  0.7625606E-005  0.6926444E+02  0.7818608E-02  0.1228671E+00
         21   -1    0    0  501  502  0.00000000000E+00  0.00000000000E+00  0.74669698863E+02  0.74669698863E+02  0.00000000000E+00 0. -1.
         -4   -1    0    0    0  501 -0.00000000000E+00 -0.00000000000E+00 -0.15961863011E+03  0.15961863011E+03  0.00000000000E+00 0. -1.
        -13    1    1    2    0    0  0.59933427021E+02 -0.13100990679E+02 -0.32154398509E+02  0.69264479632E+02  0.10566000000E+00 0.  1.
         13    1    1    2    0    0 -0.69607135925E+02  0.28915485880E+02 -0.93617031040E+02  0.12018909418E+03  0.10566000000E+00 0. -1.
         -4    1    1    2    0  502  0.96737089044E+01 -0.15814495201E+02  0.40822498302E+02  0.44834755158E+02  0.00000000000E+00 0. -1.
</event>
<event>
 5    1  0.7625606E-005  0.4746227E+03  0.7818608E-02  0.9684408E-01
         21   -1    0    0  501  502  0.00000000000E+00  0.00000000000E+00  0.12255490126E+04  0.12255490126E+04  0.00000000000E+00 0.  1.
          4   -1    0    0  502    0 -0.00000000000E+00 -0.00000000000E+00 -0.35461307279E+03  0.35461307279E+03  0.00000000000E+00 0.  1.
        -13    1    1    2    0    0 -0.21830792142E+03 -0.58379703489E+03  0.39312820265E+03  0.73690373956E+03  0.10566000000E+00 0.  1.
         13    1    1    2    0    0 -0.45740035395E+02  0.27588616251E+03  0.12767190650E+03  0.30741739114E+03  0.10566000000E+00 0. -1.
          4    1    1    2  501    0  0.26404795682E+03  0.30791087238E+03  0.35013583070E+03  0.53584095474E+03  0.00000000000E+00 0.  1.
</event>
<event>
 5    1  0.7625606E-005  0.5569712E+02  0.7818608E-02  0.1356537E+00
         -4   -1    0    0    0  501 -0.00000000000E+00  0.00000000000E+00  0.10023430503E+03  0.10023430503E+03  0.00000000000E+00 0. -1.
         21   -1    0    0  501  502  0.00000000000E+00 -0.00000000000E+00 -0.14168326321E+03  0.14168326321E+03  0.00000000000E+00 0. -1.
        -13    1    1    2    0    0  0.16808458053E+01 -0.10640476492E+02 -0.10236734903E+02  0.14860918145E+02  0.10566000000E+00 0.  1.
         13    1    1    2    0    0 -0.37094749663E+02  0.52837482821E+02  0.80088567990E+02  0.10286889681E+03  0.10566000000E+00 0. -1.
         -4    1    1    2    0  502  0.35413903857E+02 -0.42197006329E+02 -0.11130079127E+03  0.12418775329E+03  0.00000000000E+00 0. -1.
</event>
<event>
 5    1  0.7625606E-005  0.4651571E+03  0.7818608E-02  0.9559125E-01
          4   -1    0    0  502    0 -0.00000000000E+00  0.00000000000E+00  0.26415737842E+04  0.26415737842E+04  0.00000000000E+00 0.  1.
         21   -1    0    0  501  502  0.00000000000E+00 -0.00000000000E+00 -0.24563333086E+03  0.24563333086E+03  0.00000000000E+00 0.  1.
        -13    1    1    2    0    0  0.19585928618E+03  0.28543358233E+03  0.99807240453E+03  0.10564003624E+04  0.10566000000E+00 0.  1.
         13    1    1    2    0    0  0.37994695700E+03 -0.26449199075E+03  0.10747230877E+04  0.11701903391E+04  0.10566000000E+00 0. -1.
          4    1    1    2  501    0 -0.57580624318E+03 -0.20941591583E+02  0.32314496112E+03  0.66061641354E+03  0.00000000000E+00 0.  1.
</event>
<event>
 5    1  0.7625606E-005  0.2066170E+03  0.7818608E-02  0.1055692E+00
         21   -1    0    0  501  502  0.00000000000E+00  0.00000000000E+00  0.36688466146E+02  0.36688466146E+02  0.00000000000E+00 0. -1.
          4   -1    0    0  502    0 -0.00000000000E+00 -0.00000000000E+00 -0.17387326892E+04  0.17387326892E+04  0.00000000000E+00 0.  1.
        -13    1    1    2    0    0  0.91236713990E+01  0.20297479962E+03 -0.11221721910E+04  0.11404176639E+04  0.10566000000E+00 0.  1.
         13    1    1    2    0    0 -0.20840469463E+02 -0.21298063976E+03 -0.58138764277E+03  0.61952133168E+03  0.10566000000E+00 0. -1.
          4    1    1    2  501    0  0.11716798064E+02  0.10005840138E+02  0.15156107776E+01  0.15482159726E+02  0.00000000000E+00 0.  1.
</event>
<event>
 5    1  0.7625606E-005  0.1167903E+03  0.7818608E-02  0.1139423E+00
         -4   -1    0    0    0  501 -0.00000000000E+00  0.00000000000E+00  0.18177403847E+03  0.18177403847E+03  0.00000000000E+00 0. -1.
         21   -1    0    0  501  502  0.00000000000E+00 -0.00000000000E+00 -0.17945484104E+03  0.17945484104E+03  0.00000000000E+00 0.  1.
        -13    1    1    2    0    0  0.82364576309E+02 -0.67148198676E+02 -0.51972736094E+02  0.11829615580E+03  0.10566000000E+00 0.  1.
         13    1    1    2    0    0 -0.81026809947E+02  0.88625839397E+02  0.12242208195E+03  0.17148487004E+03  0.10566000000E+00 0. -1.
         -4    1    1    2    0  502 -0.13377663621E+01 -0.21477640721E+02 -0.68130148422E+02  0.71447853668E+02  0.00000000000E+00 0. -1.
</event>
<event>
 5    1  0.7625606E-005  0.3547260E+03  0.7818608E-02  0.1015548E+00
         -4   -1    0    0    0  501 -0.00000000000E+00  0.00000000000E+00  0.88039004922E+03  0.88039004922E+03  0.00000000000E+00 0. -1.
         21   -1    0    0  501  502  0.00000000000E+00 -0.00000000000E+00 -0.38973688672E+03  0.38973688672E+03  0.00000000000E+00 0. -1.
        -13    1    1    2    0    0 -0.42261072655E+02  0.13278197994E+03  0.20735224499E+03  0.24982397228E+03  0.10566000000E+00 0.  1.
         13    1    1    2    0    0  0.28444850878E+03 -0.24177327334E+03 -0.23274460081E+03  0.43992650547E+03  0.10566000000E+00 0. -1.
         -4    1    1    2    0  502 -0.24218743612E+03  0.10899129340E+03  0.51604551831E+03  0.58037645819E+03  0.00000000000E+00 0. -1.
</event>
<event>
 5    1  0.7625606E-005  0.5804662E+02  0.7818608E-02  0.1262101E+00
         -4   -1    0    0    0  501 -0.00000000000E+00  0.00000000000E+00  0.82739108336E+02  0.82739108336E+02  0.00000000000E+00 0. -1.
         21   -1    0    0  501  502  0.00000000000E+00 -0.00000000000E+00 -0.11513557182E+03  0.11513557182E+03  0.00000000000E+00 0.  1.
        -13    1    1    2    0    0 -0.56471464620E+02  0.53562191847E+00 -0.73844419836E+02  0.92964093672E+02  0.10566000000E+00 0.  1.
         13    1    1    2    0    0  0.55158918692E+02 -0.20123729636E+02  0.55479005968E+02  0.80779960838E+02  0.10566000000E+00 0. -1.
         -4    1    1    2    0  502  0.13125459281E+01  0.19588107718E+02 -0.14031049616E+02  0.24130625647E+02  0.00000000000E+00 0. -1.
</event>
<event>
 5    1  0.7625606E-005  0.2860581E+03  0.7818608E-02  0.1013232E+00
         -4   -1    0    0    0  501 -0.00000000000E+00  0.00000000000E+00  0.45901890918E+03  0.45901890918E+03  0.00000000000E+00 0. -1.
         21   -1    0    0  501  502  0.00000000000E+00 -0.00000000000E+00 -0.27096580117E+03  0.27096580117E+03  0.00000000000E+00 0. -1.
        -13    1    1    2    0    0  0.38647708730E+02  0.29609543464E+03  0.28736072337E+02  0.29998654107E+03  0.10566000000E+00 0.  1.
         13    1    1    2    0    0 -0.43145924550E+02 -0.27656140262E+03  0.22638597333E+03  0.35999777820E+03  0.10566000000E+00 0. -1.
         -4    1    1    2    0  502  0.44982158192E+01 -0.19534032018E+02 -0.67068937657E+02  0.70000391077E+02  0.00000000000E+00 0. -1.
</event>
<event>
 5    1  0.7625606E-005  0.2555394E+03  0.7818608E-02  0.1027562E+00
         21   -1    0    0  501  502  0.00000000000E+00  0.00000000000E+00  0.11140819878E+03  0.11140819878E+03  0.00000000000E+00 0.  1.
         -4   -1    0    0    0  501 -0.00000000000E+00 -0.00000000000E+00 -0.77592090416E+03  0.77592090416E+03  0.00000000000E+00 0. -1.
        -13    1    1    2    0    0  0.23321588121E+03 -0.11410357064E+03 -0.35654670432E+03  0.44106103388E+03  0.10566000000E+00 0.  1.
         13    1    1    2    0    0 -0.22917152192E+03  0.10365276668E+03 -0.33388963973E+03  0.41802605802E+03  0.10566000000E+00 0. -1.
         -4    1    1    2    0  502 -0.40443592874E+01  0.10450803964E+02  0.25923638673E+02  0.28242011041E+02  0.00000000000E+00 0. -1.
</event>
<event>
 5    1  0.7625606E-005  0.2000731E+03  0.7818608E-02  0.1060086E+00
          4   -1    0    0  502    0 -0.00000000000E+00  0.00000000000E+00  0.13473947009E+04  0.13473947009E+04  0.00000000000E+00 0.  1.
         21   -1    0    0  501  502  0.00000000000E+00 -0.00000000000E+00 -0.34847912201E+03  0.34847912201E+03  0.00000000000E+00 0.  1.
        -13    1    1    2    0    0 -0.19202305957E+03  0.19346872196E+02  0.10717021521E+04  0.10889410778E+04  0.10566000000E+00 0.  1.
         13    1    1    2    0    0  0.24834753852E+03 -0.88222036717E+01  0.20571151014E+03  0.32260125191E+03  0.10566000000E+00 0. -1.
          4    1    1    2  501    0 -0.56324478945E+02 -0.10524668524E+02 -0.27849808338E+03  0.28433149320E+03  0.00000000000E+00 0.  1.
</event>
<event>
 5    1  0.7625606E-005  0.3606267E+03  0.7818608E-02  0.1000378E+00
          4   -1    0    0  502    0 -0.00000000000E+00  0.00000000000E+00  0.23997012328E+04  0.23997012328E+04  0.00000000000E+00 0.  1.
         21   -1    0    0  501  502  0.00000000000E+00 -0.00000000000E+00 -0.20210700736E+03  0.20210700736E+03  0.00000000000E+00 0.  1.
        -13    1    1    2    0    0 -0.11500665001E+03  0.46772502707E+03  0.11010206440E+04  0.12017652433E+04  0.10566000000E+00 0.  1.
         13    1    1    2    0    0 -0.94693139768E+02 -0.19452550820E+03  0.10259013041E+04  0.10484657653E+04  0.10566000000E+00 0. -1.
          4    1    1    2  501    0  0.20969978978E+03 -0.27319951888E+03  0.70672277372E+02  0.35157723154E+03  0.00000000000E+00 0.  1.
</event>
<event>
 5    1  0.7625606E-005  0.5043005E+03  0.7818608E-02  0.9483458E-01
         21   -1    0    0  501  502  0.00000000000E+00  0.00000000000E+00  0.43188207274E+03  0.43188207274E+03  0.00000000000E+00 0. -1.
         -4   -1    0    0    0  501 -0.00000000000E+00 -0.00000000000E+00 -0.17379824264E+04  0.17379824264E+04  0.00000000000E+00 0. -1.
        -13    1    1    2    0    0 -0.17308942751E+03  0.44519780751E+03 -0.81876810472E+03  0.94791468930E+03  0.10566000000E+00 0.  1.
         13    1    1    2    0    0  0.44250318522E+03  0.12081965633E+03 -0.35803448011E+03  0.58188930081E+03  0.10566000000E+00 0. -1.
         -4    1    1    2    0  502 -0.26941375771E+03 -0.56601746383E+03 -0.12929776886E+03  0.64006050905E+03  0.00000000000E+00 0. -1.
</event>
<event>
 5    1  0.7625606E-005  0.3064194E+03  0.7818608E-02  0.1019455E+00
          4   -1    0    0  502    0 -0.00000000000E+00  0.00000000000E+00  0.13632328816E+04  0.13632328816E+04  0.00000000000E+00 0.  1.
         21   -1    0    0  501  502  0.00000000000E+00 -0.00000000000E+00 -0.28912003804E+03  0.28912003804E+03  0.00000000000E+00 0. -1.
        -13    1    1    2    0    0  0.19969916090E+03 -0.15890753265E+03  0.11076162334E+04  0.11366376250E+04  0.10566000000E+00 0.  1.
         13    1    1    2    0    0  0.11823727503E+03  0.15002754907E+03  0.23925739747E+02  0.19251174217E+03  0.10566000000E+00 0. -1.
          4    1    1    2  501    0 -0.31793643593E+03  0.88799835754E+01 -0.57429129621E+02  0.32320355247E+03  0.00000000000E+00 0.  1.
</event>
<event>
 5    1  0.7625606E-005  0.1031513E+03  0.7818608E-02  0.1159444E+00
         21   -1    0    0  501  502  0.00000000000E+00  0.00000000000E+00  0.52888485358E+03  0.52888485358E+03  0.00000000000E+00 0. -1.
         -4   -1    0    0    0  501 -0.00000000000E+00 -0.00000000000E+00 -0.21011152572E+03  0.21011152572E+03  0.00000000000E+00 0. -1.
        -13    1    1    2    0    0 -0.99734204880E+02  0.16812954470E+02  0.34237669192E+02  0.10677928740E+03  0.10566000000E+00 0.  1.
         13    1    1    2    0    0  0.93533085780E+02 -0.46362283943E+02 -0.15760704431E+03  0.18904468014E+03  0.10566000000E+00 0. -1.
         -4    1    1    2    0  502  0.62011190999E+01  0.29549329473E+02  0.44214270299E+03  0.44317241177E+03  0.00000000000E+00 0. -1.
</event>
<event>
 5    1  0.7625606E-005  0.4606193E+03  0.7818608E-02  0.9894732E-01
          4   -1    0    0  502    0 -0.00000000000E+00  0.00000000000E+00  0.16066843423E+04  0.16066843423E+04  0.00000000000E+00 0.  1.
         21   -1    0    0  501  502  0.00000000000E+00 -0.00000000000E+00 -0.20949744042E+03  0.20949744042E+03  0.00000000000E+00 0.  1.
        -13    1    1    2    0    0  0.40894666171E+03 -0.36883564945E+03  0.84305894861E+03  0.10069883368E+04  0.10566000000E+00 0.  1.
         13    1    1    2    0    0 -0.14315340931E+03  0.41277794090E+02  0.24299916416E+03  0.28503571676E+03  0.10566000000E+00 0. -1.
          4    1    1    2  501    0 -0.26579325240E+03  0.32755785536E+03  0.31112878911E+03  0.52415772916E+03  0.00000000000E+00 0.  1.
</event>
<event>
 5    1  0.7625606E-005  0.4094863E+03  0.7818608E-02  0.9702042E-01
         -4   -1    0    0    0  501 -0.00000000000E+00  0.00000000000E+00  0.38281547137E+03  0.38281547137E+03  0.00000000000E+00 0. -1.
         21   -1    0    0  501  502  0.00000000000E+00 -0.00000000000E+00 -0.79269242265E+03  0.79269242265E+03  0.00000000000E+00 0.  1.
        -13    1    1    2    0    0  0.30535289791E+03 -0.30669247876E+03 -0.34027109178E+03  0.55053164837E+03  0.10566000000E+00 0.  1.
         13    1    1    2    0    0 -0.24069823231E+03  0.32294107056E+03  0.12301895591E+03  0.42114160180E+03  0.10566000000E+00 0. -1.
         -4    1    1    2    0  502 -0.64654665597E+02 -0.16248591801E+02 -0.19262481541E+03  0.20383464385E+03  0.00000000000E+00 0. -1.
</event>
<event>
 5    1  0.7625606E-005  0.3565360E+03  0.7818608E-02  0.1001826E+00
         21   -1    0    0  501  502  0.00000000000E+00  0.00000000000E+00  0.39844453924E+03  0.39844453924E+03  0.00000000000E+00 0. -1.
          4   -1    0    0  502    0 -0.00000000000E+00 -0.00000000000E+00 -0.14713414587E+04  0.14713414587E+04  0.00000000000E+00 0.  1.
        -13    1    1    2    0    0 -0.11353899536E+03  0.30607921422E+03  0.16037535291E+03  0.36372497003E+03  0.10566000000E+00 0.  1.
         13    1    1    2    0    0 -0.13808392998E+03  0.16286536708E+03 -0.77460354578E+03  0.80349422139E+03  0.10566000000E+00 0. -1.
          4    1    1    2  501    0  0.25162292533E+03 -0.46894458130E+03 -0.45866872660E+03  0.70256680653E+03  0.00000000000E+00 0.  1.
</event>
<event>
 5    1  0.7625606E-005  0.2027953E+03  0.7818608E-02  0.1058236E+00
          4   -1    0    0  502    0 -0.00000000000E+00  0.00000000000E+00  0.14031832071E+03  0.14031832071E+03  0.00000000000E+00 0.  1.
         21   -1    0    0  501  502  0.00000000000E+00 -0.00000000000E+00 -0.38405264296E+03  0.38405264296E+03  0.00000000000E+00 0. -1.
        -13    1    1    2    0    0  0.18299255445E+03  0.88288120415E+02 -0.13484318101E+02  0.20362442189E+03  0.10566000000E+00 0.  1.
         13    1    1    2    0    0 -0.17719694701E+03 -0.97357013573E+02 -0.18437582788E+03  0.27362675891E+03  0.10566000000E+00 0. -1.
          4    1    1    2  501    0 -0.57956074445E+01  0.90688931580E+01 -0.45874176276E+02  0.47119782871E+02  0.00000000000E+00 0.  1.
</event>
<event>
 5    1  0.7625606E-005  0.5652144E+03  0.7818608E-02  0.9345453E-01
         21   -1    0    0  501  502  0.00000000000E+00  0.00000000000E+00  0.10881971704E+04  0.10881971704E+04  0.00000000000E+00 0.  1.
          4   -1    0    0  502    0 -0.00000000000E+00 -0.00000000000E+00 -0.82734934703E+03  0.82734934703E+03  0.00000000000E+00 0.  1.
        -13    1    1    2    0    0  0.43500775965E+03 -0.48467970586E+03  0.99016593872E+02  0.65874916717E+03  0.10566000000E+00 0.  1.
         13    1    1    2    0    0 -0.57105145897E+03  0.70094575139E+02 -0.27648498343E+03  0.63832356644E+03  0.10566000000E+00 0. -1.
          4    1    1    2  501    0  0.13604369932E+03  0.41458513072E+03  0.43831621290E+03  0.61847378379E+03  0.00000000000E+00 0.  1.
</event>
<event>
 5    1  0.7625606E-005  0.4949995E+03  0.7818608E-02  0.9785028E-01
          4   -1    0    0  502    0 -0.00000000000E+00  0.00000000000E+00  0.16506692079E+04  0.16506692079E+04  0.00000000000E+00 0.  1.
         21   -1    0    0  501  502  0.00000000000E+00 -0.00000000000E+00 -0.22695643649E+03  0.22695643649E+03  0.00000000000E+00 0.  1.
        -13    1    1    2    0    0 -0.44730771304E+03  0.31165884129E+03  0.66372567115E+03  0.85892211591E+03  0.10566000000E+00 0.  1.
         13    1    1    2    0    0  0.16196908241E+03  0.63748868656E+02  0.36194547625E+03  0.40162475129E+03  0.10566000000E+00 0. -1.
          4    1    1    2  501    0  0.28533863063E+03 -0.37540770994E+03  0.39804162404E+03  0.61707877721E+03  0.00000000000E+00 0.  1.
</event>
<event>
 5    1  0.7625606E-005  0.3724341E+02  0.7818608E-02  0.1354682E+00
         -4   -1    0    0    0  501 -0.00000000000E+00  0.00000000000E+00  0.15725280249E+03  0.15725280249E+03  0.00000000000E+00 0. -1.
         21   -1    0    0  501  502  0.00000000000E+00 -0.00000000000E+00 -0.34718943482E+02  0.34718943482E+02  0.00000000000E+00 0. -1.
        -13    1    1    2    0    0  0.17538414446E+02  0.25339793585E+02  0.96926479470E+01  0.32305722534E+02  0.10566000000E+00 0.  1.
         13    1    1    2    0    0 -0.35327234457E+02 -0.18219633161E+02  0.12875967436E+03  0.13475545789E+03  0.10566000000E+00 0. -1.
         -4    1    1    2    0  502  0.17788820011E+02 -0.71201604236E+01 -0.15918463300E+02  0.24910565543E+02  0.00000000000E+00 0. -1.
</event>
<event>
 5    1  0.7625606E-005  0.4713102E+03  0.7818608E-02  0.9660163E-01
          4   -1    0    0  502    0 -0.00000000000E+00  0.00000000000E+00  0.12653698839E+04  0.12653698839E+04  0.00000000000E+00 0.  1.
         21   -1    0    0  501  502  0.00000000000E+00 -0.00000000000E+00 -0.44698115418E+03  0.44698115418E+03  0.00000000000E+00 0.  1.
        -13    1    1    2    0    0  0.15770109316E+03  0.50685500901E+03  0.28427487221E+03  0.60214935778E+03  0.10566000000E+00 0.  1.
         13    1    1    2    0    0  0.21941007082E+03 -0.22027403578E+03  0.55493965358E+03  0.63609705258E+03  0.10566000000E+00 0. -1.
          4    1    1    2  501    0 -0.37711116399E+03 -0.28658097323E+03 -0.20825796091E+02  0.47410462770E+03  0.00000000000E+00 0.  1.
</event>
<event>
 5    1  0.7625606E-005  0.3788685E+03  0.7818608E-02  0.9792139E-01
         21   -1    0    0  501  502  0.00000000000E+00  0.00000000000E+00  0.31759156658E+03  0.31759156658E+03  0.00000000000E+00 0.  1.
         -4   -1    0    0    0  501 -0.00000000000E+00 -0.00000000000E+00 -0.24103607035E+04  0.24103607035E+04  0.00000000000E+00 0. -1.
        -13    1    1    2    0    0 -0.19978028965E+03 -0.25882556008E+03 -0.37268404695E+02  0.32907716395E+03  0.10566000000E+00 0.  1.
         13    1    1    2    0    0  0.24225741364E+03  0.29897658293E+03 -0.22050158643E+04  0.22383410430E+04  0.10566000000E+00 0. -1.
         -4    1    1    2    0  502 -0.42477123986E+02 -0.40151022854E+02  0.14951513210E+03  0.16053406313E+03  0.00000000000E+00 0. -1.
</event>
<event>
 5    1  0.7625606E-005  0.3389055E+03  0.7818608E-02  0.1018357E+00
         21   -1    0    0  501  502  0.00000000000E+00  0.00000000000E+00  0.67471925136E+03  0.67471925136E+03  0.00000000000E+00 0. -1.
          4   -1    0    0  502    0 -0.00000000000E+00 -0.00000000000E+00 -0.11448005104E+04  0.11448005104E+04  0.00000000000E+00 0.  1.
        -13    1    1    2    0    0 -0.21245277603E+03 -0.64305971597E+02 -0.68902068860E+03  0.72389292061E+03  0.10566000000E+00 0.  1.
         13    1    1    2    0    0  0.34235160270E+03 -0.43512390553E+03  0.67123093311E+02  0.55771225004E+03  0.10566000000E+00 0. -1.
          4    1    1    2  501    0 -0.12989882667E+03  0.49942987712E+03  0.15181633627E+03  0.53791459108E+03  0.00000000000E+00 0.  1.
</event>
<event>
 5    1  0.7625606E-005  0.1940188E+03  0.7818608E-02  0.1064315E+00
         -4   -1    0    0    0  501 -0.00000000000E+00  0.00000000000E+00  0.14538009538E+04  0.14538009538E+04  0.00000000000E+00 0. -1.
         21   -1    0    0  501  502  0.00000000000E+00 -0.00000000000E+00 -0.35602736865E+02  0.35602736865E+02  0.00000000000E+00 0. -1.
        -13    1    1    2    0    0  0.15196589432E+03 -0.11891439641E+03  0.90977268508E+03  0.93001108402E+03  0.10566000000E+00 0.  1.
         13    1    1    2    0    0 -0.16402783974E+03  0.10794608827E+03  0.50618376171E+03  0.54293600173E+03  0.10566000000E+00 0. -1.
         -4    1    1    2    0  502  0.12061945421E+02  0.10968308141E+02  0.22417700936E+01  0.16456604874E+02  0.00000000000E+00 0. -1.
</event>
<event>
 5    1  0.7625606E-005  0.5523673E+03  0.7818608E-02  0.9370031E-01
          4   -1    0    0  502    0 -0.00000000000E+00  0.00000000000E+00  0.15541534916E+04  0.15541534916E+04  0.00000000000E+00 0.  1.
         21   -1    0    0  501  502  0.00000000000E+00 -0.00000000000E+00 -0.42904385728E+03  0.42904385728E+03  0.00000000000E+00 0. -1.
        -13    1    1    2    0    0 -0.27094524363E+02  0.60666033672E+03  0.90141959865E+03  0.10868892222E+04  0.10566000000E+00 0.  1.
         13    1    1    2    0    0  0.26318189288E+03 -0.43476525451E+03  0.30557300382E+03  0.59300961804E+03  0.10566000000E+00 0. -1.
          4    1    1    2  501    0 -0.23608736852E+03 -0.17189508221E+03 -0.81882968136E+02  0.30329850862E+03  0.00000000000E+00 0.  1.
</event>
<event>
 5    1  0.7625606E-005  0.5686036E+03  0.7818608E-02  0.9639172E-01
         21   -1    0    0  501  502  0.00000000000E+00  0.00000000000E+00  0.28052818790E+03  0.28052818790E+03  0.00000000000E+00 0. -1.
         -4   -1    0    0    0  501 -0.00000000000E+00 -0.00000000000E+00 -0.21222415014E+04  0.21222415014E+04  0.00000000000E+00 0. -1.
        -13    1    1    2    0    0  0.29863811190E+02  0.18828325635E+03 -0.69186904171E+03  0.71765257184E+03  0.10566000000E+00 0.  1.
         13    1    1    2    0    0  0.53997250361E+03 -0.22493762846E+03 -0.87217696018E+03  0.10501713681E+04  0.10566000000E+00 0. -1.
         -4    1    1    2    0  502 -0.56983631480E+03  0.36654372109E+02 -0.27766731158E+03  0.63494574932E+03  0.00000000000E+00 0. -1.
</event>
<event>
 5    1  0.7625606E-005  0.3906810E+03  0.7818608E-02  0.9763620E-01
         -4   -1    0    0    0  501 -0.00000000000E+00  0.00000000000E+00  0.55361584351E+03  0.55361584351E+03  0.00000000000E+00 0. -1.
         21   -1    0    0  501  502  0.00000000000E+00 -0.00000000000E+00 -0.95291478444E+03  0.95291478444E+03  0.00000000000E+00 0.  1.
        -13    1    1    2    0    0  0.25197968926E+03 -0.28581485941E+03 -0.22424555594E+03  0.44211986857E+03  0.10566000000E+00 0.  1.
         13    1    1    2    0    0  0.14230494574E+03  0.41388724858E+03  0.22167259249E+03  0.49060381322E+03  0.10566000000E+00 0. -1.
         -4    1    1    2    0  502 -0.39428463500E+03 -0.12807238917E+03 -0.39672597748E+03  0.57380694617E+03  0.00000000000E+00 0. -1.
</event>
<event>
 5    1  0.7625606E-005  0.4286924E+03  0.7818608E-02  0.9820366E-01
         21   -1    0    0  501  502  0.00000000000E+00  0.00000000000E+00  0.18784223869E+03  0.18784223869E+03  0.00000000000E+00 0.  1.
          4   -1    0    0  502    0 -0.00000000000E+00 -0.00000000000E+00 -0.21678801408E+04  0.21678801408E+04  0.00000000000E+00 0.  1.
        -13    1    1    2    0    0  0.27888850666E+03 -0.25288285770E+03 -0.30620218823E+03  0.48527139840E+03  0.10566000000E+00 0.  1.
         13    1    1    2    0    0  0.23224735580E+03 -0.49816100474E+02 -0.55494940398E+03  0.60364669326E+03  0.10566000000E+00 0. -1.
          4    1    1    2  501    0 -0.51113586246E+03  0.30269895817E+03 -0.11188863099E+04  0.12668042878E+04  0.00000000000E+00 0.  1.
</event>
<event>
 5    1  0.7625606E-005  0.4142692E+03  0.7818608E-02  0.9688716E-01
         21   -1    0    0  501  502  0.00000000000E+00  0.00000000000E+00  0.10869264285E+04  0.10869264285E+04  0.00000000000E+00 0.  1.
          4   -1    0    0  502    0 -0.00000000000E+00 -0.00000000000E+00 -0.44898032351E+03  0.44898032351E+03  0.00000000000E+00 0.  1.
        -13    1    1    2    0    0 -0.51122047203E+03  0.14838999781E+03 -0.38925779030E+02  0.53374262515E+03  0.10566000000E+00 0.  1.
         13    1    1    2    0    0  0.21325025116E+03 -0.26228623480E+03  0.11685421553E+03  0.35766556647E+03  0.10566000000E+00 0. -1.
          4    1    1    2  501    0  0.29797022087E+03  0.11389623699E+03  0.56001766847E+03  0.64449856037E+03  0.00000000000E+00 0.  1.
</event>
<event>
 5    1  0.7625606E-005  0.1261136E+03  0.7818608E-02  0.1127387E+00
          4   -1    0    0  502    0 -0.00000000000E+00  0.00000000000E+00  0.31663863839E+02  0.31663863839E+02  0.00000000000E+00 0.  1.
         21   -1    0    0  501  502  0.00000000000E+00 -0.00000000000E+00 -0.11151751510E+04  0.11151751510E+04  0.00000000000E+00 0. -1.
        -13    1    1    2    0    0 -0.12618750772E+03  0.32707700211E+02 -0.16737289300E+03  0.21214800784E+03  0.10566000000E+00 0.  1.
         13    1    1    2    0    0  0.99910551088E+02 -0.69011514299E+02 -0.43999276316E+03  0.45644096017E+03  0.10566000000E+00 0. -1.
          4    1    1    2  501    0  0.26276956629E+02  0.36303814089E+02 -0.47614563104E+03  0.47825004687E+03  0.00000000000E+00 0.  1.
</event>
<event>
 5    1  0.7625606E-005  0.4840070E+03  0.7818608E-02  0.9513731E-01
         21   -1    0    0  501  502  0.00000000000E+00  0.00000000000E+00  0.40077755039E+03  0.40077755039E+03  0.00000000000E+00 0.  1.
          4   -1    0    0  502    0 -0.00000000000E+00 -0.00000000000E+00 -0.13633480952E+04  0.13633480952E+04  0.00000000000E+00 0.  1.
        -13    1    1    2    0    0 -0.49623791557E+03 -0.17236135474E+03 -0.29315071756E+03  0.60157947091E+03  0.10566000000E+00 0.  1.
         13    1    1    2    0    0  0.31882949802E+03  0.36780601956E+03 -0.74325355897E+03  0.88845899225E+03  0.10566000000E+00 0. -1.
          4    1    1    2  501    0  0.17740841754E+03 -0.19544466482E+03  0.73833731726E+02  0.27408718241E+03  0.00000000000E+00 0.  1.
</event>
<event>
 5    1  0.7625606E-005  0.3381626E+03  0.7818608E-02  0.1017366E+00
         -4   -1    0    0    0  501 -0.00000000000E+00  0.00000000000E+00  0.25533127498E+04  0.25533127498E+04  0.00000000000E+00 0. -1.
         21   -1    0    0  501  502  0.00000000000E+00 -0.00000000000E+00 -0.13509677843E+03  0.13509677843E+03  0.00000000000E+00 0. -1.
        -13    1    1    2    0    0  0.13203457484E+03  0.74946683743E+02  0.43431540781E+03  0.46008696893E+03  0.10566000000E+00 0.  1.
         13    1    1    2    0    0  0.16527625805E+03 -0.25468624616E+03  0.18182646228E+04  0.18434390620E+04  0.10566000000E+00 0. -1.
         -4    1    1    2    0  502 -0.29731083288E+03  0.17973956242E+03  0.16563594074E+03  0.38488349732E+03  0.00000000000E+00 0. -1.
</event>
<event>
 5    1  0.7625606E-005  0.3143057E+03  0.7818608E-02  0.1006233E+00
         21   -1    0    0  501  502  0.00000000000E+00  0.00000000000E+00  0.22502270998E+03  0.22502270998E+03  0.00000000000E+00 0. -1.
         -4   -1    0    0    0  501 -0.00000000000E+00 -0.00000000000E+00 -0.17990955524E+04  0.17990955524E+04  0.00000000000E+00 0. -1.
        -13    1    1    2    0    0 -0.19750659617E+03 -0.18421731292E+03 -0.34564872428E+03  0.43865467702E+03  0.10566000000E+00 0.  1.
         13    1    1    2    0    0  0.48552257726E+03  0.20139599018E+03 -0.11814943938E+04  0.12931440490E+04  0.10566000000E+00 0. -1.
         -4    1    1    2    0  502 -0.28801598109E+03 -0.17178677261E+02 -0.46929724419E+02  0.29231953638E+03  0.00000000000E+00 0. -1.
</event>
<event>
 5    1  0.7625606E-005  0.2403441E+03  0.7818608E-02  0.1053885E+00
         21   -1    0    0  501  502  0.00000000000E+00  0.00000000000E+00  0.23912788078E+03  0.23912788078E+03  0.00000000000E+00 0. -1.
         -4   -1    0    0    0  501 -0.00000000000E+00 -0.00000000000E+00 -0.47994932000E+03  0.47994932000E+03  0.00000000000E+00 0. -1.
        -13    1    1    2    0    0 -0.11737057737E+03  0.73436273271E+02 -0.14929777149E+03  0.20361378735E+03  0.10566000000E+00 0.  1.
         13    1    1    2    0    0  0.28824568564E+03 -0.48091834999E+02  0.44492191985E+02  0.29559764240E+03  0.10566000000E+00 0. -1.
         -4    1    1    2    0  502 -0.17087510827E+03 -0.25344438272E+02 -0.13601585972E+03  0.21986577104E+03  0.00000000000E+00 0. -1.
</event>
<event>
 5    1  0.7625606E-005  0.1267234E+03  0.7818608E-02  0.1126640E+00
         21   -1    0    0  501  502  0.00000000000E+00  0.00000000000E+00  0.18979728401E+03  0.18979728401E+03  0.00000000000E+00 0. -1.
          4   -1    0    0  502    0 -0.00000000000E+00 -0.00000000000E+00 -0.16304080297E+03  0.16304080297E+03  0.00000000000E+00 0.  1.
        -13    1    1    2    0    0 -0.11598844510E+03 -0.36160647108E+02 -0.62080065817E+02  0.13643627645E+03  0.10566000000E+00 0.  1.
         13    1    1    2    0    0  0.12048504822E+03  0.85473526426E+02  0.63757647584E+02  0.16089567848E+03  0.10566000000E+00 0. -1.
          4    1    1    2  501    0 -0.44966031214E+01 -0.49312879318E+02  0.25078899268E+02  0.55506132046E+02  0.00000000000E+00 0.  1.
</event>
<event>
 5    1  0.7625606E-005  0.2007552E+03  0.7818608E-02  0.1059619E+00
          4   -1    0    0  502    0 -0.00000000000E+00  0.00000000000E+00  0.32000786177E+03  0.32000786177E+03  0.00000000000E+00 0.  1.
         21   -1    0    0  501  502  0.00000000000E+00 -0.00000000000E+00 -0.24729045282E+03  0.24729045282E+03  0.00000000000E+00 0.  1.
        -13    1    1    2    0    0 -0.93889138781E+01 -0.23911199486E+03  0.13943439545E+03  0.27695606075E+03  0.10566000000E+00 0.  1.
         13    1    1    2    0    0 -0.52319217474E+02  0.13029646156E+03 -0.84675899124E+02  0.16396489706E+03  0.10566000000E+00 0. -1.
          4    1    1    2  501    0  0.61708131352E+02  0.10881553330E+03  0.17958912636E+02  0.12637735678E+03  0.00000000000E+00 0.  1.
</event>
<event>
 5    1  0.7625606E-005  0.1481506E+03  0.7818608E-02  0.1102950E+00
         21   -1    0    0  501  502  0.00000000000E+00  0.00000000000E+00  0.10753488427E+03  0.10753488427E+03  0.00000000000E+00 0.  1.
         -4   -1    0    0    0  501 -0.00000000000E+00 -0.00000000000E+00 -0.29909598164E+03  0.29909598164E+03  0.00000000000E+00 0. -1.
        -13    1    1    2    0    0 -0.31708076302E+02 -0.13120243126E+03  0.39958084780E+01  0.13503872675E+03  0.10566000000E+00 0.  1.
         13    1    1    2    0    0  0.50913794407E+02  0.14467972333E+03 -0.19504094223E+03  0.24812379393E+03  0.10566000000E+00 0. -1.
         -4    1    1    2    0  502 -0.19205718106E+02 -0.13477292065E+02 -0.51596361926E+00  0.23468345230E+02  0.00000000000E+00 0. -1.
</event>
<event>
 5    1  0.8988732E-005  0.2376842E+03  0.7818608E-02  0.1104866E+00
         21   -1    0    0  501  502  0.00000000000E+00  0.00000000000E+00  0.54047113476E+03  0.54047113476E+03  0.00000000000E+00 0.  1.
          4   -1    0    0  502    0 -0.00000000000E+00 -0.00000000000E+00 -0.62004920829E+03  0.62004920829E+03  0.00000000000E+00 0.  1.
        -13    1    1    2    0    0 -0.65058642974E+00 -0.26577193010E+03 -0.40995883079E+03  0.48857076887E+03  0.10566000000E+00 0.  1.
         13    1    1    2    0    0  0.15637270253E+02  0.30274292583E+02 -0.14086288181E+03  0.14492556588E+03  0.10566000000E+00 0. -1.
          4    1    1    2  501    0 -0.14986683823E+02  0.23549763752E+03  0.47124363906E+03  0.52702400829E+03  0.00000000000E+00 0.  1.
</event>
<event>
 5    1  0.7625606E-005  0.4954166E+03  0.7818608E-02  0.9513041E-01
         -4   -1    0    0    0  501 -0.00000000000E+00  0.00000000000E+00  0.22788901563E+04  0.22788901563E+04  0.00000000000E+00 0. -1.
         21   -1    0    0  501  502  0.00000000000E+00 -0.00000000000E+00 -0.29734067652E+03  0.29734067652E+03  0.00000000000E+00 0. -1.
        -13    1    1    2    0    0  0.39320114680E+03  0.22386069258E+03  0.10084752173E+04  0.11053248512E+04  0.10566000000E+00 0.  1.
         13    1    1    2    0    0  0.65531589948E+01 -0.55822253211E+03  0.35124962162E+03  0.65956928909E+03  0.10566000000E+00 0. -1.
         -4    1    1    2    0  502 -0.39975430580E+03  0.33436183953E+03  0.62182464087E+03  0.81133669259E+03  0.00000000000E+00 0. -1.
</event>
<event>
 5    1  0.7625606E-005  0.1587787E+03  0.7818608E-02  0.1118682E+00
         21   -1    0    0  501  502  0.00000000000E+00  0.00000000000E+00  0.11647603402E+03  0.11647603402E+03  0.00000000000E+00 0. -1.
         -4   -1    0    0    0  501 -0.00000000000E+00 -0.00000000000E+00 -0.27384032279E+04  0.27384032279E+04  0.00000000000E+00 0. -1.
        -13    1    1    2    0    0 -0.15188608951E+03 -0.16566940142E+03 -0.10026478353E+04  0.10275302563E+04  0.10566000000E+00 0.  1.
         13    1    1    2    0    0 -0.10872264581E+03  0.14005855734E+02  0.57422650678E+02  0.12375035225E+03  0.10566000000E+00 0. -1.
         -4    1    1    2    0  502  0.26060873531E+03  0.15166354568E+03 -0.16767020093E+04  0.17035986534E+04  0.00000000000E+00 0. -1.
</event>
<event>
 5    1  0.7625606E-005  0.1933386E+03  0.7818608E-02  0.1064801E+00
         21   -1    0    0  501  502  0.00000000000E+00  0.00000000000E+00  0.58156077411E+03  0.58156077411E+03  0.00000000000E+00 0.  1.
         -4   -1    0    0    0  501 -0.00000000000E+00 -0.00000000000E+00 -0.32463598331E+03  0.32463598331E+03  0.00000000000E+00 0. -1.
        -13    1    1    2    0    0 -0.72103598006E+02 -0.17653575581E+03  0.46122426570E+03  0.49909080973E+03  0.10566000000E+00 0.  1.
         13    1    1    2    0    0  0.63863295387E+02  0.18268133798E+03 -0.27466481709E+03  0.33599369734E+03  0.10566000000E+00 0. -1.
         -4    1    1    2    0  502  0.82403026187E+01 -0.61455821631E+01  0.70365342194E+02  0.71112250347E+02  0.00000000000E+00 0. -1.
</event>
<event>
 5    1  0.7625606E-005  0.3736742E+03  0.7818608E-02  0.9966906E-01
         21   -1    0    0  501  502  0.00000000000E+00  0.00000000000E+00  0.23061380953E+03  0.23061380953E+03  0.00000000000E+00 0.  1.
          4   -1    0    0  502    0 -0.00000000000E+00 -0.00000000000E+00 -0.18893799592E+04  0.18893799592E+04  0.00000000000E+00 0.  1.
        -13    1    1    2    0    0  0.26626969303E+03  0.34831159836E+03 -0.10308107043E+04  0.11201746463E+04  0.10566000000E+00 0.  1.
         13    1    1    2    0    0 -0.21869021829E+03  0.19154500172E+02 -0.58738951418E+03  0.62707157405E+03  0.10566000000E+00 0. -1.
          4    1    1    2  501    0 -0.47579474744E+02 -0.36746609853E+03 -0.40565931115E+02  0.37274754829E+03  0.00000000000E+00 0.  1.
</event>
<event>
 5    1  0.7625606E-005  0.3433239E+03  0.7818608E-02  0.9954496E-01
         21   -1    0    0  501  502  0.00000000000E+00  0.00000000000E+00  0.95332033079E+03  0.95332033079E+03  0.00000000000E+00 0.  1.
         -4   -1    0    0    0  501 -0.00000000000E+00 -0.00000000000E+00 -0.49008424617E+03  0.49008424617E+03  0.00000000000E+00 0. -1.
        -13    1    1    2    0    0 -0.18116891416E+03  0.23267794261E+03  0.29745817691E+03  0.41885866186E+03  0.10566000000E+00 0.  1.
         13    1    1    2    0    0  0.35081253901E+03  0.83308836560E+02 -0.27703932394E+03  0.45470935546E+03  0.10566000000E+00 0. -1.
         -4    1    1    2    0  502 -0.16964362485E+03 -0.31598677917E+03  0.44281723165E+03  0.56983655964E+03  0.00000000000E+00 0. -1.
</event>
<event>
 5    1  0.7625606E-005  0.3909551E+03  0.7818608E-02  0.9755537E-01
         21   -1    0    0  501  502  0.00000000000E+00  0.00000000000E+00  0.13008378738E+04  0.13008378738E+04  0.00000000000E+00 0. -1.
         -4   -1    0    0    0  501 -0.00000000000E+00 -0.00000000000E+00 -0.37937037919E+03  0.37937037919E+03  0.00000000000E+00 0. -1.
        -13    1    1    2    0    0  0.32656897169E+03  0.12625183255E+03  0.34939534976E+03  0.49463515857E+03  0.10566000000E+00 0.  1.
         13    1    1    2    0    0 -0.50273689826E+03  0.99275390672E+02  0.70375048963E+03  0.87055428026E+03  0.10566000000E+00 0. -1.
         -4    1    1    2    0  502  0.17616792658E+03 -0.22552722322E+03 -0.13167834480E+03  0.31501881413E+03  0.00000000000E+00 0. -1.
</event>
<event>
 5    1  0.7625606E-005  0.5877638E+03  0.7818608E-02  0.9397462E-01
         -4   -1    0    0    0  501 -0.00000000000E+00  0.00000000000E+00  0.21842160181E+04  0.21842160181E+04  0.00000000000E+00 0. -1.
         21   -1    0    0  501  502  0.00000000000E+00 -0.00000000000E+00 -0.46088944250E+03  0.46088944250E+03  0.00000000000E+00 0.  1.
        -13    1    1    2    0    0 -0.38326474739E+02  0.69931033407E+03  0.99569685854E+03  0.12173397666E+04  0.10566000000E+00 0.  1.
         13    1    1    2    0    0  0.34682332625E+03 -0.51127171130E+02  0.60540520291E+03  0.69958264568E+03  0.10566000000E+00 0. -1.
         -4    1    1    2    0  502 -0.30849685151E+03 -0.64818316294E+03  0.12222451419E+03  0.72818304840E+03  0.00000000000E+00 0. -1.
</event>
<event>
 5    1  0.7625606E-005  0.9684227E+02  0.7818608E-02  0.1169888E+00
         21   -1    0    0  501  502  0.00000000000E+00  0.00000000000E+00  0.75228473548E+03  0.75228473548E+03  0.00000000000E+00 0. -1.
          4   -1    0    0  502    0 -0.00000000000E+00 -0.00000000000E+00 -0.89319093253E+02  0.89319093253E+02  0.00000000000E+00 0.  1.
        -13    1    1    2    0    0  0.77378344671E+02  0.56270450541E+02 -0.52912549012E+02  0.10933215828E+03  0.10566000000E+00 0.  1.
         13    1    1    2    0    0 -0.10546709427E+03 -0.52306253196E+02  0.45998570703E+03  0.47481166154E+03  0.10566000000E+00 0. -1.
          4    1    1    2  501    0  0.28088749596E+02 -0.39641973457E+01  0.25589248420E+03  0.25746000891E+03  0.00000000000E+00 0.  1.
</event>
<event>
 5    1  0.7625606E-005  0.7346645E+02  0.7818608E-02  0.1217915E+00
         -4   -1    0    0    0  501 -0.00000000000E+00  0.00000000000E+00  0.24363443278E+03  0.24363443278E+03  0.00000000000E+00 0. -1.
         21   -1    0    0  501  502  0.00000000000E+00 -0.00000000000E+00 -0.31191977000E+02  0.31191977000E+02  0.00000000000E+00 0. -1.
        -13    1    1    2    0    0 -0.43601652029E+02  0.48476533467E+02  0.48907886424E+02  0.81505035888E+02  0.10566000000E+00 0.  1.
         13    1    1    2    0    0  0.47321165570E+02 -0.62128705920E+02  0.16100588717E+03  0.17894741037E+03  0.10566000000E+00 0. -1.
         -4    1    1    2    0  502 -0.37195135409E+01  0.13652172453E+02  0.25286821797E+01  0.14373963518E+02  0.00000000000E+00 0. -1.
</event>
<event>
 5    1  0.7625606E-005  0.1937746E+03  0.7818608E-02  0.1064489E+00
          4   -1    0    0  502    0 -0.00000000000E+00  0.00000000000E+00  0.12757144865E+04  0.12757144865E+04  0.00000000000E+00 0.  1.
         21   -1    0    0  501  502  0.00000000000E+00 -0.00000000000E+00 -0.67704197307E+02  0.67704197307E+02  0.00000000000E+00 0.  1.
        -13    1    1    2    0    0  0.45592306521E+02 -0.20793520139E+03  0.59173395045E+03  0.62885990942E+03  0.10566000000E+00 0.  1.
         13    1    1    2    0    0 -0.12369039895E+02  0.18123227313E+03  0.64034230028E+03  0.66560979761E+03  0.10566000000E+00 0. -1.
          4    1    1    2  501    0 -0.33223266626E+02  0.26702928259E+02 -0.24065961545E+02  0.48948976782E+02  0.00000000000E+00 0.  1.
</event>
<event>
 5    1  0.7625606E-005  0.1308451E+03  0.7818608E-02  0.1121705E+00
         21   -1    0    0  501  502  0.00000000000E+00  0.00000000000E+00  0.63045981022E+02  0.63045981022E+02  0.00000000000E+00 0. -1.
          4   -1    0    0  502    0 -0.00000000000E+00 -0.00000000000E+00 -0.33749825751E+03  0.33749825751E+03  0.00000000000E+00 0.  1.
        -13    1    1    2    0    0 -0.53541141995E+02  0.11281952485E+03 -0.12806102162E+03  0.17887016380E+03  0.10566000000E+00 0.  1.
         13    1    1    2    0    0  0.63271074024E+02 -0.12151311078E+03 -0.15435837475E+03  0.20638600708E+03  0.10566000000E+00 0. -1.
          4    1    1    2  501    0 -0.97299320297E+01  0.86935859219E+01  0.79671198814E+01  0.15288067657E+02  0.00000000000E+00 0.  1.
</event>
<event>
 5    1  0.7625606E-005  0.9724777E+02  0.7818608E-02  0.1169191E+00
          4   -1    0    0  502    0 -0.00000000000E+00  0.00000000000E+00  0.81284279923E+02  0.81284279923E+02  0.00000000000E+00 0.  1.
         21   -1    0    0  501  502  0.00000000000E+00 -0.00000000000E+00 -0.25039399096E+03  0.25039399096E+03  0.00000000000E+00 0. -1.
        -13    1    1    2    0    0  0.95811421078E+02  0.42609612211E+02  0.21686754546E+02  0.10707816747E+03  0.10566000000E+00 0.  1.
         13    1    1    2    0    0 -0.65990853687E+02 -0.43633449745E+02 -0.91704123404E+02  0.12111287347E+03  0.10566000000E+00 0. -1.
          4    1    1    2  501    0 -0.29820567391E+02  0.10238375347E+01 -0.99092342174E+02  0.10348722994E+03  0.00000000000E+00 0.  1.
</event>
<event>
 5    1  0.7797285E-005  0.2906308E+03  0.7818608E-02  0.1052317E+00
         21   -1    0    0  501  502  0.00000000000E+00  0.00000000000E+00  0.19889775193E+03  0.19889775193E+03  0.00000000000E+00 0.  1.
          4   -1    0    0  502    0 -0.00000000000E+00 -0.00000000000E+00 -0.14989664209E+04  0.14989664209E+04  0.00000000000E+00 0.  1.
        -13    1    1    2    0    0 -0.20702775120E+03 -0.89413106909E+02 -0.12725224219E+04  0.12923499986E+04  0.10566000000E+00 0.  1.
         13    1    1    2    0    0 -0.45117985509E+02 -0.68491496374E+02 -0.66338671873E+02  0.10548719468E+03  0.10566000000E+00 0. -1.
          4    1    1    2  501    0  0.25214573670E+03  0.15790460328E+03  0.38792424759E+02  0.30002697961E+03  0.00000000000E+00 0.  1.
</event>
<event>
 5    1  0.7625606E-005  0.2220499E+03  0.7818608E-02  0.1066443E+00
         -4   -1    0    0    0  501 -0.00000000000E+00  0.00000000000E+00  0.56318692874E+03  0.56318692874E+03  0.00000000000E+00 0. -1.
         21   -1    0    0  501  502  0.00000000000E+00 -0.00000000000E+00 -0.13278246349E+04  0.13278246349E+04  0.00000000000E+00 0. -1.
        -13    1    1    2    0    0 -0.27024094515E+03 -0.92363382690E+02  0.31058305950E+03  0.42192773185E+03  0.10566000000E+00 0.  1.
         13    1    1    2    0    0  0.88551118845E+02 -0.35288372570E+02  0.17501048846E+03  0.19928685888E+03  0.10566000000E+00 0. -1.
         -4    1    1    2    0  502  0.18168982630E+03  0.12765175526E+03 -0.12502312541E+04  0.12697969729E+04  0.00000000000E+00 0. -1.
</event>
<event>
 5    1  0.7625606E-005  0.1475963E+03  0.7818608E-02  0.1103507E+00
         21   -1    0    0  501  502  0.00000000000E+00  0.00000000000E+00  0.15962567859E+03  0.15962567859E+03  0.00000000000E+00 0. -1.
          4   -1    0    0  502    0 -0.00000000000E+00 -0.00000000000E+00 -0.30486354957E+03  0.30486354957E+03  0.00000000000E+00 0.  1.
        -13    1    1    2    0    0 -0.10134605342E+03  0.10593775317E+03 -0.22259870670E+03  0.26654085143E+03  0.10566000000E+00 0.  1.
         13    1    1    2    0    0  0.11976998361E+03 -0.95747719926E+02  0.45840738718E+02  0.16004330456E+03  0.10566000000E+00 0. -1.
          4    1    1    2  501    0 -0.18423930194E+02 -0.10190033247E+02  0.31520097000E+02  0.37905072171E+02  0.00000000000E+00 0.  1.
</event>
<event>
 5    1  0.7625606E-005  0.4763716E+03  0.7818608E-02  0.9656829E-01
         21   -1    0    0  501  502  0.00000000000E+00  0.00000000000E+00  0.27037009459E+03  0.27037009459E+03  0.00000000000E+00 0. -1.
          4   -1    0    0  502    0 -0.00000000000E+00 -0.00000000000E+00 -0.17551386041E+04  0.17551386041E+04  0.00000000000E+00 0.  1.
        -13    1    1    2    0    0 -0.20303340254E+03 -0.48592164857E+03 -0.49994324008E+03  0.72614438342E+03  0.10566000000E+00 0.  1.
         13    1    1    2    0    0 -0.18277325268E+03  0.24372875196E+03 -0.13098902614E+03  0.33161408679E+03  0.10566000000E+00 0. -1.
          4    1    1    2  501    0  0.38580665521E+03  0.24219289662E+03 -0.85383624331E+03  0.96775022850E+03  0.00000000000E+00 0.  1.
</event>
<event>
 5    1  0.7625606E-005  0.5191433E+03  0.7818608E-02  0.9436973E-01
         21   -1    0    0  501  502  0.00000000000E+00  0.00000000000E+00  0.25971184639E+03  0.25971184639E+03  0.00000000000E+00 0.  1.
          4   -1    0    0  502    0 -0.00000000000E+00 -0.00000000000E+00 -0.29547154473E+04  0.29547154473E+04  0.00000000000E+00 0.  1.
        -13    1    1    2    0    0 -0.33341892446E+03 -0.63820176160E+03 -0.10072828988E+04  0.12381795173E+04  0.10566000000E+00 0.  1.
         13    1    1    2    0    0  0.33991617028E+03  0.32141963207E+03 -0.15700334274E+04  0.16382486249E+04  0.10566000000E+00 0. -1.
          4    1    1    2  501    0 -0.64972458287E+01  0.31678212952E+03 -0.11768727474E+03  0.33799915151E+03  0.00000000000E+00 0.  1.
</event>
<event>
 5    1  0.7625606E-005  0.5479020E+02  0.7818608E-02  0.1273426E+00
          4   -1    0    0  502    0 -0.00000000000E+00  0.00000000000E+00  0.10216062549E+03  0.10216062549E+03  0.00000000000E+00 0.  1.
         21   -1    0    0  501  502  0.00000000000E+00 -0.00000000000E+00 -0.43894851536E+03  0.43894851536E+03  0.00000000000E+00 0.  1.
        -13    1    1    2    0    0  0.54710234457E+02  0.33250451277E+02 -0.36351450338E+02  0.73622288542E+02  0.10566000000E+00 0.  1.
         13    1    1    2    0    0 -0.52359114327E+02 -0.12188146934E+02  0.74544699221E+02  0.91907296363E+02  0.10566000000E+00 0. -1.
          4    1    1    2  501    0 -0.23511201293E+01 -0.21062304343E+02 -0.37498113875E+03  0.37557955595E+03  0.00000000000E+00 0.  1.
</event>
<event>
 5    1  0.7625606E-005  0.1148927E+03  0.7818608E-02  0.1142024E+00
         21   -1    0    0  501  502  0.00000000000E+00  0.00000000000E+00  0.10068233080E+04  0.10068233080E+04  0.00000000000E+00 0. -1.
          4   -1    0    0  502    0 -0.00000000000E+00 -0.00000000000E+00 -0.10738484735E+03  0.10738484735E+03  0.00000000000E+00 0.  1.
        -13    1    1    2    0    0 -0.11239659500E+03 -0.29687661922E+02 -0.50979463732E+02  0.12693805073E+03  0.10566000000E+00 0.  1.
         13    1    1    2    0    0  0.56951319502E+02  0.12457671515E+03  0.70764505680E+03  0.72078037455E+03  0.10566000000E+00 0. -1.
          4    1    1    2  501    0  0.55445275497E+02 -0.94889053225E+02  0.24277286761E+03  0.26648973009E+03  0.00000000000E+00 0.  1.
</event>
<event>
 5    1  0.7625606E-005  0.4862280E+03  0.7818608E-02  0.9666485E-01
         21   -1    0    0  501  502  0.00000000000E+00  0.00000000000E+00  0.24704359312E+04  0.24704359312E+04  0.00000000000E+00 0. -1.
         -4   -1    0    0    0  501 -0.00000000000E+00 -0.00000000000E+00 -0.34212231195E+03  0.34212231195E+03  0.00000000000E+00 0. -1.
        -13    1    1    2    0    0 -0.30137710594E+02 -0.27529842879E+03 -0.14527872823E+03  0.31273539379E+03  0.10566000000E+00 0.  1.
         13    1    1    2    0    0  0.49553757733E+03  0.26559399242E+03  0.10571944960E+04  0.11973962890E+04  0.10566000000E+00 0. -1.
         -4    1    1    2    0  502 -0.46539986673E+03  0.97044363678E+01  0.12163978515E+04  0.13024265604E+04  0.00000000000E+00 0. -1.
</event>
<event>
 5    1  0.7625606E-005  0.9114165E+02  0.7818608E-02  0.1264102E+00
          4   -1    0    0  502    0 -0.00000000000E+00  0.00000000000E+00  0.38461513325E+02  0.38461513325E+02  0.00000000000E+00 0.  1.
         21   -1    0    0  501  502  0.00000000000E+00 -0.00000000000E+00 -0.35243468647E+03  0.35243468647E+03  0.00000000000E+00 0.  1.
        -13    1    1    2    0    0  0.22623054911E+02 -0.87872297759E+02 -0.17951329330E+03  0.20114267812E+03  0.10566000000E+00 0.  1.
         13    1    1    2    0    0 -0.13831748210E+02 -0.39722858208E+01  0.10574901193E+02  0.17858779702E+02  0.10566000000E+00 0. -1.
          4    1    1    2  501    0 -0.87913067009E+01  0.91844583580E+02 -0.14503478104E+03  0.17189474197E+03  0.00000000000E+00 0.  1.
</event>
<event>
 5    1  0.7625606E-005  0.7304689E+02  0.7818608E-02  0.1218953E+00
         -4   -1    0    0    0  501 -0.00000000000E+00  0.00000000000E+00  0.13587659948E+03  0.13587659948E+03  0.00000000000E+00 0. -1.
         21   -1    0    0  501  502  0.00000000000E+00 -0.00000000000E+00 -0.35796466135E+03  0.35796466135E+03  0.00000000000E+00 0. -1.
        -13    1    1    2    0    0  0.64086354169E+02 -0.13880553368E+02 -0.25548365958E+02  0.70373721798E+02  0.10566000000E+00 0.  1.
         13    1    1    2    0    0 -0.70329776285E+02  0.26443302243E+02  0.10084135520E+03  0.12575577819E+03  0.10566000000E+00 0. -1.
         -4    1    1    2    0  502  0.62434221152E+01 -0.12562748875E+02 -0.29738105112E+03  0.29771176084E+03  0.00000000000E+00 0. -1.
</event>
<event>
 5    1  0.7625606E-005  0.2609616E+03  0.7818608E-02  0.1024864E+00
         21   -1    0    0  501  502  0.00000000000E+00  0.00000000000E+00  0.11138250228E+03  0.11138250228E+03  0.00000000000E+00 0.  1.
          4   -1    0    0  502    0 -0.00000000000E+00 -0.00000000000E+00 -0.14065435213E+04  0.14065435213E+04  0.00000000000E+00 0.  1.
        -13    1    1    2    0    0 -0.24254133571E+03  0.10682645949E+03 -0.81032008113E+03  0.85255899328E+03  0.10566000000E+00 0.  1.
         13    1    1    2    0    0  0.22190379353E+03 -0.12830568855E+03 -0.54275662400E+03  0.60024029135E+03  0.10566000000E+00 0. -1.
          4    1    1    2  501    0  0.20637542182E+02  0.21479229061E+02  0.57915686109E+02  0.65126738947E+02  0.00000000000E+00 0.  1.
</event>
<event>
 5    1  0.7625606E-005  0.4780518E+03  0.7818608E-02  0.9874268E-01
         21   -1    0    0  501  502  0.00000000000E+00  0.00000000000E+00  0.52280203933E+03  0.52280203933E+03  0.00000000000E+00 0. -1.
         -4   -1    0    0    0  501 -0.00000000000E+00 -0.00000000000E+00 -0.77316328152E+03  0.77316328152E+03  0.00000000000E+00 0. -1.
        -13    1    1    2    0    0 -0.14070260048E+03  0.24082381108E+02 -0.24235860003E+03  0.28127368351E+03  0.10566000000E+00 0.  1.
         13    1    1    2    0    0  0.45692620868E+03  0.24052397642E+03  0.19891997390E+03  0.55335568181E+03  0.10566000000E+00 0. -1.
         -4    1    1    2    0  502 -0.31622360820E+03 -0.26460635753E+03 -0.20692261605E+03  0.46133595553E+03  0.00000000000E+00 0. -1.
</event>
<event>
 5    1  0.7625606E-005  0.4726513E+03  0.7818608E-02  0.9930551E-01
         21   -1    0    0  501  502  0.00000000000E+00  0.00000000000E+00  0.14065078133E+03  0.14065078133E+03  0.00000000000E+00 0.  1.
          4   -1    0    0  502    0 -0.00000000000E+00 -0.00000000000E+00 -0.23342124555E+04  0.23342124555E+04  0.00000000000E+00 0.  1.
        -13    1    1    2    0    0  0.40414638788E+03  0.34894362217E+03 -0.13938864415E+04  0.14926538036E+04  0.10566000000E+00 0.  1.
         13    1    1    2    0    0 -0.24111148790E+02 -0.11996116072E+03 -0.12673106986E+03  0.17616129771E+03  0.10566000000E+00 0. -1.
          4    1    1    2  501    0 -0.38003523909E+03 -0.22898246144E+03 -0.67294416284E+03  0.80604813559E+03  0.00000000000E+00 0.  1.
</event>
<event>
 5    1  0.7625606E-005  0.4232772E+03  0.7818608E-02  0.9939010E-01
         21   -1    0    0  501  502  0.00000000000E+00  0.00000000000E+00  0.14829777647E+03  0.14829777647E+03  0.00000000000E+00 0. -1.
         -4   -1    0    0    0  501 -0.00000000000E+00 -0.00000000000E+00 -0.20339844220E+04  0.20339844220E+04  0.00000000000E+00 0. -1.
        -13    1    1    2    0    0  0.55662471873E+02  0.15601587603E+03 -0.66640707916E+03  0.68668600588E+03  0.10566000000E+00 0.  1.
         13    1    1    2    0    0 -0.75448779973E+02 -0.49115091652E+03 -0.51637634438E+03  0.71663538944E+03  0.10566000000E+00 0. -1.
         -4    1    1    2    0  502  0.19786308101E+02  0.33513504050E+03 -0.70290322197E+03  0.77896080313E+03  0.00000000000E+00 0. -1.
</event>
<event>
 5    1  0.7625606E-005  0.4072623E+03  0.7818608E-02  0.9842479E-01
          4   -1    0    0  502    0 -0.00000000000E+00  0.00000000000E+00  0.15232119694E+04  0.15232119694E+04  0.00000000000E+00 0.  1.
         21   -1    0    0  501  502  0.00000000000E+00 -0.00000000000E+00 -0.32406709297E+03  0.32406709297E+03  0.00000000000E+00 0.  1.
        -13    1    1    2    0    0  0.47256168686E+03  0.23272941835E+03  0.64393331277E+03  0.83194209685E+03  0.10566000000E+00 0.  1.
         13    1    1    2    0    0 -0.84121808827E+02 -0.24285574953E+03  0.57128174961E+03  0.62643295125E+03  0.10566000000E+00 0. -1.
          4    1    1    2  501    0 -0.38843987803E+03  0.10126331185E+02 -0.16070185966E+02  0.38890401426E+03  0.00000000000E+00 0.  1.
</event>
<event>
 5    1  0.7625606E-005  0.4988422E+03  0.7818608E-02  0.9870057E-01
         21   -1    0    0  501  502  0.00000000000E+00  0.00000000000E+00  0.17384344780E+03  0.17384344780E+03  0.00000000000E+00 0.  1.
          4   -1    0    0  502    0 -0.00000000000E+00 -0.00000000000E+00 -0.18626881731E+04  0.18626881731E+04  0.00000000000E+00 0.  1.
        -13    1    1    2    0    0  0.46367319690E+03 -0.45024219238E+02 -0.84913505566E+03  0.96853000354E+03  0.10566000000E+00 0.  1.
         13    1    1    2    0    0  0.64807817464E+02  0.10971532724E+03 -0.15551855503E+03  0.20105605775E+03  0.10566000000E+00 0. -1.
          4    1    1    2  501    0 -0.52848101437E+03 -0.64691108005E+02 -0.68419111463E+03  0.86694555962E+03  0.00000000000E+00 0.  1.
</event>
<event>
 5    1  0.7625606E-005  0.4965166E+03  0.7818608E-02  0.1003068E+00
         21   -1    0    0  501  502  0.00000000000E+00  0.00000000000E+00  0.13304258014E+04  0.13304258014E+04  0.00000000000E+00 0.  1.
          4   -1    0    0  502    0 -0.00000000000E+00 -0.00000000000E+00 -0.27367977463E+03  0.27367977463E+03  0.00000000000E+00 0.  1.
        -13    1    1    2    0    0 -0.33153754317E+03 -0.38297723422E+03  0.54363348008E+03  0.74305186649E+03  0.10566000000E+00 0.  1.
         13    1    1    2    0    0  0.69275853723E+02 -0.31067520524E+02 -0.67250808752E+02  0.10142493373E+03  0.10566000000E+00 0. -1.
          4    1    1    2  501    0  0.26226168945E+03  0.41404475474E+03  0.58036335545E+03  0.75962877581E+03  0.00000000000E+00 0.  1.
</event>
<event>
 5    1  0.7625606E-005  0.1826155E+03  0.7818608E-02  0.1072755E+00
         21   -1    0    0  501  502  0.00000000000E+00  0.00000000000E+00  0.32126783942E+03  0.32126783942E+03  0.00000000000E+00 0. -1.
          4   -1    0    0  502    0 -0.00000000000E+00 -0.00000000000E+00 -0.22285843370E+03  0.22285843370E+03  0.00000000000E+00 0.  1.
        -13    1    1    2    0    0 -0.63852002559E+02  0.16736583225E+03 -0.12371047978E+03  0.21769863116E+03  0.10566000000E+00 0.  1.
         13    1    1    2    0    0  0.73987918134E+02 -0.18219116002E+03  0.13755681327E+03  0.23997858000E+03  0.10566000000E+00 0. -1.
          4    1    1    2  501    0 -0.10135915576E+02  0.14825327767E+02  0.84563072232E+02  0.86449061957E+02  0.00000000000E+00 0.  1.
</event>
<event>
 5    1  0.7625606E-005  0.4230719E+03  0.7818608E-02  0.9664683E-01
         21   -1    0    0  501  502  0.00000000000E+00  0.00000000000E+00  0.72555498284E+03  0.72555498284E+03  0.00000000000E+00 0.  1.
         -4   -1    0    0    0  501 -0.00000000000E+00 -0.00000000000E+00 -0.90629092051E+03  0.90629092051E+03  0.00000000000E+00 0. -1.
        -13    1    1    2    0    0  0.43716815423E+03  0.21836134901E+03 -0.19018624789E+03  0.52437438330E+03  0.10566000000E+00 0.  1.
         13    1    1    2    0    0 -0.36910406331E+03 -0.14198054367E+03 -0.47171054786E+03  0.61555433266E+03  0.10566000000E+00 0. -1.
         -4    1    1    2    0  502 -0.68064090916E+02 -0.76380805344E+02  0.48116085808E+03  0.49191718738E+03  0.00000000000E+00 0. -1.
</event>
<event>
 5    1  0.7625606E-005  0.4251565E+03  0.7818608E-02  0.9659083E-01
          4   -1    0    0  502    0 -0.00000000000E+00  0.00000000000E+00  0.35368840188E+04  0.35368840188E+04  0.00000000000E+00 0.  1.
         21   -1    0    0  501  502  0.00000000000E+00 -0.00000000000E+00 -0.90301249714E+02  0.90301249714E+02  0.00000000000E+00 0. -1.
        -13    1    1    2    0    0 -0.21546604945E+03  0.45227800870E+03  0.12998634983E+04  0.13930635811E+04  0.10566000000E+00 0.  1.
         13    1    1    2    0    0  0.30499179172E+03 -0.25614749620E+03  0.15218355018E+04  0.15730908552E+04  0.10566000000E+00 0. -1.
          4    1    1    2  501    0 -0.89525742273E+02 -0.19613051250E+03  0.62488376898E+03  0.66103083226E+03  0.00000000000E+00 0.  1.
</event>
<event>
 5    1  0.7625606E-005  0.4957751E+03  0.7818608E-02  0.9487281E-01
         21   -1    0    0  501  502  0.00000000000E+00  0.00000000000E+00  0.53310620443E+03  0.53310620443E+03  0.00000000000E+00 0.  1.
         -4   -1    0    0    0  501 -0.00000000000E+00 -0.00000000000E+00 -0.95556397470E+03  0.95556397470E+03  0.00000000000E+00 0. -1.
        -13    1    1    2    0    0  0.39605213703E+03 -0.34884470975E+03 -0.77628641924E+02  0.53345678736E+03  0.10566000000E+00 0.  1.
         13    1    1    2    0    0 -0.36809388663E+03  0.31294581171E+03 -0.55750398395E+03  0.73772548670E+03  0.10566000000E+00 0. -1.
         -4    1    1    2    0  502 -0.27958250401E+02  0.35898898037E+02  0.21267485560E+03  0.21748790507E+03  0.00000000000E+00 0. -1.
</event>
<event>
 5    1  0.7625606E-005  0.4305413E+03  0.7818608E-02  0.9926635E-01
         -4   -1    0    0    0  501 -0.00000000000E+00  0.00000000000E+00  0.64581060896E+03  0.64581060896E+03  0.00000000000E+00 0. -1.
         21   -1    0    0  501  502  0.00000000000E+00 -0.00000000000E+00 -0.55989100865E+03  0.55989100865E+03  0.00000000000E+00 0. -1.
        -13    1    1    2    0    0  0.13516186565E+03  0.92904022427E+02  0.10492115553E+03  0.19470066089E+03  0.10566000000E+00 0.  1.
         13    1    1    2    0    0  0.30659984867E+03  0.24102866516E+03 -0.18671359019E+03  0.43238901531E+03  0.10566000000E+00 0. -1.
         -4    1    1    2    0  502 -0.44176171432E+03 -0.33393268758E+03  0.16771203497E+03  0.57861194142E+03  0.00000000000E+00 0. -1.
</event>
<event>
 5    1  0.7625606E-005  0.5850688E+03  0.7818608E-02  0.9308797E-01
         21   -1    0    0  501  502  0.00000000000E+00  0.00000000000E+00  0.23814725972E+03  0.23814725972E+03  0.00000000000E+00 0.  1.
         -4   -1    0    0    0  501 -0.00000000000E+00 -0.00000000000E+00 -0.22169358334E+04  0.22169358334E+04  0.00000000000E+00 0. -1.
        -13    1    1    2    0    0 -0.73490211178E+02 -0.57079967527E+03 -0.66453863665E+03  0.87910448252E+03  0.10566000000E+00 0.  1.
         13    1    1    2    0    0  0.29600477393E+02  0.59038167706E+03 -0.13760767414E+04  0.14976694970E+04  0.10566000000E+00 0. -1.
         -4    1    1    2    0  502  0.43889733785E+02 -0.19582001783E+02  0.61826804390E+02  0.78309113560E+02  0.00000000000E+00 0. -1.
</event>
<event>
 5    1  0.7625606E-005  0.3141784E+03  0.7818608E-02  0.1003778E+00
         -4   -1    0    0    0  501 -0.00000000000E+00  0.00000000000E+00  0.86170441260E+03  0.86170441260E+03  0.00000000000E+00 0. -1.
         21   -1    0    0  501  502  0.00000000000E+00 -0.00000000000E+00 -0.29855478291E+03  0.29855478291E+03  0.00000000000E+00 0. -1.
        -13    1    1    2    0    0 -0.18480578026E+03 -0.22713839281E+03  0.21182249715E+03  0.36140532283E+03  0.10566000000E+00 0.  1.
         13    1    1    2    0    0 -0.18839420370E+03  0.21297984220E+03  0.31386079928E+03  0.42351080465E+03  0.10566000000E+00 0. -1.
         -4    1    1    2    0  502  0.37319998397E+03  0.14158550611E+02  0.37466333260E+02  0.37534306803E+03  0.00000000000E+00 0. -1.
</event>
<event>
 5    1  0.7625606E-005  0.4601493E+03  0.7818608E-02  0.9797594E-01
         21   -1    0    0  501  502  0.00000000000E+00  0.00000000000E+00  0.63461195985E+03  0.63461195985E+03  0.00000000000E+00 0.  1.
          4   -1    0    0  502    0 -0.00000000000E+00 -0.00000000000E+00 -0.13217006101E+04  0.13217006101E+04  0.00000000000E+00 0.  1.
        -13    1    1    2    0    0  0.40731695393E+03  0.33253635310E+03 -0.46583964492E+02  0.52788029325E+03  0.10566000000E+00 0.  1.
         13    1    1    2    0    0  0.17319343239E+02 -0.20684430657E+03 -0.89426045835E+03  0.91803393474E+03  0.10566000000E+00 0. -1.
          4    1    1    2  501    0 -0.42463629717E+03 -0.12569204653E+03  0.25375577254E+03  0.51039834201E+03  0.00000000000E+00 0.  1.
</event>
<event>
 5    1  0.7625606E-005  0.2921185E+03  0.7818608E-02  0.1035240E+00
         21   -1    0    0  501  502  0.00000000000E+00  0.00000000000E+00  0.11654850801E+03  0.11654850801E+03  0.00000000000E+00 0. -1.
         -4   -1    0    0    0  501 -0.00000000000E+00 -0.00000000000E+00 -0.19165013187E+04  0.19165013187E+04  0.00000000000E+00 0. -1.
        -13    1    1    2    0    0 -0.19134400991E+02 -0.13365613250E+03 -0.29777687816E+03  0.32695743972E+03  0.10566000000E+00 0.  1.
         13    1    1    2    0    0 -0.72739057768E+01  0.40349901545E+03 -0.13178006690E+04  0.13782100636E+04  0.10566000000E+00 0. -1.
         -4    1    1    2    0  502  0.26408306768E+02 -0.26984288295E+03 -0.18437526352E+03  0.32788232332E+03  0.00000000000E+00 0. -1.
</event>
<event>
 5    1  0.7625606E-005  0.5027589E+03  0.7818608E-02  0.9471946E-01
          4   -1    0    0  502    0 -0.00000000000E+00  0.00000000000E+00  0.19803418952E+04  0.19803418952E+04  0.00000000000E+00 0.  1.
         21   -1    0    0  501  502  0.00000000000E+00 -0.00000000000E+00 -0.27725293770E+03  0.27725293770E+03  0.00000000000E+00 0.  1.
        -13    1    1    2    0    0 -0.20873968883E+03 -0.63461071888E+03  0.10816188577E+04  0.12712994874E+04  0.10566000000E+00 0.  1.
         13    1    1    2    0    0  0.47581863553E+02  0.39460040957E+03  0.56649389901E+03  0.69201796635E+03  0.10566000000E+00 0. -1.
          4    1    1    2  501    0  0.16115782527E+03  0.24001030931E+03  0.54976200820E+02  0.29427737915E+03  0.00000000000E+00 0.  1.
</event>
<event>
 5    1  0.7625606E-005  0.3452397E+03  0.7818608E-02  0.1012434E+00
         21   -1    0    0  501  502  0.00000000000E+00  0.00000000000E+00  0.14321558159E+03  0.14321558159E+03  0.00000000000E+00 0. -1.
         -4   -1    0    0    0  501 -0.00000000000E+00 -0.00000000000E+00 -0.24567740351E+04  0.24567740351E+04  0.00000000000E+00 0. -1.
        -13    1    1    2    0    0 -0.17710508367E+02  0.16598900856E+03 -0.26127038340E+03  0.31004554097E+03  0.10566000000E+00 0.  1.
         13    1    1    2    0    0  0.34282989532E+03  0.34801877146E+02 -0.19953043215E+03  0.39819079886E+03  0.10566000000E+00 0. -1.
         -4    1    1    2    0  502 -0.32511938695E+03 -0.20079088570E+03 -0.18527576379E+04  0.18917532769E+04  0.00000000000E+00 0. -1.
</event>
<event>
 5    1  0.7625606E-005  0.1741818E+03  0.7818608E-02  0.1079438E+00
         21   -1    0    0  501  502  0.00000000000E+00  0.00000000000E+00  0.34662675940E+02  0.34662675940E+02  0.00000000000E+00 0. -1.
          4   -1    0    0  502    0 -0.00000000000E+00 -0.00000000000E+00 -0.16199625815E+04  0.16199625815E+04  0.00000000000E+00 0.  1.
        -13    1    1    2    0    0 -0.12615922038E+03  0.12755836201E+03 -0.10282020947E+04  0.10437369607E+04  0.10566000000E+00 0.  1.
         13    1    1    2    0    0  0.11724989549E+03 -0.11777370743E+03 -0.56919464084E+03  0.59295930255E+03  0.10566000000E+00 0. -1.
          4    1    1    2  501    0  0.89093248930E+01 -0.97846545857E+01  0.12096829955E+02  0.17928994126E+02  0.00000000000E+00 0.  1.
</event>
<event>
 5    1  0.7625606E-005  0.2921112E+03  0.7818608E-02  0.1010616E+00
         21   -1    0    0  501  502  0.00000000000E+00  0.00000000000E+00  0.40737620784E+03  0.40737620784E+03  0.00000000000E+00 0.  1.
          4   -1    0    0  502    0 -0.00000000000E+00 -0.00000000000E+00 -0.89528099178E+03  0.89528099178E+03  0.00000000000E+00 0.  1.
        -13    1    1    2    0    0  0.10810312301E+03 -0.24461851715E+03 -0.40189426286E+03  0.48274580663E+03  0.10566000000E+00 0.  1.
         13    1    1    2    0    0 -0.11549507747E+03  0.30825334017E+03 -0.38936459206E+03  0.50986667999E+03  0.10566000000E+00 0. -1.
          4    1    1    2  501    0  0.73919544651E+01 -0.63634823023E+02  0.30335407096E+03  0.31004471301E+03  0.00000000000E+00 0.  1.
</event>
<event>
 5    1  0.1058918E-004  0.1360991E+03  0.7818608E-02  0.1127461E+00
          4   -1    0    0  502    0 -0.00000000000E+00  0.00000000000E+00  0.66606499458E+03  0.66606499458E+03  0.00000000000E+00 0.  1.
         21   -1    0    0  501  502  0.00000000000E+00 -0.00000000000E+00 -0.48679540274E+03  0.48679540274E+03  0.00000000000E+00 0.  1.
        -13    1    1    2    0    0  0.15402302920E+03 -0.26864492239E+02  0.52794499511E+03  0.55060941101E+03  0.10566000000E+00 0.  1.
         13    1    1    2    0    0 -0.64854040795E+02 -0.76316481017E+02  0.95030012512E+02  0.13806145850E+03  0.10566000000E+00 0. -1.
          4    1    1    2  501    0 -0.89168988404E+02  0.10318097326E+03 -0.44370541578E+03  0.46418952781E+03  0.00000000000E+00 0.  1.
</event>
<event>
 5    1  0.7625606E-005  0.4416521E+03  0.7818608E-02  0.9756159E-01
         21   -1    0    0  501  502  0.00000000000E+00  0.00000000000E+00  0.10398749625E+03  0.10398749625E+03  0.00000000000E+00 0. -1.
         -4   -1    0    0    0  501 -0.00000000000E+00 -0.00000000000E+00 -0.42046854381E+04  0.42046854381E+04  0.00000000000E+00 0. -1.
        -13    1    1    2    0    0 -0.24431648422E+03  0.11634566562E+03 -0.59421978654E+03  0.65293493110E+03  0.10566000000E+00 0.  1.
         13    1    1    2    0    0  0.20467486819E+03  0.38798419993E+03 -0.90719752399E+03  0.10076859133E+04  0.10566000000E+00 0. -1.
         -4    1    1    2    0  502  0.39641616027E+02 -0.50432986556E+03 -0.25992806313E+04  0.26480520900E+04  0.00000000000E+00 0. -1.
</event>
<event>
 5    1  0.7625606E-005  0.6439386E+02  0.7818608E-02  0.1242252E+00
          4   -1    0    0  502    0 -0.00000000000E+00  0.00000000000E+00  0.80884474875E+02  0.80884474875E+02  0.00000000000E+00 0.  1.
         21   -1    0    0  501  502  0.00000000000E+00 -0.00000000000E+00 -0.27332623528E+03  0.27332623528E+03  0.00000000000E+00 0. -1.
        -13    1    1    2    0    0 -0.43530069306E+02 -0.48591021439E+02  0.59182152653E+02  0.88082306140E+02  0.10566000000E+00 0.  1.
         13    1    1    2    0    0  0.50523300433E+02  0.30390856066E+02 -0.12737330430E+03  0.14035732197E+03  0.10566000000E+00 0. -1.
          4    1    1    2  501    0 -0.69932311268E+01  0.18200165373E+02 -0.12425060875E+03  0.12577108204E+03  0.00000000000E+00 0.  1.
</event>
<event>
 5    1  0.7625606E-005  0.4986515E+03  0.7818608E-02  0.1007944E+00
         21   -1    0    0  501  502  0.00000000000E+00  0.00000000000E+00  0.13377315203E+03  0.13377315203E+03  0.00000000000E+00 0.  1.
          4   -1    0    0  502    0 -0.00000000000E+00 -0.00000000000E+00 -0.21252303136E+04  0.21252303136E+04  0.00000000000E+00 0.  1.
        -13    1    1    2    0    0 -0.19144041413E+03 -0.44391431354E+03 -0.98474461940E+03  0.10970101761E+04  0.10566000000E+00 0.  1.
         13    1    1    2    0    0 -0.63967857591E+02 -0.18155063147E+01 -0.14969523932E+03  0.16280005746E+03  0.10566000000E+00 0. -1.
          4    1    1    2  501    0  0.25540827172E+03  0.44572981986E+03 -0.85701730280E+03  0.99919323200E+03  0.00000000000E+00 0.  1.
</event>
<event>
 5    1  0.7625606E-005  0.1564856E+03  0.7818608E-02  0.1094886E+00
         -4   -1    0    0    0  501 -0.00000000000E+00  0.00000000000E+00  0.40142112228E+03  0.40142112228E+03  0.00000000000E+00 0. -1.
         21   -1    0    0  501  502  0.00000000000E+00 -0.00000000000E+00 -0.16554195498E+03  0.16554195498E+03  0.00000000000E+00 0.  1.
        -13    1    1    2    0    0 -0.10774596586E+02 -0.17214639327E+03  0.63070601090E+02  0.18365289144E+03  0.10566000000E+00 0.  1.
         13    1    1    2    0    0 -0.22058600851E+02  0.15021717956E+03  0.25235281733E+03  0.29450592266E+03  0.10566000000E+00 0. -1.
         -4    1    1    2    0  502  0.32833197437E+02  0.21929213715E+02 -0.79544251118E+02  0.88804263152E+02  0.00000000000E+00 0. -1.
</event>
<event>
 5    1  0.7625606E-005  0.2132516E+02  0.7818608E-02  0.1492215E+00
          4   -1    0    0  502    0 -0.00000000000E+00  0.00000000000E+00  0.13063529528E+03  0.13063529528E+03  0.00000000000E+00 0.  1.
         21   -1    0    0  501  502  0.00000000000E+00 -0.00000000000E+00 -0.15095563352E+02  0.15095563352E+02  0.00000000000E+00 0. -1.
        -13    1    1    2    0    0  0.18733422693E+02  0.11808435940E+02  0.11582325985E+03  0.11792124055E+03  0.10566000000E+00 0.  1.
         13    1    1    2    0    0 -0.74776370613E+01 -0.13183339862E+02 -0.43409580535E+01  0.15766121489E+02  0.10566000000E+00 0. -1.
          4    1    1    2  501    0 -0.11255785631E+02  0.13749039216E+01  0.40574301257E+01  0.12043496594E+02  0.00000000000E+00 0.  1.
</event>
<event>
 5    1  0.7625606E-005  0.3631855E+03  0.7818608E-02  0.1015343E+00
         21   -1    0    0  501  502  0.00000000000E+00  0.00000000000E+00  0.27245655871E+03  0.27245655871E+03  0.00000000000E+00 0. -1.
         -4   -1    0    0    0  501 -0.00000000000E+00 -0.00000000000E+00 -0.12293167264E+04  0.12293167264E+04  0.00000000000E+00 0. -1.
        -13    1    1    2    0    0 -0.12743710241E+03  0.28928430261E+02 -0.20795832371E+03  0.24560892637E+03  0.10566000000E+00 0.  1.
         13    1    1    2    0    0  0.46192140554E+03 -0.10376760189E+03 -0.77954066289E+03  0.91204317681E+03  0.10566000000E+00 0. -1.
         -4    1    1    2    0  502 -0.33448430313E+03  0.74839171629E+02  0.30638818892E+02  0.34412118196E+03  0.00000000000E+00 0. -1.
</event>
<event>
 5    1  0.7625606E-005  0.6192303E+02  0.7818608E-02  0.1296223E+00
         -4   -1    0    0    0  501 -0.00000000000E+00  0.00000000000E+00  0.30318281366E+02  0.30318281366E+02  0.00000000000E+00 0. -1.
         21   -1    0    0  501  502  0.00000000000E+00 -0.00000000000E+00 -0.28578767270E+03  0.28578767270E+03  0.00000000000E+00 0.  1.
        -13    1    1    2    0    0 -0.16796572294E+02  0.17328266151E+02 -0.79254330916E+02  0.82847171235E+02  0.10566000000E+00 0.  1.
         13    1    1    2    0    0 -0.48711495835E+02 -0.14926141363E+02 -0.65448550917E+01  0.51365803943E+02  0.10566000000E+00 0. -1.
         -4    1    1    2    0  502  0.65508068129E+02 -0.24021247878E+01 -0.16967020533E+03  0.18189297889E+03  0.00000000000E+00 0. -1.
</event>
<event>
 5    1  0.7625606E-005  0.3897152E+03  0.7818608E-02  0.9798263E-01
          4   -1    0    0  502    0 -0.00000000000E+00  0.00000000000E+00  0.13349106943E+04  0.13349106943E+04  0.00000000000E+00 0.  1.
         21   -1    0    0  501  502  0.00000000000E+00 -0.00000000000E+00 -0.46916899310E+03  0.46916899310E+03  0.00000000000E+00 0.  1.
        -13    1    1    2    0    0  0.82912505257E+02 -0.36270738558E+03 -0.38082516016E+02  0.37400724628E+03  0.10566000000E+00 0.  1.
         13    1    1    2    0    0 -0.41660683576E+03 -0.81280658434E+01  0.22428247117E+02  0.41728929831E+03  0.10566000000E+00 0. -1.
          4    1    1    2  501    0  0.33369433050E+03  0.37083545142E+03  0.88139597009E+03  0.10127831428E+04  0.00000000000E+00 0.  1.
</event>
<event>
 5    1  0.7625606E-005  0.2315526E+03  0.7818608E-02  0.1040422E+00
         -4   -1    0    0    0  501 -0.00000000000E+00  0.00000000000E+00  0.16638556141E+04  0.16638556141E+04  0.00000000000E+00 0. -1.
         21   -1    0    0  501  502  0.00000000000E+00 -0.00000000000E+00 -0.95090785743E+02  0.95090785743E+02  0.00000000000E+00 0.  1.
        -13    1    1    2    0    0 -0.12671796461E+03  0.19713209549E+03  0.47160214082E+03  0.52661854888E+03  0.10566000000E+00 0.  1.
         13    1    1    2    0    0  0.13321735670E+03 -0.18805953198E+03  0.11527853620E+04  0.11755965948E+04  0.10566000000E+00 0. -1.
         -4    1    1    2    0  502 -0.64993920988E+01 -0.90725635132E+01 -0.55622674491E+02  0.56731256146E+02  0.00000000000E+00 0. -1.
</event>
<event>
 5    1  0.7625606E-005  0.6635735E+03  0.7818608E-02  0.9177563E-01
         -4   -1    0    0    0  501 -0.00000000000E+00  0.00000000000E+00  0.28491087527E+04  0.28491087527E+04  0.00000000000E+00 0. -1.
         21   -1    0    0  501  502  0.00000000000E+00 -0.00000000000E+00 -0.31307345954E+03  0.31307345954E+03  0.00000000000E+00 0. -1.
        -13    1    1    2    0    0  0.53673508156E+03 -0.37638664028E+03  0.81065029374E+03  0.10425475340E+04  0.10566000000E+00 0.  1.
         13    1    1    2    0    0 -0.26159220580E+03  0.69847744502E+03  0.75728677817E+03  0.10629132133E+04  0.10566000000E+00 0. -1.
         -4    1    1    2    0  502 -0.27514287576E+03 -0.32209080474E+03  0.96809822126E+03  0.10567214650E+04  0.00000000000E+00 0. -1.
</event>
<event>
 5    1  0.7625606E-005  0.4798656E+03  0.7818608E-02  0.9523229E-01
          4   -1    0    0  502    0 -0.00000000000E+00  0.00000000000E+00  0.13126040315E+04  0.13126040315E+04  0.00000000000E+00 0.  1.
         21   -1    0    0  501  502  0.00000000000E+00 -0.00000000000E+00 -0.43322579039E+03  0.43322579039E+03  0.00000000000E+00 0.  1.
        -13    1    1    2    0    0 -0.10697374733E+02  0.72442334615E+03  0.29189333093E+03  0.78109240559E+03  0.10566000000E+00 0.  1.
         13    1    1    2    0    0 -0.98790723043E+02 -0.38864507718E+03  0.39335203992E+03  0.56172096404E+03  0.10566000000E+00 0. -1.
          4    1    1    2  501    0  0.10948809778E+03 -0.33577826897E+03  0.19413287026E+03  0.40301645225E+03  0.00000000000E+00 0.  1.
</event>
<event>
 5    1  0.7625606E-005  0.4593880E+03  0.7818608E-02  0.9836793E-01
          4   -1    0    0  502    0 -0.00000000000E+00  0.00000000000E+00  0.18896789771E+04  0.18896789771E+04  0.00000000000E+00 0.  1.
         21   -1    0    0  501  502  0.00000000000E+00 -0.00000000000E+00 -0.22557212141E+03  0.22557212141E+03  0.00000000000E+00 0.  1.
        -13    1    1    2    0    0 -0.36753374537E+03 -0.24724481894E+03  0.23660739964E+03  0.50218933403E+03  0.10566000000E+00 0.  1.
         13    1    1    2    0    0 -0.13444009314E+03  0.12350420264E+03  0.68078377307E+03  0.70483613950E+03  0.10566000000E+00 0. -1.
          4    1    1    2  501    0  0.50197383851E+03  0.12374061630E+03  0.74671568298E+03  0.90822562499E+03  0.00000000000E+00 0.  1.
</event>
<event>
 5    1  0.7625606E-005  0.4744861E+03  0.7818608E-02  0.9750073E-01
         -4   -1    0    0    0  501 -0.00000000000E+00  0.00000000000E+00  0.53257987592E+03  0.53257987592E+03  0.00000000000E+00 0. -1.
         21   -1    0    0  501  502  0.00000000000E+00 -0.00000000000E+00 -0.14865204185E+04  0.14865204185E+04  0.00000000000E+00 0. -1.
        -13    1    1    2    0    0  0.22159470247E+03  0.23633049159E+02  0.31457915805E+03  0.38551626557E+03  0.10566000000E+00 0.  1.
         13    1    1    2    0    0 -0.58526328585E+03 -0.19811136402E+03 -0.66566744613E+03  0.90823696595E+03  0.10566000000E+00 0. -1.
         -4    1    1    2    0  502  0.36366858338E+03  0.17447831486E+03 -0.60285225446E+03  0.72534706286E+03  0.00000000000E+00 0. -1.
</event>
<event>
 5    1  0.7625606E-005  0.5113984E+03  0.7818608E-02  0.9453333E-01
         21   -1    0    0  501  502  0.00000000000E+00  0.00000000000E+00  0.73004714079E+03  0.73004714079E+03  0.00000000000E+00 0. -1.
         -4   -1    0    0    0  501 -0.00000000000E+00 -0.00000000000E+00 -0.15838733837E+04  0.15838733837E+04  0.00000000000E+00 0. -1.
        -13    1    1    2    0    0  0.77489074737E+02 -0.52505601856E+03 -0.10369463149E+04  0.11648802730E+04  0.10566000000E+00 0.  1.
         13    1    1    2    0    0  0.13357970080E+03  0.48212664015E+03 -0.32538730775E+03  0.59679690416E+03  0.10566000000E+00 0. -1.
         -4    1    1    2    0  502 -0.21106877553E+03  0.42929378416E+02  0.50850737967E+03  0.55224334737E+03  0.00000000000E+00 0. -1.
</event>
<event>
 5    1  0.7625606E-005  0.4978614E+03  0.7818608E-02  0.9893132E-01
         21   -1    0    0  501  502  0.00000000000E+00  0.00000000000E+00  0.93392079124E+02  0.93392079124E+02  0.00000000000E+00 0. -1.
         -4   -1    0    0    0  501 -0.00000000000E+00 -0.00000000000E+00 -0.34641312988E+04  0.34641312988E+04  0.00000000000E+00 0. -1.
        -13    1    1    2    0    0  0.48809038823E+02 -0.10811718470E+03 -0.57896536757E+03  0.59099285606E+03  0.10566000000E+00 0.  1.
         13    1    1    2    0    0 -0.11773066668E+03  0.54146097654E+03 -0.13446945597E+04  0.14543878331E+04  0.10566000000E+00 0. -1.
         -4    1    1    2    0  502  0.68921627859E+02 -0.43334379184E+03 -0.14470792925E+04  0.15121426888E+04  0.00000000000E+00 0. -1.
</event>
<event>
 5    1  0.7625606E-005  0.4987163E+03  0.7818608E-02  0.9557773E-01
         21   -1    0    0  501  502  0.00000000000E+00  0.00000000000E+00  0.60326878697E+03  0.60326878697E+03  0.00000000000E+00 0. -1.
         -4   -1    0    0    0  501 -0.00000000000E+00 -0.00000000000E+00 -0.15913725228E+04  0.15913725228E+04  0.00000000000E+00 0. -1.
        -13    1    1    2    0    0  0.82899173960E+02  0.36824459863E+03 -0.10599103272E+04  0.11251161142E+04  0.10566000000E+00 0.  1.
         13    1    1    2    0    0  0.32961773982E+03  0.15764904310E+03 -0.10116432595E+03  0.37912439542E+03  0.10566000000E+00 0. -1.
         -4    1    1    2    0  502 -0.41251691378E+03 -0.52589364173E+03  0.17297091739E+03  0.69040080013E+03  0.00000000000E+00 0. -1.
</event>
<event>
 5    1  0.7625606E-005  0.4900036E+03  0.7818608E-02  0.9763598E-01
         21   -1    0    0  501  502  0.00000000000E+00  0.00000000000E+00  0.36482402449E+03  0.36482402449E+03  0.00000000000E+00 0.  1.
          4   -1    0    0  502    0 -0.00000000000E+00 -0.00000000000E+00 -0.16932192353E+04  0.16932192353E+04  0.00000000000E+00 0.  1.
        -13    1    1    2    0    0 -0.29980733806E+03  0.42547028613E+03 -0.19468159651E+03  0.55570706269E+03  0.10566000000E+00 0.  1.
         13    1    1    2    0    0  0.18860823687E+03  0.41568502383E+02 -0.97908912623E+03  0.99795617924E+03  0.10566000000E+00 0. -1.
          4    1    1    2  501    0  0.11119910118E+03 -0.46703878852E+03 -0.15462448802E+03  0.50438001782E+03  0.00000000000E+00 0.  1.
</event>
<event>
 5    1  0.7625606E-005  0.4537732E+03  0.7818608E-02  0.9647404E-01
         21   -1    0    0  501  502  0.00000000000E+00  0.00000000000E+00  0.25355958002E+03  0.25355958002E+03  0.00000000000E+00 0. -1.
         -4   -1    0    0    0  501 -0.00000000000E+00 -0.00000000000E+00 -0.21964388233E+04  0.21964388233E+04  0.00000000000E+00 0. -1.
        -13    1    1    2    0    0  0.21028196540E+03 -0.29754339025E+03 -0.21379760044E+03  0.42244526175E+03  0.10566000000E+00 0.  1.
         13    1    1    2    0    0 -0.21591280468E+03 -0.23914689200E+03 -0.13030733218E+04  0.13423150406E+04  0.10566000000E+00 0. -1.
         -4    1    1    2    0  502  0.56308392815E+01  0.53669028225E+03 -0.42600832108E+03  0.68523810098E+03  0.00000000000E+00 0. -1.
</event>
<event>
 5    1  0.7625606E-005  0.4410764E+03  0.7818608E-02  0.9891620E-01
         21   -1    0    0  501  502  0.00000000000E+00  0.00000000000E+00  0.42130812668E+03  0.42130812668E+03  0.00000000000E+00 0.  1.
          4   -1    0    0  502    0 -0.00000000000E+00 -0.00000000000E+00 -0.87882696701E+03  0.87882696701E+03  0.00000000000E+00 0.  1.
        -13    1    1    2    0    0  0.31890298454E+03 -0.24333943898E+03  0.31780361966E+02  0.40239681743E+03  0.10566000000E+00 0.  1.
         13    1    1    2    0    0  0.22750039154E+02 -0.16994178196E+03 -0.26690564338E+03  0.31723241822E+03  0.10566000000E+00 0. -1.
          4    1    1    2  501    0 -0.34165302369E+03  0.41328122094E+03 -0.22239355891E+03  0.58050585804E+03  0.00000000000E+00 0.  1.
</event>
<event>
 5    1  0.7625606E-005  0.1659825E+02  0.7818608E-02  0.1563558E+00
         -4   -1    0    0    0  501 -0.00000000000E+00  0.00000000000E+00  0.84916812259E+02  0.84916812259E+02  0.00000000000E+00 0. -1.
         21   -1    0    0  501  502  0.00000000000E+00 -0.00000000000E+00 -0.87400571485E+01  0.87400571485E+01  0.00000000000E+00 0.  1.
        -13    1    1    2    0    0  0.33716849825E+01 -0.20500747135E+02  0.14399591385E+02  0.25278613269E+02  0.10566000000E+00 0.  1.
         13    1    1    2    0    0  0.65730735561E+01  0.14813410550E+02  0.46768575934E+02  0.49497002808E+02  0.10566000000E+00 0. -1.
         -4    1    1    2    0  502 -0.99447585386E+01  0.56873365845E+01  0.15008587791E+02  0.18881253330E+02  0.00000000000E+00 0. -1.
</event>
<event>
 5    1  0.7625606E-005  0.1104169E+03  0.7818608E-02  0.1148383E+00
         21   -1    0    0  501  502  0.00000000000E+00  0.00000000000E+00  0.20894614372E+03  0.20894614372E+03  0.00000000000E+00 0.  1.
          4   -1    0    0  502    0 -0.00000000000E+00 -0.00000000000E+00 -0.72608683995E+02  0.72608683995E+02  0.00000000000E+00 0.  1.
        -13    1    1    2    0    0 -0.11006598234E+03  0.42173326534E+02  0.33076046292E+02  0.12242199942E+03  0.10566000000E+00 0.  1.
         13    1    1    2    0    0  0.93249156864E+02 -0.38566629187E+02  0.73794454066E+02  0.12501369028E+03  0.10566000000E+00 0. -1.
          4    1    1    2  501    0  0.16816825474E+02 -0.36066973465E+01  0.29466959372E+02  0.34119138022E+02  0.00000000000E+00 0.  1.
</event>
<event>
 5    1  0.7625606E-005  0.4934589E+03  0.7818608E-02  0.9903588E-01
         21   -1    0    0  501  502  0.00000000000E+00  0.00000000000E+00  0.14381158657E+03  0.14381158657E+03  0.00000000000E+00 0. -1.
         -4   -1    0    0    0  501 -0.00000000000E+00 -0.00000000000E+00 -0.23731935729E+04  0.23731935729E+04  0.00000000000E+00 0. -1.
        -13    1    1    2    0    0  0.11033192964E+03  0.40811755446E+02 -0.15334855629E+03  0.19327318738E+03  0.10566000000E+00 0.  1.
         13    1    1    2    0    0  0.11489822391E+03  0.42994676831E+03 -0.14041359559E+04  0.14729744123E+04  0.10566000000E+00 0. -1.
         -4    1    1    2    0  502 -0.22523015355E+03 -0.47075852376E+03 -0.67189747406E+03  0.85075755971E+03  0.00000000000E+00 0. -1.
</event>
<event>
 5    1  0.7625606E-005  0.2921658E+03  0.7818608E-02  0.1021466E+00
         21   -1    0    0  501  502  0.00000000000E+00  0.00000000000E+00  0.40655978748E+03  0.40655978748E+03  0.00000000000E+00 0.  1.
          4   -1    0    0  502    0 -0.00000000000E+00 -0.00000000000E+00 -0.93261357228E+03  0.93261357228E+03  0.00000000000E+00 0.  1.
        -13    1    1    2    0    0  0.15406988014E+03  0.44072330022E+03 -0.61171502425E+03  0.76952572237E+03  0.10566000000E+00 0.  1.
         13    1    1    2    0    0 -0.12117548284E+03 -0.16763208026E+03 -0.10790926015E+03  0.23329901749E+03  0.10566000000E+00 0. -1.
          4    1    1    2  501    0 -0.32894397307E+02 -0.27309121996E+03  0.19357049960E+03  0.33634861990E+03  0.00000000000E+00 0.  1.
</event>
<event>
 5    1  0.7625606E-005  0.1058525E+03  0.7818608E-02  0.1155219E+00
         -4   -1    0    0    0  501 -0.00000000000E+00  0.00000000000E+00  0.30281094575E+03  0.30281094575E+03  0.00000000000E+00 0. -1.
         21   -1    0    0  501  502  0.00000000000E+00 -0.00000000000E+00 -0.65123236132E+02  0.65123236132E+02  0.00000000000E+00 0.  1.
        -13    1    1    2    0    0  0.86877286359E+02 -0.55016723760E+02  0.10272333720E+03  0.14534991554E+03  0.10566000000E+00 0.  1.
         13    1    1    2    0    0 -0.69670772768E+02  0.86635533804E+02  0.14728791946E+03  0.18453583576E+03  0.10566000000E+00 0. -1.
         -4    1    1    2    0  502 -0.17206513591E+02 -0.31618810044E+02 -0.12323547039E+02  0.38048430588E+02  0.00000000000E+00 0. -1.
</event>
<event>
 5    1  0.7625606E-005  0.4908601E+03  0.7818608E-02  0.9517316E-01
         -4   -1    0    0    0  501 -0.00000000000E+00  0.00000000000E+00  0.11042248357E+04  0.11042248357E+04  0.00000000000E+00 0. -1.
         21   -1    0    0  501  502  0.00000000000E+00 -0.00000000000E+00 -0.59802138629E+03  0.59802138629E+03  0.00000000000E+00 0. -1.
        -13    1    1    2    0    0  0.40510075208E+03 -0.21374160553E+03  0.36004244725E+03  0.58259992126E+03  0.10566000000E+00 0.  1.
         13    1    1    2    0    0  0.32470146407E+02 -0.37278247639E+03  0.95175372565E+02  0.38610807790E+03  0.10566000000E+00 0. -1.
         -4    1    1    2    0  502 -0.43757089849E+03  0.58652408193E+03  0.50985629572E+02  0.73353822280E+03  0.00000000000E+00 0. -1.
</event>
<event>
 5    1  0.7625606E-005  0.1609049E+03  0.7818608E-02  0.1106859E+00
         21   -1    0    0  501  502  0.00000000000E+00  0.00000000000E+00  0.61427633151E+02  0.61427633151E+02  0.00000000000E+00 0.  1.
          4   -1    0    0  502    0 -0.00000000000E+00 -0.00000000000E+00 -0.14330382713E+04  0.14330382713E+04  0.00000000000E+00 0.  1.
        -13    1    1    2    0    0  0.12476867440E+03  0.15770379315E+03 -0.10874101588E+04  0.11058474457E+04  0.10566000000E+00 0.  1.
         13    1    1    2    0    0 -0.10411473635E+03 -0.82185587472E+00 -0.14047255200E+03  0.17485165942E+03  0.10566000000E+00 0. -1.
          4    1    1    2  501    0 -0.20653938051E+02 -0.15688193728E+03 -0.14372792732E+03  0.21376679933E+03  0.00000000000E+00 0.  1.
</event>
<event>
 5    1  0.7625606E-005  0.3606746E+03  0.7818608E-02  0.1022722E+00
         21   -1    0    0  501  502  0.00000000000E+00  0.00000000000E+00  0.36554024982E+03  0.36554024982E+03  0.00000000000E+00 0. -1.
         -4   -1    0    0    0  501 -0.00000000000E+00 -0.00000000000E+00 -0.86624646764E+03  0.86624646764E+03  0.00000000000E+00 0. -1.
        -13    1    1    2    0    0 -0.10300049281E+03  0.23724474055E+02 -0.82203617519E+01  0.10601668595E+03  0.10566000000E+00 0.  1.
         13    1    1    2    0    0 -0.34044373536E+03  0.54188743628E+02  0.12051604847E+03  0.36518828840E+03  0.10566000000E+00 0. -1.
         -4    1    1    2    0  502  0.44344422817E+03 -0.77913217683E+02 -0.61300190454E+03  0.76058174311E+03  0.00000000000E+00 0. -1.
</event>
<event>
 5    1  0.7625606E-005  0.4160068E+03  0.7818608E-02  0.1014208E+00
         -4   -1    0    0    0  501 -0.00000000000E+00  0.00000000000E+00  0.20953168799E+04  0.20953168799E+04  0.00000000000E+00 0. -1.
         21   -1    0    0  501  502  0.00000000000E+00 -0.00000000000E+00 -0.15501847832E+03  0.15501847832E+03  0.00000000000E+00 0. -1.
        -13    1    1    2    0    0  0.35130420356E+02 -0.83030599253E+02  0.40615088144E+03  0.41603698935E+03  0.10566000000E+00 0.  1.
         13    1    1    2    0    0  0.27332790648E+03  0.32506024160E+03  0.25266482850E+03  0.49417793542E+03  0.10566000000E+00 0. -1.
         -4    1    1    2    0  502 -0.30845832683E+03 -0.24202964235E+03  0.12814826916E+04  0.13401204334E+04  0.00000000000E+00 0. -1.
</event>
<event>
 5    1  0.7625606E-005  0.4809775E+03  0.7818608E-02  0.9617765E-01
         -4   -1    0    0    0  501 -0.00000000000E+00  0.00000000000E+00  0.30368519611E+04  0.30368519611E+04  0.00000000000E+00 0. -1.
         21   -1    0    0  501  502  0.00000000000E+00 -0.00000000000E+00 -0.18990384213E+03  0.18990384213E+03  0.00000000000E+00 0. -1.
        -13    1    1    2    0    0  0.25142845785E+03 -0.22847376465E+03  0.13263940423E+04  0.13692106110E+04  0.10566000000E+00 0.  1.
         13    1    1    2    0    0  0.26597206945E+03  0.40580360187E+03  0.48280458912E+03  0.68448373790E+03  0.10566000000E+00 0. -1.
         -4    1    1    2    0  502 -0.51740052730E+03 -0.17732983721E+03  0.10377494876E+04  0.11730614544E+04  0.00000000000E+00 0. -1.
</event>
<event>
 5    1  0.7625606E-005  0.4909605E+03  0.7818608E-02  0.9694761E-01
         21   -1    0    0  501  502  0.00000000000E+00  0.00000000000E+00  0.77802184771E+03  0.77802184771E+03  0.00000000000E+00 0.  1.
          4   -1    0    0  502    0 -0.00000000000E+00 -0.00000000000E+00 -0.12123546661E+04  0.12123546661E+04  0.00000000000E+00 0.  1.
        -13    1    1    2    0    0  0.48734741956E+03 -0.17778410240E+03  0.41597313580E+03  0.66494236990E+03  0.10566000000E+00 0.  1.
         13    1    1    2    0    0 -0.17100063553E+03 -0.17361586465E+03 -0.81573210810E+03  0.85135337502E+03  0.10566000000E+00 0. -1.
          4    1    1    2  501    0 -0.31634678403E+03  0.35139996705E+03 -0.34573846103E+02  0.47408076890E+03  0.00000000000E+00 0.  1.
</event>
<event>
 5    1  0.7625606E-005  0.1456739E+03  0.7818608E-02  0.1105458E+00
         21   -1    0    0  501  502  0.00000000000E+00  0.00000000000E+00  0.18954984490E+03  0.18954984490E+03  0.00000000000E+00 0.  1.
         -4   -1    0    0    0  501 -0.00000000000E+00 -0.00000000000E+00 -0.32255381832E+03  0.32255381832E+03  0.00000000000E+00 0. -1.
        -13    1    1    2    0    0  0.77452615216E+02  0.13747886018E+03 -0.99763739065E+02  0.18668733057E+03  0.10566000000E+00 0.  1.
         13    1    1    2    0    0 -0.67652569879E+02 -0.12052381576E+03 -0.15177385963E+03  0.20527585345E+03  0.10566000000E+00 0. -1.
         -4    1    1    2    0  502 -0.98000453365E+01 -0.16955044419E+02  0.11853362528E+03  0.12014047920E+03  0.00000000000E+00 0. -1.
</event>
<event>
 5    1  0.7625606E-005  0.7357498E+03  0.7818608E-02  0.9072671E-01
         -4   -1    0    0    0  501 -0.00000000000E+00  0.00000000000E+00  0.15965462698E+04  0.15965462698E+04  0.00000000000E+00 0. -1.
         21   -1    0    0  501  502  0.00000000000E+00 -0.00000000000E+00 -0.59040239376E+03  0.59040239376E+03  0.00000000000E+00 0.  1.
        -13    1    1    2    0    0  0.47900868004E+03 -0.47285663167E+03  0.62117625865E+03  0.91591629810E+03  0.10566000000E+00 0.  1.
         13    1    1    2    0    0 -0.53295577029E+03  0.63599484547E+03  0.57902923160E+03  0.10118330686E+04  0.10566000000E+00 0. -1.
         -4    1    1    2    0  502  0.53947090248E+02 -0.16313821381E+03 -0.19406161422E+03  0.25919929681E+03  0.00000000000E+00 0. -1.
</event>
<event>
 5    1  0.7625606E-005  0.4035524E+03  0.7818608E-02  0.9881555E-01
          4   -1    0    0  502    0 -0.00000000000E+00  0.00000000000E+00  0.17480495038E+04  0.17480495038E+04  0.00000000000E+00 0.  1.
         21   -1    0    0  501  502  0.00000000000E+00 -0.00000000000E+00 -0.22372407484E+03  0.22372407484E+03  0.00000000000E+00 0.  1.
        -13    1    1    2    0    0  0.37781404942E+03  0.26485325685E+03  0.11095645894E+04  0.12016756188E+04  0.10566000000E+00 0.  1.
         13    1    1    2    0    0 -0.20931464050E+03  0.99030161418E+02  0.23737881441E+03  0.33161469252E+03  0.10566000000E+00 0. -1.
          4    1    1    2  501    0 -0.16849940893E+03 -0.36388341827E+03  0.17738202519E+03  0.43848326737E+03  0.00000000000E+00 0.  1.
</event>
<event>
 5    1  0.7625606E-005  0.4954934E+03  0.7818608E-02  0.9780519E-01
         21   -1    0    0  501  502  0.00000000000E+00  0.00000000000E+00  0.45435949967E+03  0.45435949967E+03  0.00000000000E+00 0. -1.
         -4   -1    0    0    0  501 -0.00000000000E+00 -0.00000000000E+00 -0.11482276684E+04  0.11482276684E+04  0.00000000000E+00 0. -1.
        -13    1    1    2    0    0  0.10325669821E+03  0.14282940583E+03 -0.54049047059E+03  0.56849990753E+03  0.10566000000E+00 0.  1.
         13    1    1    2    0    0  0.42734550397E+03 -0.21635884641E+03 -0.80944233013E+01  0.47906248135E+03  0.10566000000E+00 0. -1.
         -4    1    1    2    0  502 -0.53060220218E+03  0.73529440577E+02 -0.14528327487E+03  0.55502477922E+03  0.00000000000E+00 0. -1.
</event>
<event>
 5    1  0.7625606E-005  0.4359695E+03  0.7818608E-02  0.9734007E-01
         21   -1    0    0  501  502  0.00000000000E+00  0.00000000000E+00  0.32800192351E+03  0.32800192351E+03  0.00000000000E+00 0.  1.
          4   -1    0    0  502    0 -0.00000000000E+00 -0.00000000000E+00 -0.14581167227E+04  0.14581167227E+04  0.00000000000E+00 0.  1.
        -13    1    1    2    0    0 -0.31663362634E+03 -0.15925451365E+03 -0.12538319816E+03  0.37595187324E+03  0.10566000000E+00 0.  1.
         13    1    1    2    0    0 -0.25483794815E+03 -0.16516197939E+03 -0.48550664833E+03  0.57265834141E+03  0.10566000000E+00 0. -1.
          4    1    1    2  501    0  0.57147157449E+03  0.32441649304E+03 -0.51922495267E+03  0.83750843153E+03  0.00000000000E+00 0.  1.
</event>
<event>
 5    1  0.7625606E-005  0.2828960E+03  0.7818608E-02  0.1026128E+00
         21   -1    0    0  501  502  0.00000000000E+00  0.00000000000E+00  0.81696571794E+03  0.81696571794E+03  0.00000000000E+00 0. -1.
         -4   -1    0    0    0  501 -0.00000000000E+00 -0.00000000000E+00 -0.46100649107E+03  0.46100649107E+03  0.00000000000E+00 0. -1.
        -13    1    1    2    0    0  0.19257851504E+03 -0.41159434025E+02 -0.17347444842E+02  0.19769048655E+03  0.10566000000E+00 0.  1.
         13    1    1    2    0    0  0.26563280993E+03 -0.58065694510E+01  0.53072080548E+03  0.59351418727E+03  0.10566000000E+00 0. -1.
         -4    1    1    2    0  502 -0.45821132497E+03  0.46966003476E+02 -0.15741413376E+03  0.48676753519E+03  0.00000000000E+00 0. -1.
</event>
<event>
 5    1  0.7625606E-005  0.4495510E+03  0.7818608E-02  0.9826420E-01
         -4   -1    0    0    0  501 -0.00000000000E+00  0.00000000000E+00  0.19682953874E+03  0.19682953874E+03  0.00000000000E+00 0. -1.
         21   -1    0    0  501  502  0.00000000000E+00 -0.00000000000E+00 -0.21277654678E+04  0.21277654678E+04  0.00000000000E+00 0. -1.
        -13    1    1    2    0    0  0.86587548003E+02  0.18226093523E+03 -0.19669114864E+02  0.20273957982E+03  0.10566000000E+00 0.  1.
         13    1    1    2    0    0  0.11713141595E+03  0.33063479675E+03 -0.54251530523E+03  0.64603560660E+03  0.10566000000E+00 0. -1.
         -4    1    1    2    0  502 -0.20371896395E+03 -0.51289573198E+03 -0.13687515090E+04  0.14758198201E+04  0.00000000000E+00 0. -1.
</event>
<event>
 5    1  0.7625606E-005  0.4416440E+02  0.7818608E-02  0.1317563E+00
         -4   -1    0    0    0  501 -0.00000000000E+00  0.00000000000E+00  0.24385296135E+03  0.24385296135E+03  0.00000000000E+00 0. -1.
         21   -1    0    0  501  502  0.00000000000E+00 -0.00000000000E+00 -0.96110384095E+02  0.96110384095E+02  0.00000000000E+00 0. -1.
        -13    1    1    2    0    0 -0.40799289220E+02  0.35971907267E+02 -0.31782696463E+02  0.62997706878E+02  0.10566000000E+00 0.  1.
         13    1    1    2    0    0  0.31266530304E+02 -0.30550570958E+02  0.22550154274E+03  0.22969956518E+03  0.10566000000E+00 0. -1.
         -4    1    1    2    0  502  0.95327589169E+01 -0.54213363093E+01 -0.45976269022E+02  0.47266073384E+02  0.00000000000E+00 0. -1.
</event>
<event>
 5    1  0.7625606E-005  0.4981231E+03  0.7818608E-02  0.9610310E-01
         21   -1    0    0  501  502  0.00000000000E+00  0.00000000000E+00  0.34227333002E+03  0.34227333002E+03  0.00000000000E+00 0.  1.
         -4   -1    0    0    0  501 -0.00000000000E+00 -0.00000000000E+00 -0.13776815709E+04  0.13776815709E+04  0.00000000000E+00 0. -1.
        -13    1    1    2    0    0  0.24369253654E+03  0.19807286636E+03 -0.28938962738E+03  0.42704248074E+03  0.10566000000E+00 0.  1.
         13    1    1    2    0    0 -0.52017320791E+03  0.20827178631E+03 -0.45449258543E+03  0.72147129158E+03  0.10566000000E+00 0. -1.
         -4    1    1    2    0  502  0.27648067136E+03 -0.40634465267E+03 -0.29152602804E+03  0.57144112857E+03  0.00000000000E+00 0. -1.
</event>
<event>
 5    1  0.7625606E-005  0.1170051E+03  0.7818608E-02  0.1139132E+00
         -4   -1    0    0    0  501 -0.00000000000E+00  0.00000000000E+00  0.40374329167E+03  0.40374329167E+03  0.00000000000E+00 0. -1.
         21   -1    0    0  501  502  0.00000000000E+00 -0.00000000000E+00 -0.42298599498E+02  0.42298599498E+02  0.00000000000E+00 0.  1.
        -13    1    1    2    0    0 -0.26004588227E+02 -0.12188471855E+03  0.17703807309E+03  0.21650545885E+03  0.10566000000E+00 0.  1.
         13    1    1    2    0    0  0.33645813332E+02  0.10593354927E+03  0.17959471443E+03  0.21120660556E+03  0.10566000000E+00 0. -1.
         -4    1    1    2    0  502 -0.76412251050E+01  0.15951169277E+02  0.48119046433E+01  0.18329826750E+02  0.00000000000E+00 0. -1.
</event>
<event>
 5    1  0.7625606E-005  0.1024557E+03  0.7818608E-02  0.1160555E+00
         21   -1    0    0  501  502  0.00000000000E+00  0.00000000000E+00  0.67718748273E+03  0.67718748273E+03  0.00000000000E+00 0.  1.
         -4   -1    0    0    0  501 -0.00000000000E+00 -0.00000000000E+00 -0.90303791282E+02  0.90303791282E+02  0.00000000000E+00 0. -1.
        -13    1    1    2    0    0 -0.10932210620E+03 -0.19703701057E+02  0.52103466997E+03  0.53274449525E+03  0.10566000000E+00 0.  1.
         13    1    1    2    0    0  0.97994601463E+02  0.28234040553E+02 -0.53085185056E+02  0.11497021787E+03  0.10566000000E+00 0. -1.
         -4    1    1    2    0  502  0.11327504735E+02 -0.85303394956E+01  0.11893420653E+03  0.11977656089E+03  0.00000000000E+00 0. -1.
</event>
<event>
 5    1  0.7625606E-005  0.4659857E+03  0.7818608E-02  0.9555812E-01
         21   -1    0    0  501  502  0.00000000000E+00  0.00000000000E+00  0.23998033275E+03  0.23998033275E+03  0.00000000000E+00 0. -1.
         -4   -1    0    0    0  501 -0.00000000000E+00 -0.00000000000E+00 -0.20823666596E+04  0.20823666596E+04  0.00000000000E+00 0. -1.
        -13    1    1    2    0    0  0.13839881709E+03 -0.30412464570E+03 -0.28937655732E+03  0.44202356927E+03  0.10566000000E+00 0.  1.
         13    1    1    2    0    0 -0.45729467040E+03  0.36784406303E+03 -0.14057443331E+04  0.15233334538E+04  0.10566000000E+00 0. -1.
         -4    1    1    2    0  502  0.31889585331E+03 -0.63719417323E+02 -0.14726543644E+03  0.35698996929E+03  0.00000000000E+00 0. -1.
</event>
<event>
 5    1  0.7625606E-005  0.4988786E+03  0.7818608E-02  0.9480433E-01
         21   -1    0    0  501  502  0.00000000000E+00  0.00000000000E+00  0.33640832073E+03  0.33640832073E+03  0.00000000000E+00 0. -1.
         -4   -1    0    0    0  501 -0.00000000000E+00 -0.00000000000E+00 -0.17726271259E+04  0.17726271259E+04  0.00000000000E+00 0. -1.
        -13    1    1    2    0    0 -0.40888606092E+03  0.20281781437E+03 -0.54070867012E+03  0.70759363603E+03  0.10566000000E+00 0.  1.
         13    1    1    2    0    0  0.45281730034E+03 -0.27780041791E+03 -0.10766244774E+04  0.12005568942E+04  0.10566000000E+00 0. -1.
         -4    1    1    2    0  502 -0.43931239428E+02  0.74982603539E+02  0.18111434235E+03  0.20088491640E+03  0.00000000000E+00 0. -1.
</event>
<event>
 5    1  0.7625606E-005  0.4997997E+03  0.7818608E-02  0.9716969E-01
         21   -1    0    0  501  502  0.00000000000E+00  0.00000000000E+00  0.93280650259E+03  0.93280650259E+03  0.00000000000E+00 0.  1.
          4   -1    0    0  502    0 -0.00000000000E+00 -0.00000000000E+00 -0.46269359123E+03  0.46269359123E+03  0.00000000000E+00 0.  1.
        -13    1    1    2    0    0 -0.15528412327E+03  0.49704793030E+03  0.36673272447E+03  0.63691656151E+03  0.10566000000E+00 0.  1.
         13    1    1    2    0    0  0.21379910504E+03 -0.24784966267E+01 -0.79403096202E+02  0.22808126427E+03  0.10566000000E+00 0. -1.
          4    1    1    2  501    0 -0.58514981768E+02 -0.49456943368E+03  0.18278328309E+03  0.53050226804E+03  0.00000000000E+00 0.  1.
</event>
<event>
 5    1  0.7625606E-005  0.5120627E+03  0.7818608E-02  0.9528174E-01
         21   -1    0    0  501  502  0.00000000000E+00  0.00000000000E+00  0.77595418778E+03  0.77595418778E+03  0.00000000000E+00 0.  1.
          4   -1    0    0  502    0 -0.00000000000E+00 -0.00000000000E+00 -0.13855802349E+04  0.13855802349E+04  0.00000000000E+00 0.  1.
        -13    1    1    2    0    0 -0.44139331532E+03 -0.26920627462E+03  0.24129309952E+03  0.57054574588E+03  0.10566000000E+00 0.  1.
         13    1    1    2    0    0 -0.13992456768E+03  0.36181131737E+03 -0.91986447263E+03  0.99831707047E+03  0.10566000000E+00 0. -1.
          4    1    1    2  501    0  0.58131788300E+03 -0.92605042752E+02  0.68945325946E+02  0.59267160638E+03  0.00000000000E+00 0.  1.
</event>
<event>
 5    1  0.7625606E-005  0.1291230E+03  0.7818608E-02  0.1135818E+00
         21   -1    0    0  501  502  0.00000000000E+00  0.00000000000E+00  0.87886166739E+02  0.87886166739E+02  0.00000000000E+00 0.  1.
          4   -1    0    0  502    0 -0.00000000000E+00 -0.00000000000E+00 -0.61392609317E+03  0.61392609317E+03  0.00000000000E+00 0.  1.
        -13    1    1    2    0    0  0.97425210693E+02  0.17302245880E+03 -0.36001106096E+03  0.41114038735E+03  0.10566000000E+00 0.  1.
         13    1    1    2    0    0 -0.10202796590E+02 -0.94133043425E+02 -0.14194160910E+03  0.17062402668E+03  0.10566000000E+00 0. -1.
          4    1    1    2  501    0 -0.87222414104E+02 -0.78889415375E+02 -0.24087256360E+02  0.12004784587E+03  0.00000000000E+00 0.  1.
</event>
<event>
 5    1  0.7625606E-005  0.4817602E+03  0.7818608E-02  0.9868302E-01
          4   -1    0    0  502    0 -0.00000000000E+00  0.00000000000E+00  0.26163510560E+04  0.26163510560E+04  0.00000000000E+00 0.  1.
         21   -1    0    0  501  502  0.00000000000E+00 -0.00000000000E+00 -0.14371720098E+03  0.14371720098E+03  0.00000000000E+00 0.  1.
        -13    1    1    2    0    0 -0.37339265523E+03  0.26840465881E+03  0.60001325142E+03  0.75596233298E+03  0.10566000000E+00 0.  1.
         13    1    1    2    0    0  0.33085623352E+02  0.13840625702E+03  0.73860799966E+03  0.75219195607E+03  0.10566000000E+00 0. -1.
          4    1    1    2  501    0  0.34030703188E+03 -0.40681091583E+03  0.11340126039E+04  0.12519139679E+04  0.00000000000E+00 0.  1.
</event>
<event>
 5    1  0.7625606E-005  0.9430374E+03  0.7818608E-02  0.8830035E-01
         21   -1    0    0  501  502  0.00000000000E+00  0.00000000000E+00  0.12890434140E+04  0.12890434140E+04  0.00000000000E+00 0. -1.
          4   -1    0    0  502    0 -0.00000000000E+00 -0.00000000000E+00 -0.12812311131E+04  0.12812311131E+04  0.00000000000E+00 0.  1.
        -13    1    1    2    0    0 -0.37325046138E+03  0.82389274437E+03 -0.32271418862E+03  0.96034349056E+03  0.10566000000E+00 0.  1.
         13    1    1    2    0    0 -0.26308484587E+02 -0.10827177642E+04  0.12092569074E+03  0.10897673729E+04  0.10566000000E+00 0. -1.
          4    1    1    2  501    0  0.39955894596E+03  0.25882501982E+03  0.20960079877E+03  0.52016366370E+03  0.00000000000E+00 0.  1.
</event>
<event>
 5    1  0.7625606E-005  0.5050929E+03  0.7818608E-02  0.9996491E-01
         21   -1    0    0  501  502  0.00000000000E+00  0.00000000000E+00  0.35633726598E+03  0.35633726598E+03  0.00000000000E+00 0.  1.
          4   -1    0    0  502    0 -0.00000000000E+00 -0.00000000000E+00 -0.11135063040E+04  0.11135063040E+04  0.00000000000E+00 0.  1.
        -13    1    1    2    0    0 -0.36761273957E+03  0.36623823097E+03 -0.18504757829E+03  0.55091940020E+03  0.10566000000E+00 0.  1.
         13    1    1    2    0    0 -0.31399611987E+02 -0.74282563835E+02 -0.38004431015E+03  0.38850678728E+03  0.10566000000E+00 0. -1.
          4    1    1    2  501    0  0.39901235156E+03 -0.29195566713E+03 -0.19207714957E+03  0.53041738250E+03  0.00000000000E+00 0.  1.
</event>
<event>
 5    1  0.7625606E-005  0.2835349E+03  0.7818608E-02  0.1014343E+00
         21   -1    0    0  501  502  0.00000000000E+00  0.00000000000E+00  0.55320230658E+02  0.55320230658E+02  0.00000000000E+00 0. -1.
          4   -1    0    0  502    0 -0.00000000000E+00 -0.00000000000E+00 -0.22154995055E+04  0.22154995055E+04  0.00000000000E+00 0.  1.
        -13    1    1    2    0    0 -0.27422045038E+03 -0.50949927060E+02 -0.15751489682E+04  0.15996521603E+04  0.10566000000E+00 0.  1.
         13    1    1    2    0    0  0.28964896241E+03  0.67798984297E+02 -0.57234445410E+03  0.64503597496E+03  0.10566000000E+00 0. -1.
          4    1    1    2  501    0 -0.15428512033E+02 -0.16849057237E+02 -0.12685852468E+02  0.26131600910E+02  0.00000000000E+00 0.  1.
</event>
<event>
 5    1  0.7625606E-005  0.4706614E+03  0.7818608E-02  0.9860509E-01
          4   -1    0    0  502    0 -0.00000000000E+00  0.00000000000E+00  0.15933067591E+04  0.15933067591E+04  0.00000000000E+00 0.  1.
         21   -1    0    0  501  502  0.00000000000E+00 -0.00000000000E+00 -0.21024997562E+03  0.21024997562E+03  0.00000000000E+00 0.  1.
        -13    1    1    2    0    0 -0.53826500988E+03 -0.15702669186E+03  0.60918104307E+03  0.82794212190E+03  0.10566000000E+00 0.  1.
         13    1    1    2    0    0  0.15638886703E+03  0.94319121632E+01  0.36404139446E+03  0.39632384075E+03  0.10566000000E+00 0. -1.
          4    1    1    2  501    0  0.38187614285E+03  0.14759477969E+03  0.40983434593E+03  0.57929077205E+03  0.00000000000E+00 0.  1.
</event>
<event>
 5    1  0.7625606E-005  0.5016382E+03  0.7818608E-02  0.9572273E-01
         -4   -1    0    0    0  501 -0.00000000000E+00  0.00000000000E+00  0.50774642160E+03  0.50774642160E+03  0.00000000000E+00 0. -1.
         21   -1    0    0  501  502  0.00000000000E+00 -0.00000000000E+00 -0.10164406728E+04  0.10164406728E+04  0.00000000000E+00 0. -1.
        -13    1    1    2    0    0  0.14086473341E+03  0.32271788920E+03 -0.12511020420E+03  0.37368741414E+03  0.10566000000E+00 0.  1.
         13    1    1    2    0    0  0.41378659819E+03  0.49021729612E+02 -0.13453203744E+03  0.43785997656E+03  0.10566000000E+00 0. -1.
         -4    1    1    2    0  502 -0.55465133159E+03 -0.37173961881E+03 -0.24905200958E+03  0.71263970371E+03  0.00000000000E+00 0. -1.
</event>
<event>
 5    1  0.7625606E-005  0.3996042E+03  0.7818608E-02  0.1000038E+00
         21   -1    0    0  501  502  0.00000000000E+00  0.00000000000E+00  0.31554775766E+03  0.31554775766E+03  0.00000000000E+00 0.  1.
          4   -1    0    0  502    0 -0.00000000000E+00 -0.00000000000E+00 -0.19384442634E+04  0.19384442634E+04  0.00000000000E+00 0.  1.
        -13    1    1    2    0    0  0.21905244429E+03  0.34854735010E+03  0.11427770149E+03  0.42723369815E+03  0.10566000000E+00 0.  1.
         13    1    1    2    0    0  0.74302255458E+02 -0.14259751426E+03 -0.92694390295E+03  0.94078684442E+03  0.10566000000E+00 0. -1.
          4    1    1    2  501    0 -0.29335469975E+03 -0.20594983584E+03 -0.81023030432E+03  0.88597147854E+03  0.00000000000E+00 0.  1.
</event>
<event>
 5    1  0.7625606E-005  0.5101366E+03  0.7818608E-02  0.9885389E-01
         -4   -1    0    0    0  501 -0.00000000000E+00  0.00000000000E+00  0.14569313771E+04  0.14569313771E+04  0.00000000000E+00 0. -1.
         21   -1    0    0  501  502  0.00000000000E+00 -0.00000000000E+00 -0.22371898476E+03  0.22371898476E+03  0.00000000000E+00 0. -1.
        -13    1    1    2    0    0 -0.89354210405E+02 -0.69441947014E+02  0.15016140160E+03  0.18802876540E+03  0.10566000000E+00 0.  1.
         13    1    1    2    0    0 -0.30720503780E+03  0.40380256640E+03  0.56863700864E+03  0.76208890992E+03  0.10566000000E+00 0. -1.
         -4    1    1    2    0  502  0.39655924820E+03 -0.33436061938E+03  0.51441398209E+03  0.73053268654E+03  0.00000000000E+00 0. -1.
</event>
<event>
 5    1  0.7625606E-005  0.1231570E+03  0.7818608E-02  0.1131077E+00
         -4   -1    0    0    0  501 -0.00000000000E+00  0.00000000000E+00  0.21156567099E+03  0.21156567099E+03  0.00000000000E+00 0. -1.
         21   -1    0    0  501  502  0.00000000000E+00 -0.00000000000E+00 -0.11575678625E+03  0.11575678625E+03  0.00000000000E+00 0.  1.
        -13    1    1    2    0    0 -0.48803605652E+01  0.11283091044E+03  0.32929113083E+02  0.11763915131E+03  0.10566000000E+00 0.  1.
         13    1    1    2    0    0 -0.27779717948E+02 -0.13040508659E+03  0.92452085388E+02  0.16224857039E+03  0.10566000000E+00 0. -1.
         -4    1    1    2    0  502  0.32660078513E+02  0.17574176153E+02 -0.29572313734E+02  0.47434735537E+02  0.00000000000E+00 0. -1.
</event>
<event>
 5    1  0.7625606E-005  0.4380112E+03  0.7818608E-02  0.9742361E-01
         21   -1    0    0  501  502  0.00000000000E+00  0.00000000000E+00  0.36215146872E+03  0.36215146872E+03  0.00000000000E+00 0.  1.
          4   -1    0    0  502    0 -0.00000000000E+00 -0.00000000000E+00 -0.20352018166E+04  0.20352018166E+04  0.00000000000E+00 0.  1.
        -13    1    1    2    0    0 -0.16543041448E+03 -0.36777444953E+03 -0.49796308148E+03  0.64077492885E+03  0.10566000000E+00 0.  1.
         13    1    1    2    0    0  0.27552990372E+03 -0.93399095915E+02 -0.12439070389E+04  0.12774759691E+04  0.10566000000E+00 0. -1.
          4    1    1    2  501    0 -0.11009948925E+03  0.46117354544E+03  0.68819772486E+02  0.47910238742E+03  0.00000000000E+00 0.  1.
</event>
<event>
 5    1  0.7625606E-005  0.1114634E+03  0.7818608E-02  0.1146867E+00
         21   -1    0    0  501  502  0.00000000000E+00  0.00000000000E+00  0.80744935528E+03  0.80744935528E+03  0.00000000000E+00 0. -1.
         -4   -1    0    0    0  501 -0.00000000000E+00 -0.00000000000E+00 -0.92599613973E+02  0.92599613973E+02  0.00000000000E+00 0. -1.
        -13    1    1    2    0    0 -0.99484610851E+02  0.20382204290E+02 -0.11888130323E+02  0.10224461284E+03  0.10566000000E+00 0.  1.
         13    1    1    2    0    0  0.14740345853E+03 -0.53043672874E+01  0.12320895554E+03  0.19218838099E+03  0.10566000000E+00 0. -1.
         -4    1    1    2    0  502 -0.47918847675E+02 -0.15077837003E+02  0.60352891609E+03  0.60561597542E+03  0.00000000000E+00 0. -1.
</event>
<event>
 5    1  0.7625606E-005  0.9845591E+02  0.7818608E-02  0.1167136E+00
         21   -1    0    0  501  502  0.00000000000E+00  0.00000000000E+00  0.10157261081E+04  0.10157261081E+04  0.00000000000E+00 0.  1.
         -4   -1    0    0    0  501 -0.00000000000E+00 -0.00000000000E+00 -0.24108786754E+02  0.24108786754E+02  0.00000000000E+00 0. -1.
        -13    1    1    2    0    0  0.78387699602E+02  0.47333362898E+02  0.38596333008E+03  0.39667717608E+03  0.10566000000E+00 0.  1.
         13    1    1    2    0    0 -0.81046010434E+02 -0.60220670888E+02  0.11790286265E+03  0.15522912483E+03  0.10566000000E+00 0. -1.
         -4    1    1    2    0  502  0.26583108319E+01  0.12887307990E+02  0.48775112860E+03  0.48792859393E+03  0.00000000000E+00 0. -1.
</event>
<event>
 5    1  0.7625606E-005  0.4740872E+03  0.7818608E-02  0.1016425E+00
         21   -1    0    0  501  502  0.00000000000E+00  0.00000000000E+00  0.19019084999E+03  0.19019084999E+03  0.00000000000E+00 0. -1.
         -4   -1    0    0    0  501 -0.00000000000E+00 -0.00000000000E+00 -0.15904098763E+04  0.15904098763E+04  0.00000000000E+00 0. -1.
        -13    1    1    2    0    0 -0.14830327793E+02 -0.54795241409E+02 -0.24465574060E+03  0.25115513070E+03  0.10566000000E+00 0.  1.
         13    1    1    2    0    0 -0.37478833365E+03  0.30235607189E+03 -0.33058248070E+03  0.58409783167E+03  0.10566000000E+00 0. -1.
         -4    1    1    2    0  502  0.38961866144E+03 -0.24756083048E+03 -0.82498080503E+03  0.94534776394E+03  0.00000000000E+00 0. -1.
</event>
<event>
 5    1  0.7625606E-005  0.7131497E+02  0.7818608E-02  0.1223319E+00
         21   -1    0    0  501  502  0.00000000000E+00  0.00000000000E+00  0.12762937583E+03  0.12762937583E+03  0.00000000000E+00 0.  1.
         -4   -1    0    0    0  501 -0.00000000000E+00 -0.00000000000E+00 -0.79738421579E+02  0.79738421579E+02  0.00000000000E+00 0. -1.
        -13    1    1    2    0    0  0.38649966831E+01 -0.60214806051E+02  0.75633243750E+01  0.60810986727E+02  0.10566000000E+00 0.  1.
         13    1    1    2    0    0  0.20097748291E+02  0.82615013621E+02 -0.10906957078E+02  0.85721250800E+02  0.10566000000E+00 0. -1.
         -4    1    1    2    0  502 -0.23962744974E+02 -0.22400207570E+02  0.51234586959E+02  0.60835559886E+02  0.00000000000E+00 0. -1.
</event>
<event>
 5    1  0.8212641E-005  0.4317285E+03  0.7818608E-02  0.1003893E+00
         -4   -1    0    0    0  501 -0.00000000000E+00  0.00000000000E+00  0.30417352475E+03  0.30417352475E+03  0.00000000000E+00 0. -1.
         21   -1    0    0  501  502  0.00000000000E+00 -0.00000000000E+00 -0.11606632536E+04  0.11606632536E+04  0.00000000000E+00 0. -1.
        -13    1    1    2    0    0  0.10317949168E+03  0.44658249314E+02  0.35683412061E+02  0.11795627917E+03  0.10566000000E+00 0.  1.
         13    1    1    2    0    0  0.22750785576E+03 -0.33891076726E+03 -0.71450721593E+02  0.41439781536E+03  0.10566000000E+00 0. -1.
         -4    1    1    2    0  502 -0.33068734743E+03  0.29425251795E+03 -0.82072241929E+03  0.93248268380E+03  0.00000000000E+00 0. -1.
</event>
<event>
 5    1  0.7625606E-005  0.2577360E+02  0.7818608E-02  0.1442454E+00
         -4   -1    0    0    0  501 -0.00000000000E+00  0.00000000000E+00  0.32686704658E+02  0.32686704658E+02  0.00000000000E+00 0. -1.
         21   -1    0    0  501  502  0.00000000000E+00 -0.00000000000E+00 -0.13655026771E+03  0.13655026771E+03  0.00000000000E+00 0.  1.
        -13    1    1    2    0    0  0.38470164530E+02  0.48352792385E+01 -0.46836209873E+02  0.60802756546E+02  0.10566000000E+00 0.  1.
         13    1    1    2    0    0 -0.23667117847E+02 -0.57805370887E+01  0.19048496669E+02  0.30925773484E+02  0.10566000000E+00 0. -1.
         -4    1    1    2    0  502 -0.14803046683E+02  0.94525785020E+00 -0.76075849850E+02  0.77508442339E+02  0.00000000000E+00 0. -1.
</event>
<event>
 5    1  0.7625606E-005  0.3494503E+03  0.7818608E-02  0.9887607E-01
         21   -1    0    0  501  502  0.00000000000E+00  0.00000000000E+00  0.26249321317E+03  0.26249321317E+03  0.00000000000E+00 0. -1.
         -4   -1    0    0    0  501 -0.00000000000E+00 -0.00000000000E+00 -0.17515161119E+04  0.17515161119E+04  0.00000000000E+00 0. -1.
        -13    1    1    2    0    0  0.26626027076E+03 -0.16478836026E+03 -0.38778282187E+03  0.49842277592E+03  0.10566000000E+00 0.  1.
         13    1    1    2    0    0 -0.36518915374E+03  0.31848595416E+03 -0.96142388378E+02  0.49400383705E+03  0.10566000000E+00 0. -1.
         -4    1    1    2    0  502  0.98928882986E+02 -0.15369759390E+03 -0.10050976885E+04  0.10215827121E+04  0.00000000000E+00 0. -1.
</event>
<event>
 5    1  0.7625606E-005  0.2398670E+03  0.7818608E-02  0.1035782E+00
         21   -1    0    0  501  502  0.00000000000E+00  0.00000000000E+00  0.38020381626E+03  0.38020381626E+03  0.00000000000E+00 0.  1.
         -4   -1    0    0    0  501 -0.00000000000E+00 -0.00000000000E+00 -0.19057725576E+03  0.19057725576E+03  0.00000000000E+00 0. -1.
        -13    1    1    2    0    0  0.43719547330E+02 -0.22891182755E+03  0.15289838148E+03  0.27872916933E+03  0.10566000000E+00 0.  1.
         13    1    1    2    0    0 -0.51561852556E+02  0.23806475480E+03 -0.10004420676E+02  0.24378997460E+03  0.10566000000E+00 0. -1.
         -4    1    1    2    0  502  0.78423052254E+01 -0.91529272477E+01  0.46732599694E+02  0.48261928087E+02  0.00000000000E+00 0. -1.
</event>
<event>
 5    1  0.7625606E-005  0.1112821E+03  0.7818608E-02  0.1147128E+00
         21   -1    0    0  501  502  0.00000000000E+00  0.00000000000E+00  0.19200002376E+03  0.19200002376E+03  0.00000000000E+00 0. -1.
          4   -1    0    0  502    0 -0.00000000000E+00 -0.00000000000E+00 -0.12131588389E+03  0.12131588389E+03  0.00000000000E+00 0.  1.
        -13    1    1    2    0    0  0.10539445533E+03 -0.56814284758E+02 -0.45239945759E+02  0.12799421090E+03  0.10566000000E+00 0.  1.
         13    1    1    2    0    0 -0.77669520202E+02  0.58243539805E+02  0.40935777198E+02  0.10535944816E+03  0.10566000000E+00 0. -1.
          4    1    1    2  501    0 -0.27724935127E+02 -0.14292550469E+01  0.74988308439E+02  0.79962248595E+02  0.00000000000E+00 0.  1.
</event>
<event>
 5    1  0.7625606E-005  0.3447282E+03  0.7818608E-02  0.9996926E-01
          4   -1    0    0  502    0 -0.00000000000E+00  0.00000000000E+00  0.21054921860E+04  0.21054921860E+04  0.00000000000E+00 0.  1.
         21   -1    0    0  501  502  0.00000000000E+00 -0.00000000000E+00 -0.25448321008E+03  0.25448321008E+03  0.00000000000E+00 0.  1.
        -13    1    1    2    0    0 -0.10095192646E+03 -0.23607057322E+03  0.11205075567E+04  0.11495467815E+04  0.10566000000E+00 0.  1.
         13    1    1    2    0    0  0.23025551153E+03 -0.10558229368E+03  0.79949811173E+03  0.83866707528E+03  0.10566000000E+00 0. -1.
          4    1    1    2  501    0 -0.12930358507E+03  0.34165286690E+03 -0.68996692487E+02  0.37176153936E+03  0.00000000000E+00 0.  1.
</event>
<event>
 5    1  0.7625606E-005  0.3314382E+03  0.7818608E-02  0.9951132E-01
         21   -1    0    0  501  502  0.00000000000E+00  0.00000000000E+00  0.78684992328E+03  0.78684992328E+03  0.00000000000E+00 0.  1.
         -4   -1    0    0    0  501 -0.00000000000E+00 -0.00000000000E+00 -0.17638439768E+03  0.17638439768E+03  0.00000000000E+00 0. -1.
        -13    1    1    2    0    0  0.30687856204E+03 -0.15645692445E+03  0.39933612118E+03  0.52737327377E+03  0.10566000000E+00 0.  1.
         13    1    1    2    0    0 -0.28491131193E+03  0.15596489768E+03  0.12674036075E+03  0.34865833589E+03  0.10566000000E+00 0. -1.
         -4    1    1    2    0  502 -0.21967250108E+02  0.49202677207E+00  0.84389043667E+02  0.87202711304E+02  0.00000000000E+00 0. -1.
</event>
<event>
 5    1  0.7625606E-005  0.4656916E+03  0.7818608E-02  0.9704328E-01
         -4   -1    0    0    0  501 -0.00000000000E+00  0.00000000000E+00  0.15335792142E+04  0.15335792142E+04  0.00000000000E+00 0. -1.
         21   -1    0    0  501  502  0.00000000000E+00 -0.00000000000E+00 -0.28525054079E+03  0.28525054079E+03  0.00000000000E+00 0. -1.
        -13    1    1    2    0    0  0.26628966160E+03  0.73282730913E+02  0.27668330133E+03  0.39094015261E+03  0.10566000000E+00 0.  1.
         13    1    1    2    0    0 -0.27328345266E+03  0.40200456570E+03  0.20874974172E+03  0.52902550238E+03  0.10566000000E+00 0. -1.
         -4    1    1    2    0  502  0.69937910622E+01 -0.47528729661E+03  0.76289563032E+03  0.89886409996E+03  0.00000000000E+00 0. -1.
</event>
<event>
 5    1  0.7625606E-005  0.1481481E+03  0.7818608E-02  0.1102952E+00
          4   -1    0    0  502    0 -0.00000000000E+00  0.00000000000E+00  0.71325538698E+03  0.71325538698E+03  0.00000000000E+00 0.  1.
         21   -1    0    0  501  502  0.00000000000E+00 -0.00000000000E+00 -0.56742707090E+02  0.56742707090E+02  0.00000000000E+00 0. -1.
        -13    1    1    2    0    0  0.10902282510E+03 -0.10745808676E+03  0.42341150953E+03  0.45023386630E+03  0.10566000000E+00 0.  1.
         13    1    1    2    0    0 -0.12279584130E+03  0.74014658277E+02  0.24310675105E+03  0.28223729706E+03  0.10566000000E+00 0. -1.
          4    1    1    2  501    0  0.13773016202E+02  0.33443428485E+02 -0.10005580678E+02  0.37526930714E+02  0.00000000000E+00 0.  1.
</event>
<event>
 5    1  0.7625606E-005  0.5855257E+02  0.7818608E-02  0.1260416E+00
         -4   -1    0    0    0  501 -0.00000000000E+00  0.00000000000E+00  0.87376329090E+02  0.87376329090E+02  0.00000000000E+00 0. -1.
         21   -1    0    0  501  502  0.00000000000E+00 -0.00000000000E+00 -0.29759702842E+03  0.29759702842E+03  0.00000000000E+00 0.  1.
        -13    1    1    2    0    0 -0.43252530724E+02 -0.37578928293E+02 -0.19257691099E+03  0.20091997182E+03  0.10566000000E+00 0.  1.
         13    1    1    2    0    0  0.51871902753E+02  0.27463966633E+02  0.72304612321E+02  0.93128577168E+02  0.10566000000E+00 0. -1.
         -4    1    1    2    0  502 -0.86193720295E+01  0.10114961660E+02 -0.89948400653E+02  0.90924808516E+02  0.00000000000E+00 0. -1.
</event>
<event>
 5    1  0.7625606E-005  0.1543562E+03  0.7818608E-02  0.1096893E+00
          4   -1    0    0  502    0 -0.00000000000E+00  0.00000000000E+00  0.39674912254E+03  0.39674912254E+03  0.00000000000E+00 0.  1.
         21   -1    0    0  501  502  0.00000000000E+00 -0.00000000000E+00 -0.41858672310E+03  0.41858672310E+03  0.00000000000E+00 0. -1.
        -13    1    1    2    0    0  0.85029032639E+02 -0.12911679399E+03  0.36451480537E+03  0.39594461403E+03  0.10566000000E+00 0.  1.
         13    1    1    2    0    0 -0.88131000885E+02  0.11948669900E+03 -0.37851649894E+03  0.40659426421E+03  0.10566000000E+00 0. -1.
          4    1    1    2  501    0  0.31019682466E+01  0.96300949857E+01 -0.78359069907E+01  0.12796967406E+02  0.00000000000E+00 0.  1.
</event>
<event>
 5    1  0.7625606E-005  0.2834123E+03  0.7818608E-02  0.1017567E+00
         21   -1    0    0  501  502  0.00000000000E+00  0.00000000000E+00  0.20722736271E+03  0.20722736271E+03  0.00000000000E+00 0.  1.
          4   -1    0    0  502    0 -0.00000000000E+00 -0.00000000000E+00 -0.22426102579E+04  0.22426102579E+04  0.00000000000E+00 0.  1.
        -13    1    1    2    0    0 -0.46842201732E+03 -0.15245855591E+03 -0.13191347870E+04  0.14081119966E+04  0.10566000000E+00 0.  1.
         13    1    1    2    0    0  0.25613107465E+03 -0.82550033670E+01 -0.73143626268E+03  0.77502921881E+03  0.10566000000E+00 0. -1.
          4    1    1    2  501    0  0.21229094266E+03  0.16071355928E+03  0.15188154547E+02  0.26669640514E+03  0.00000000000E+00 0.  1.
</event>
<event>
 5    1  0.7625606E-005  0.4920184E+03  0.7818608E-02  0.9871749E-01
          4   -1    0    0  502    0 -0.00000000000E+00  0.00000000000E+00  0.86026290212E+03  0.86026290212E+03  0.00000000000E+00 0.  1.
         21   -1    0    0  501  502  0.00000000000E+00 -0.00000000000E+00 -0.37513874108E+03  0.37513874108E+03  0.00000000000E+00 0.  1.
        -13    1    1    2    0    0  0.50001177858E+03  0.76417552142E+02  0.19817087987E+03  0.54325236289E+03  0.10566000000E+00 0.  1.
         13    1    1    2    0    0 -0.54012957634E+02  0.12049610512E+03  0.11522944482E+03  0.17525566199E+03  0.10566000000E+00 0. -1.
          4    1    1    2  501    0 -0.44599882094E+03 -0.19691365726E+03  0.17172383635E+03  0.51689361833E+03  0.00000000000E+00 0.  1.
</event>
<event>
 5    1  0.7625606E-005  0.5452433E+03  0.7818608E-02  0.9383964E-01
         21   -1    0    0  501  502  0.00000000000E+00  0.00000000000E+00  0.49852444105E+03  0.49852444105E+03  0.00000000000E+00 0.  1.
         -4   -1    0    0    0  501 -0.00000000000E+00 -0.00000000000E+00 -0.24618955588E+04  0.24618955588E+04  0.00000000000E+00 0. -1.
        -13    1    1    2    0    0 -0.44326758548E+03  0.52162609633E+03 -0.13058088709E+04  0.14743529955E+04  0.10566000000E+00 0.  1.
         13    1    1    2    0    0  0.45439667612E+03 -0.15835596206E+03 -0.91968280528E+03  0.10379640762E+04  0.10566000000E+00 0. -1.
         -4    1    1    2    0  502 -0.11129090641E+02 -0.36327013426E+03  0.26212055843E+03  0.44810292820E+03  0.00000000000E+00 0. -1.
</event>
<event>
 5    1  0.7625606E-005  0.1472455E+03  0.7818608E-02  0.1125612E+00
          4   -1    0    0  502    0 -0.00000000000E+00  0.00000000000E+00  0.57159236836E+03  0.57159236836E+03  0.00000000000E+00 0.  1.
         21   -1    0    0  501  502  0.00000000000E+00 -0.00000000000E+00 -0.67547154246E+03  0.67547154246E+03  0.00000000000E+00 0.  1.
        -13    1    1    2    0    0 -0.15254266847E+02 -0.14705006428E+03 -0.64417701138E+03  0.66092393452E+03  0.10566000000E+00 0.  1.
         13    1    1    2    0    0  0.80843737863E+02  0.18594914006E+02  0.19114003053E+03  0.20836507196E+03  0.10566000000E+00 0. -1.
          4    1    1    2  501    0 -0.65589471015E+02  0.12845515027E+03  0.34915780675E+03  0.37777490434E+03  0.00000000000E+00 0.  1.
</event>
<event>
 5    1  0.7625606E-005  0.5945357E+03  0.7818608E-02  0.9381911E-01
         -4   -1    0    0    0  501 -0.00000000000E+00  0.00000000000E+00  0.10289770360E+04  0.10289770360E+04  0.00000000000E+00 0. -1.
         21   -1    0    0  501  502  0.00000000000E+00 -0.00000000000E+00 -0.93510394922E+03  0.93510394922E+03  0.00000000000E+00 0.  1.
        -13    1    1    2    0    0 -0.61070248753E+02 -0.70154386634E+03  0.12550071013E+03  0.71529281493E+03  0.10566000000E+00 0.  1.
         13    1    1    2    0    0 -0.31463465863E+03  0.72657470154E+02  0.30354624725E+03  0.44318665567E+03  0.10566000000E+00 0. -1.
         -4    1    1    2    0  502  0.37570490738E+03  0.62888639619E+03 -0.33517387064E+03  0.80560151459E+03  0.00000000000E+00 0. -1.
</event>
<event>
 5    1  0.7625606E-005  0.1903880E+03  0.7818608E-02  0.1066933E+00
         21   -1    0    0  501  502  0.00000000000E+00  0.00000000000E+00  0.30564618769E+03  0.30564618769E+03  0.00000000000E+00 0.  1.
          4   -1    0    0  502    0 -0.00000000000E+00 -0.00000000000E+00 -0.49109417984E+03  0.49109417984E+03  0.00000000000E+00 0.  1.
        -13    1    1    2    0    0 -0.31149022520E+02  0.22079144338E+03 -0.23690138563E+03  0.32533275389E+03  0.10566000000E+00 0.  1.
         13    1    1    2    0    0 -0.13523912713E+02 -0.16671315595E+03 -0.17037421698E+03  0.23875417809E+03  0.10566000000E+00 0. -1.
          4    1    1    2  501    0  0.44672935233E+02 -0.54078287434E+02  0.22182761046E+03  0.23265343556E+03  0.00000000000E+00 0.  1.
</event>
<event>
 5    1  0.7625606E-005  0.5511370E+03  0.7818608E-02  0.9372422E-01
         21   -1    0    0  501  502  0.00000000000E+00  0.00000000000E+00  0.35701101377E+03  0.35701101377E+03  0.00000000000E+00 0.  1.
         -4   -1    0    0    0  501 -0.00000000000E+00 -0.00000000000E+00 -0.17226049462E+04  0.17226049462E+04  0.00000000000E+00 0. -1.
        -13    1    1    2    0    0 -0.11613298111E+03 -0.39964965248E+03 -0.12995244594E+03  0.43599812316E+03  0.10566000000E+00 0.  1.
         13    1    1    2    0    0  0.57986293380E+02  0.61298920436E+03 -0.12778934038E+04  0.14184955896E+04  0.10566000000E+00 0. -1.
         -4    1    1    2    0  502  0.58146687728E+02 -0.21333955187E+03  0.42251917339E+02  0.22512224725E+03  0.00000000000E+00 0. -1.
</event>
<event>
 5    1  0.7625606E-005  0.2715980E+02  0.7818608E-02  0.1429277E+00
          4   -1    0    0  502    0 -0.00000000000E+00  0.00000000000E+00  0.30621671132E+02  0.30621671132E+02  0.00000000000E+00 0.  1.
         21   -1    0    0  501  502  0.00000000000E+00 -0.00000000000E+00 -0.42429556683E+02  0.42429556683E+02  0.00000000000E+00 0. -1.
        -13    1    1    2    0    0 -0.61042862515E+01 -0.30042785402E+02  0.84061954749E+01  0.31788465703E+02  0.10566000000E+00 0.  1.
         13    1    1    2    0    0  0.12154958175E+02  0.18086122412E+02 -0.16569977854E+02  0.27375649075E+02  0.10566000000E+00 0. -1.
          4    1    1    2  501    0 -0.60506719240E+01  0.11956662990E+02 -0.36441031713E+01  0.13887113038E+02  0.00000000000E+00 0.  1.
</event>
<event>
 5    1  0.7625606E-005  0.4518905E+03  0.7818608E-02  0.9822364E-01
         21   -1    0    0  501  502  0.00000000000E+00  0.00000000000E+00  0.12049846465E+03  0.12049846465E+03  0.00000000000E+00 0. -1.
         -4   -1    0    0    0  501 -0.00000000000E+00 -0.00000000000E+00 -0.27524797083E+04  0.27524797083E+04  0.00000000000E+00 0. -1.
        -13    1    1    2    0    0 -0.39994861747E+02  0.19741070501E+03 -0.72694288312E+03  0.75433185131E+03  0.10566000000E+00 0.  1.
         13    1    1    2    0    0  0.46691847264E+03 -0.15337177269E+03 -0.89173799808E+03  0.10182005839E+04  0.10566000000E+00 0. -1.
         -4    1    1    2    0  502 -0.42692361089E+03 -0.44038932318E+02 -0.10133003625E+04  0.11004457377E+04  0.00000000000E+00 0. -1.
</event>
<event>
 5    1  0.7625606E-005  0.1722586E+03  0.7818608E-02  0.1081019E+00
          4   -1    0    0  502    0 -0.00000000000E+00  0.00000000000E+00  0.83156614189E+03  0.83156614189E+03  0.00000000000E+00 0.  1.
         21   -1    0    0  501  502  0.00000000000E+00 -0.00000000000E+00 -0.11767124422E+03  0.11767124422E+03  0.00000000000E+00 0.  1.
        -13    1    1    2    0    0 -0.12592309234E+03 -0.10992392887E+03  0.46453618955E+03  0.49369401241E+03  0.10566000000E+00 0.  1.
         13    1    1    2    0    0  0.13803588509E+03  0.11610484942E+03  0.32875793666E+03  0.37498804476E+03  0.10566000000E+00 0. -1.
          4    1    1    2  501    0 -0.12112792748E+02 -0.61809205539E+01 -0.79399228548E+02  0.80555328943E+02  0.00000000000E+00 0.  1.
</event>
<event>
 5    1  0.7625606E-005  0.4299006E+03  0.7818608E-02  0.9646464E-01
         21   -1    0    0  501  502  0.00000000000E+00  0.00000000000E+00  0.36946034051E+03  0.36946034051E+03  0.00000000000E+00 0.  1.
          4   -1    0    0  502    0 -0.00000000000E+00 -0.00000000000E+00 -0.16931957906E+04  0.16931957906E+04  0.00000000000E+00 0.  1.
        -13    1    1    2    0    0 -0.43550662807E+02 -0.52396590220E+03  0.75110760881E+02  0.53111068946E+03  0.10566000000E+00 0.  1.
         13    1    1    2    0    0  0.11773495621E+03  0.39585147520E+03 -0.66416250232E+03  0.78209446424E+03  0.10566000000E+00 0. -1.
          4    1    1    2  501    0 -0.74184293403E+02  0.12811442699E+03 -0.73468370866E+03  0.74945097742E+03  0.00000000000E+00 0.  1.
</event>
<event>
 5    1  0.7625606E-005  0.4826658E+03  0.7818608E-02  0.9613495E-01
         21   -1    0    0  501  502  0.00000000000E+00  0.00000000000E+00  0.20556642297E+03  0.20556642297E+03  0.00000000000E+00 0. -1.
         -4   -1    0    0    0  501 -0.00000000000E+00 -0.00000000000E+00 -0.23827710743E+04  0.23827710743E+04  0.00000000000E+00 0. -1.
        -13    1    1    2    0    0 -0.32955757795E+03  0.88777082830E+02 -0.68131811521E+03  0.76202621536E+03  0.10566000000E+00 0.  1.
         13    1    1    2    0    0  0.68309010166E+03 -0.18676166711E+02 -0.90206581081E+03  0.11316729317E+04  0.10566000000E+00 0. -1.
         -4    1    1    2    0  502 -0.35353252371E+03 -0.70100916119E+02 -0.59382072534E+03  0.69463835023E+03  0.00000000000E+00 0. -1.
</event>
<event>
 5    1  0.7625606E-005  0.1984562E+03  0.7818608E-02  0.1061199E+00
         21   -1    0    0  501  502  0.00000000000E+00  0.00000000000E+00  0.46859158913E+03  0.46859158913E+03  0.00000000000E+00 0. -1.
          4   -1    0    0  502    0 -0.00000000000E+00 -0.00000000000E+00 -0.11794611289E+03  0.11794611289E+03  0.00000000000E+00 0.  1.
        -13    1    1    2    0    0 -0.14062313486E+02 -0.17989939446E+03  0.13406916900E+03  0.22480234435E+03  0.10566000000E+00 0.  1.
         13    1    1    2    0    0  0.69893440350E+02  0.21050204485E+03  0.14060899852E+03  0.26261588969E+03  0.10566000000E+00 0. -1.
          4    1    1    2  501    0 -0.55831126864E+02 -0.30602650391E+02  0.75967308718E+02  0.99119467976E+02  0.00000000000E+00 0.  1.
</event>
<event>
 5    1  0.7625606E-005  0.4612082E+03  0.7818608E-02  0.9585722E-01
         21   -1    0    0  501  502  0.00000000000E+00  0.00000000000E+00  0.23974711239E+03  0.23974711239E+03  0.00000000000E+00 0.  1.
          4   -1    0    0  502    0 -0.00000000000E+00 -0.00000000000E+00 -0.30223694975E+04  0.30223694975E+04  0.00000000000E+00 0.  1.
        -13    1    1    2    0    0  0.73711152802E+02 -0.32245607182E+03 -0.94435400804E+03  0.10006076933E+04  0.10566000000E+00 0.  1.
         13    1    1    2    0    0 -0.41314474818E+03 -0.12561607082E+03 -0.15889390527E+04  0.16465707712E+04  0.10566000000E+00 0. -1.
          4    1    1    2  501    0  0.33943359538E+03  0.44807214263E+03 -0.24932932443E+03  0.61493814542E+03  0.00000000000E+00 0.  1.
</event>
<event>
 5    1  0.7625606E-005  0.4504648E+03  0.7818608E-02  0.9650238E-01
         21   -1    0    0  501  502  0.00000000000E+00  0.00000000000E+00  0.55560326484E+03  0.55560326484E+03  0.00000000000E+00 0. -1.
         -4   -1    0    0    0  501 -0.00000000000E+00 -0.00000000000E+00 -0.13250891797E+04  0.13250891797E+04  0.00000000000E+00 0. -1.
        -13    1    1    2    0    0  0.34474181369E+03  0.13084825130E+03 -0.74474361945E+03  0.83103023583E+03  0.10566000000E+00 0.  1.
         13    1    1    2    0    0 -0.42386280485E+03 -0.50324945124E+03 -0.87675833645E+02  0.66378215589E+03  0.10566000000E+00 0. -1.
         -4    1    1    2    0  502  0.79120991154E+02  0.37240119994E+03  0.62933538208E+02  0.38588005285E+03  0.00000000000E+00 0. -1.
</event>
<event>
 5    1  0.7625606E-005  0.2928675E+03  0.7818608E-02  0.1010294E+00
         21   -1    0    0  501  502  0.00000000000E+00  0.00000000000E+00  0.14557847122E+03  0.14557847122E+03  0.00000000000E+00 0.  1.
         -4   -1    0    0    0  501 -0.00000000000E+00 -0.00000000000E+00 -0.82189983632E+03  0.82189983632E+03  0.00000000000E+00 0. -1.
        -13    1    1    2    0    0  0.10782347887E+03 -0.26650125374E+03 -0.19920777334E+03  0.34976073102E+03  0.10566000000E+00 0.  1.
         13    1    1    2    0    0 -0.10023043916E+03  0.27830962838E+03 -0.50570419001E+03  0.58586613585E+03  0.10566000000E+00 0. -1.
         -4    1    1    2    0  502 -0.75930397114E+01 -0.11808374640E+02  0.28590598255E+02  0.31851440662E+02  0.00000000000E+00 0. -1.
</event>
<event>
 5    1  0.7625606E-005  0.1062565E+03  0.7818608E-02  0.1154599E+00
         -4   -1    0    0    0  501 -0.00000000000E+00  0.00000000000E+00  0.71251534949E+02  0.71251534949E+02  0.00000000000E+00 0. -1.
         21   -1    0    0  501  502  0.00000000000E+00 -0.00000000000E+00 -0.54020289336E+03  0.54020289336E+03  0.00000000000E+00 0. -1.
        -13    1    1    2    0    0  0.24476120540E+02 -0.70463751855E+02 -0.13597262227E+03  0.15508960627E+03  0.10566000000E+00 0.  1.
         13    1    1    2    0    0  0.89143725894E+01  0.12183565111E+03 -0.45248482987E+01  0.12224515261E+03  0.10566000000E+00 0. -1.
         -4    1    1    2    0  502 -0.33390493129E+02 -0.51371899252E+02 -0.32845388784E+03  0.33411966943E+03  0.00000000000E+00 0. -1.
</event>
<event>
 5    1  0.7625606E-005  0.5076322E+03  0.7818608E-02  0.9782465E-01
          4   -1    0    0  502    0 -0.00000000000E+00  0.00000000000E+00  0.73318525512E+03  0.73318525512E+03  0.00000000000E+00 0.  1.
         21   -1    0    0  501  502  0.00000000000E+00 -0.00000000000E+00 -0.62005064197E+03  0.62005064197E+03  0.00000000000E+00 0.  1.
        -13    1    1    2    0    0 -0.58493407895E+03  0.92040282521E+02 -0.14311214362E+03  0.60918009418E+03  0.10566000000E+00 0.  1.
         13    1    1    2    0    0  0.16279595760E+03 -0.22747371325E+01  0.26656777794E+03  0.31235571011E+03  0.10566000000E+00 0. -1.
          4    1    1    2  501    0  0.42213812136E+03 -0.89765545388E+02 -0.10321021174E+02  0.43170009280E+03  0.00000000000E+00 0.  1.
</event>
<event>
 5    1  0.7625606E-005  0.8266321E+02  0.7818608E-02  0.1196939E+00
         21   -1    0    0  501  502  0.00000000000E+00  0.00000000000E+00  0.54271753292E+02  0.54271753292E+02  0.00000000000E+00 0.  1.
         -4   -1    0    0    0  501 -0.00000000000E+00 -0.00000000000E+00 -0.42536724814E+03  0.42536724814E+03  0.00000000000E+00 0. -1.
        -13    1    1    2    0    0  0.79237352916E+02  0.28885860524E+02  0.28252439974E+01  0.84385687193E+02  0.10566000000E+00 0.  1.
         13    1    1    2    0    0 -0.71154706439E+02 -0.41992968292E+02 -0.37033879635E+03  0.37944332499E+03  0.10566000000E+00 0. -1.
         -4    1    1    2    0  502 -0.80826464769E+01  0.13107107767E+02 -0.35819424998E+01  0.15809989252E+02  0.00000000000E+00 0. -1.
</event>
<event>
 5    1  0.7625606E-005  0.2622290E+03  0.7818608E-02  0.1024244E+00
         21   -1    0    0  501  502  0.00000000000E+00  0.00000000000E+00  0.65195167495E+02  0.65195167495E+02  0.00000000000E+00 0.  1.
         -4   -1    0    0    0  501 -0.00000000000E+00 -0.00000000000E+00 -0.18783849300E+04  0.18783849300E+04  0.00000000000E+00 0. -1.
        -13    1    1    2    0    0 -0.25813604391E+03  0.34291878160E+02 -0.48686141057E+03  0.55212697302E+03  0.10566000000E+00 0.  1.
         13    1    1    2    0    0  0.26386624793E+03  0.11717067221E+02 -0.13181760291E+04  0.13443774549E+04  0.10566000000E+00 0. -1.
         -4    1    1    2    0  502 -0.57302040255E+01 -0.46008945381E+02 -0.81523228066E+01  0.47075669516E+02  0.00000000000E+00 0. -1.
</event>
<event>
 5    1  0.7625606E-005  0.2137166E+03  0.7818608E-02  0.1051119E+00
         21   -1    0    0  501  502  0.00000000000E+00  0.00000000000E+00  0.67169837957E+03  0.67169837957E+03  0.00000000000E+00 0. -1.
          4   -1    0    0  502    0 -0.00000000000E+00 -0.00000000000E+00 -0.90525159551E+02  0.90525159551E+02  0.00000000000E+00 0.  1.
        -13    1    1    2    0    0  0.72441164085E+02  0.20001307389E+03  0.11977903278E+03  0.24413107103E+03  0.10566000000E+00 0.  1.
         13    1    1    2    0    0 -0.60364179471E+02 -0.20774744029E+03  0.39698638362E+03  0.45210732470E+03  0.10566000000E+00 0. -1.
          4    1    1    2  501    0 -0.12076984615E+02  0.77343663969E+01  0.64407803623E+02  0.65985143393E+02  0.00000000000E+00 0.  1.
</event>
<event>
 5    1  0.7625606E-005  0.4093485E+03  0.7818608E-02  0.1032484E+00
         21   -1    0    0  501  502  0.00000000000E+00  0.00000000000E+00  0.29515057891E+03  0.29515057891E+03  0.00000000000E+00 0. -1.
         -4   -1    0    0    0  501 -0.00000000000E+00 -0.00000000000E+00 -0.96875829987E+03  0.96875829987E+03  0.00000000000E+00 0. -1.
        -13    1    1    2    0    0 -0.44044999226E+02  0.30182575370E+02 -0.43512971707E+02  0.68879167268E+02  0.10566000000E+00 0.  1.
         13    1    1    2    0    0 -0.29408964519E+03 -0.26741995167E+03 -0.67105435987E+03  0.77994622573E+03  0.10566000000E+00 0. -1.
         -4    1    1    2    0  502  0.33813464442E+03  0.23723737630E+03  0.40959610624E+02  0.41508348579E+03  0.00000000000E+00 0. -1.
</event>
<event>
 5    1  0.7625606E-005  0.5146532E+03  0.7818608E-02  0.9480465E-01
         21   -1    0    0  501  502  0.00000000000E+00  0.00000000000E+00  0.11961871659E+04  0.11961871659E+04  0.00000000000E+00 0.  1.
          4   -1    0    0  502    0 -0.00000000000E+00 -0.00000000000E+00 -0.62086529882E+03  0.62086529882E+03  0.00000000000E+00 0.  1.
        -13    1    1    2    0    0 -0.41876580829E+03 -0.22753110559E+03  0.18092559987E+03  0.50977376361E+03  0.10566000000E+00 0.  1.
         13    1    1    2    0    0 -0.17795020501E+03  0.51803406651E+03  0.33240360300E+03  0.64071658008E+03  0.10566000000E+00 0. -1.
          4    1    1    2  501    0  0.59671601330E+03 -0.29050296092E+03  0.61992664245E+02  0.66656212108E+03  0.00000000000E+00 0.  1.
</event>
<event>
 5    1  0.7625606E-005  0.1974176E+02  0.7818608E-02  0.1513479E+00
          4   -1    0    0  502    0 -0.00000000000E+00  0.00000000000E+00  0.10433980547E+03  0.10433980547E+03  0.00000000000E+00 0.  1.
         21   -1    0    0  501  502  0.00000000000E+00 -0.00000000000E+00 -0.85124843795E+01  0.85124843795E+01  0.00000000000E+00 0. -1.
        -13    1    1    2    0    0 -0.17914405005E+01 -0.27348974993E+02  0.30354319949E+02  0.40897085420E+02  0.10566000000E+00 0.  1.
         13    1    1    2    0    0  0.41029806744E+01  0.15856682670E+02  0.25571901261E+02  0.30367781181E+02  0.10566000000E+00 0. -1.
          4    1    1    2  501    0 -0.23115401739E+01  0.11492292323E+02  0.39901099877E+02  0.41587423245E+02  0.00000000000E+00 0.  1.
</event>
<event>
 5    1  0.7625606E-005  0.1474520E+03  0.7818608E-02  0.1103652E+00
         -4   -1    0    0    0  501 -0.00000000000E+00  0.00000000000E+00  0.35030007378E+03  0.35030007378E+03  0.00000000000E+00 0. -1.
         21   -1    0    0  501  502  0.00000000000E+00 -0.00000000000E+00 -0.42815028389E+03  0.42815028389E+03  0.00000000000E+00 0. -1.
        -13    1    1    2    0    0 -0.14285361423E+03  0.71355935690E+02 -0.11206895914E+03  0.19508533369E+03  0.10566000000E+00 0.  1.
         13    1    1    2    0    0  0.12412727538E+03 -0.77135736776E+02  0.29110653226E+03  0.32573075794E+03  0.10566000000E+00 0. -1.
         -4    1    1    2    0  502  0.18726338841E+02  0.57798010860E+01 -0.25688778322E+03  0.25763426604E+03  0.00000000000E+00 0. -1.
</event>
<event>
 5    1  0.7625606E-005  0.1218616E+03  0.7818608E-02  0.1132730E+00
         21   -1    0    0  501  502  0.00000000000E+00  0.00000000000E+00  0.25614258446E+02  0.25614258446E+02  0.00000000000E+00 0.  1.
          4   -1    0    0  502    0 -0.00000000000E+00 -0.00000000000E+00 -0.12037178387E+04  0.12037178387E+04  0.00000000000E+00 0.  1.
        -13    1    1    2    0    0  0.10835510260E+03 -0.83988267611E+02 -0.22630660464E+03  0.26459317418E+03  0.10566000000E+00 0.  1.
         13    1    1    2    0    0 -0.94299912914E+02  0.69134761956E+02 -0.54375544368E+03  0.55618529519E+03  0.10566000000E+00 0. -1.
          4    1    1    2  501    0 -0.14055189686E+02  0.14853505655E+02 -0.40804153197E+03  0.40855362781E+03  0.00000000000E+00 0.  1.
</event>
<event>
 5    1  0.7625606E-005  0.4859273E+03  0.7818608E-02  0.9783007E-01
         -4   -1    0    0    0  501 -0.00000000000E+00  0.00000000000E+00  0.51437471989E+03  0.51437471989E+03  0.00000000000E+00 0. -1.
         21   -1    0    0  501  502  0.00000000000E+00 -0.00000000000E+00 -0.80986585519E+03  0.80986585519E+03  0.00000000000E+00 0. -1.
        -13    1    1    2    0    0 -0.43698468106E+02  0.18004664699E+03  0.15051377537E+03  0.23870642837E+03  0.10566000000E+00 0.  1.
         13    1    1    2    0    0 -0.46349938798E+03 -0.88973501224E+02 -0.17546106437E+03  0.50352215726E+03  0.10566000000E+00 0. -1.
         -4    1    1    2    0  502  0.50719785608E+03 -0.91073145762E+02 -0.27054384631E+03  0.58201198945E+03  0.00000000000E+00 0. -1.
</event>
<event>
 5    1  0.7625606E-005  0.4958581E+03  0.7818608E-02  0.9713765E-01
         21   -1    0    0  501  502  0.00000000000E+00  0.00000000000E+00  0.36227690427E+03  0.36227690427E+03  0.00000000000E+00 0. -1.
         -4   -1    0    0    0  501 -0.00000000000E+00 -0.00000000000E+00 -0.11866739627E+04  0.11866739627E+04  0.00000000000E+00 0. -1.
        -13    1    1    2    0    0  0.15656470075E+03 -0.15654492944E+03 -0.38021502929E+03  0.43997988603E+03  0.10566000000E+00 0.  1.
         13    1    1    2    0    0 -0.37173212264E+03 -0.32143925812E+03 -0.23255586355E+03  0.54368208403E+03  0.10566000000E+00 0. -1.
         -4    1    1    2    0  502  0.21516742189E+03  0.47798418756E+03 -0.21162616558E+03  0.56528889690E+03  0.00000000000E+00 0. -1.
</event>
<event>
 5    1  0.7625606E-005  0.3574967E+03  0.7818608E-02  0.9860531E-01
          4   -1    0    0  502    0 -0.00000000000E+00  0.00000000000E+00  0.11834493958E+04  0.11834493958E+04  0.00000000000E+00 0.  1.
         21   -1    0    0  501  502  0.00000000000E+00 -0.00000000000E+00 -0.50060007029E+03  0.50060007029E+03  0.00000000000E+00 0.  1.
        -13    1    1    2    0    0  0.56098483480E+02 -0.35084103335E+03 -0.18959810507E+03  0.40272065149E+03  0.10566000000E+00 0.  1.
         13    1    1    2    0    0 -0.73165039828E+02  0.35164120311E+03 -0.46546824626E+02  0.36217575405E+03  0.10566000000E+00 0. -1.
          4    1    1    2  501    0  0.17066556348E+02 -0.80016975929E+00  0.91899425524E+03  0.91915306058E+03  0.00000000000E+00 0.  1.
</event>
<event>
 5    1  0.7625606E-005  0.8676792E+02  0.7818608E-02  0.1188525E+00
         21   -1    0    0  501  502  0.00000000000E+00  0.00000000000E+00  0.96903558336E+02  0.96903558336E+02  0.00000000000E+00 0. -1.
          4   -1    0    0  502    0 -0.00000000000E+00 -0.00000000000E+00 -0.35511775865E+03  0.35511775865E+03  0.00000000000E+00 0.  1.
        -13    1    1    2    0    0 -0.83251305102E+02  0.22590058850E+02 -0.30802649361E+03  0.31987719908E+03  0.10566000000E+00 0.  1.
         13    1    1    2    0    0  0.91249165230E+02 -0.11973102646E+02  0.12924496872E+02  0.92934488354E+02  0.10566000000E+00 0. -1.
          4    1    1    2  501    0 -0.79978601274E+01 -0.10616956204E+02  0.36887796418E+02  0.39209629560E+02  0.00000000000E+00 0.  1.
</event>
<event>
 5    1  0.7625606E-005  0.9869255E+02  0.7818608E-02  0.1166737E+00
         21   -1    0    0  501  502  0.00000000000E+00  0.00000000000E+00  0.67664539810E+03  0.67664539810E+03  0.00000000000E+00 0.  1.
         -4   -1    0    0    0  501 -0.00000000000E+00 -0.00000000000E+00 -0.74513789858E+02  0.74513789858E+02  0.00000000000E+00 0. -1.
        -13    1    1    2    0    0  0.11523224463E+03 -0.27847905373E+02  0.20898841156E+03  0.24027097904E+03  0.10566000000E+00 0.  1.
         13    1    1    2    0    0 -0.82247647532E+02  0.49456726041E+02 -0.18180244649E+02  0.97678942126E+02  0.10566000000E+00 0. -1.
         -4    1    1    2    0  502 -0.32984597102E+02 -0.21608820668E+02  0.41132344132E+03  0.41320926679E+03  0.00000000000E+00 0. -1.
</event>
<event>
 5    1  0.7625606E-005  0.4080115E+03  0.7818608E-02  0.1011637E+00
         21   -1    0    0  501  502  0.00000000000E+00  0.00000000000E+00  0.24139448798E+03  0.24139448798E+03  0.00000000000E+00 0. -1.
         -4   -1    0    0    0  501 -0.00000000000E+00 -0.00000000000E+00 -0.12539093332E+04  0.12539093332E+04  0.00000000000E+00 0. -1.
        -13    1    1    2    0    0  0.83710582457E+02  0.61279324132E+02 -0.28200791076E+02  0.10750773443E+03  0.10566000000E+00 0.  1.
         13    1    1    2    0    0  0.12503195172E+03  0.31392538937E+03 -0.88469184895E+03  0.94702788650E+03  0.10566000000E+00 0. -1.
         -4    1    1    2    0  502 -0.20874253417E+03 -0.37520471351E+03 -0.99622205240E+02  0.44076820029E+03  0.00000000000E+00 0. -1.
</event>
<event>
 5    1  0.7625606E-005  0.4588131E+03  0.7818608E-02  0.9573123E-01
         21   -1    0    0  501  502  0.00000000000E+00  0.00000000000E+00  0.68536832494E+03  0.68536832494E+03  0.00000000000E+00 0. -1.
         -4   -1    0    0    0  501 -0.00000000000E+00 -0.00000000000E+00 -0.11573151863E+04  0.11573151863E+04  0.00000000000E+00 0. -1.
        -13    1    1    2    0    0 -0.43046815194E+03  0.15578491713E+03 -0.61354501292E+03  0.76551241942E+03  0.10566000000E+00 0.  1.
         13    1    1    2    0    0  0.54872989045E+03  0.21676136075E+03  0.29208746912E+03  0.65833508259E+03  0.10566000000E+00 0. -1.
         -4    1    1    2    0  502 -0.11826173851E+03 -0.37254627789E+03 -0.15048931760E+03  0.41883600929E+03  0.00000000000E+00 0. -1.
</event>
<event>
 5    1  0.7625606E-005  0.4260450E+03  0.7818608E-02  0.9834696E-01
         21   -1    0    0  501  502  0.00000000000E+00  0.00000000000E+00  0.36067702973E+03  0.36067702973E+03  0.00000000000E+00 0.  1.
          4   -1    0    0  502    0 -0.00000000000E+00 -0.00000000000E+00 -0.14941020952E+04  0.14941020952E+04  0.00000000000E+00 0.  1.
        -13    1    1    2    0    0  0.30034285409E+03 -0.44634976279E+03 -0.41713033542E+03  0.68075815723E+03  0.10566000000E+00 0.  1.
         13    1    1    2    0    0 -0.22357522194E+03  0.56051036439E+02 -0.74046535545E+03  0.77551051079E+03  0.10566000000E+00 0. -1.
          4    1    1    2  501    0 -0.76767632151E+02  0.39029872636E+03  0.24170625396E+02  0.39851045692E+03  0.00000000000E+00 0.  1.
</event>
<event>
 5    1  0.7625606E-005  0.3410990E+02  0.7818608E-02  0.1374654E+00
         -4   -1    0    0    0  501 -0.00000000000E+00  0.00000000000E+00  0.11860833129E+03  0.11860833129E+03  0.00000000000E+00 0. -1.
         21   -1    0    0  501  502  0.00000000000E+00 -0.00000000000E+00 -0.31962979505E+02  0.31962979505E+02  0.00000000000E+00 0. -1.
        -13    1    1    2    0    0  0.22281310337E+02  0.30306116087E+02  0.19473374922E+02  0.42357301112E+02  0.10566000000E+00 0.  1.
         13    1    1    2    0    0 -0.27547857810E+02 -0.19139459998E+02  0.82190492822E+02  0.88772133428E+02  0.10566000000E+00 0. -1.
         -4    1    1    2    0  502  0.52665474729E+01 -0.11166656089E+02 -0.15018515962E+02  0.19441876252E+02  0.00000000000E+00 0. -1.
</event>
<event>
 5    1  0.7625606E-005  0.4929830E+03  0.7818608E-02  0.1008296E+00
          4   -1    0    0  502    0 -0.00000000000E+00  0.00000000000E+00  0.48412357430E+03  0.48412357430E+03  0.00000000000E+00 0.  1.
         21   -1    0    0  501  502  0.00000000000E+00 -0.00000000000E+00 -0.61762540413E+03  0.61762540413E+03  0.00000000000E+00 0.  1.
        -13    1    1    2    0    0  0.27343187481E+03  0.42563511202E+03 -0.20796506125E+03  0.54697323208E+03  0.10566000000E+00 0.  1.
         13    1    1    2    0    0  0.29152868537E+02 -0.58631356740E+02  0.42465682613E+02  0.78044033090E+02  0.10566000000E+00 0. -1.
          4    1    1    2  501    0 -0.30258474335E+03 -0.36700375528E+03  0.31997548807E+02  0.47673171326E+03  0.00000000000E+00 0.  1.
</event>
<event>
 5    1  0.7625606E-005  0.4799127E+03  0.7818608E-02  0.9665127E-01
         21   -1    0    0  501  502  0.00000000000E+00  0.00000000000E+00  0.26276594669E+03  0.26276594669E+03  0.00000000000E+00 0.  1.
          4   -1    0    0  502    0 -0.00000000000E+00 -0.00000000000E+00 -0.17018883225E+04  0.17018883225E+04  0.00000000000E+00 0.  1.
        -13    1    1    2    0    0  0.63450665429E+03 -0.51741090611E+01 -0.64431242060E+03  0.90430303120E+03  0.10566000000E+00 0.  1.
         13    1    1    2    0    0 -0.25566710145E+03  0.13558960667E+03 -0.43111236995E+03  0.51923799446E+03  0.10566000000E+00 0. -1.
          4    1    1    2  501    0 -0.37883955284E+03 -0.13041549761E+03 -0.36369758530E+03  0.54111324357E+03  0.00000000000E+00 0.  1.
</event>
<event>
 5    1  0.7625606E-005  0.1133412E+03  0.7818608E-02  0.1189741E+00
          4   -1    0    0  502    0 -0.00000000000E+00  0.00000000000E+00  0.51502941775E+03  0.51502941775E+03  0.00000000000E+00 0.  1.
         21   -1    0    0  501  502  0.00000000000E+00 -0.00000000000E+00 -0.10592799405E+03  0.10592799405E+03  0.00000000000E+00 0.  1.
        -13    1    1    2    0    0 -0.11598947044E+02  0.90909451463E+02  0.44368166660E+03  0.45304800670E+03  0.10566000000E+00 0.  1.
         13    1    1    2    0    0 -0.34839487563E+02  0.14785667180E+02  0.16967905259E+02  0.41476822691E+02  0.10566000000E+00 0. -1.
          4    1    1    2  501    0  0.46438434607E+02 -0.10569511864E+03 -0.51548148164E+02  0.12643258240E+03  0.00000000000E+00 0.  1.
</event>
<event>
 5    1  0.7625606E-005  0.4916468E+03  0.7818608E-02  0.9753444E-01
         21   -1    0    0  501  502  0.00000000000E+00  0.00000000000E+00  0.30640743335E+03  0.30640743335E+03  0.00000000000E+00 0. -1.
         -4   -1    0    0    0  501 -0.00000000000E+00 -0.00000000000E+00 -0.16372460082E+04  0.16372460082E+04  0.00000000000E+00 0. -1.
        -13    1    1    2    0    0  0.10946933750E+03 -0.16499409933E+03 -0.75408296432E+03  0.77964589200E+03  0.10566000000E+00 0.  1.
         13    1    1    2    0    0 -0.53897278825E+03  0.52501602996E+02 -0.18606872315E+03  0.57259904444E+03  0.10566000000E+00 0. -1.
         -4    1    1    2    0  502  0.42950345075E+03  0.11249249633E+03 -0.39068688733E+03  0.59140850508E+03  0.00000000000E+00 0. -1.
</event>
<event>
 5    1  0.7625606E-005  0.1632306E+03  0.7818608E-02  0.1088749E+00
          4   -1    0    0  502    0 -0.00000000000E+00  0.00000000000E+00  0.78008185659E+03  0.78008185659E+03  0.00000000000E+00 0.  1.
         21   -1    0    0  501  502  0.00000000000E+00 -0.00000000000E+00 -0.80709739546E+02  0.80709739546E+02  0.00000000000E+00 0.  1.
        -13    1    1    2    0    0  0.96246920080E+02 -0.14972069905E+03  0.33592604858E+03  0.38016585674E+03  0.10566000000E+00 0.  1.
         13    1    1    2    0    0 -0.83205736533E+02  0.12935874462E+03  0.40462512307E+03  0.43287224534E+03  0.10566000000E+00 0. -1.
          4    1    1    2  501    0 -0.13041183547E+02  0.20361954432E+02 -0.41179054608E+02  0.47753494061E+02  0.00000000000E+00 0.  1.
</event>
<event>
 5    1  0.7625606E-005  0.3198059E+03  0.7818608E-02  0.1028502E+00
         21   -1    0    0  501  502  0.00000000000E+00  0.00000000000E+00  0.19130455517E+03  0.19130455517E+03  0.00000000000E+00 0.  1.
          4   -1    0    0  502    0 -0.00000000000E+00 -0.00000000000E+00 -0.19810748003E+04  0.19810748003E+04  0.00000000000E+00 0.  1.
        -13    1    1    2    0    0  0.40725012030E+03 -0.78891134823E+02 -0.12512604339E+04  0.13182295537E+04  0.10566000000E+00 0.  1.
         13    1    1    2    0    0 -0.12101679424E+03 -0.37251914598E+02 -0.53023057526E+03  0.54513965526E+03  0.10566000000E+00 0. -1.
          4    1    1    2  501    0 -0.28623332607E+03  0.11614304942E+03 -0.82792359298E+01  0.30901014648E+03  0.00000000000E+00 0.  1.
</event>
<event>
 5    1  0.7625606E-005  0.4852367E+02  0.7818608E-02  0.1297919E+00
         -4   -1    0    0    0  501 -0.00000000000E+00  0.00000000000E+00  0.12241275147E+03  0.12241275147E+03  0.00000000000E+00 0. -1.
         21   -1    0    0  501  502  0.00000000000E+00 -0.00000000000E+00 -0.61263543861E+02  0.61263543861E+02  0.00000000000E+00 0. -1.
        -13    1    1    2    0    0 -0.19900046433E+02 -0.34864612541E+02  0.11188877871E+02  0.41674395109E+02  0.10566000000E+00 0.  1.
         13    1    1    2    0    0  0.41469950579E+02  0.34222048171E+02  0.85160492026E+02  0.10071358373E+03  0.10566000000E+00 0. -1.
         -4    1    1    2    0  502 -0.21569904145E+02  0.64256436956E+00 -0.35200162286E+02  0.41288316492E+02  0.00000000000E+00 0. -1.
</event>
<event>
 5    1  0.7625606E-005  0.4786986E+03  0.7818608E-02  0.9707806E-01
          4   -1    0    0  502    0 -0.00000000000E+00  0.00000000000E+00  0.17725736781E+04  0.17725736781E+04  0.00000000000E+00 0.  1.
         21   -1    0    0  501  502  0.00000000000E+00 -0.00000000000E+00 -0.23797247963E+03  0.23797247963E+03  0.00000000000E+00 0. -1.
        -13    1    1    2    0    0 -0.47185489016E+02  0.30863671215E+03  0.95495769542E+03  0.10047025936E+04  0.10566000000E+00 0.  1.
         13    1    1    2    0    0 -0.12390755189E+02  0.25091839500E+03  0.24621064306E+03  0.35175739322E+03  0.10566000000E+00 0. -1.
          4    1    1    2  501    0  0.59576244205E+02 -0.55955510715E+03  0.33343286000E+03  0.65408617088E+03  0.00000000000E+00 0.  1.
</event>
<event>
 5    1  0.7625606E-005  0.3591159E+03  0.7818608E-02  0.9855174E-01
         21   -1    0    0  501  502  0.00000000000E+00  0.00000000000E+00  0.15207658155E+04  0.15207658155E+04  0.00000000000E+00 0.  1.
          4   -1    0    0  502    0 -0.00000000000E+00 -0.00000000000E+00 -0.22551516249E+03  0.22551516249E+03  0.00000000000E+00 0.  1.
        -13    1    1    2    0    0 -0.16992516543E+03 -0.31390818999E+03  0.29294658807E+02  0.35814955226E+03  0.10566000000E+00 0.  1.
         13    1    1    2    0    0  0.18424824158E+03  0.31551502040E+03  0.48590875459E+03  0.60795104373E+03  0.10566000000E+00 0. -1.
          4    1    1    2  501    0 -0.14323076153E+02 -0.16068304173E+01  0.78004723962E+03  0.78018038199E+03  0.00000000000E+00 0.  1.
</event>
<event>
 5    1  0.7625606E-005  0.4640279E+03  0.7818608E-02  0.9674389E-01
         21   -1    0    0  501  502  0.00000000000E+00  0.00000000000E+00  0.14959000616E+03  0.14959000616E+03  0.00000000000E+00 0. -1.
         -4   -1    0    0    0  501 -0.00000000000E+00 -0.00000000000E+00 -0.33065539824E+04  0.33065539824E+04  0.00000000000E+00 0. -1.
        -13    1    1    2    0    0 -0.30878472144E+03  0.26507576303E+02 -0.11863028815E+04  0.12261179362E+04  0.10566000000E+00 0.  1.
         13    1    1    2    0    0  0.43764129927E+03 -0.32467574816E+03 -0.55584130554E+03  0.77839823765E+03  0.10566000000E+00 0. -1.
         -4    1    1    2    0  502 -0.12885657783E+03  0.29816817185E+03 -0.14148197892E+04  0.14516278147E+04  0.00000000000E+00 0. -1.
</event>
<event>
 5    1  0.7625606E-005  0.2266230E+03  0.7818608E-02  0.1086702E+00
         -4   -1    0    0    0  501 -0.00000000000E+00  0.00000000000E+00  0.14442413852E+04  0.14442413852E+04  0.00000000000E+00 0. -1.
         21   -1    0    0  501  502  0.00000000000E+00 -0.00000000000E+00 -0.80111043463E+02  0.80111043463E+02  0.00000000000E+00 0. -1.
        -13    1    1    2    0    0 -0.47082962495E+02  0.44164635276E+02  0.31809794808E+02  0.71966621264E+02  0.10566000000E+00 0.  1.
         13    1    1    2    0    0  0.26330911678E+03 -0.11180463437E+02  0.11086469210E+04  0.11395414431E+04  0.10566000000E+00 0. -1.
         -4    1    1    2    0  502 -0.21622615428E+03 -0.32984171839E+02  0.22367362590E+03  0.31284436436E+03  0.00000000000E+00 0. -1.
</event>
<event>
 5    1  0.7625606E-005  0.2080684E+03  0.7818608E-02  0.1054741E+00
         -4   -1    0    0    0  501 -0.00000000000E+00  0.00000000000E+00  0.21404411962E+03  0.21404411962E+03  0.00000000000E+00 0. -1.
         21   -1    0    0  501  502  0.00000000000E+00 -0.00000000000E+00 -0.51542185097E+03  0.51542185097E+03  0.00000000000E+00 0. -1.
        -13    1    1    2    0    0  0.58995641894E+02  0.18896512569E+03 -0.23928820859E+03  0.31055943461E+03  0.10566000000E+00 0.  1.
         13    1    1    2    0    0  0.68300454954E+01 -0.21254755512E+03  0.10544629919E+03  0.23736479496E+03  0.10566000000E+00 0. -1.
         -4    1    1    2    0  502 -0.65825687389E+02  0.23582429439E+02 -0.16753582195E+03  0.18154174102E+03  0.00000000000E+00 0. -1.
</event>
<event>
 5    1  0.7625606E-005  0.4795893E+03  0.7818608E-02  0.9713360E-01
         21   -1    0    0  501  502  0.00000000000E+00  0.00000000000E+00  0.42497422790E+03  0.42497422790E+03  0.00000000000E+00 0.  1.
          4   -1    0    0  502    0 -0.00000000000E+00 -0.00000000000E+00 -0.10145112958E+04  0.10145112958E+04  0.00000000000E+00 0.  1.
        -13    1    1    2    0    0  0.30064283659E+03  0.16708888202E+03 -0.53190325480E+03  0.63342394439E+03  0.10566000000E+00 0.  1.
         13    1    1    2    0    0  0.24190546480E+03 -0.39139328844E+02  0.51516112723E+01  0.24510546960E+03  0.10566000000E+00 0. -1.
          4    1    1    2  501    0 -0.54254830139E+03 -0.12794955318E+03 -0.62785424368E+02  0.56095610971E+03  0.00000000000E+00 0.  1.
</event>
<event>
 5    1  0.7625606E-005  0.3782139E+03  0.7818608E-02  0.9841115E-01
          4   -1    0    0  502    0 -0.00000000000E+00  0.00000000000E+00  0.10787497848E+04  0.10787497848E+04  0.00000000000E+00 0.  1.
         21   -1    0    0  501  502  0.00000000000E+00 -0.00000000000E+00 -0.45781606930E+03  0.45781606930E+03  0.00000000000E+00 0. -1.
        -13    1    1    2    0    0  0.14873262606E+03 -0.56351590568E+03  0.40018086834E+03  0.70697687979E+03  0.10566000000E+00 0.  1.
         13    1    1    2    0    0  0.84650016183E+02  0.31106895630E+03  0.33728984396E+03  0.46657686486E+03  0.10566000000E+00 0. -1.
          4    1    1    2  501    0 -0.23338264224E+03  0.25244694937E+03 -0.11653699684E+03  0.36301210941E+03  0.00000000000E+00 0.  1.
</event>
<event>
 5    1  0.7625606E-005  0.4663952E+03  0.7818608E-02  0.9818827E-01
         -4   -1    0    0    0  501 -0.00000000000E+00  0.00000000000E+00  0.18157411335E+04  0.18157411335E+04  0.00000000000E+00 0. -1.
         21   -1    0    0  501  502  0.00000000000E+00 -0.00000000000E+00 -0.20384577140E+03  0.20384577140E+03  0.00000000000E+00 0. -1.
        -13    1    1    2    0    0  0.26581711520E+02  0.18350868781E+03  0.38014000105E+03  0.42295207465E+03  0.10566000000E+00 0.  1.
         13    1    1    2    0    0  0.38889597300E+03 -0.35243216845E+03  0.88818428482E+03  0.10316587838E+04  0.10566000000E+00 0. -1.
         -4    1    1    2    0  502 -0.41547768452E+03  0.16892348064E+03  0.34357107618E+03  0.56497604643E+03  0.00000000000E+00 0. -1.
</event>
<event>
 5    1  0.7625606E-005  0.4970759E+03  0.7818608E-02  0.9628658E-01
         -4   -1    0    0    0  501 -0.00000000000E+00  0.00000000000E+00  0.33113158854E+04  0.33113158854E+04  0.00000000000E+00 0. -1.
         21   -1    0    0  501  502  0.00000000000E+00 -0.00000000000E+00 -0.13852850667E+03  0.13852850667E+03  0.00000000000E+00 0. -1.
        -13    1    1    2    0    0  0.25834315491E+03  0.14476230828E+03  0.97560841631E+03  0.10195631931E+04  0.10566000000E+00 0.  1.
         13    1    1    2    0    0  0.56966720306E+02  0.38204776321E+03  0.11858694034E+04  0.12471936312E+04  0.10566000000E+00 0. -1.
         -4    1    1    2    0  502 -0.31530987521E+03 -0.52681007149E+03  0.10113095590E+04  0.11830875677E+04  0.00000000000E+00 0. -1.
</event>
<event>
 5    1  0.7625606E-005  0.2025413E+03  0.7818608E-02  0.1058408E+00
         21   -1    0    0  501  502  0.00000000000E+00  0.00000000000E+00  0.20371941342E+03  0.20371941342E+03  0.00000000000E+00 0. -1.
         -4   -1    0    0    0  501 -0.00000000000E+00 -0.00000000000E+00 -0.16573604271E+04  0.16573604271E+04  0.00000000000E+00 0. -1.
        -13    1    1    2    0    0  0.12033953068E+03  0.87627469966E+02 -0.25659318509E+03  0.29664836075E+03  0.10566000000E+00 0.  1.
         13    1    1    2    0    0 -0.24042979606E+03 -0.14556225484E+02 -0.13414505572E+04  0.13629042443E+04  0.10566000000E+00 0. -1.
         -4    1    1    2    0  502  0.12009026539E+03 -0.73071244481E+02  0.14440272860E+03  0.20152723548E+03  0.00000000000E+00 0. -1.
</event>
<event>
 5    1  0.8515691E-005  0.3961162E+03  0.7818608E-02  0.9752670E-01
         -4   -1    0    0    0  501 -0.00000000000E+00  0.00000000000E+00  0.14055969767E+04  0.14055969767E+04  0.00000000000E+00 0. -1.
         21   -1    0    0  501  502  0.00000000000E+00 -0.00000000000E+00 -0.44010390146E+03  0.44010390146E+03  0.00000000000E+00 0. -1.
        -13    1    1    2    0    0  0.27289594386E+03  0.29876674096E+03  0.56568266002E+03  0.69550747278E+03  0.10566000000E+00 0.  1.
         13    1    1    2    0    0 -0.54121418724E+02  0.10564250451E+03  0.62643707974E+03  0.63758363590E+03  0.10566000000E+00 0. -1.
         -4    1    1    2    0  502 -0.21877452514E+03 -0.40440924547E+03 -0.22662666455E+03  0.51260976947E+03  0.00000000000E+00 0. -1.
</event>
<event>
 5    1  0.7625606E-005  0.3014187E+03  0.7818608E-02  0.1006722E+00
         21   -1    0    0  501  502  0.00000000000E+00  0.00000000000E+00  0.49605228399E+03  0.49605228399E+03  0.00000000000E+00 0.  1.
         -4   -1    0    0    0  501 -0.00000000000E+00 -0.00000000000E+00 -0.22522765656E+03  0.22522765656E+03  0.00000000000E+00 0. -1.
        -13    1    1    2    0    0  0.45220973732E+02 -0.28718478297E+03  0.10580372167E+03  0.30937756014E+03  0.10566000000E+00 0.  1.
         13    1    1    2    0    0  0.37008865934E+01  0.31509588476E+03  0.11166169072E+03  0.33431640326E+03  0.10566000000E+00 0. -1.
         -4    1    1    2    0  502 -0.48921860325E+02 -0.27911101790E+02  0.53359215036E+02  0.77585977148E+02  0.00000000000E+00 0. -1.
</event>
<event>
 5    1  0.7625606E-005  0.3440885E+03  0.7818608E-02  0.9969511E-01
          4   -1    0    0  502    0 -0.00000000000E+00  0.00000000000E+00  0.13648327552E+04  0.13648327552E+04  0.00000000000E+00 0.  1.
         21   -1    0    0  501  502  0.00000000000E+00 -0.00000000000E+00 -0.33608104941E+03  0.33608104941E+03  0.00000000000E+00 0.  1.
        -13    1    1    2    0    0  0.11172323931E+03 -0.14289039207E+03  0.95581434954E+03  0.97287246250E+03  0.10566000000E+00 0.  1.
         13    1    1    2    0    0  0.26048775961E+03  0.99253692550E+02  0.18775026261E+03  0.33608829296E+03  0.10566000000E+00 0. -1.
          4    1    1    2  501    0 -0.37221099891E+03  0.43636699517E+02 -0.11481290637E+03  0.39195304913E+03  0.00000000000E+00 0.  1.
</event>
<event>
 5    1  0.7625606E-005  0.4626165E+03  0.7818608E-02  0.9711471E-01
         21   -1    0    0  501  502  0.00000000000E+00  0.00000000000E+00  0.36140703825E+03  0.36140703825E+03  0.00000000000E+00 0. -1.
         -4   -1    0    0    0  501 -0.00000000000E+00 -0.00000000000E+00 -0.12536293056E+04  0.12536293056E+04  0.00000000000E+00 0. -1.
        -13    1    1    2    0    0  0.14086177441E+03 -0.23597746154E+03 -0.36808649831E+03  0.45936378095E+03  0.10566000000E+00 0.  1.
         13    1    1    2    0    0  0.34078450162E+03  0.81358589473E+01 -0.52128507779E+03  0.62284702153E+03  0.10566000000E+00 0. -1.
         -4    1    1    2    0  502 -0.48164627603E+03  0.22784160260E+03 -0.28506912375E+01  0.53282554136E+03  0.00000000000E+00 0. -1.
</event>
<event>
 5    1  0.7625606E-005  0.2918377E+03  0.7818608E-02  0.1010733E+00
         21   -1    0    0  501  502  0.00000000000E+00  0.00000000000E+00  0.15327424438E+03  0.15327424438E+03  0.00000000000E+00 0.  1.
         -4   -1    0    0    0  501 -0.00000000000E+00 -0.00000000000E+00 -0.99531503344E+03  0.99531503344E+03  0.00000000000E+00 0. -1.
        -13    1    1    2    0    0 -0.22826609336E+03 -0.12711709031E+03 -0.11762663326E+03  0.28653132471E+03  0.10566000000E+00 0.  1.
         13    1    1    2    0    0  0.27504968795E+03  0.12635221773E+03 -0.74996755170E+03  0.80874504853E+03  0.10566000000E+00 0. -1.
         -4    1    1    2    0  502 -0.46783594592E+02  0.76487257230E+00  0.25553395890E+02  0.53312904577E+02  0.00000000000E+00 0. -1.
</event>
<event>
 5    1  0.7625606E-005  0.3222094E+03  0.7818608E-02  0.9985374E-01
         21   -1    0    0  501  502  0.00000000000E+00  0.00000000000E+00  0.65798297652E+02  0.65798297652E+02  0.00000000000E+00 0. -1.
          4   -1    0    0  502    0 -0.00000000000E+00 -0.00000000000E+00 -0.21961500768E+04  0.21961500768E+04  0.00000000000E+00 0.  1.
        -13    1    1    2    0    0 -0.23656714968E+03 -0.22522480379E+03 -0.16282714165E+04  0.16607101028E+04  0.10566000000E+00 0.  1.
         13    1    1    2    0    0  0.22110381119E+03  0.21728767874E+03 -0.49084233373E+03  0.58054029869E+03  0.10566000000E+00 0. -1.
          4    1    1    2  501    0  0.15463338487E+02  0.79371250446E+01 -0.11238028913E+02  0.20697972968E+02  0.00000000000E+00 0.  1.
</event>
<event>
 5    1  0.7625606E-005  0.3376320E+03  0.7818608E-02  0.1001287E+00
         -4   -1    0    0    0  501 -0.00000000000E+00  0.00000000000E+00  0.17067371590E+04  0.17067371590E+04  0.00000000000E+00 0. -1.
         21   -1    0    0  501  502  0.00000000000E+00 -0.00000000000E+00 -0.28923064935E+03  0.28923064935E+03  0.00000000000E+00 0. -1.
        -13    1    1    2    0    0 -0.13796687837E+03  0.21552964125E+03  0.80783475570E+03  0.84739889631E+03  0.10566000000E+00 0.  1.
         13    1    1    2    0    0  0.68218870473E+02  0.15143851664E+03  0.73579849226E+03  0.75431218404E+03  0.10566000000E+00 0. -1.
         -4    1    1    2    0  502  0.69748007898E+02 -0.36696815788E+03 -0.12612673827E+03  0.39425672805E+03  0.00000000000E+00 0. -1.
</event>
<event>
 5    1  0.7625606E-005  0.4874625E+03  0.7818608E-02  0.9777688E-01
          4   -1    0    0  502    0 -0.00000000000E+00  0.00000000000E+00  0.15602699202E+04  0.15602699202E+04  0.00000000000E+00 0.  1.
         21   -1    0    0  501  502  0.00000000000E+00 -0.00000000000E+00 -0.27280130219E+03  0.27280130219E+03  0.00000000000E+00 0.  1.
        -13    1    1    2    0    0  0.41031403853E+03  0.26357609078E+03  0.48536966127E+03  0.68805064137E+03  0.10566000000E+00 0.  1.
         13    1    1    2    0    0  0.82169416257E+02 -0.16787366339E+03  0.55529134506E+03  0.58590261042E+03  0.10566000000E+00 0. -1.
          4    1    1    2  501    0 -0.49248345479E+03 -0.95702427393E+02  0.24680761165E+03  0.55911797057E+03  0.00000000000E+00 0.  1.
</event>
<event>
 5    1  0.7625606E-005  0.4710839E+03  0.7818608E-02  0.1005955E+00
         21   -1    0    0  501  502  0.00000000000E+00  0.00000000000E+00  0.17104808403E+03  0.17104808403E+03  0.00000000000E+00 0. -1.
         -4   -1    0    0    0  501 -0.00000000000E+00 -0.00000000000E+00 -0.17475427604E+04  0.17475427604E+04  0.00000000000E+00 0. -1.
        -13    1    1    2    0    0  0.44935508352E+02 -0.67321596306E+02 -0.29343540279E+03  0.30439406041E+03  0.10566000000E+00 0.  1.
         13    1    1    2    0    0 -0.49134830988E+03  0.12933233142E+03 -0.84309274210E+03  0.98435532025E+03  0.10566000000E+00 0. -1.
         -4    1    1    2    0  502  0.44641280152E+03 -0.62010735113E+02 -0.43996653145E+03  0.62984146373E+03  0.00000000000E+00 0. -1.
</event>
<event>
 5    1  0.7625606E-005  0.4416565E+03  0.7818608E-02  0.9615926E-01
         -4   -1    0    0    0  501 -0.00000000000E+00  0.00000000000E+00  0.19407714111E+04  0.19407714111E+04  0.00000000000E+00 0. -1.
         21   -1    0    0  501  502  0.00000000000E+00 -0.00000000000E+00 -0.19095022835E+03  0.19095022835E+03  0.00000000000E+00 0.  1.
        -13    1    1    2    0    0  0.43156759809E+03  0.67910937055E+02  0.49960240410E+03  0.66367541798E+03  0.10566000000E+00 0.  1.
         13    1    1    2    0    0 -0.43520533277E+03 -0.87368652667E+02  0.13215046956E+04  0.13940629952E+04  0.10566000000E+00 0. -1.
         -4    1    1    2    0  502  0.36377346788E+01  0.19457715612E+02 -0.71285916923E+02  0.73983226221E+02  0.00000000000E+00 0. -1.
</event>
<event>
 5    1  0.7625606E-005  0.2007559E+03  0.7818608E-02  0.1059619E+00
         -4   -1    0    0    0  501 -0.00000000000E+00  0.00000000000E+00  0.56698680239E+03  0.56698680239E+03  0.00000000000E+00 0. -1.
         21   -1    0    0  501  502  0.00000000000E+00 -0.00000000000E+00 -0.10296524552E+03  0.10296524552E+03  0.00000000000E+00 0. -1.
        -13    1    1    2    0    0  0.14606525538E+03  0.11357154458E+03  0.19082322171E+03  0.26579516112E+03  0.10566000000E+00 0.  1.
         13    1    1    2    0    0 -0.13694818320E+03 -0.17296414864E+03  0.26288355055E+03  0.34318970543E+03  0.10566000000E+00 0. -1.
         -4    1    1    2    0  502 -0.91170721779E+01  0.59392604056E+02  0.10314784607E+02  0.60967181362E+02  0.00000000000E+00 0. -1.
</event>
<event>
 5    1  0.1421916E-004  0.2389329E+03  0.7818608E-02  0.1040270E+00
         -4   -1    0    0    0  501 -0.00000000000E+00  0.00000000000E+00  0.10943217673E+04  0.10943217673E+04  0.00000000000E+00 0. -1.
         21   -1    0    0  501  502  0.00000000000E+00 -0.00000000000E+00 -0.42857496687E+03  0.42857496687E+03  0.00000000000E+00 0. -1.
        -13    1    1    2    0    0 -0.15074466616E+03 -0.14867714429E+03  0.43118194937E+03  0.48036104363E+03  0.10566000000E+00 0.  1.
         13    1    1    2    0    0  0.12476442903E+03 -0.98836461976E+02  0.58862067016E+03  0.60976152181E+03  0.10566000000E+00 0. -1.
         -4    1    1    2    0  502  0.25980237129E+02  0.24751360627E+03 -0.35405581915E+03  0.43277416869E+03  0.00000000000E+00 0. -1.
</event>
<event>
 5    1  0.7625606E-005  0.4016395E+03  0.7818608E-02  0.9878758E-01
          4   -1    0    0  502    0 -0.00000000000E+00  0.00000000000E+00  0.69380112506E+03  0.69380112506E+03  0.00000000000E+00 0.  1.
         21   -1    0    0  501  502  0.00000000000E+00 -0.00000000000E+00 -0.60292961233E+03  0.60292961233E+03  0.00000000000E+00 0.  1.
        -13    1    1    2    0    0  0.57665556535E+03  0.23456968350E+01  0.31879871787E+03  0.65891560690E+03  0.10566000000E+00 0.  1.
         13    1    1    2    0    0 -0.22646645074E+03  0.70211695070E+02 -0.10877190044E+03  0.26086025555E+03  0.10566000000E+00 0. -1.
          4    1    1    2  501    0 -0.35018911461E+03 -0.72557391905E+02 -0.11915530469E+03  0.37695487495E+03  0.00000000000E+00 0.  1.
</event>
<event>
 5    1  0.7625606E-005  0.3719788E+03  0.7818608E-02  0.9985153E-01
         21   -1    0    0  501  502  0.00000000000E+00  0.00000000000E+00  0.11574304409E+04  0.11574304409E+04  0.00000000000E+00 0. -1.
         -4   -1    0    0    0  501 -0.00000000000E+00 -0.00000000000E+00 -0.32965415635E+03  0.32965415635E+03  0.00000000000E+00 0. -1.
        -13    1    1    2    0    0 -0.11032229580E+03 -0.17817227461E+03  0.12336190903E+03  0.24317594485E+03  0.10566000000E+00 0.  1.
         13    1    1    2    0    0 -0.20932091533E+03  0.36673873733E+03 -0.27622242605E+02  0.42317318737E+03  0.10566000000E+00 0. -1.
         -4    1    1    2    0  502  0.31964321113E+03 -0.18856646272E+03  0.73203661816E+03  0.82073546506E+03  0.00000000000E+00 0. -1.
</event>
<event>
 5    1  0.7625606E-005  0.7918956E+02  0.7818608E-02  0.1204490E+00
         21   -1    0    0  501  502  0.00000000000E+00  0.00000000000E+00  0.84480536495E+03  0.84480536495E+03  0.00000000000E+00 0.  1.
         -4   -1    0    0    0  501 -0.00000000000E+00 -0.00000000000E+00 -0.14771318438E+03  0.14771318438E+03  0.00000000000E+00 0. -1.
        -13    1    1    2    0    0 -0.39224617967E+02  0.51002641300E+02  0.31071064661E+03  0.31730262709E+03  0.10566000000E+00 0.  1.
         13    1    1    2    0    0  0.60369245877E+02 -0.52120859250E+02 -0.13317350959E+03  0.15522958686E+03  0.10566000000E+00 0. -1.
         -4    1    1    2    0  502 -0.21144627910E+02  0.11182179496E+01  0.51955504354E+03  0.51998633537E+03  0.00000000000E+00 0. -1.
</event>
<event>
 5    1  0.7625606E-005  0.5993119E+03  0.7818608E-02  0.9283433E-01
          4   -1    0    0  502    0 -0.00000000000E+00  0.00000000000E+00  0.21911679936E+04  0.21911679936E+04  0.00000000000E+00 0.  1.
         21   -1    0    0  501  502  0.00000000000E+00 -0.00000000000E+00 -0.34645212399E+03  0.34645212399E+03  0.00000000000E+00 0. -1.
        -13    1    1    2    0    0 -0.57815993113E+03 -0.26915307385E+03  0.22825721026E+03  0.67735784363E+03  0.10566000000E+00 0.  1.
         13    1    1    2    0    0  0.58751547339E+03  0.65367679462E+02  0.67634866011E+03  0.89827328035E+03  0.10566000000E+00 0. -1.
          4    1    1    2  501    0 -0.93555422648E+01  0.20378539439E+03  0.94010999928E+03  0.96198899364E+03  0.00000000000E+00 0.  1.
</event>
<event>
 5    1  0.7625606E-005  0.9826891E+02  0.7818608E-02  0.1167452E+00
         21   -1    0    0  501  502  0.00000000000E+00  0.00000000000E+00  0.43276578079E+02  0.43276578079E+02  0.00000000000E+00 0. -1.
          4   -1    0    0  502    0 -0.00000000000E+00 -0.00000000000E+00 -0.43676056950E+03  0.43676056950E+03  0.00000000000E+00 0.  1.
        -13    1    1    2    0    0  0.60211673719E+02  0.75944064625E+02 -0.33031578257E+03  0.34424043048E+03  0.10566000000E+00 0.  1.
         13    1    1    2    0    0 -0.71854484370E+02 -0.75384768122E+02 -0.66633335225E+02  0.12363633251E+03  0.10566000000E+00 0. -1.
          4    1    1    2  501    0  0.11642810651E+02 -0.55929650255E+00  0.34651263724E+01  0.12160384584E+02  0.00000000000E+00 0.  1.
</event>
<event>
 5    1  0.7625606E-005  0.4106626E+03  0.7818608E-02  0.1020516E+00
         21   -1    0    0  501  502  0.00000000000E+00  0.00000000000E+00  0.22133851298E+03  0.22133851298E+03  0.00000000000E+00 0. -1.
         -4   -1    0    0    0  501 -0.00000000000E+00 -0.00000000000E+00 -0.15586409430E+04  0.15586409430E+04  0.00000000000E+00 0. -1.
        -13    1    1    2    0    0 -0.26009326681E+02  0.72202071013E+02 -0.34867820750E+03  0.35702398755E+03  0.10566000000E+00 0.  1.
         13    1    1    2    0    0 -0.26216788780E+03 -0.35521394408E+03 -0.91003800132E+03  0.10114732436E+04  0.10566000000E+00 0. -1.
         -4    1    1    2    0  502  0.28817721448E+03  0.28301187306E+03 -0.78586221244E+02  0.41148222490E+03  0.00000000000E+00 0. -1.
</event>
<event>
 5    1  0.7625606E-005  0.1268202E+03  0.7818608E-02  0.1126521E+00
          4   -1    0    0  502    0 -0.00000000000E+00  0.00000000000E+00  0.97367176058E+03  0.97367176058E+03  0.00000000000E+00 0.  1.
         21   -1    0    0  501  502  0.00000000000E+00 -0.00000000000E+00 -0.69229147061E+02  0.69229147061E+02  0.00000000000E+00 0. -1.
        -13    1    1    2    0    0  0.36526661464E+02 -0.11567090038E+03  0.64735572911E+03  0.65862235413E+03  0.10566000000E+00 0.  1.
         13    1    1    2    0    0  0.40339944449E+02  0.17880953790E+03  0.19172912449E+03  0.26525502880E+03  0.10566000000E+00 0. -1.
          4    1    1    2  501    0 -0.76866605913E+02 -0.63138637517E+02  0.65357759913E+02  0.11902352470E+03  0.00000000000E+00 0.  1.
</event>
<event>
 5    1  0.7625606E-005  0.5014570E+03  0.7818608E-02  0.1008389E+00
         21   -1    0    0  501  502  0.00000000000E+00  0.00000000000E+00  0.71557561562E+03  0.71557561562E+03  0.00000000000E+00 0.  1.
          4   -1    0    0  502    0 -0.00000000000E+00 -0.00000000000E+00 -0.39921600131E+03  0.39921600131E+03  0.00000000000E+00 0.  1.
        -13    1    1    2    0    0 -0.48738619737E+03 -0.13675310766E+02  0.16127086677E+03  0.51355683536E+03  0.10566000000E+00 0.  1.
         13    1    1    2    0    0 -0.26357349373E+02 -0.56152280087E+02  0.98419759872E+01  0.62806560806E+02  0.10566000000E+00 0. -1.
          4    1    1    2  501    0  0.51374354674E+03  0.69827590853E+02  0.14524677155E+03  0.53842822076E+03  0.00000000000E+00 0.  1.
</event>
<event>
 5    1  0.7625606E-005  0.5003073E+03  0.7818608E-02  0.9494309E-01
          4   -1    0    0  502    0 -0.00000000000E+00  0.00000000000E+00  0.95904287389E+03  0.95904287389E+03  0.00000000000E+00 0.  1.
         21   -1    0    0  501  502  0.00000000000E+00 -0.00000000000E+00 -0.65748117290E+03  0.65748117290E+03  0.00000000000E+00 0.  1.
        -13    1    1    2    0    0 -0.32633930251E+03  0.19455510991E+02  0.21610256503E+03  0.39188797768E+03  0.10566000000E+00 0.  1.
         13    1    1    2    0    0 -0.25395633729E+03  0.39576272384E+03  0.18272523731E+03  0.50449031541E+03  0.10566000000E+00 0. -1.
          4    1    1    2  501    0  0.58029563980E+03 -0.41521823483E+03 -0.97266101346E+02  0.72014575370E+03  0.00000000000E+00 0.  1.
</event>
<event>
 5    1  0.7625606E-005  0.2422819E+03  0.7818608E-02  0.1034472E+00
          4   -1    0    0  502    0 -0.00000000000E+00  0.00000000000E+00  0.26068345917E+03  0.26068345917E+03  0.00000000000E+00 0.  1.
         21   -1    0    0  501  502  0.00000000000E+00 -0.00000000000E+00 -0.45471236824E+03  0.45471236824E+03  0.00000000000E+00 0. -1.
        -13    1    1    2    0    0 -0.28390109011E+02 -0.24276918794E+03  0.12748569831E+03  0.27567279760E+03  0.10566000000E+00 0.  1.
         13    1    1    2    0    0 -0.11259402322E+02  0.23721222384E+03 -0.19580641590E+03  0.30779307489E+03  0.10566000000E+00 0. -1.
          4    1    1    2  501    0  0.39649511332E+02  0.55569640965E+01 -0.12570819148E+03  0.13192995491E+03  0.00000000000E+00 0.  1.
</event>
<event>
 5    1  0.7625606E-005  0.6070102E+03  0.7818608E-02  0.9681131E-01
         21   -1    0    0  501  502  0.00000000000E+00  0.00000000000E+00  0.10733582910E+04  0.10733582910E+04  0.00000000000E+00 0. -1.
         -4   -1    0    0    0  501 -0.00000000000E+00 -0.00000000000E+00 -0.57823573313E+03  0.57823573313E+03  0.00000000000E+00 0. -1.
        -13    1    1    2    0    0 -0.93622618398E+02  0.97570651321E+02 -0.18114747221E+03  0.22605230485E+03  0.10566000000E+00 0.  1.
         13    1    1    2    0    0 -0.27011568350E+03 -0.57097347866E+03  0.20224273529E+03  0.66323097858E+03  0.10566000000E+00 0. -1.
         -4    1    1    2    0  502  0.36373830190E+03  0.47340282734E+03  0.47402729482E+03  0.76231074073E+03  0.00000000000E+00 0. -1.
</event>
<event>
 5    1  0.7625606E-005  0.3624802E+03  0.7818608E-02  0.9857444E-01
         21   -1    0    0  501  502  0.00000000000E+00  0.00000000000E+00  0.37075936601E+03  0.37075936601E+03  0.00000000000E+00 0. -1.
         -4   -1    0    0    0  501 -0.00000000000E+00 -0.00000000000E+00 -0.14941533084E+04  0.14941533084E+04  0.00000000000E+00 0. -1.
        -13    1    1    2    0    0 -0.28787347629E+03  0.23358717884E+03 -0.54034347647E+03  0.65529015878E+03  0.10566000000E+00 0.  1.
         13    1    1    2    0    0 -0.40191490871E+02  0.30947152268E+03  0.46863250566E+02  0.31556957189E+03  0.10566000000E+00 0. -1.
         -4    1    1    2    0  502  0.32806496717E+03 -0.54305870152E+03 -0.62991371647E+03  0.89405294372E+03  0.00000000000E+00 0. -1.
</event>
<event>
 5    1  0.7625606E-005  0.4443437E+03  0.7818608E-02  0.1021879E+00
          4   -1    0    0  502    0 -0.00000000000E+00  0.00000000000E+00  0.62592264689E+03  0.62592264689E+03  0.00000000000E+00 0.  1.
         21   -1    0    0  501  502  0.00000000000E+00 -0.00000000000E+00 -0.43845504837E+03  0.43845504837E+03  0.00000000000E+00 0.  1.
        -13    1    1    2    0    0  0.13293358834E+03  0.41908468342E+03  0.21188366696E+03  0.48805533526E+03  0.10566000000E+00 0.  1.
         13    1    1    2    0    0 -0.53819304000E+02  0.21731397289E+02  0.96336433726E+02  0.11246995482E+03  0.10566000000E+00 0. -1.
          4    1    1    2  501    0 -0.79114284343E+02 -0.44081608071E+03 -0.12075250217E+03  0.46385240517E+03  0.00000000000E+00 0.  1.
</event>
<event>
 5    1  0.7625606E-005  0.4973216E+03  0.7818608E-02  0.9816367E-01
         21   -1    0    0  501  502  0.00000000000E+00  0.00000000000E+00  0.65611624547E+03  0.65611624547E+03  0.00000000000E+00 0. -1.
         -4   -1    0    0    0  501 -0.00000000000E+00 -0.00000000000E+00 -0.52242144390E+03  0.52242144390E+03  0.00000000000E+00 0. -1.
        -13    1    1    2    0    0  0.14816966816E+03  0.42786042338E+02  0.23874625378E+02  0.15606058081E+03  0.10566000000E+00 0.  1.
         13    1    1    2    0    0 -0.10928884050E+03 -0.52113428879E+03  0.11562607848E+02  0.53259619101E+03  0.10566000000E+00 0. -1.
         -4    1    1    2    0  502 -0.38880827661E+02  0.47834824646E+03  0.98257568341E+02  0.48988091755E+03  0.00000000000E+00 0. -1.
</event>
<event>
 5    1  0.7625606E-005  0.5779036E+03  0.7818608E-02  0.9321846E-01
          4   -1    0    0  502    0 -0.00000000000E+00  0.00000000000E+00  0.10892744438E+04  0.10892744438E+04  0.00000000000E+00 0.  1.
         21   -1    0    0  501  502  0.00000000000E+00 -0.00000000000E+00 -0.65874182805E+03  0.65874182805E+03  0.00000000000E+00 0. -1.
        -13    1    1    2    0    0 -0.72727062027E+03 -0.29982405470E+03  0.15774596150E+03  0.80230967738E+03  0.10566000000E+00 0.  1.
         13    1    1    2    0    0  0.47864974950E+03  0.14237783918E+03  0.38520645603E+03  0.63068300811E+03  0.10566000000E+00 0. -1.
          4    1    1    2  501    0  0.24862087077E+03  0.15744621552E+03 -0.11241980175E+03  0.31502358640E+03  0.00000000000E+00 0.  1.
</event>
<event>
 5    1  0.7625606E-005  0.4923469E+02  0.7818608E-02  0.1294936E+00
          4   -1    0    0  502    0 -0.00000000000E+00  0.00000000000E+00  0.14513568606E+03  0.14513568606E+03  0.00000000000E+00 0.  1.
         21   -1    0    0  501  502  0.00000000000E+00 -0.00000000000E+00 -0.20485555622E+03  0.20485555622E+03  0.00000000000E+00 0.  1.
        -13    1    1    2    0    0  0.46786830098E+02  0.13619978181E+02  0.11282278174E+03  0.12289630800E+03  0.10566000000E+00 0.  1.
         13    1    1    2    0    0 -0.45393274274E+02 -0.28543815086E+02  0.28087050431E+00  0.53622651755E+02  0.10566000000E+00 0. -1.
          4    1    1    2  501    0 -0.13935558246E+01  0.14923836906E+02 -0.17282352241E+03  0.17347228253E+03  0.00000000000E+00 0.  1.
</event>
<event>
 5    1  0.7625606E-005  0.4304687E+03  0.7818608E-02  0.9837570E-01
         -4   -1    0    0    0  501 -0.00000000000E+00  0.00000000000E+00  0.28348224941E+04  0.28348224941E+04  0.00000000000E+00 0. -1.
         21   -1    0    0  501  502  0.00000000000E+00 -0.00000000000E+00 -0.15201482047E+03  0.15201482047E+03  0.00000000000E+00 0. -1.
        -13    1    1    2    0    0  0.81111737028E+02 -0.20589410325E+03  0.92276204430E+03  0.94892639188E+03  0.10566000000E+00 0.  1.
         13    1    1    2    0    0  0.22661990541E+03 -0.30289626132E+03  0.38471350823E+03  0.53954353043E+03  0.10566000000E+00 0. -1.
         -4    1    1    2    0  502 -0.30773164244E+03  0.50879036457E+03  0.13753321211E+04  0.14983673923E+04  0.00000000000E+00 0. -1.
</event>
<event>
 5    1  0.7625606E-005  0.7028470E+02  0.7818608E-02  0.1225982E+00
          4   -1    0    0  502    0 -0.00000000000E+00  0.00000000000E+00  0.20181009168E+03  0.20181009168E+03  0.00000000000E+00 0.  1.
         21   -1    0    0  501  502  0.00000000000E+00 -0.00000000000E+00 -0.63159430186E+02  0.63159430186E+02  0.00000000000E+00 0.  1.
        -13    1    1    2    0    0  0.74140983172E+02 -0.32200207362E+02  0.10752630625E+03  0.13452009678E+03  0.10566000000E+00 0.  1.
         13    1    1    2    0    0 -0.50155355918E+02  0.35427517890E+02  0.64608649184E+02  0.89134490880E+02  0.10566000000E+00 0. -1.
          4    1    1    2  501    0 -0.23985627254E+02 -0.32273105276E+01 -0.33484293933E+02  0.41314934204E+02  0.00000000000E+00 0.  1.
</event>
<event>
 5    1  0.7625606E-005  0.7179779E+03  0.7818608E-02  0.9097299E-01
         21   -1    0    0  501  502  0.00000000000E+00  0.00000000000E+00  0.66523886358E+03  0.66523886358E+03  0.00000000000E+00 0.  1.
         -4   -1    0    0    0  501 -0.00000000000E+00 -0.00000000000E+00 -0.12602034457E+04  0.12602034457E+04  0.00000000000E+00 0. -1.
        -13    1    1    2    0    0 -0.68438300577E+03 -0.18293879588E+03  0.22248707205E+03  0.74252758199E+03  0.10566000000E+00 0.  1.
         13    1    1    2    0    0  0.68765053253E+03  0.21575699752E+03 -0.86446681241E+03  0.11254853254E+04  0.10566000000E+00 0. -1.
         -4    1    1    2    0  502 -0.32675267550E+01 -0.32818201635E+02  0.47015158256E+02  0.57429401838E+02  0.00000000000E+00 0. -1.
</event>
<event>
 5    1  0.7625606E-005  0.1255979E+03  0.7818608E-02  0.1138459E+00
          4   -1    0    0  502    0 -0.00000000000E+00  0.00000000000E+00  0.27203868442E+03  0.27203868442E+03  0.00000000000E+00 0.  1.
         21   -1    0    0  501  502  0.00000000000E+00 -0.00000000000E+00 -0.56932408533E+03  0.56932408533E+03  0.00000000000E+00 0.  1.
        -13    1    1    2    0    0  0.44378167874E+02  0.18311787873E+03  0.14370994804E+03  0.23696864692E+03  0.10566000000E+00 0.  1.
         13    1    1    2    0    0 -0.73020751984E+02 -0.62658424241E+02  0.42579382186E+02  0.10521940553E+03  0.10566000000E+00 0. -1.
          4    1    1    2  501    0  0.28642584110E+02 -0.12045945449E+03 -0.48357473114E+03  0.49917471730E+03  0.00000000000E+00 0.  1.
</event>
<event>
 5    1  0.7625606E-005  0.5586017E+03  0.7818608E-02  0.9358017E-01
         21   -1    0    0  501  502  0.00000000000E+00  0.00000000000E+00  0.39314593710E+03  0.39314593710E+03  0.00000000000E+00 0.  1.
          4   -1    0    0  502    0 -0.00000000000E+00 -0.00000000000E+00 -0.20879202419E+04  0.20879202419E+04  0.00000000000E+00 0.  1.
        -13    1    1    2    0    0 -0.40188978792E+01  0.60754194065E+03 -0.41963987983E+03  0.73839081867E+03  0.10566000000E+00 0.  1.
         13    1    1    2    0    0 -0.49722171142E+03 -0.39217738568E+03 -0.57744935725E+03  0.85701826322E+03  0.10566000000E+00 0. -1.
          4    1    1    2  501    0  0.50124060930E+03 -0.21536455496E+03 -0.69768506777E+03  0.88565709715E+03  0.00000000000E+00 0.  1.
</event>
<event>
 5    1  0.7625606E-005  0.5022888E+03  0.7818608E-02  0.9608525E-01
         21   -1    0    0  501  502  0.00000000000E+00  0.00000000000E+00  0.62487397085E+03  0.62487397085E+03  0.00000000000E+00 0. -1.
         -4   -1    0    0    0  501 -0.00000000000E+00 -0.00000000000E+00 -0.10206362406E+04  0.10206362406E+04  0.00000000000E+00 0. -1.
        -13    1    1    2    0    0 -0.15654339709E+03  0.26552409938E+03 -0.49806086178E+03  0.58572477814E+03  0.10566000000E+00 0.  1.
         13    1    1    2    0    0  0.47083591830E+03 -0.46699592572E+03  0.15960456984E+03  0.68208891391E+03  0.10566000000E+00 0. -1.
         -4    1    1    2    0  502 -0.31429252121E+03  0.20147182634E+03 -0.57305977842E+02  0.37769651943E+03  0.00000000000E+00 0. -1.
</event>
<event>
 5    1  0.7625606E-005  0.4906524E+03  0.7818608E-02  0.9723243E-01
          4   -1    0    0  502    0 -0.00000000000E+00  0.00000000000E+00  0.18568470099E+04  0.18568470099E+04  0.00000000000E+00 0.  1.
         21   -1    0    0  501  502  0.00000000000E+00 -0.00000000000E+00 -0.26753164184E+03  0.26753164184E+03  0.00000000000E+00 0.  1.
        -13    1    1    2    0    0 -0.23664687832E+03  0.39473784704E+03  0.27612481583E+03  0.53671653411E+03  0.10566000000E+00 0.  1.
         13    1    1    2    0    0  0.15076664308E+03  0.16176610362E+03  0.78522754249E+03  0.81577028482E+03  0.10566000000E+00 0. -1.
          4    1    1    2  501    0  0.85880235242E+02 -0.55650395066E+03  0.52796300974E+03  0.77189183281E+03  0.00000000000E+00 0.  1.
</event>
<event>
 5    1  0.7625606E-005  0.2261973E+03  0.7818608E-02  0.1043523E+00
         21   -1    0    0  501  502  0.00000000000E+00  0.00000000000E+00  0.87919684419E+02  0.87919684419E+02  0.00000000000E+00 0. -1.
          4   -1    0    0  502    0 -0.00000000000E+00 -0.00000000000E+00 -0.73572804936E+03  0.73572804936E+03  0.00000000000E+00 0.  1.
        -13    1    1    2    0    0  0.22221834932E+03  0.90541782464E+02 -0.30909549054E+03  0.39130402833E+03  0.10566000000E+00 0.  1.
         13    1    1    2    0    0 -0.19438859821E+03 -0.94023188899E+02 -0.34162403957E+03  0.40414636302E+03  0.10566000000E+00 0. -1.
          4    1    1    2  501    0 -0.27829751112E+02  0.34814064347E+01  0.29111651710E+01  0.28197342434E+02  0.00000000000E+00 0.  1.
</event>
<event>
 5    1  0.7625606E-005  0.4629911E+03  0.7818608E-02  0.9775749E-01
         21   -1    0    0  501  502  0.00000000000E+00  0.00000000000E+00  0.24111666875E+03  0.24111666875E+03  0.00000000000E+00 0. -1.
         -4   -1    0    0    0  501 -0.00000000000E+00 -0.00000000000E+00 -0.18476962885E+04  0.18476962885E+04  0.00000000000E+00 0. -1.
        -13    1    1    2    0    0 -0.16755379248E+03 -0.14193665055E+03 -0.66674702747E+03  0.70197713349E+03  0.10566000000E+00 0.  1.
         13    1    1    2    0    0  0.50610860324E+03 -0.15007760447E+03 -0.70821269694E+03  0.88330880269E+03  0.10566000000E+00 0. -1.
         -4    1    1    2    0  502 -0.33855481075E+03  0.29201425503E+03 -0.23161989532E+03  0.50352702105E+03  0.00000000000E+00 0. -1.
</event>
<event>
 5    1  0.7625606E-005  0.9938932E+02  0.7818608E-02  0.1165570E+00
          4   -1    0    0  502    0 -0.00000000000E+00  0.00000000000E+00  0.62621797765E+03  0.62621797765E+03  0.00000000000E+00 0.  1.
         21   -1    0    0  501  502  0.00000000000E+00 -0.00000000000E+00 -0.10445105293E+03  0.10445105293E+03  0.00000000000E+00 0. -1.
        -13    1    1    2    0    0 -0.47218714866E+02 -0.87857020298E+02  0.59555275322E+03  0.60384729533E+03  0.10566000000E+00 0.  1.
         13    1    1    2    0    0  0.37702849721E+02  0.83520174994E+02 -0.71209826368E+02  0.11605160509E+03  0.10566000000E+00 0. -1.
          4    1    1    2  501    0  0.95158651445E+01  0.43368453042E+01 -0.25760021316E+01  0.10770130158E+02  0.00000000000E+00 0.  1.
</event>
<event>
 5    1  0.7625606E-005  0.2485874E+03  0.7818608E-02  0.1064158E+00
         21   -1    0    0  501  502  0.00000000000E+00  0.00000000000E+00  0.18811865624E+03  0.18811865624E+03  0.00000000000E+00 0. -1.
         -4   -1    0    0    0  501 -0.00000000000E+00 -0.00000000000E+00 -0.73177354819E+03  0.73177354819E+03  0.00000000000E+00 0. -1.
        -13    1    1    2    0    0  0.39290882913E+02 -0.83923040219E+02 -0.19461762295E+03  0.21555250054E+03  0.10566000000E+00 0.  1.
         13    1    1    2    0    0  0.21653478729E+03  0.12377228770E+03  0.23663232168E+02  0.25053313759E+03  0.10566000000E+00 0. -1.
         -4    1    1    2    0  502 -0.25582567020E+03 -0.39849247484E+02 -0.37270050116E+03  0.45380656631E+03  0.00000000000E+00 0. -1.
</event>
<event>
 5    1  0.7625606E-005  0.2475065E+03  0.7818608E-02  0.1031693E+00
         -4   -1    0    0    0  501 -0.00000000000E+00  0.00000000000E+00  0.15696538892E+04  0.15696538892E+04  0.00000000000E+00 0. -1.
         21   -1    0    0  501  502  0.00000000000E+00 -0.00000000000E+00 -0.77492909824E+02  0.77492909824E+02  0.00000000000E+00 0.  1.
        -13    1    1    2    0    0 -0.64539095784E+02 -0.28049317846E+03  0.40028637099E+03  0.49302221858E+03  0.10566000000E+00 0.  1.
         13    1    1    2    0    0  0.49551599530E+02  0.23108558984E+03  0.10736768548E+04  0.10993806941E+04  0.10566000000E+00 0. -1.
         -4    1    1    2    0  502  0.14987496255E+02  0.49407588622E+02  0.18197753592E+02  0.54743886355E+02  0.00000000000E+00 0. -1.
</event>
<event>
 5    1  0.7625606E-005  0.3689590E+03  0.7818608E-02  0.9823241E-01
          4   -1    0    0  502    0 -0.00000000000E+00  0.00000000000E+00  0.23036445140E+04  0.23036445140E+04  0.00000000000E+00 0.  1.
         21   -1    0    0  501  502  0.00000000000E+00 -0.00000000000E+00 -0.26059443843E+03  0.26059443843E+03  0.00000000000E+00 0.  1.
        -13    1    1    2    0    0  0.26164188471E+01 -0.36333973061E+03  0.14155435409E+04  0.14614329040E+04  0.10566000000E+00 0.  1.
         13    1    1    2    0    0  0.32597746054E+02  0.37884162045E+03  0.82139485564E+03  0.90513706502E+03  0.10566000000E+00 0. -1.
          4    1    1    2  501    0 -0.35214164902E+02 -0.15501889832E+02 -0.19388832097E+03  0.19766898343E+03  0.00000000000E+00 0.  1.
</event>
<event>
 5    1  0.7625606E-005  0.3372491E+03  0.7818608E-02  0.1015790E+00
         21   -1    0    0  501  502  0.00000000000E+00  0.00000000000E+00  0.72941649277E+02  0.72941649277E+02  0.00000000000E+00 0. -1.
         -4   -1    0    0    0  501 -0.00000000000E+00 -0.00000000000E+00 -0.47680642135E+04  0.47680642135E+04  0.00000000000E+00 0. -1.
        -13    1    1    2    0    0 -0.53958763693E+02  0.15159018196E+03 -0.89513760394E+03  0.90948472917E+03  0.10566000000E+00 0.  1.
         13    1    1    2    0    0  0.18529325050E+03 -0.30639882841E+03 -0.44855140259E+03  0.57394442471E+03  0.10566000000E+00 0. -1.
         -4    1    1    2    0  502 -0.13133448681E+03  0.15480864645E+03 -0.33514335577E+04  0.33575767089E+04  0.00000000000E+00 0. -1.
</event>
<event>
 5    1  0.7625606E-005  0.4905689E+03  0.7818608E-02  0.9699032E-01
          4   -1    0    0  502    0 -0.00000000000E+00  0.00000000000E+00  0.83766964661E+03  0.83766964661E+03  0.00000000000E+00 0.  1.
         21   -1    0    0  501  502  0.00000000000E+00 -0.00000000000E+00 -0.97412874116E+03  0.97412874116E+03  0.00000000000E+00 0.  1.
        -13    1    1    2    0    0 -0.16766929568E+03 -0.57789556526E+03 -0.31908872926E+03  0.68109757404E+03  0.10566000000E+00 0.  1.
         13    1    1    2    0    0 -0.88093265814E+02  0.22395990219E+03  0.52387168455E+03  0.57650673397E+03  0.10566000000E+00 0. -1.
          4    1    1    2  501    0  0.25576256150E+03  0.35393566307E+03 -0.34124204984E+03  0.55419407976E+03  0.00000000000E+00 0.  1.
</event>
<event>
 5    1  0.7625606E-005  0.1158487E+03  0.7818608E-02  0.1199273E+00
          4   -1    0    0  502    0 -0.00000000000E+00  0.00000000000E+00  0.11662884312E+03  0.11662884312E+03  0.00000000000E+00 0.  1.
         21   -1    0    0  501  502  0.00000000000E+00 -0.00000000000E+00 -0.33162933847E+03  0.33162933847E+03  0.00000000000E+00 0.  1.
        -13    1    1    2    0    0  0.12802503509E+02  0.12154766685E+03 -0.82519271127E+02  0.14746925335E+03  0.10566000000E+00 0.  1.
         13    1    1    2    0    0  0.24771473393E+02 -0.14036976249E+02  0.66042015543E+02  0.71918158884E+02  0.10566000000E+00 0. -1.
          4    1    1    2  501    0 -0.37573976902E+02 -0.10751069060E+03 -0.19852323977E+03  0.22887076935E+03  0.00000000000E+00 0.  1.
</event>
<event>
 5    1  0.7625606E-005  0.3158259E+02  0.7818608E-02  0.1392634E+00
         21   -1    0    0  501  502  0.00000000000E+00  0.00000000000E+00  0.87695559600E+02  0.87695559600E+02  0.00000000000E+00 0.  1.
          4   -1    0    0  502    0 -0.00000000000E+00 -0.00000000000E+00 -0.52004317535E+02  0.52004317535E+02  0.00000000000E+00 0.  1.
        -13    1    1    2    0    0  0.44154595942E+02 -0.18581481325E+02  0.49439595292E+02  0.68841735435E+02  0.10566000000E+00 0.  1.
         13    1    1    2    0    0 -0.29787421318E+02 -0.66224822534E+01 -0.25292690646E+02  0.39634317253E+02  0.10566000000E+00 0. -1.
          4    1    1    2  501    0 -0.14367174624E+02  0.25203963578E+02  0.11544337419E+02  0.31223824448E+02  0.00000000000E+00 0.  1.
</event>
<event>
 5    1  0.7625606E-005  0.4356283E+02  0.7818608E-02  0.1320475E+00
         21   -1    0    0  501  502  0.00000000000E+00  0.00000000000E+00  0.97114313745E+02  0.97114313745E+02  0.00000000000E+00 0.  1.
          4   -1    0    0  502    0 -0.00000000000E+00 -0.00000000000E+00 -0.52959179072E+02  0.52959179072E+02  0.00000000000E+00 0.  1.
        -13    1    1    2    0    0 -0.49136484415E+02 -0.11365953561E+01 -0.25256479359E+02  0.55259269479E+02  0.10566000000E+00 0.  1.
         13    1    1    2    0    0  0.24206904097E+02  0.20890122244E+02  0.42267532479E+02  0.52999310177E+02  0.10566000000E+00 0. -1.
          4    1    1    2  501    0  0.24929580318E+02 -0.19753526887E+02  0.27144081553E+02  0.41814913161E+02  0.00000000000E+00 0.  1.
</event>
<event>
 5    1  0.7625606E-005  0.4274702E+03  0.7818608E-02  0.9723860E-01
          4   -1    0    0  502    0 -0.00000000000E+00  0.00000000000E+00  0.23838232218E+04  0.23838232218E+04  0.00000000000E+00 0.  1.
         21   -1    0    0  501  502  0.00000000000E+00 -0.00000000000E+00 -0.28969617206E+03  0.28969617206E+03  0.00000000000E+00 0.  1.
        -13    1    1    2    0    0  0.41081342620E+03  0.28709213358E+03  0.65132911973E+03  0.82183891225E+03  0.10566000000E+00 0.  1.
         13    1    1    2    0    0  0.19947236105E+02 -0.33307892473E+03  0.13729025149E+04  0.14128696999E+04  0.10566000000E+00 0. -1.
          4    1    1    2  501    0 -0.43076066231E+03  0.45986791148E+02  0.69895415193E+02  0.43881078179E+03  0.00000000000E+00 0.  1.
</event>
<event>
 5    1  0.7625606E-005  0.4719756E+03  0.7818608E-02  0.9880087E-01
         21   -1    0    0  501  502  0.00000000000E+00  0.00000000000E+00  0.41435099305E+03  0.41435099305E+03  0.00000000000E+00 0. -1.
         -4   -1    0    0    0  501 -0.00000000000E+00 -0.00000000000E+00 -0.81690684895E+03  0.81690684895E+03  0.00000000000E+00 0. -1.
        -13    1    1    2    0    0 -0.14015012944E+03  0.38944667717E+02 -0.10641097949E+03  0.18022778266E+03  0.10566000000E+00 0.  1.
         13    1    1    2    0    0 -0.36977051717E+03 -0.23400552922E+03 -0.17178720069E+02  0.43793143602E+03  0.10566000000E+00 0. -1.
         -4    1    1    2    0  502  0.50992064660E+03  0.19506086150E+03 -0.27896615635E+03  0.61309862331E+03  0.00000000000E+00 0. -1.
</event>
<event>
 5    1  0.7625606E-005  0.1434050E+03  0.7818608E-02  0.1107804E+00
          4   -1    0    0  502    0 -0.00000000000E+00  0.00000000000E+00  0.19868335841E+03  0.19868335841E+03  0.00000000000E+00 0.  1.
         21   -1    0    0  501  502  0.00000000000E+00 -0.00000000000E+00 -0.23076385122E+03  0.23076385122E+03  0.00000000000E+00 0.  1.
        -13    1    1    2    0    0  0.10513032848E+03  0.10491796439E+03  0.10221948052E+03  0.18030251961E+03  0.10566000000E+00 0.  1.
         13    1    1    2    0    0 -0.10893969751E+03 -0.78133924635E+02 -0.24780896093E+02  0.13633367833E+03  0.10566000000E+00 0. -1.
          4    1    1    2  501    0  0.38093690344E+01 -0.26784039751E+02 -0.10951907724E+03  0.11281101169E+03  0.00000000000E+00 0.  1.
</event>
<event>
 5    1  0.7625606E-005  0.2097087E+03  0.7818608E-02  0.1085020E+00
         21   -1    0    0  501  502  0.00000000000E+00  0.00000000000E+00  0.12110669991E+04  0.12110669991E+04  0.00000000000E+00 0.  1.
          4   -1    0    0  502    0 -0.00000000000E+00 -0.00000000000E+00 -0.14102272552E+03  0.14102272552E+03  0.00000000000E+00 0.  1.
        -13    1    1    2    0    0 -0.16975533287E+03 -0.15749347912E+03  0.72272100646E+01  0.23167501534E+03  0.10566000000E+00 0.  1.
         13    1    1    2    0    0 -0.24991922927E+02  0.81630094955E+02  0.84851492779E+02  0.12036550837E+03  0.10566000000E+00 0. -1.
          4    1    1    2  501    0  0.19474725579E+03  0.75863384166E+02  0.97796557077E+03  0.10000492009E+04  0.00000000000E+00 0.  1.
</event>
<event>
 5    1  0.7625606E-005  0.4127362E+03  0.7818608E-02  0.9692966E-01
          4   -1    0    0  502    0 -0.00000000000E+00  0.00000000000E+00  0.16013197918E+04  0.16013197918E+04  0.00000000000E+00 0.  1.
         21   -1    0    0  501  502  0.00000000000E+00 -0.00000000000E+00 -0.37231345839E+03  0.37231345839E+03  0.00000000000E+00 0.  1.
        -13    1    1    2    0    0 -0.52186177781E+02  0.41451057670E+03 -0.16412765752E+03  0.44886558620E+03  0.10566000000E+00 0.  1.
         13    1    1    2    0    0  0.71590847266E+02 -0.40547332602E+03  0.57966539012E+03  0.71101747038E+03  0.10566000000E+00 0. -1.
          4    1    1    2  501    0 -0.19404669485E+02 -0.90372506800E+01  0.81346860085E+03  0.81375019365E+03  0.00000000000E+00 0.  1.
</event>
<event>
 5    1  0.7625606E-005  0.4023286E+03  0.7818608E-02  0.9782809E-01
         21   -1    0    0  501  502  0.00000000000E+00  0.00000000000E+00  0.32130037125E+03  0.32130037125E+03  0.00000000000E+00 0. -1.
         -4   -1    0    0    0  501 -0.00000000000E+00 -0.00000000000E+00 -0.22203398416E+04  0.22203398416E+04  0.00000000000E+00 0. -1.
        -13    1    1    2    0    0  0.93726461257E+02  0.31291222705E+03 -0.12753436747E+04  0.13165106195E+04  0.10566000000E+00 0.  1.
         13    1    1    2    0    0 -0.40658781899E+03  0.44449123592E+02  0.37829044166E+02  0.41075592130E+03  0.10566000000E+00 0. -1.
         -4    1    1    2    0  502  0.31286135773E+03 -0.35736135065E+03 -0.66152483981E+03  0.81437367208E+03  0.00000000000E+00 0. -1.
</event>
<event>
 5    1  0.7625606E-005  0.4381552E+03  0.7818608E-02  0.1008181E+00
         21   -1    0    0  501  502  0.00000000000E+00  0.00000000000E+00  0.16929148568E+03  0.16929148568E+03  0.00000000000E+00 0.  1.
          4   -1    0    0  502    0 -0.00000000000E+00 -0.00000000000E+00 -0.15794007379E+04  0.15794007379E+04  0.00000000000E+00 0.  1.
        -13    1    1    2    0    0  0.39203617548E+03 -0.29231872972E+02 -0.62284213780E+03  0.73653187648E+03  0.10566000000E+00 0.  1.
         13    1    1    2    0    0  0.81887382381E+02  0.45359058787E+02 -0.36627588550E+03  0.37804896914E+03  0.10566000000E+00 0. -1.
          4    1    1    2  501    0 -0.47392355786E+03 -0.16127185815E+02 -0.42099122890E+03  0.63411137794E+03  0.00000000000E+00 0.  1.
</event>
<event>
 5    1  0.7625606E-005  0.4793171E+03  0.7818608E-02  0.9825135E-01
         21   -1    0    0  501  502  0.00000000000E+00  0.00000000000E+00  0.82973049683E+03  0.82973049683E+03  0.00000000000E+00 0.  1.
          4   -1    0    0  502    0 -0.00000000000E+00 -0.00000000000E+00 -0.59133852372E+03  0.59133852372E+03  0.00000000000E+00 0.  1.
        -13    1    1    2    0    0  0.49952289294E+03  0.22794606237E+02  0.45139258365E+03  0.67364530013E+03  0.10566000000E+00 0.  1.
         13    1    1    2    0    0 -0.76216605033E+02  0.14882353245E+03 -0.23697210786E+03  0.29002276766E+03  0.10566000000E+00 0. -1.
          4    1    1    2  501    0 -0.42330628791E+03 -0.17161813869E+03  0.23971497318E+02  0.45740095277E+03  0.00000000000E+00 0.  1.
</event>
<event>
 5    1  0.7625606E-005  0.2589562E+03  0.7818608E-02  0.1025853E+00
         21   -1    0    0  501  502  0.00000000000E+00  0.00000000000E+00  0.22919955852E+03  0.22919955852E+03  0.00000000000E+00 0. -1.
          4   -1    0    0  502    0 -0.00000000000E+00 -0.00000000000E+00 -0.10694767307E+04  0.10694767307E+04  0.00000000000E+00 0.  1.
        -13    1    1    2    0    0  0.18261202635E+03 -0.18926830842E+03 -0.93000975952E+03  0.96648218230E+03  0.10566000000E+00 0.  1.
         13    1    1    2    0    0 -0.17595918265E+03  0.15414923850E+03 -0.17918017856E+01  0.23393769129E+03  0.10566000000E+00 0. -1.
          4    1    1    2  501    0 -0.66528437065E+01  0.35119069924E+02  0.91524389138E+02  0.98256415611E+02  0.00000000000E+00 0.  1.
</event>
<event>
 5    1  0.7625606E-005  0.1645826E+03  0.7818608E-02  0.1087558E+00
          4   -1    0    0  502    0 -0.00000000000E+00  0.00000000000E+00  0.12981428449E+04  0.12981428449E+04  0.00000000000E+00 0.  1.
         21   -1    0    0  501  502  0.00000000000E+00 -0.00000000000E+00 -0.89783553032E+02  0.89783553032E+02  0.00000000000E+00 0.  1.
        -13    1    1    2    0    0  0.11706392878E+03  0.90518217391E+02  0.45330235000E+03  0.47684435907E+03  0.10566000000E+00 0.  1.
         13    1    1    2    0    0 -0.15923016832E+03 -0.82841531045E+02  0.81659551903E+03  0.83608924083E+03  0.10566000000E+00 0. -1.
          4    1    1    2  501    0  0.42166239541E+02 -0.76766863459E+01 -0.61538577187E+02  0.74992798004E+02  0.00000000000E+00 0.  1.
</event>
<event>
 5    1  0.7625606E-005  0.6819220E+02  0.7818608E-02  0.1231552E+00
         21   -1    0    0  501  502  0.00000000000E+00  0.00000000000E+00  0.17996646394E+03  0.17996646394E+03  0.00000000000E+00 0. -1.
         -4   -1    0    0    0  501 -0.00000000000E+00 -0.00000000000E+00 -0.72831987196E+02  0.72831987196E+02  0.00000000000E+00 0. -1.
        -13    1    1    2    0    0  0.66204952792E+02 -0.41871668580E+01  0.32063692040E+02  0.73679845628E+02  0.10566000000E+00 0.  1.
         13    1    1    2    0    0 -0.66619673018E+02  0.20001607342E+02 -0.27896506563E+02  0.74943120910E+02  0.10566000000E+00 0. -1.
         -4    1    1    2    0  502  0.41472022601E+00 -0.15814440484E+02  0.10296729127E+03  0.10417548460E+03  0.00000000000E+00 0. -1.
</event>
<event>
 5    1  0.7625606E-005  0.9996082E+02  0.7818608E-02  0.1164620E+00
         -4   -1    0    0    0  501 -0.00000000000E+00  0.00000000000E+00  0.71826030749E+03  0.71826030749E+03  0.00000000000E+00 0. -1.
         21   -1    0    0  501  502  0.00000000000E+00 -0.00000000000E+00 -0.12971538869E+03  0.12971538869E+03  0.00000000000E+00 0. -1.
        -13    1    1    2    0    0 -0.63582514053E+02 -0.74230536713E+02  0.14116128124E+03  0.17169574008E+03  0.10566000000E+00 0.  1.
         13    1    1    2    0    0  0.75751484814E+02  0.66569298065E+02  0.55683243532E+03  0.56589056459E+03  0.10566000000E+00 0. -1.
         -4    1    1    2    0  502 -0.12168970761E+02  0.76612386482E+01 -0.10944879777E+03  0.11038939152E+03  0.00000000000E+00 0. -1.
</event>
<event>
 5    1  0.7625606E-005  0.2751834E+03  0.7818608E-02  0.1044813E+00
         21   -1    0    0  501  502  0.00000000000E+00  0.00000000000E+00  0.19642826167E+04  0.19642826167E+04  0.00000000000E+00 0.  1.
          4   -1    0    0  502    0 -0.00000000000E+00 -0.00000000000E+00 -0.19581100353E+03  0.19581100353E+03  0.00000000000E+00 0.  1.
        -13    1    1    2    0    0  0.11665518104E+03  0.30858411541E+03  0.99854550530E+02  0.34467887950E+03  0.10566000000E+00 0.  1.
         13    1    1    2    0    0 -0.11516167338E+03 -0.36635983030E+02 -0.39200824705E+01  0.12091230077E+03  0.10566000000E+00 0. -1.
          4    1    1    2  501    0 -0.14935076602E+01 -0.27194813238E+03  0.16725371452E+04  0.16945024400E+04  0.00000000000E+00 0.  1.
</event>
<event>
 5    1  0.7625606E-005  0.2447607E+03  0.7818608E-02  0.1033144E+00
         21   -1    0    0  501  502  0.00000000000E+00  0.00000000000E+00  0.16435257425E+03  0.16435257425E+03  0.00000000000E+00 0.  1.
         -4   -1    0    0    0  501 -0.00000000000E+00 -0.00000000000E+00 -0.44219184559E+03  0.44219184559E+03  0.00000000000E+00 0. -1.
        -13    1    1    2    0    0 -0.23380190629E+03 -0.80788433502E+02 -0.22130429871E+03  0.33191219647E+03  0.10566000000E+00 0.  1.
         13    1    1    2    0    0  0.23102620799E+03  0.67735607503E+02 -0.74716545393E+02  0.25207894521E+03  0.10566000000E+00 0. -1.
         -4    1    1    2    0  502  0.27756983021E+01  0.13052825999E+02  0.18181572763E+02  0.22553278160E+02  0.00000000000E+00 0. -1.
</event>
<event>
 5    1  0.7625606E-005  0.3487815E+02  0.7818608E-02  0.1406337E+00
         -4   -1    0    0    0  501 -0.00000000000E+00  0.00000000000E+00  0.23346762117E+02  0.23346762117E+02  0.00000000000E+00 0. -1.
         21   -1    0    0  501  502  0.00000000000E+00 -0.00000000000E+00 -0.10469645967E+03  0.10469645967E+03  0.00000000000E+00 0. -1.
        -13    1    1    2    0    0  0.57884283548E+01 -0.17722339608E+02 -0.95390245657E-01  0.18644234694E+02  0.10566000000E+00 0.  1.
         13    1    1    2    0    0 -0.15552840712E+02  0.43096941467E+02 -0.55257138275E+02  0.71781611242E+02  0.10566000000E+00 0. -1.
         -4    1    1    2    0  502  0.97644123576E+01 -0.25374601859E+02 -0.25997169030E+02  0.37617375849E+02  0.00000000000E+00 0. -1.
</event>
<event>
 5    1  0.7625606E-005  0.5222551E+02  0.7818608E-02  0.1282984E+00
         -4   -1    0    0    0  501 -0.00000000000E+00  0.00000000000E+00  0.61681289711E+02  0.61681289711E+02  0.00000000000E+00 0. -1.
         21   -1    0    0  501  502  0.00000000000E+00 -0.00000000000E+00 -0.13261900145E+03  0.13261900145E+03  0.00000000000E+00 0. -1.
        -13    1    1    2    0    0  0.60945286610E+02 -0.47666638413E+01 -0.27815092988E+02  0.67162039919E+02  0.10566000000E+00 0.  1.
         13    1    1    2    0    0 -0.38204653400E+02  0.35910061044E+02  0.17512560389E+02  0.55279552830E+02  0.10566000000E+00 0. -1.
         -4    1    1    2    0  502 -0.22740633210E+02 -0.31143397203E+02 -0.60635179139E+02  0.71858698411E+02  0.00000000000E+00 0. -1.
</event>
<event>
 5    1  0.7625606E-005  0.5249144E+02  0.7818608E-02  0.1281964E+00
         21   -1    0    0  501  502  0.00000000000E+00  0.00000000000E+00  0.14760862223E+03  0.14760862223E+03  0.00000000000E+00 0.  1.
         -4   -1    0    0    0  501 -0.00000000000E+00 -0.00000000000E+00 -0.15725313289E+03  0.15725313289E+03  0.00000000000E+00 0. -1.
        -13    1    1    2    0    0 -0.36799810103E+02  0.67235230675E+02  0.11166964557E+03  0.13544343163E+03  0.10566000000E+00 0.  1.
         13    1    1    2    0    0  0.38325338937E+02 -0.34645025428E+02 -0.12625871348E+03  0.13641987863E+03  0.10566000000E+00 0. -1.
         -4    1    1    2    0  502 -0.15255288341E+01 -0.32590205247E+02  0.49445572534E+01  0.32998444853E+02  0.00000000000E+00 0. -1.
</event>
<event>
 5    1  0.7625606E-005  0.4751771E+03  0.7818608E-02  0.9634133E-01
          4   -1    0    0  502    0 -0.00000000000E+00  0.00000000000E+00  0.10146151258E+04  0.10146151258E+04  0.00000000000E+00 0.  1.
         21   -1    0    0  501  502  0.00000000000E+00 -0.00000000000E+00 -0.63767362714E+03  0.63767362714E+03  0.00000000000E+00 0.  1.
        -13    1    1    2    0    0 -0.17354620770E+03 -0.40338573910E+03 -0.12914669771E+03  0.45773051177E+03  0.10566000000E+00 0.  1.
         13    1    1    2    0    0 -0.32488547430E+03  0.70755940767E+02  0.49366517489E+03  0.59519937049E+03  0.10566000000E+00 0. -1.
          4    1    1    2  501    0  0.49843168200E+03  0.33262979833E+03  0.12423021440E+02  0.59935887064E+03  0.00000000000E+00 0.  1.
</event>
<event>
 5    1  0.7625606E-005  0.5052650E+03  0.7818608E-02  0.9623165E-01
          4   -1    0    0  502    0 -0.00000000000E+00  0.00000000000E+00  0.76966055724E+03  0.76966055724E+03  0.00000000000E+00 0.  1.
         21   -1    0    0  501  502  0.00000000000E+00 -0.00000000000E+00 -0.60986415732E+03  0.60986415732E+03  0.00000000000E+00 0.  1.
        -13    1    1    2    0    0 -0.45015382630E+03  0.61953295030E+02  0.86521593317E+02  0.46256099638E+03  0.10566000000E+00 0.  1.
         13    1    1    2    0    0 -0.16665372598E+02  0.28702012826E+03  0.15790295446E+03  0.32801165049E+03  0.10566000000E+00 0. -1.
          4    1    1    2  501    0  0.46681919890E+03 -0.34897342329E+03 -0.84628147849E+02  0.58895206768E+03  0.00000000000E+00 0.  1.
</event>
<event>
 5    1  0.7625606E-005  0.2401153E+03  0.7818608E-02  0.1035646E+00
         21   -1    0    0  501  502  0.00000000000E+00  0.00000000000E+00  0.18219722082E+03  0.18219722082E+03  0.00000000000E+00 0.  1.
         -4   -1    0    0    0  501 -0.00000000000E+00 -0.00000000000E+00 -0.60638898351E+03  0.60638898351E+03  0.00000000000E+00 0. -1.
        -13    1    1    2    0    0 -0.22813662603E+03 -0.27298831935E+02 -0.25281650836E+03  0.34162515192E+03  0.10566000000E+00 0.  1.
         13    1    1    2    0    0  0.23591031012E+03  0.11364136886E+03 -0.22481389280E+03  0.34512219966E+03  0.10566000000E+00 0. -1.
         -4    1    1    2    0  502 -0.77736840869E+01 -0.86342536924E+02  0.53438638473E+02  0.10183885275E+03  0.00000000000E+00 0. -1.
</event>
<event>
 5    1  0.7625606E-005  0.3737872E+03  0.7818608E-02  0.9886857E-01
         -4   -1    0    0    0  501 -0.00000000000E+00  0.00000000000E+00  0.22127260885E+04  0.22127260885E+04  0.00000000000E+00 0. -1.
         21   -1    0    0  501  502  0.00000000000E+00 -0.00000000000E+00 -0.23383622126E+03  0.23383622126E+03  0.00000000000E+00 0. -1.
        -13    1    1    2    0    0  0.21957241966E+03  0.18366514089E+03  0.86202748424E+03  0.90831510292E+03  0.10566000000E+00 0.  1.
         13    1    1    2    0    0 -0.14274413723E+03  0.21728207627E+03  0.10993054368E+04  0.11296281884E+04  0.10566000000E+00 0. -1.
         -4    1    1    2    0  502 -0.76828282428E+02 -0.40094721715E+03  0.17556946222E+02  0.40861901851E+03  0.00000000000E+00 0. -1.
</event>
<event>
 5    1  0.7625606E-005  0.3713718E+03  0.7818608E-02  0.1001804E+00
         21   -1    0    0  501  502  0.00000000000E+00  0.00000000000E+00  0.11811518145E+04  0.11811518145E+04  0.00000000000E+00 0. -1.
         -4   -1    0    0    0  501 -0.00000000000E+00 -0.00000000000E+00 -0.33962508934E+03  0.33962508934E+03  0.00000000000E+00 0. -1.
        -13    1    1    2    0    0  0.18905409177E+03  0.32037027689E+01 -0.31292989680E+02  0.19165326946E+03  0.10566000000E+00 0.  1.
         13    1    1    2    0    0 -0.40021622019E+03  0.51370599391E+02  0.99881968922E+03  0.10772431221E+04  0.10566000000E+00 0. -1.
         -4    1    1    2    0  502  0.21116212842E+03 -0.54574302160E+02 -0.12599997436E+03  0.25188051230E+03  0.00000000000E+00 0. -1.
</event>
<event>
 5    1  0.7625606E-005  0.3695138E+03  0.7818608E-02  0.9821472E-01
         -4   -1    0    0    0  501 -0.00000000000E+00  0.00000000000E+00  0.10230250167E+04  0.10230250167E+04  0.00000000000E+00 0. -1.
         21   -1    0    0  501  502  0.00000000000E+00 -0.00000000000E+00 -0.24876880765E+03  0.24876880765E+03  0.00000000000E+00 0. -1.
        -13    1    1    2    0    0 -0.91298961258E+02  0.35883028174E+03  0.15998692282E+03  0.40334910196E+03  0.10566000000E+00 0.  1.
         13    1    1    2    0    0  0.10115595228E+03 -0.35514595315E+03  0.69501074945E+03  0.78702041126E+03  0.10566000000E+00 0. -1.
         -4    1    1    2    0  502 -0.98569910230E+01 -0.36843285841E+01 -0.80741463260E+02  0.81424311102E+02  0.00000000000E+00 0. -1.
</event>
<event>
 5    1  0.7625606E-005  0.4555376E+03  0.7818608E-02  0.9930421E-01
          4   -1    0    0  502    0 -0.00000000000E+00  0.00000000000E+00  0.10247194720E+04  0.10247194720E+04  0.00000000000E+00 0.  1.
         21   -1    0    0  501  502  0.00000000000E+00 -0.00000000000E+00 -0.46713980993E+03  0.46713980993E+03  0.00000000000E+00 0.  1.
        -13    1    1    2    0    0 -0.25645914602E+03  0.27626244329E+03  0.33242485746E+03  0.50259181069E+03  0.10566000000E+00 0.  1.
         13    1    1    2    0    0 -0.13612081281E+03  0.12940556442E+02  0.43680791781E+03  0.45770897075E+03  0.10566000000E+00 0. -1.
          4    1    1    2  501    0  0.39257995883E+03 -0.28920299973E+03 -0.21165311320E+03  0.53155850050E+03  0.00000000000E+00 0.  1.
</event>
<event>
 5    1  0.7625606E-005  0.4011207E+03  0.7818608E-02  0.9791126E-01
         21   -1    0    0  501  502  0.00000000000E+00  0.00000000000E+00  0.59759176734E+03  0.59759176734E+03  0.00000000000E+00 0. -1.
         -4   -1    0    0    0  501 -0.00000000000E+00 -0.00000000000E+00 -0.77699972327E+03  0.77699972327E+03  0.00000000000E+00 0. -1.
        -13    1    1    2    0    0 -0.24284288168E+03  0.20893833614E+03 -0.35742763266E+03  0.47998168428E+03  0.10566000000E+00 0.  1.
         13    1    1    2    0    0  0.17237041962E+03  0.30907728694E+03  0.67760871834E+02  0.36032190854E+03  0.10566000000E+00 0. -1.
         -4    1    1    2    0  502  0.70472462062E+02 -0.51801562308E+03  0.11025880490E+03  0.53428789779E+03  0.00000000000E+00 0. -1.
</event>
<event>
 5    1  0.7625606E-005  0.4361120E+03  0.7818608E-02  0.9858484E-01
          4   -1    0    0  502    0 -0.00000000000E+00  0.00000000000E+00  0.54577081588E+03  0.54577081588E+03  0.00000000000E+00 0.  1.
         21   -1    0    0  501  502  0.00000000000E+00 -0.00000000000E+00 -0.82963515913E+03  0.82963515913E+03  0.00000000000E+00 0.  1.
        -13    1    1    2    0    0 -0.13201620175E+03 -0.44009435870E+03 -0.54362742424E+03  0.71178796677E+03  0.10566000000E+00 0.  1.
         13    1    1    2    0    0  0.19218844464E+03  0.48797490709E+02  0.16143668732E+03  0.25569397437E+03  0.10566000000E+00 0. -1.
          4    1    1    2  501    0 -0.60172242893E+02  0.39129686799E+03  0.98326393670E+02  0.40792403387E+03  0.00000000000E+00 0.  1.
</event>
<event>
 5    1  0.7625606E-005  0.4942955E+03  0.7818608E-02  0.9842833E-01
         21   -1    0    0  501  502  0.00000000000E+00  0.00000000000E+00  0.90027718341E+02  0.90027718341E+02  0.00000000000E+00 0.  1.
          4   -1    0    0  502    0 -0.00000000000E+00 -0.00000000000E+00 -0.37725471719E+04  0.37725471719E+04  0.00000000000E+00 0.  1.
        -13    1    1    2    0    0 -0.35145362052E+03 -0.45291341015E+03 -0.19333413045E+04  0.20165462591E+04  0.10566000000E+00 0.  1.
         13    1    1    2    0    0  0.57128872138E+02  0.13172603694E+03 -0.29654176663E+03  0.32947304497E+03  0.10566000000E+00 0. -1.
          4    1    1    2  501    0  0.29432474838E+03  0.32118737321E+03 -0.14526363824E+04  0.15165555861E+04  0.00000000000E+00 0.  1.
</event>
<event>
 5    1  0.7625606E-005  0.4979842E+03  0.7818608E-02  0.9590917E-01
          4   -1    0    0  502    0 -0.00000000000E+00  0.00000000000E+00  0.22851431528E+04  0.22851431528E+04  0.00000000000E+00 0.  1.
         21   -1    0    0  501  502  0.00000000000E+00 -0.00000000000E+00 -0.22028089410E+03  0.22028089410E+03  0.00000000000E+00 0.  1.
        -13    1    1    2    0    0 -0.98965625940E+02  0.54121631989E+03  0.59343443467E+03  0.80924269502E+03  0.10566000000E+00 0.  1.
         13    1    1    2    0    0 -0.26618235269E+03 -0.20626295170E+03  0.73627111462E+03  0.80962498449E+03  0.10566000000E+00 0. -1.
          4    1    1    2  501    0  0.36514797863E+03 -0.33495336820E+03  0.73515670939E+03  0.88655636737E+03  0.00000000000E+00 0.  1.
</event>
<event>
 5    1  0.7625606E-005  0.5074271E+03  0.7818608E-02  0.1001269E+00
         21   -1    0    0  501  502  0.00000000000E+00  0.00000000000E+00  0.12927763659E+04  0.12927763659E+04  0.00000000000E+00 0. -1.
         -4   -1    0    0    0  501 -0.00000000000E+00 -0.00000000000E+00 -0.36038390772E+03  0.36038390772E+03  0.00000000000E+00 0. -1.
        -13    1    1    2    0    0  0.57115513815E+02 -0.49268651927E+02 -0.14903408250E+03  0.16703517861E+03  0.10566000000E+00 0.  1.
         13    1    1    2    0    0 -0.51532816153E+03 -0.12274820208E+03  0.54843605024E+03  0.76250399838E+03  0.10566000000E+00 0. -1.
         -4    1    1    2    0  502  0.45821264772E+03  0.17201685401E+03  0.53299049049E+03  0.72362109667E+03  0.00000000000E+00 0. -1.
</event>
<event>
 5    1  0.7625606E-005  0.3312549E+03  0.7818608E-02  0.9951801E-01
          4   -1    0    0  502    0 -0.00000000000E+00  0.00000000000E+00  0.33782921768E+03  0.33782921768E+03  0.00000000000E+00 0.  1.
         21   -1    0    0  501  502  0.00000000000E+00 -0.00000000000E+00 -0.12258803113E+04  0.12258803113E+04  0.00000000000E+00 0. -1.
        -13    1    1    2    0    0  0.30064203336E+03  0.17677973640E+03  0.15090830397E+03  0.38001320345E+03  0.10566000000E+00 0.  1.
         13    1    1    2    0    0 -0.30782680538E+03  0.45737445915E+01 -0.32762823447E+03  0.44957594735E+03  0.10566000000E+00 0. -1.
          4    1    1    2  501    0  0.71847720226E+01 -0.18135348100E+03 -0.71133116308E+03  0.73412037813E+03  0.00000000000E+00 0.  1.
</event>
<event>
 5    1  0.7625606E-005  0.6405134E+03  0.7818608E-02  0.9214049E-01
         21   -1    0    0  501  502  0.00000000000E+00  0.00000000000E+00  0.13906439104E+04  0.13906439104E+04  0.00000000000E+00 0.  1.
          4   -1    0    0  502    0 -0.00000000000E+00 -0.00000000000E+00 -0.23854295244E+04  0.23854295244E+04  0.00000000000E+00 0.  1.
        -13    1    1    2    0    0  0.61715354044E+03  0.16949369678E+03 -0.17323499591E+04  0.18467926244E+04  0.10566000000E+00 0.  1.
         13    1    1    2    0    0 -0.61346054607E+03 -0.19033857557E+03 -0.42263765315E+03  0.76888569499E+03  0.10566000000E+00 0. -1.
          4    1    1    2  501    0 -0.36929943735E+01  0.20844878797E+02  0.11602019982E+04  0.11603951154E+04  0.00000000000E+00 0.  1.
</event>
<event>
 5    1  0.9089467E-005  0.2015670E+03  0.7818608E-02  0.1083433E+00
         21   -1    0    0  501  502  0.00000000000E+00  0.00000000000E+00  0.12766860725E+04  0.12766860725E+04  0.00000000000E+00 0. -1.
         -4   -1    0    0    0  501 -0.00000000000E+00 -0.00000000000E+00 -0.42631977705E+03  0.42631977705E+03  0.00000000000E+00 0. -1.
        -13    1    1    2    0    0  0.93424665066E+02 -0.37017117779E+02 -0.21030738361E+03  0.23308290760E+03  0.10566000000E+00 0.  1.
         13    1    1    2    0    0  0.37970233231E+02  0.19157799244E+03 -0.14755743369E+03  0.24477964213E+03  0.10566000000E+00 0. -1.
         -4    1    1    2    0  502 -0.13139489830E+03 -0.15456087466E+03  0.12082311128E+04  0.12251432998E+04  0.00000000000E+00 0. -1.
</event>
<event>
 5    1  0.7625606E-005  0.3287377E+03  0.7818608E-02  0.1031827E+00
         -4   -1    0    0    0  501 -0.00000000000E+00  0.00000000000E+00  0.15104242522E+04  0.15104242522E+04  0.00000000000E+00 0. -1.
         21   -1    0    0  501  502  0.00000000000E+00 -0.00000000000E+00 -0.21878382962E+03  0.21878382962E+03  0.00000000000E+00 0. -1.
        -13    1    1    2    0    0  0.10440127942E+03  0.12904543640E+02  0.31762034445E+03  0.33458758011E+03  0.10566000000E+00 0.  1.
         13    1    1    2    0    0 -0.33869155638E+03  0.20520696252E+03  0.99792569242E+03  0.10736282255E+04  0.10566000000E+00 0. -1.
         -4    1    1    2    0  502  0.23429027695E+03 -0.21811150616E+03 -0.23905614293E+02  0.32099227622E+03  0.00000000000E+00 0. -1.
</event>
<event>
 5    1  0.7625606E-005  0.7570066E+02  0.7818608E-02  0.1256828E+00
         21   -1    0    0  501  502  0.00000000000E+00  0.00000000000E+00  0.10234452006E+04  0.10234452006E+04  0.00000000000E+00 0.  1.
         -4   -1    0    0    0  501 -0.00000000000E+00 -0.00000000000E+00 -0.90559828498E+02  0.90559828498E+02  0.00000000000E+00 0. -1.
        -13    1    1    2    0    0  0.51452959133E+02  0.13471221142E+03  0.65074606266E+03  0.66653224688E+03  0.10566000000E+00 0.  1.
         13    1    1    2    0    0 -0.44682680530E+02 -0.12978561006E+02 -0.64776705910E+02  0.79755988977E+02  0.10566000000E+00 0. -1.
         -4    1    1    2    0  502 -0.67702786025E+01 -0.12173365042E+03  0.34691601531E+03  0.36771679319E+03  0.00000000000E+00 0. -1.
</event>
<event>
 5    1  0.7625606E-005  0.1829618E+03  0.7818608E-02  0.1072489E+00
          4   -1    0    0  502    0 -0.00000000000E+00  0.00000000000E+00  0.23940785427E+03  0.23940785427E+03  0.00000000000E+00 0.  1.
         21   -1    0    0  501  502  0.00000000000E+00 -0.00000000000E+00 -0.19511442379E+03  0.19511442379E+03  0.00000000000E+00 0. -1.
        -13    1    1    2    0    0 -0.33472515281E+02  0.19014116623E+03  0.94212586639E+02  0.21482573175E+03  0.10566000000E+00 0.  1.
         13    1    1    2    0    0  0.12717876989E+02 -0.16809921086E+03 -0.90331202013E+01  0.16882149600E+03  0.10566000000E+00 0. -1.
          4    1    1    2  501    0  0.20754638292E+02 -0.22041955369E+02 -0.40886035958E+02  0.50875050304E+02  0.00000000000E+00 0.  1.
</event>
<event>
 5    1  0.7625606E-005  0.4538181E+03  0.7818608E-02  0.9763318E-01
          4   -1    0    0  502    0 -0.00000000000E+00  0.00000000000E+00  0.21403413351E+04  0.21403413351E+04  0.00000000000E+00 0.  1.
         21   -1    0    0  501  502  0.00000000000E+00 -0.00000000000E+00 -0.17973345769E+03  0.17973345769E+03  0.00000000000E+00 0.  1.
        -13    1    1    2    0    0 -0.32952570354E+03 -0.32794470531E+03  0.53842637454E+03  0.71136340291E+03  0.10566000000E+00 0.  1.
         13    1    1    2    0    0 -0.12931040593E+03  0.20615038247E+03  0.27515526228E+03  0.36732763414E+03  0.10566000000E+00 0. -1.
          4    1    1    2  501    0  0.45883610947E+03  0.12179432284E+03  0.11470262406E+04  0.12413837558E+04  0.00000000000E+00 0.  1.
</event>
<event>
 5    1  0.7625606E-005  0.5450837E+02  0.7818608E-02  0.1274447E+00
          4   -1    0    0  502    0 -0.00000000000E+00  0.00000000000E+00  0.61957168867E+03  0.61957168867E+03  0.00000000000E+00 0.  1.
         21   -1    0    0  501  502  0.00000000000E+00 -0.00000000000E+00 -0.44103399129E+02  0.44103399129E+02  0.00000000000E+00 0.  1.
        -13    1    1    2    0    0  0.45240362795E+02 -0.52836746837E+02  0.39512618681E+03  0.40120210232E+03  0.10566000000E+00 0.  1.
         13    1    1    2    0    0 -0.13571724652E+02  0.42737401576E+02  0.21192761025E+03  0.21661948286E+03  0.10566000000E+00 0. -1.
          4    1    1    2  501    0 -0.31668638143E+02  0.10099345262E+02 -0.31585507523E+02  0.45853502614E+02  0.00000000000E+00 0.  1.
</event>
<event>
 5    1  0.7625606E-005  0.3878771E+02  0.7818608E-02  0.1395454E+00
         -4   -1    0    0    0  501 -0.00000000000E+00  0.00000000000E+00  0.13787257120E+03  0.13787257120E+03  0.00000000000E+00 0. -1.
         21   -1    0    0  501  502  0.00000000000E+00 -0.00000000000E+00 -0.28404304178E+02  0.28404304178E+02  0.00000000000E+00 0. -1.
        -13    1    1    2    0    0  0.98995980765E+01  0.12895245143E+02 -0.12203563710E+02  0.20327998442E+02  0.10566000000E+00 0.  1.
         13    1    1    2    0    0 -0.40852919659E+02  0.91059643355E+01  0.73805439327E+02  0.84847708687E+02  0.10566000000E+00 0. -1.
         -4    1    1    2    0  502  0.30953321582E+02 -0.22001209479E+02  0.47866391409E+02  0.61101168254E+02  0.00000000000E+00 0. -1.
</event>
<event>
 5    1  0.7625606E-005  0.3639284E+03  0.7818608E-02  0.9839427E-01
         21   -1    0    0  501  502  0.00000000000E+00  0.00000000000E+00  0.28865455340E+03  0.28865455340E+03  0.00000000000E+00 0. -1.
         -4   -1    0    0    0  501 -0.00000000000E+00 -0.00000000000E+00 -0.20215266324E+04  0.20215266324E+04  0.00000000000E+00 0. -1.
        -13    1    1    2    0    0  0.55321387179E+02 -0.30541421770E+03 -0.98283146737E+03  0.10306774494E+04  0.10566000000E+00 0.  1.
         13    1    1    2    0    0 -0.12071030475E+03  0.51465167391E+03 -0.87860358592E+03  0.10253690045E+04  0.10566000000E+00 0. -1.
         -4    1    1    2    0  502  0.65388917576E+02 -0.20923745621E+03  0.12856297423E+03  0.25413473192E+03  0.00000000000E+00 0. -1.
</event>
<event>
 5    1  0.7625606E-005  0.3399459E+03  0.7818608E-02  0.1026920E+00
          4   -1    0    0  502    0 -0.00000000000E+00  0.00000000000E+00  0.94025328918E+02  0.94025328918E+02  0.00000000000E+00 0.  1.
         21   -1    0    0  501  502  0.00000000000E+00 -0.00000000000E+00 -0.17141992420E+04  0.17141992420E+04  0.00000000000E+00 0.  1.
        -13    1    1    2    0    0  0.51151856269E+02  0.38786560721E+03 -0.81092397706E+03  0.90036323192E+03  0.10566000000E+00 0.  1.
         13    1    1    2    0    0  0.40232299972E+02 -0.10316152850E+03 -0.25749512028E+03  0.28029392975E+03  0.10566000000E+00 0. -1.
          4    1    1    2  501    0 -0.91384156242E+02 -0.28470407871E+03 -0.55175481571E+03  0.62756740921E+03  0.00000000000E+00 0.  1.
</event>
<event>
 5    1  0.7625606E-005  0.9089149E+02  0.7818608E-02  0.1180574E+00
         -4   -1    0    0    0  501 -0.00000000000E+00  0.00000000000E+00  0.21343934270E+03  0.21343934270E+03  0.00000000000E+00 0. -1.
         21   -1    0    0  501  502  0.00000000000E+00 -0.00000000000E+00 -0.15070281979E+03  0.15070281979E+03  0.00000000000E+00 0. -1.
        -13    1    1    2    0    0  0.51263741777E+02  0.50912947362E+02  0.21784755462E+02  0.75463144412E+02  0.10566000000E+00 0.  1.
         13    1    1    2    0    0 -0.54258878688E+02 -0.87767500878E+02  0.14516453735E+03  0.17810085400E+03  0.10566000000E+00 0. -1.
         -4    1    1    2    0  502  0.29951369108E+01  0.36854553517E+02 -0.10421276990E+03  0.11057816407E+03  0.00000000000E+00 0. -1.
</event>
<event>
 5    1  0.7625606E-005  0.4707729E+03  0.7818608E-02  0.9694510E-01
          4   -1    0    0  502    0 -0.00000000000E+00  0.00000000000E+00  0.17678476348E+04  0.17678476348E+04  0.00000000000E+00 0.  1.
         21   -1    0    0  501  502  0.00000000000E+00 -0.00000000000E+00 -0.26906451925E+03  0.26906451925E+03  0.00000000000E+00 0.  1.
        -13    1    1    2    0    0  0.77562403704E+02  0.54642737948E+03  0.22519737266E+03  0.59608109795E+03  0.10566000000E+00 0.  1.
         13    1    1    2    0    0 -0.20151092644E+03 -0.18953646321E+03  0.71331781466E+03  0.76508368185E+03  0.10566000000E+00 0. -1.
          4    1    1    2  501    0  0.12394852274E+03 -0.35689091627E+03  0.56026792824E+03  0.67574737426E+03  0.00000000000E+00 0.  1.
</event>
<event>
 5    1  0.7625606E-005  0.4619295E+03  0.7818608E-02  0.9793201E-01
          4   -1    0    0  502    0 -0.00000000000E+00  0.00000000000E+00  0.11598490571E+04  0.11598490571E+04  0.00000000000E+00 0.  1.
         21   -1    0    0  501  502  0.00000000000E+00 -0.00000000000E+00 -0.33526805483E+03  0.33526805483E+03  0.00000000000E+00 0.  1.
        -13    1    1    2    0    0 -0.43213050570E+03  0.27990135021E+03  0.53711278782E+03  0.74402399008E+03  0.10566000000E+00 0.  1.
         13    1    1    2    0    0  0.18384758739E+03  0.97883422031E+02  0.20369305255E+03  0.29132794325E+03  0.10566000000E+00 0. -1.
          4    1    1    2  501    0  0.24828291831E+03 -0.37778477225E+03  0.83775161854E+02  0.45976517855E+03  0.00000000000E+00 0.  1.
</event>
<event>
 5    1  0.7625606E-005  0.4069168E+02  0.7818608E-02  0.1335141E+00
          4   -1    0    0  502    0 -0.00000000000E+00  0.00000000000E+00  0.11378496971E+03  0.11378496971E+03  0.00000000000E+00 0.  1.
         21   -1    0    0  501  502  0.00000000000E+00 -0.00000000000E+00 -0.37901522966E+02  0.37901522966E+02  0.00000000000E+00 0.  1.
        -13    1    1    2    0    0  0.31443292916E+02 -0.34543501379E+02  0.69057500624E+02  0.83371959995E+02  0.10566000000E+00 0.  1.
         13    1    1    2    0    0 -0.35307920960E+02  0.22569867275E+01  0.51649100320E+01  0.35755149717E+02  0.10566000000E+00 0. -1.
          4    1    1    2  501    0  0.38646280440E+01  0.32286514651E+02  0.16610360884E+01  0.32559382966E+02  0.00000000000E+00 0.  1.
</event>
<event>
 5    1  0.7625606E-005  0.6007420E+03  0.7818608E-02  0.9387634E-01
         21   -1    0    0  501  502  0.00000000000E+00  0.00000000000E+00  0.51746988349E+03  0.51746988349E+03  0.00000000000E+00 0.  1.
          4   -1    0    0  502    0 -0.00000000000E+00 -0.00000000000E+00 -0.23568727518E+04  0.23568727518E+04  0.00000000000E+00 0.  1.
        -13    1    1    2    0    0  0.66295115497E+02 -0.32187952429E+03 -0.43372598314E+03  0.54416882501E+03  0.10566000000E+00 0.  1.
         13    1    1    2    0    0  0.69850141797E+03  0.22633924810E+03 -0.13750643790E+04  0.15588251164E+04  0.10566000000E+00 0. -1.
          4    1    1    2  501    0 -0.76479653347E+03  0.95540276188E+02 -0.30612506197E+02  0.77134869386E+03  0.00000000000E+00 0.  1.
</event>
<event>
 5    1  0.7625606E-005  0.4791933E+03  0.7818608E-02  0.9940572E-01
         -4   -1    0    0    0  501 -0.00000000000E+00  0.00000000000E+00  0.95307813036E+03  0.95307813036E+03  0.00000000000E+00 0. -1.
         21   -1    0    0  501  502  0.00000000000E+00 -0.00000000000E+00 -0.73312548059E+03  0.73312548059E+03  0.00000000000E+00 0. -1.
        -13    1    1    2    0    0 -0.66726898064E+02 -0.91904917186E+02  0.59639641424E+03  0.60711422880E+03  0.10566000000E+00 0.  1.
         13    1    1    2    0    0 -0.22152576373E+03 -0.37977829754E+03 -0.27058331134E+03  0.51625629179E+03  0.10566000000E+00 0. -1.
         -4    1    1    2    0  502  0.28825266179E+03  0.47168321472E+03 -0.10586045313E+03  0.56283309037E+03  0.00000000000E+00 0. -1.
</event>
<event>
 5    1  0.7625606E-005  0.4780761E+03  0.7818608E-02  0.9645544E-01
         -4   -1    0    0    0  501 -0.00000000000E+00  0.00000000000E+00  0.56552929915E+03  0.56552929915E+03  0.00000000000E+00 0. -1.
         21   -1    0    0  501  502  0.00000000000E+00 -0.00000000000E+00 -0.81805447148E+03  0.81805447148E+03  0.00000000000E+00 0. -1.
        -13    1    1    2    0    0  0.11753989482E+03  0.29074845913E+03 -0.11721748553E+03  0.33479881039E+03  0.10566000000E+00 0.  1.
         13    1    1    2    0    0  0.13923453235E+03  0.24381323776E+03  0.22067449011E+03  0.35711117549E+03  0.10566000000E+00 0. -1.
         -4    1    1    2    0  502 -0.25677442717E+03 -0.53456169689E+03 -0.35598217691E+03  0.69167378475E+03  0.00000000000E+00 0. -1.
</event>
<event>
 5    1  0.7625606E-005  0.5298678E+02  0.7818608E-02  0.1280084E+00
          4   -1    0    0  502    0 -0.00000000000E+00  0.00000000000E+00  0.36571721897E+03  0.36571721897E+03  0.00000000000E+00 0.  1.
         21   -1    0    0  501  502  0.00000000000E+00 -0.00000000000E+00 -0.35952224795E+02  0.35952224795E+02  0.00000000000E+00 0. -1.
        -13    1    1    2    0    0  0.18923608846E+02  0.47611879399E+02  0.28716637543E+03  0.29170110108E+03  0.10566000000E+00 0.  1.
         13    1    1    2    0    0 -0.23170206402E+02 -0.71276802775E+02  0.21475364927E+02  0.77964373539E+02  0.10566000000E+00 0. -1.
          4    1    1    2  501    0  0.42465975558E+01  0.23664923375E+02  0.21123253820E+02  0.32003969146E+02  0.00000000000E+00 0.  1.
</event>
<event>
 5    1  0.7625606E-005  0.3003142E+03  0.7818608E-02  0.1007176E+00
         21   -1    0    0  501  502  0.00000000000E+00  0.00000000000E+00  0.14029851557E+04  0.14029851557E+04  0.00000000000E+00 0.  1.
          4   -1    0    0  502    0 -0.00000000000E+00 -0.00000000000E+00 -0.11913811567E+03  0.11913811567E+03  0.00000000000E+00 0.  1.
        -13    1    1    2    0    0  0.25623389525E+00 -0.32071044533E+03  0.19925640812E+03  0.37756904368E+03  0.10566000000E+00 0.  1.
         13    1    1    2    0    0  0.78185005245E+02  0.24144376633E+03  0.77451809561E+03  0.81503759357E+03  0.10566000000E+00 0. -1.
          4    1    1    2  501    0 -0.78441239141E+02  0.79266679006E+02  0.31007253627E+03  0.32951663410E+03  0.00000000000E+00 0.  1.
</event>
<event>
 5    1  0.7625606E-005  0.3011660E+03  0.7818608E-02  0.1012755E+00
         -4   -1    0    0    0  501 -0.00000000000E+00  0.00000000000E+00  0.13382703512E+04  0.13382703512E+04  0.00000000000E+00 0. -1.
         21   -1    0    0  501  502  0.00000000000E+00 -0.00000000000E+00 -0.23142153969E+03  0.23142153969E+03  0.00000000000E+00 0. -1.
        -13    1    1    2    0    0 -0.14712252965E+03  0.20076379412E+03  0.45756074055E+03  0.52087712776E+03  0.10566000000E+00 0.  1.
         13    1    1    2    0    0 -0.17719695443E+03 -0.12085567538E+03  0.68034618987E+03  0.71335531411E+03  0.10566000000E+00 0. -1.
         -4    1    1    2    0  502  0.32431948408E+03 -0.79908118741E+02 -0.31058118905E+02  0.33545944903E+03  0.00000000000E+00 0. -1.
</event>
<event>
 5    1  0.7625606E-005  0.5441180E+03  0.7818608E-02  0.9386185E-01
          4   -1    0    0  502    0 -0.00000000000E+00  0.00000000000E+00  0.16403788191E+04  0.16403788191E+04  0.00000000000E+00 0.  1.
         21   -1    0    0  501  502  0.00000000000E+00 -0.00000000000E+00 -0.45556058347E+03  0.45556058347E+03  0.00000000000E+00 0.  1.
        -13    1    1    2    0    0 -0.57156564900E+03  0.43415318322E+02  0.75514224841E+03  0.94805696426E+03  0.10566000000E+00 0.  1.
         13    1    1    2    0    0  0.51938996574E+03  0.20244769867E+02  0.69625998815E+03  0.86888075676E+03  0.10566000000E+00 0. -1.
          4    1    1    2  501    0  0.52175683265E+02 -0.63660088190E+02 -0.26658400093E+03  0.27900168154E+03  0.00000000000E+00 0.  1.
</event>
<event>
 5    1  0.7625606E-005  0.4619466E+02  0.7818608E-02  0.1308108E+00
         -4   -1    0    0    0  501 -0.00000000000E+00  0.00000000000E+00  0.92027703772E+02  0.92027703772E+02  0.00000000000E+00 0. -1.
         21   -1    0    0  501  502  0.00000000000E+00 -0.00000000000E+00 -0.36247255364E+02  0.36247255364E+02  0.00000000000E+00 0.  1.
        -13    1    1    2    0    0  0.43809852803E+02  0.26431013660E+02  0.23925078753E+02  0.56482937628E+02  0.10566000000E+00 0.  1.
         13    1    1    2    0    0 -0.30263337500E+02 -0.31518524782E+02  0.36135865938E+02  0.56701842758E+02  0.10566000000E+00 0. -1.
         -4    1    1    2    0  502 -0.13546515303E+02  0.50875111216E+01 -0.42804962835E+01  0.15090178750E+02  0.00000000000E+00 0. -1.
</event>
<event>
 5    1  0.7625606E-005  0.2866654E+03  0.7818608E-02  0.1012966E+00
         21   -1    0    0  501  502  0.00000000000E+00  0.00000000000E+00  0.16727979906E+03  0.16727979906E+03  0.00000000000E+00 0. -1.
          4   -1    0    0  502    0 -0.00000000000E+00 -0.00000000000E+00 -0.10859414498E+04  0.10859414498E+04  0.00000000000E+00 0.  1.
        -13    1    1    2    0    0  0.21975720240E+03  0.18404985962E+03 -0.90470861424E+03  0.94903385961E+03  0.10566000000E+00 0.  1.
         13    1    1    2    0    0 -0.22826686275E+03 -0.17400042853E+03 -0.23409183583E+02  0.28797553855E+03  0.10566000000E+00 0. -1.
          4    1    1    2  501    0  0.85096603565E+01 -0.10049431093E+02  0.94561471064E+01  0.16211850689E+02  0.00000000000E+00 0.  1.
</event>
<event>
 5    1  0.7625606E-005  0.3874653E+03  0.7818608E-02  0.9765960E-01
         -4   -1    0    0    0  501 -0.00000000000E+00  0.00000000000E+00  0.10551586433E+04  0.10551586433E+04  0.00000000000E+00 0. -1.
         21   -1    0    0  501  502  0.00000000000E+00 -0.00000000000E+00 -0.46334528612E+03  0.46334528612E+03  0.00000000000E+00 0. -1.
        -13    1    1    2    0    0  0.30282197889E+03  0.71553986405E+02  0.29169134749E+03  0.42650319722E+03  0.10566000000E+00 0.  1.
         13    1    1    2    0    0 -0.44244401771E+03 -0.25993704473E+03  0.54802512359E+03  0.75076995363E+03  0.10566000000E+00 0. -1.
         -4    1    1    2    0  502  0.13962203882E+03  0.18838305832E+03 -0.24790311388E+03  0.34123077859E+03  0.00000000000E+00 0. -1.
</event>
<event>
 5    1  0.7625606E-005  0.1387907E+03  0.7818608E-02  0.1130336E+00
          4   -1    0    0  502    0 -0.00000000000E+00  0.00000000000E+00  0.86489384591E+02  0.86489384591E+02  0.00000000000E+00 0.  1.
         21   -1    0    0  501  502  0.00000000000E+00 -0.00000000000E+00 -0.12636564515E+04  0.12636564515E+04  0.00000000000E+00 0.  1.
        -13    1    1    2    0    0 -0.64126251080E+02 -0.19785256385E+03 -0.98697454327E+02  0.23021514232E+03  0.10566000000E+00 0.  1.
         13    1    1    2    0    0 -0.11852094551E+02  0.86897977280E+02 -0.10319532681E+03  0.13542901181E+03  0.10566000000E+00 0. -1.
          4    1    1    2  501    0  0.75978345631E+02  0.11095458657E+03 -0.97527428572E+03  0.98450168191E+03  0.00000000000E+00 0.  1.
</event>
<event>
 5    1  0.7625606E-005  0.2819480E+03  0.7818608E-02  0.1015048E+00
         21   -1    0    0  501  502  0.00000000000E+00  0.00000000000E+00  0.63511943508E+03  0.63511943508E+03  0.00000000000E+00 0.  1.
         -4   -1    0    0    0  501 -0.00000000000E+00 -0.00000000000E+00 -0.22870226231E+03  0.22870226231E+03  0.00000000000E+00 0. -1.
        -13    1    1    2    0    0 -0.25108125439E+03  0.36344013878E+02  0.94400163006E+02  0.27069186466E+03  0.10566000000E+00 0.  1.
         13    1    1    2    0    0  0.30751847451E+03 -0.29462951770E+02  0.35651918757E+02  0.31097708624E+03  0.10566000000E+00 0. -1.
         -4    1    1    2    0  502 -0.56437220115E+02 -0.68810621082E+01  0.27636509100E+03  0.28215274650E+03  0.00000000000E+00 0. -1.
</event>
<event>
 5    1  0.7625606E-005  0.1805332E+03  0.7818608E-02  0.1074368E+00
         21   -1    0    0  501  502  0.00000000000E+00  0.00000000000E+00  0.62358142054E+03  0.62358142054E+03  0.00000000000E+00 0.  1.
          4   -1    0    0  502    0 -0.00000000000E+00 -0.00000000000E+00 -0.59618798541E+03  0.59618798541E+03  0.00000000000E+00 0.  1.
        -13    1    1    2    0    0  0.57437339257E+02  0.22786556377E+03  0.54012419130E+03  0.58902963957E+03  0.10566000000E+00 0.  1.
         13    1    1    2    0    0 -0.82612742961E+02 -0.15514583498E+03 -0.83374229252E+02  0.19454143178E+03  0.10566000000E+00 0. -1.
          4    1    1    2  501    0  0.25175403705E+02 -0.72719728784E+02 -0.42935652691E+03  0.43619833460E+03  0.00000000000E+00 0.  1.
</event>
<event>
 5    1  0.7625606E-005  0.4630995E+03  0.7818608E-02  0.9562738E-01
         21   -1    0    0  501  502  0.00000000000E+00  0.00000000000E+00  0.38810099222E+03  0.38810099222E+03  0.00000000000E+00 0. -1.
          4   -1    0    0  502    0 -0.00000000000E+00 -0.00000000000E+00 -0.13417807264E+04  0.13417807264E+04  0.00000000000E+00 0.  1.
        -13    1    1    2    0    0 -0.42011171315E+03  0.17646190198E+03 -0.11181861771E+03  0.46918660340E+03  0.10566000000E+00 0.  1.
         13    1    1    2    0    0  0.46837770680E+03 -0.43015005209E+02 -0.96454056827E+03  0.10731106587E+04  0.10566000000E+00 0. -1.
          4    1    1    2  501    0 -0.48265993652E+02 -0.13344689677E+03  0.12267945183E+03  0.18758445645E+03  0.00000000000E+00 0.  1.
</event>
<event>
 5    1  0.7625606E-005  0.4694134E+03  0.7818608E-02  0.9869617E-01
         21   -1    0    0  501  502  0.00000000000E+00  0.00000000000E+00  0.26329964950E+03  0.26329964950E+03  0.00000000000E+00 0. -1.
         -4   -1    0    0    0  501 -0.00000000000E+00 -0.00000000000E+00 -0.12786603822E+04  0.12786603822E+04  0.00000000000E+00 0. -1.
        -13    1    1    2    0    0 -0.84717721001E+02  0.12758867374E+03 -0.14185116391E+03  0.20875278630E+03  0.10566000000E+00 0.  1.
         13    1    1    2    0    0 -0.12151174996E+03 -0.51938115529E+03 -0.63836370253E+03  0.83188347605E+03  0.10566000000E+00 0. -1.
         -4    1    1    2    0  502  0.20622947096E+03  0.39179248155E+03 -0.23514586623E+03  0.50132376933E+03  0.00000000000E+00 0. -1.
</event>
<event>
 5    1  0.7625606E-005  0.5211003E+03  0.7818608E-02  0.9699635E-01
         -4   -1    0    0    0  501 -0.00000000000E+00  0.00000000000E+00  0.19465498542E+04  0.19465498542E+04  0.00000000000E+00 0. -1.
         21   -1    0    0  501  502  0.00000000000E+00 -0.00000000000E+00 -0.22537908302E+03  0.22537908302E+03  0.00000000000E+00 0. -1.
        -13    1    1    2    0    0 -0.19058560641E+03 -0.61848233603E+02  0.50555424599E+03  0.54381355645E+03  0.10566000000E+00 0.  1.
         13    1    1    2    0    0  0.16537068382E+03 -0.48872433906E+03  0.44912142303E+03  0.68403874630E+03  0.10566000000E+00 0. -1.
         -4    1    1    2    0  502  0.25214922595E+02  0.55057257266E+03  0.76649510212E+03  0.94407663442E+03  0.00000000000E+00 0. -1.
</event>
<event>
 5    1  0.7625606E-005  0.4758182E+03  0.7818608E-02  0.9532609E-01
         21   -1    0    0  501  502  0.00000000000E+00  0.00000000000E+00  0.19403125252E+03  0.19403125252E+03  0.00000000000E+00 0.  1.
         -4   -1    0    0    0  501 -0.00000000000E+00 -0.00000000000E+00 -0.26048975490E+04  0.26048975490E+04  0.00000000000E+00 0. -1.
        -13    1    1    2    0    0 -0.13040903099E+02 -0.43055133415E+03 -0.56176671149E+03  0.70790279403E+03  0.10566000000E+00 0.  1.
         13    1    1    2    0    0  0.44647442078E+02  0.49339011067E+03 -0.19248933158E+04  0.19876220677E+04  0.10566000000E+00 0. -1.
         -4    1    1    2    0  502 -0.31606538979E+02 -0.62838776512E+02  0.75793730825E+02  0.10340393983E+03  0.00000000000E+00 0. -1.
</event>
<event>
 5    1  0.7625606E-005  0.5764127E+03  0.7818608E-02  0.9324586E-01
         21   -1    0    0  501  502  0.00000000000E+00  0.00000000000E+00  0.18170442511E+03  0.18170442511E+03  0.00000000000E+00 0. -1.
          4   -1    0    0  502    0 -0.00000000000E+00 -0.00000000000E+00 -0.38166864401E+04  0.38166864401E+04  0.00000000000E+00 0.  1.
        -13    1    1    2    0    0  0.42262908482E+03 -0.43232209962E+03 -0.29304344633E+04  0.29921503799E+04  0.10566000000E+00 0.  1.
         13    1    1    2    0    0 -0.40076978791E+03  0.31030968804E+03 -0.72085709882E+03  0.88121705242E+03  0.10566000000E+00 0. -1.
          4    1    1    2  501    0 -0.21859296915E+02  0.12201241158E+03  0.16309547128E+02  0.12502343288E+03  0.00000000000E+00 0.  1.
</event>
<event>
 5    1  0.7625606E-005  0.2302118E+03  0.7818608E-02  0.1041190E+00
         21   -1    0    0  501  502  0.00000000000E+00  0.00000000000E+00  0.10096473927E+03  0.10096473927E+03  0.00000000000E+00 0.  1.
         -4   -1    0    0    0  501 -0.00000000000E+00 -0.00000000000E+00 -0.11634121987E+04  0.11634121987E+04  0.00000000000E+00 0. -1.
        -13    1    1    2    0    0 -0.21327694262E+03 -0.39639491958E+02 -0.10962702600E+03  0.24305645346E+03  0.10566000000E+00 0.  1.
         13    1    1    2    0    0  0.23279205510E+03 -0.36282596309E+02 -0.89060566617E+03  0.92124211339E+03  0.10566000000E+00 0. -1.
         -4    1    1    2    0  502 -0.19515112473E+02  0.75922088267E+02 -0.62214767285E+02  0.10007837114E+03  0.00000000000E+00 0. -1.
</event>
<event>
 5    1  0.7625606E-005  0.8218962E+03  0.7818608E-02  0.8962780E-01
         -4   -1    0    0    0  501 -0.00000000000E+00  0.00000000000E+00  0.13129262895E+04  0.13129262895E+04  0.00000000000E+00 0. -1.
         21   -1    0    0  501  502  0.00000000000E+00 -0.00000000000E+00 -0.10361877823E+04  0.10361877823E+04  0.00000000000E+00 0. -1.
        -13    1    1    2    0    0  0.62721822917E+03  0.44964810758E+03  0.65809828160E+03  0.10142383778E+04  0.10566000000E+00 0.  1.
         13    1    1    2    0    0 -0.88283488550E+03 -0.50586521706E+03 -0.30030988992E+03  0.10608878801E+04  0.10566000000E+00 0. -1.
         -4    1    1    2    0  502  0.25561665633E+03  0.56217109480E+02 -0.81049884559E+02  0.27398781392E+03  0.00000000000E+00 0. -1.
</event>
<event>
 5    1  0.7625606E-005  0.4951623E+03  0.7818608E-02  0.9672598E-01
         -4   -1    0    0    0  501 -0.00000000000E+00  0.00000000000E+00  0.22545080888E+04  0.22545080888E+04  0.00000000000E+00 0. -1.
         21   -1    0    0  501  502  0.00000000000E+00 -0.00000000000E+00 -0.20096600703E+03  0.20096600703E+03  0.00000000000E+00 0. -1.
        -13    1    1    2    0    0  0.67118043992E+02  0.24773216452E+03  0.71509393484E+03  0.75976009633E+03  0.10566000000E+00 0.  1.
         13    1    1    2    0    0  0.42042252237E+03  0.34624786154E+02  0.85467322676E+03  0.95311085862E+03  0.10566000000E+00 0. -1.
         -4    1    1    2    0  502 -0.48754056636E+03 -0.28235695067E+03  0.48377492015E+03  0.74260314085E+03  0.00000000000E+00 0. -1.
</event>
<event>
 5    1  0.7625606E-005  0.4322940E+03  0.7818608E-02  0.9775358E-01
         21   -1    0    0  501  502  0.00000000000E+00  0.00000000000E+00  0.17419751746E+03  0.17419751746E+03  0.00000000000E+00 0.  1.
          4   -1    0    0  502    0 -0.00000000000E+00 -0.00000000000E+00 -0.22190877397E+04  0.22190877397E+04  0.00000000000E+00 0.  1.
        -13    1    1    2    0    0  0.24119652036E+03 -0.16320164666E+03 -0.94696190794E+03  0.99073074302E+03  0.10566000000E+00 0.  1.
         13    1    1    2    0    0  0.49165189682E+02 -0.26562087286E+03 -0.69731642436E+03  0.74781138720E+03  0.10566000000E+00 0. -1.
          4    1    1    2  501    0 -0.29036171004E+03  0.42882251952E+03 -0.40061188991E+03  0.65474312691E+03  0.00000000000E+00 0.  1.
</event>
<event>
 5    1  0.2261430E-004  0.2639954E+03  0.7818608E-02  0.1080886E+00
          4   -1    0    0  502    0 -0.00000000000E+00  0.00000000000E+00  0.18757543124E+04  0.18757543124E+04  0.00000000000E+00 0.  1.
         21   -1    0    0  501  502  0.00000000000E+00 -0.00000000000E+00 -0.15431437736E+03  0.15431437736E+03  0.00000000000E+00 0.  1.
        -13    1    1    2    0    0 -0.23478736929E+03  0.19906206389E+03  0.15241226495E+04  0.15548957122E+04  0.10566000000E+00 0.  1.
         13    1    1    2    0    0  0.31417457664E+02 -0.36334621020E+02  0.20900204673E+03  0.21445075899E+03  0.10566000000E+00 0. -1.
          4    1    1    2  501    0  0.20336991163E+03 -0.16272744287E+03 -0.11684761138E+02  0.26072221858E+03  0.00000000000E+00 0.  1.
</event>
<event>
 5    1  0.7625606E-005  0.2010251E+03  0.7818608E-02  0.1059435E+00
         21   -1    0    0  501  502  0.00000000000E+00  0.00000000000E+00  0.11002326694E+03  0.11002326694E+03  0.00000000000E+00 0.  1.
         -4   -1    0    0    0  501 -0.00000000000E+00 -0.00000000000E+00 -0.12775273123E+04  0.12775273123E+04  0.00000000000E+00 0. -1.
        -13    1    1    2    0    0  0.21263536059E+03  0.92872130673E+01 -0.12124093802E+03  0.24494780080E+03  0.10566000000E+00 0.  1.
         13    1    1    2    0    0 -0.19737055534E+03  0.31133269732E+02 -0.10732295691E+04  0.10916712581E+04  0.10566000000E+00 0. -1.
         -4    1    1    2    0  502 -0.15264805250E+02 -0.40420482799E+02  0.26966461728E+02  0.50931520370E+02  0.00000000000E+00 0. -1.
</event>
<event>
 5    1  0.7625606E-005  0.4963954E+03  0.7818608E-02  0.9805918E-01
          4   -1    0    0  502    0 -0.00000000000E+00  0.00000000000E+00  0.15148697335E+04  0.15148697335E+04  0.00000000000E+00 0.  1.
         21   -1    0    0  501  502  0.00000000000E+00 -0.00000000000E+00 -0.23521983989E+03  0.23521983989E+03  0.00000000000E+00 0.  1.
        -13    1    1    2    0    0  0.45152730793E+02 -0.56084136804E+03  0.37828667546E+03  0.67799898908E+03  0.10566000000E+00 0.  1.
         13    1    1    2    0    0 -0.68444415039E+02  0.14540405353E+03  0.30756151816E+03  0.34701739920E+03  0.10566000000E+00 0. -1.
          4    1    1    2  501    0  0.23291684246E+02  0.41543731451E+03  0.59380170002E+03  0.72507318513E+03  0.00000000000E+00 0.  1.
</event>
<event>
 5    1  0.7625606E-005  0.4038916E+03  0.7818608E-02  0.9874633E-01
         21   -1    0    0  501  502  0.00000000000E+00  0.00000000000E+00  0.12534577957E+04  0.12534577957E+04  0.00000000000E+00 0. -1.
         -4   -1    0    0    0  501 -0.00000000000E+00 -0.00000000000E+00 -0.11780200718E+04  0.11780200718E+04  0.00000000000E+00 0. -1.
        -13    1    1    2    0    0  0.21175759226E+03  0.10511669691E+03 -0.93898185071E+03  0.96828597272E+03  0.10566000000E+00 0.  1.
         13    1    1    2    0    0 -0.23371810809E+03 -0.37470919153E+03  0.10952119392E+04  0.11808981053E+04  0.10566000000E+00 0. -1.
         -4    1    1    2    0  502  0.21960515823E+02  0.26959249463E+03 -0.80792364548E+02  0.28229378949E+03  0.00000000000E+00 0. -1.
</event>
<event>
 5    1  0.7625606E-005  0.4893226E+03  0.7818608E-02  0.9859037E-01
         -4   -1    0    0    0  501 -0.00000000000E+00  0.00000000000E+00  0.14698802470E+04  0.14698802470E+04  0.00000000000E+00 0. -1.
         21   -1    0    0  501  502  0.00000000000E+00 -0.00000000000E+00 -0.22055041332E+03  0.22055041332E+03  0.00000000000E+00 0. -1.
        -13    1    1    2    0    0 -0.58465554481E+02  0.12733659457E+03  0.16261563934E+03  0.21465480824E+03  0.10566000000E+00 0.  1.
         13    1    1    2    0    0 -0.37235758419E+03  0.23077207139E+03  0.46268723223E+03  0.63716984037E+03  0.10566000000E+00 0. -1.
         -4    1    1    2    0  502  0.43082313868E+03 -0.35810866596E+03  0.62402696216E+03  0.83860601176E+03  0.00000000000E+00 0. -1.
</event>
<event>
 5    1  0.7625606E-005  0.1817881E+03  0.7818608E-02  0.1086909E+00
         21   -1    0    0  501  502  0.00000000000E+00  0.00000000000E+00  0.13934500462E+03  0.13934500462E+03  0.00000000000E+00 0.  1.
          4   -1    0    0  502    0 -0.00000000000E+00 -0.00000000000E+00 -0.66333084983E+03  0.66333084983E+03  0.00000000000E+00 0.  1.
        -13    1    1    2    0    0  0.27076637927E+03  0.27192845479E+02 -0.41561337108E+03  0.49677798701E+03  0.10566000000E+00 0.  1.
         13    1    1    2    0    0 -0.12235340656E+03  0.22212222799E+02 -0.19146739022E+02  0.12581870973E+03  0.10566000000E+00 0. -1.
          4    1    1    2  501    0 -0.14841297270E+03 -0.49405068278E+02 -0.89225735099E+02  0.18007915771E+03  0.00000000000E+00 0.  1.
</event>
<event>
 5    1  0.7625606E-005  0.1013385E+03  0.7818608E-02  0.1162360E+00
         21   -1    0    0  501  502  0.00000000000E+00  0.00000000000E+00  0.23340332707E+03  0.23340332707E+03  0.00000000000E+00 0.  1.
         -4   -1    0    0    0  501 -0.00000000000E+00 -0.00000000000E+00 -0.72436637940E+02  0.72436637940E+02  0.00000000000E+00 0. -1.
        -13    1    1    2    0    0 -0.11187424371E+03 -0.40145152516E+02  0.43190610181E+02  0.12646311576E+03  0.10566000000E+00 0.  1.
         13    1    1    2    0    0  0.81746723303E+02  0.30226610625E+02  0.41022506223E+02  0.96327731944E+02  0.10566000000E+00 0. -1.
         -4    1    1    2    0  502  0.30127520406E+02  0.99185418917E+01  0.76753572730E+02  0.83049117310E+02  0.00000000000E+00 0. -1.
</event>
<event>
 5    1  0.7625606E-005  0.2760438E+03  0.7818608E-02  0.1017943E+00
         -4   -1    0    0    0  501 -0.00000000000E+00  0.00000000000E+00  0.21163509511E+04  0.21163509511E+04  0.00000000000E+00 0. -1.
         21   -1    0    0  501  502  0.00000000000E+00 -0.00000000000E+00 -0.28708747807E+03  0.28708747807E+03  0.00000000000E+00 0. -1.
        -13    1    1    2    0    0  0.52350968176E+02 -0.26901269742E+03  0.11172807722E+04  0.11504020125E+04  0.10566000000E+00 0.  1.
         13    1    1    2    0    0  0.22168288348E+03 -0.13572143836E+03 -0.12140899647E+03  0.28688632810E+03  0.10566000000E+00 0. -1.
         -4    1    1    2    0  502 -0.27403385166E+03  0.40473413578E+03  0.83339169724E+03  0.96615008852E+03  0.00000000000E+00 0. -1.
</event>
<event>
 5    1  0.7625606E-005  0.1848834E+03  0.7818608E-02  0.1071024E+00
          4   -1    0    0  502    0 -0.00000000000E+00  0.00000000000E+00  0.47532627019E+03  0.47532627019E+03  0.00000000000E+00 0.  1.
         21   -1    0    0  501  502  0.00000000000E+00 -0.00000000000E+00 -0.30867347872E+03  0.30867347872E+03  0.00000000000E+00 0. -1.
        -13    1    1    2    0    0 -0.17473954399E+03 -0.56331705485E+02  0.40548290491E+03  0.44511073523E+03  0.10566000000E+00 0.  1.
         13    1    1    2    0    0  0.18726240624E+03  0.63566444271E+02 -0.14823499448E+03  0.24714677093E+03  0.10566000000E+00 0. -1.
          4    1    1    2  501    0 -0.12522862249E+02 -0.72347387860E+01 -0.90595118967E+02  0.91742242751E+02  0.00000000000E+00 0.  1.
</event>
<event>
 5    1  0.7625606E-005  0.4397475E+03  0.7818608E-02  0.9773148E-01
         -4   -1    0    0    0  501 -0.00000000000E+00  0.00000000000E+00  0.14998392624E+04  0.14998392624E+04  0.00000000000E+00 0. -1.
         21   -1    0    0  501  502  0.00000000000E+00 -0.00000000000E+00 -0.30156575920E+03  0.30156575920E+03  0.00000000000E+00 0. -1.
        -13    1    1    2    0    0 -0.25027684173E+03  0.65008737000E+02  0.44957954597E+03  0.51863900037E+03  0.10566000000E+00 0.  1.
         13    1    1    2    0    0 -0.15022697436E+03 -0.40071918115E+03  0.82128151614E+02  0.43576260787E+03  0.10566000000E+00 0. -1.
         -4    1    1    2    0  502  0.40050381609E+03  0.33571044415E+03  0.66656580558E+03  0.84700341332E+03  0.00000000000E+00 0. -1.
</event>
<event>
 5    1  0.7625606E-005  0.4988589E+03  0.7818608E-02  0.9500723E-01
         21   -1    0    0  501  502  0.00000000000E+00  0.00000000000E+00  0.43145565043E+03  0.43145565043E+03  0.00000000000E+00 0. -1.
         -4   -1    0    0    0  501 -0.00000000000E+00 -0.00000000000E+00 -0.18084910201E+04  0.18084910201E+04  0.00000000000E+00 0. -1.
        -13    1    1    2    0    0 -0.51017334321E+03  0.87286109477E+02 -0.87140072779E+03  0.10135259960E+04  0.10566000000E+00 0.  1.
         13    1    1    2    0    0  0.36452829806E+03  0.41640530120E+03 -0.97434296768E+02  0.56193212072E+03  0.10566000000E+00 0. -1.
         -4    1    1    2    0  502  0.14564504515E+03 -0.50369141067E+03 -0.40820034510E+03  0.66448855378E+03  0.00000000000E+00 0. -1.
</event>
<event>
 5    1  0.7625606E-005  0.3580788E+03  0.7818608E-02  0.1001226E+00
         21   -1    0    0  501  502  0.00000000000E+00  0.00000000000E+00  0.32697714274E+03  0.32697714274E+03  0.00000000000E+00 0. -1.
         -4   -1    0    0    0  501 -0.00000000000E+00 -0.00000000000E+00 -0.11812016270E+04  0.11812016270E+04  0.00000000000E+00 0. -1.
        -13    1    1    2    0    0 -0.11493008412E+03 -0.18164688818E+03 -0.18532963928E+03  0.28381614222E+03  0.10566000000E+00 0.  1.
         13    1    1    2    0    0  0.23234831939E+02 -0.19586042722E+03 -0.79251106398E+03  0.81668535071E+03  0.10566000000E+00 0. -1.
         -4    1    1    2    0  502  0.91695252182E+02  0.37750731540E+03  0.12361621898E+03  0.40767727684E+03  0.00000000000E+00 0. -1.
</event>
<event>
 5    1  0.7625606E-005  0.4958547E+03  0.7818608E-02  0.9630860E-01
         -4   -1    0    0    0  501 -0.00000000000E+00  0.00000000000E+00  0.78906478850E+03  0.78906478850E+03  0.00000000000E+00 0. -1.
         21   -1    0    0  501  502  0.00000000000E+00 -0.00000000000E+00 -0.65276741023E+03  0.65276741023E+03  0.00000000000E+00 0. -1.
        -13    1    1    2    0    0  0.16085013353E+03 -0.24850241205E+03  0.26656869678E+03  0.39835297855E+03  0.10566000000E+00 0.  1.
         13    1    1    2    0    0  0.35650451133E+03 -0.10250537402E+03  0.88068825109E+02  0.38125968502E+03  0.10566000000E+00 0. -1.
         -4    1    1    2    0  502 -0.51735464486E+03  0.35100778607E+03 -0.21834014363E+03  0.66221953517E+03  0.00000000000E+00 0. -1.
</event>
<event>
 5    1  0.7625606E-005  0.5009020E+03  0.7818608E-02  0.9718927E-01
         -4   -1    0    0    0  501 -0.00000000000E+00  0.00000000000E+00  0.24907093557E+04  0.24907093557E+04  0.00000000000E+00 0. -1.
         21   -1    0    0  501  502  0.00000000000E+00 -0.00000000000E+00 -0.16679430278E+03  0.16679430278E+03  0.00000000000E+00 0. -1.
        -13    1    1    2    0    0 -0.50163562668E+02 -0.20491601652E+03  0.24282044824E+03  0.32166556871E+03  0.10566000000E+00 0.  1.
         13    1    1    2    0    0  0.47718129526E+03  0.35899199073E+03  0.13353985134E+04  0.14628282328E+04  0.10566000000E+00 0. -1.
         -4    1    1    2    0  502 -0.42701773259E+03 -0.15407597421E+03  0.74569609126E+03  0.87300985693E+03  0.00000000000E+00 0. -1.
</event>
<event>
 5    1  0.7625606E-005  0.2697420E+03  0.7818608E-02  0.1021264E+00
         -4   -1    0    0    0  501 -0.00000000000E+00  0.00000000000E+00  0.17356232854E+04  0.17356232854E+04  0.00000000000E+00 0. -1.
         21   -1    0    0  501  502  0.00000000000E+00 -0.00000000000E+00 -0.24616677639E+03  0.24616677639E+03  0.00000000000E+00 0. -1.
        -13    1    1    2    0    0 -0.22392467005E+03  0.14078890051E+03  0.42004008554E+03  0.49638438431E+03  0.10566000000E+00 0.  1.
         13    1    1    2    0    0 -0.19285957310E+03  0.15722418159E+03 -0.50454527906E+02  0.25388959956E+03  0.10566000000E+00 0. -1.
         -4    1    1    2    0  502  0.41678424316E+03 -0.29801308210E+03  0.11198709514E+04  0.12315160780E+04  0.00000000000E+00 0. -1.
</event>
<event>
 5    1  0.7625606E-005  0.4709982E+03  0.7818608E-02  0.9973942E-01
         -4   -1    0    0    0  501 -0.00000000000E+00  0.00000000000E+00  0.35152722647E+04  0.35152722647E+04  0.00000000000E+00 0. -1.
         21   -1    0    0  501  502  0.00000000000E+00 -0.00000000000E+00 -0.98237293698E+02  0.98237293698E+02  0.00000000000E+00 0. -1.
        -13    1    1    2    0    0  0.10067401286E+03  0.36572123899E+02  0.37578367260E+03  0.39075076055E+03  0.10566000000E+00 0.  1.
         13    1    1    2    0    0 -0.54366268362E+03  0.11949516540E+01  0.22540152125E+04  0.23186537324E+04  0.10566000000E+00 0. -1.
         -4    1    1    2    0  502  0.44298867076E+03 -0.37767075553E+02  0.78723608591E+03  0.90410506545E+03  0.00000000000E+00 0. -1.
</event>
<event>
 5    1  0.7625606E-005  0.1955760E+03  0.7818608E-02  0.1063212E+00
         21   -1    0    0  501  502  0.00000000000E+00  0.00000000000E+00  0.25068770907E+03  0.25068770907E+03  0.00000000000E+00 0. -1.
          4   -1    0    0  502    0 -0.00000000000E+00 -0.00000000000E+00 -0.12435521344E+04  0.12435521344E+04  0.00000000000E+00 0.  1.
        -13    1    1    2    0    0  0.16898598633E+03 -0.97111273706E+02 -0.10532474069E+04  0.10711288318E+04  0.10566000000E+00 0.  1.
         13    1    1    2    0    0 -0.18045857981E+03  0.86716542350E+02 -0.12568945511E+03  0.23639565993E+03  0.10566000000E+00 0. -1.
          4    1    1    2  501    0  0.11472593484E+02  0.10394731356E+02  0.18607243672E+03  0.18671535166E+03  0.00000000000E+00 0.  1.
</event>
<event>
 5    1  0.7625606E-005  0.2027438E+03  0.7818608E-02  0.1060262E+00
          4   -1    0    0  502    0 -0.00000000000E+00  0.00000000000E+00  0.85527905743E+03  0.85527905743E+03  0.00000000000E+00 0.  1.
         21   -1    0    0  501  502  0.00000000000E+00 -0.00000000000E+00 -0.55418834811E+03  0.55418834811E+03  0.00000000000E+00 0.  1.
        -13    1    1    2    0    0  0.30598516447E+03  0.64056982495E+02  0.29699864476E+03  0.43120577922E+03  0.10566000000E+00 0.  1.
         13    1    1    2    0    0 -0.12392054985E+03 -0.14571492073E+03  0.45042362993E+03  0.48935733198E+03  0.10566000000E+00 0. -1.
          4    1    1    2  501    0 -0.18206461461E+03  0.81657938240E+02 -0.44633156537E+03  0.48890429434E+03  0.00000000000E+00 0.  1.
</event>
<event>
 5    1  0.7625606E-005  0.4714462E+02  0.7818608E-02  0.1337027E+00
         -4   -1    0    0    0  501 -0.00000000000E+00  0.00000000000E+00  0.21016490339E+03  0.21016490339E+03  0.00000000000E+00 0. -1.
         21   -1    0    0  501  502  0.00000000000E+00 -0.00000000000E+00 -0.19379287929E+02  0.19379287929E+02  0.00000000000E+00 0.  1.
        -13    1    1    2    0    0 -0.16168246782E+02  0.19426083438E+02  0.20149310095E+02  0.32323223587E+02  0.10566000000E+00 0.  1.
         13    1    1    2    0    0  0.54956902869E+02 -0.23531604195E+02  0.98841108425E+02  0.11551438632E+03  0.10566000000E+00 0. -1.
         -4    1    1    2    0  502 -0.38788656086E+02  0.41055207570E+01  0.71795196939E+02  0.81706581407E+02  0.00000000000E+00 0. -1.
</event>
<event>
 5    1  0.7625606E-005  0.5116039E+03  0.7818608E-02  0.9502933E-01
          4   -1    0    0  502    0 -0.00000000000E+00  0.00000000000E+00  0.93506194252E+03  0.93506194252E+03  0.00000000000E+00 0.  1.
         21   -1    0    0  501  502  0.00000000000E+00 -0.00000000000E+00 -0.12156491200E+04  0.12156491200E+04  0.00000000000E+00 0.  1.
        -13    1    1    2    0    0  0.11285003209E+02  0.28967656389E+03  0.11568443903E+03  0.31212619813E+03  0.10566000000E+00 0.  1.
         13    1    1    2    0    0  0.55666324010E+03 -0.65675316519E+02  0.50201248714E+03  0.75246512111E+03  0.10566000000E+00 0. -1.
          4    1    1    2  501    0 -0.56794824330E+03 -0.22400124737E+03 -0.89828410367E+03  0.10861197433E+04  0.00000000000E+00 0.  1.
</event>
<event>
 5    1  0.7625606E-005  0.6671196E+02  0.7818608E-02  0.1254465E+00
         21   -1    0    0  501  502  0.00000000000E+00  0.00000000000E+00  0.49962023005E+03  0.49962023005E+03  0.00000000000E+00 0. -1.
         -4   -1    0    0    0  501 -0.00000000000E+00 -0.00000000000E+00 -0.55639350158E+02  0.55639350158E+02  0.00000000000E+00 0. -1.
        -13    1    1    2    0    0 -0.37425354830E+01  0.44631893667E+02  0.12050513965E+02  0.46381446237E+02  0.10566000000E+00 0.  1.
         13    1    1    2    0    0  0.21002638315E+02 -0.10597639270E+03  0.45499014725E+02  0.11722746321E+03  0.10566000000E+00 0. -1.
         -4    1    1    2    0  502 -0.17260102832E+02  0.61344499038E+02  0.38643135120E+03  0.39165067076E+03  0.00000000000E+00 0. -1.
</event>
<event>
 5    1  0.7625606E-005  0.2583495E+03  0.7818608E-02  0.1026155E+00
         -4   -1    0    0    0  501 -0.00000000000E+00  0.00000000000E+00  0.15575375216E+03  0.15575375216E+03  0.00000000000E+00 0. -1.
         21   -1    0    0  501  502  0.00000000000E+00 -0.00000000000E+00 -0.97835956431E+03  0.97835956431E+03  0.00000000000E+00 0. -1.
        -13    1    1    2    0    0 -0.23298335232E+03  0.63668051326E+02 -0.16982522387E+03  0.29525494245E+03  0.10566000000E+00 0.  1.
         13    1    1    2    0    0  0.25902777050E+03 -0.86605903922E+02 -0.10915669162E+03  0.29412780041E+03  0.10566000000E+00 0. -1.
         -4    1    1    2    0  502 -0.26044418185E+02  0.22937852596E+02 -0.54362389666E+03  0.54473057361E+03  0.00000000000E+00 0. -1.
</event>
<event>
 5    1  0.7625606E-005  0.1853256E+03  0.7818608E-02  0.1070690E+00
          4   -1    0    0  502    0 -0.00000000000E+00  0.00000000000E+00  0.15880958018E+04  0.15880958018E+04  0.00000000000E+00 0.  1.
         21   -1    0    0  501  502  0.00000000000E+00 -0.00000000000E+00 -0.36581507489E+02  0.36581507489E+02  0.00000000000E+00 0. -1.
        -13    1    1    2    0    0  0.14855420746E+03  0.55238703550E+02  0.48911574987E+03  0.51415357128E+03  0.10566000000E+00 0.  1.
         13    1    1    2    0    0 -0.18661465399E+03 -0.92358635368E+02  0.10239673433E+04  0.10449230966E+04  0.10566000000E+00 0. -1.
          4    1    1    2  501    0  0.38060446532E+02  0.37119931817E+02  0.38431201198E+02  0.65600641414E+02  0.00000000000E+00 0.  1.
</event>
<event>
 5    1  0.7625606E-005  0.4702416E+03  0.7818608E-02  0.1020416E+00
         -4   -1    0    0    0  501 -0.00000000000E+00  0.00000000000E+00  0.15100334284E+04  0.15100334284E+04  0.00000000000E+00 0. -1.
         21   -1    0    0  501  502  0.00000000000E+00 -0.00000000000E+00 -0.27253184650E+03  0.27253184650E+03  0.00000000000E+00 0. -1.
        -13    1    1    2    0    0  0.17674648497E+02 -0.48132712860E+02 -0.40986834694E+02  0.65643606155E+02  0.10566000000E+00 0.  1.
         13    1    1    2    0    0  0.29378382661E+03  0.39341876300E+03  0.11245993352E+04  0.12271148829E+04  0.10566000000E+00 0. -1.
         -4    1    1    2    0  502 -0.31145847511E+03 -0.34528605014E+03  0.15388908141E+03  0.48980678590E+03  0.00000000000E+00 0. -1.
</event>
<event>
 5    1  0.7625606E-005  0.4712708E+03  0.7818608E-02  0.9751636E-01
         21   -1    0    0  501  502  0.00000000000E+00  0.00000000000E+00  0.30302526866E+03  0.30302526866E+03  0.00000000000E+00 0. -1.
         -4   -1    0    0    0  501 -0.00000000000E+00 -0.00000000000E+00 -0.21140038622E+04  0.21140038622E+04  0.00000000000E+00 0. -1.
        -13    1    1    2    0    0 -0.15489682838E+03 -0.16487267062E+03 -0.12070443367E+04  0.12280602863E+04  0.10566000000E+00 0.  1.
         13    1    1    2    0    0  0.40462490729E+03  0.36758169001E+03 -0.50671037518E+02  0.54900380658E+03  0.10566000000E+00 0. -1.
         -4    1    1    2    0  502 -0.24972807891E+03 -0.20270901939E+03 -0.55326321929E+03  0.63996503792E+03  0.00000000000E+00 0. -1.
</event>
<event>
 5    1  0.7625606E-005  0.4968518E+03  0.7818608E-02  0.9484899E-01
          4   -1    0    0  502    0 -0.00000000000E+00  0.00000000000E+00  0.15324391601E+04  0.15324391601E+04  0.00000000000E+00 0.  1.
         21   -1    0    0  501  502  0.00000000000E+00 -0.00000000000E+00 -0.44197015817E+03  0.44197015817E+03  0.00000000000E+00 0.  1.
        -13    1    1    2    0    0  0.50168817993E+03  0.22014155244E+03 -0.10847908415E+03  0.55849893094E+03  0.10566000000E+00 0.  1.
         13    1    1    2    0    0 -0.34682615504E+03 -0.34701587257E+03  0.55116307090E+03  0.73789507352E+03  0.10566000000E+00 0. -1.
          4    1    1    2  501    0 -0.15486202490E+03  0.12687432014E+03  0.64778501520E+03  0.67801531383E+03  0.00000000000E+00 0.  1.
</event>
<event>
 5    1  0.7625606E-005  0.6123729E+02  0.7818608E-02  0.1251787E+00
          4   -1    0    0  502    0 -0.00000000000E+00  0.00000000000E+00  0.17942796533E+03  0.17942796533E+03  0.00000000000E+00 0.  1.
         21   -1    0    0  501  502  0.00000000000E+00 -0.00000000000E+00 -0.16622771880E+03  0.16622771880E+03  0.00000000000E+00 0.  1.
        -13    1    1    2    0    0 -0.64270894707E+02 -0.27259021408E+01  0.16106016309E+03  0.17343173224E+03  0.10566000000E+00 0.  1.
         13    1    1    2    0    0  0.39693099462E+02  0.14039510899E+02 -0.31030799674E+02  0.52302693082E+02  0.10566000000E+00 0. -1.
          4    1    1    2  501    0  0.24577795244E+02 -0.11313608758E+02 -0.11682911688E+03  0.11992125881E+03  0.00000000000E+00 0.  1.
</event>
<event>
 5    1  0.7625606E-005  0.6009998E+03  0.7818608E-02  0.9280476E-01
         -4   -1    0    0    0  501 -0.00000000000E+00  0.00000000000E+00  0.17435666488E+04  0.17435666488E+04  0.00000000000E+00 0. -1.
         21   -1    0    0  501  502  0.00000000000E+00 -0.00000000000E+00 -0.55210702215E+03  0.55210702215E+03  0.00000000000E+00 0.  1.
        -13    1    1    2    0    0  0.11544738046E+03  0.59015213385E+03  0.32606094463E+03  0.68404925957E+03  0.10566000000E+00 0.  1.
         13    1    1    2    0    0 -0.91228693001E+02 -0.59404230763E+03  0.11650690160E+04  0.13109518530E+04  0.10566000000E+00 0. -1.
         -4    1    1    2    0  502 -0.24218687463E+02  0.38901737748E+01 -0.29967033399E+03  0.30067255836E+03  0.00000000000E+00 0. -1.
</event>
<event>
 5    1  0.7625606E-005  0.4356582E+03  0.7818608E-02  0.9755939E-01
         -4   -1    0    0    0  501 -0.00000000000E+00  0.00000000000E+00  0.32956026393E+04  0.32956026393E+04  0.00000000000E+00 0. -1.
         21   -1    0    0  501  502  0.00000000000E+00 -0.00000000000E+00 -0.16818892650E+03  0.16818892650E+03  0.00000000000E+00 0. -1.
        -13    1    1    2    0    0  0.24613292855E+03 -0.13792406193E+03  0.15537352055E+04  0.15791445676E+04  0.10566000000E+00 0.  1.
         13    1    1    2    0    0 -0.42115369634E+03 -0.21280348638E+03  0.31750764029E+03  0.56874148131E+03  0.10566000000E+00 0. -1.
         -4    1    1    2    0  502  0.17502076779E+03  0.35072754831E+03  0.12561708670E+04  0.13159055169E+04  0.00000000000E+00 0. -1.
</event>
<event>
 5    1  0.7625606E-005  0.1624610E+03  0.7818608E-02  0.1089433E+00
          4   -1    0    0  502    0 -0.00000000000E+00  0.00000000000E+00  0.71906700107E+03  0.71906700107E+03  0.00000000000E+00 0.  1.
         21   -1    0    0  501  502  0.00000000000E+00 -0.00000000000E+00 -0.91735225874E+02  0.91735225874E+02  0.00000000000E+00 0.  1.
        -13    1    1    2    0    0  0.76146943341E+02  0.16789983256E+03  0.28992026794E+03  0.34357311257E+03  0.10566000000E+00 0.  1.
         13    1    1    2    0    0 -0.51945387146E+02 -0.14166935089E+03  0.38164563205E+03  0.41039240716E+03  0.10566000000E+00 0. -1.
          4    1    1    2  501    0 -0.24201556194E+02 -0.26230481672E+02 -0.44234124793E+02  0.56836707216E+02  0.00000000000E+00 0.  1.
</event>
<event>
 5    1  0.7625606E-005  0.5021201E+03  0.7818608E-02  0.9628356E-01
         21   -1    0    0  501  502  0.00000000000E+00  0.00000000000E+00  0.19082376837E+03  0.19082376837E+03  0.00000000000E+00 0. -1.
         -4   -1    0    0    0  501 -0.00000000000E+00 -0.00000000000E+00 -0.25512518701E+04  0.25512518701E+04  0.00000000000E+00 0. -1.
        -13    1    1    2    0    0  0.28677450254E+03  0.21894576975E+02 -0.90985220208E+03  0.95422745118E+03  0.10566000000E+00 0.  1.
         13    1    1    2    0    0  0.32572393427E+03 -0.17795640613E+03 -0.79402279821E+03  0.87649117456E+03  0.10566000000E+00 0. -1.
         -4    1    1    2    0  502 -0.61249843681E+03  0.15606182915E+03 -0.65655310140E+03  0.91135701269E+03  0.00000000000E+00 0. -1.
</event>
<event>
 5    1  0.7625606E-005  0.2850192E+02  0.7818608E-02  0.1417356E+00
         21   -1    0    0  501  502  0.00000000000E+00  0.00000000000E+00  0.28557199675E+03  0.28557199675E+03  0.00000000000E+00 0.  1.
         -4   -1    0    0    0  501 -0.00000000000E+00 -0.00000000000E+00 -0.63574685388E+01  0.63574685388E+01  0.00000000000E+00 0. -1.
        -13    1    1    2    0    0  0.13339153042E+02 -0.20837223863E+02  0.13585694985E+03  0.13809143670E+03  0.10566000000E+00 0.  1.
         13    1    1    2    0    0 -0.28564731898E+02  0.12729792283E+02  0.50554459317E+02  0.59445403866E+02  0.10566000000E+00 0. -1.
         -4    1    1    2    0  502  0.15225578857E+02  0.81074315801E+01  0.92803119039E+02  0.94392624721E+02  0.00000000000E+00 0. -1.
</event>
<event>
 5    1  0.7625606E-005  0.1901212E+03  0.7818608E-02  0.1069146E+00
         -4   -1    0    0    0  501 -0.00000000000E+00  0.00000000000E+00  0.14481129593E+04  0.14481129593E+04  0.00000000000E+00 0. -1.
         21   -1    0    0  501  502  0.00000000000E+00 -0.00000000000E+00 -0.26423305296E+03  0.26423305296E+03  0.00000000000E+00 0.  1.
        -13    1    1    2    0    0 -0.10570126116E+03  0.14496772680E+03  0.96414923691E+01  0.17967016436E+03  0.10566000000E+00 0.  1.
         13    1    1    2    0    0  0.11357046338E+02 -0.30656346580E+03  0.12810138214E+04  0.13172344373E+04  0.10566000000E+00 0. -1.
         -4    1    1    2    0  502  0.94344214820E+02  0.16159573900E+03 -0.10677540748E+03  0.21544141054E+03  0.00000000000E+00 0. -1.
</event>
<event>
 5    1  0.7625606E-005  0.4986618E+03  0.7818608E-02  0.9744740E-01
          4   -1    0    0  502    0 -0.00000000000E+00  0.00000000000E+00  0.31303801473E+03  0.31303801473E+03  0.00000000000E+00 0.  1.
         21   -1    0    0  501  502  0.00000000000E+00 -0.00000000000E+00 -0.12330492059E+04  0.12330492059E+04  0.00000000000E+00 0.  1.
        -13    1    1    2    0    0 -0.15710271095E+03 -0.57380817367E+03 -0.54914151045E+03  0.80962552555E+03  0.10566000000E+00 0.  1.
         13    1    1    2    0    0  0.12587950744E+03  0.14964619946E+03 -0.44991310070E+02  0.20065857707E+03  0.10566000000E+00 0. -1.
          4    1    1    2  501    0  0.31223203513E+02  0.42416197421E+03 -0.32587837066E+03  0.53580311800E+03  0.00000000000E+00 0.  1.
</event>
<event>
 5    1  0.7625606E-005  0.8649426E+02  0.7818608E-02  0.1203100E+00
         21   -1    0    0  501  502  0.00000000000E+00  0.00000000000E+00  0.34986003991E+03  0.34986003991E+03  0.00000000000E+00 0. -1.
         -4   -1    0    0    0  501 -0.00000000000E+00 -0.00000000000E+00 -0.51645068958E+02  0.51645068958E+02  0.00000000000E+00 0. -1.
        -13    1    1    2    0    0 -0.28795381115E+02  0.55712884785E+02  0.10662110545E+03  0.12369790134E+03  0.10566000000E+00 0.  1.
         13    1    1    2    0    0  0.92968258653E+02 -0.86957852668E+02  0.10114767691E+03  0.16259037169E+03  0.10566000000E+00 0. -1.
         -4    1    1    2    0  502 -0.64172877538E+02  0.31244967883E+02  0.90446188589E+02  0.11521683583E+03  0.00000000000E+00 0. -1.
</event>
<event>
 5    1  0.7625606E-005  0.4996802E+03  0.7818608E-02  0.9804026E-01
         21   -1    0    0  501  502  0.00000000000E+00  0.00000000000E+00  0.10106275642E+03  0.10106275642E+03  0.00000000000E+00 0. -1.
         -4   -1    0    0    0  501 -0.00000000000E+00 -0.00000000000E+00 -0.34864711909E+04  0.34864711909E+04  0.00000000000E+00 0. -1.
        -13    1    1    2    0    0 -0.10905973378E+03  0.11512333085E+03 -0.34912634900E+03  0.38345355073E+03  0.10566000000E+00 0.  1.
         13    1    1    2    0    0  0.71830134236E+02  0.43335325660E+03 -0.17685529259E+04  0.18222881430E+04  0.10566000000E+00 0. -1.
         -4    1    1    2    0  502  0.37229599542E+02 -0.54847658745E+03 -0.12677291595E+04  0.13817922536E+04  0.00000000000E+00 0. -1.
</event>
<event>
 5    1  0.7625606E-005  0.9671293E+03  0.7818608E-02  0.8806104E-01
          4   -1    0    0  502    0 -0.00000000000E+00  0.00000000000E+00  0.33047093633E+04  0.33047093633E+04  0.00000000000E+00 0.  1.
         21   -1    0    0  501  502  0.00000000000E+00 -0.00000000000E+00 -0.38737002707E+03  0.38737002707E+03  0.00000000000E+00 0. -1.
        -13    1    1    2    0    0  0.10364186457E+04  0.13430278653E+03  0.14253254031E+04  0.17674143157E+04  0.10566000000E+00 0.  1.
         13    1    1    2    0    0 -0.91014833805E+03 -0.38819459297E+02  0.15118731545E+04  0.17651168216E+04  0.10566000000E+00 0. -1.
          4    1    1    2  501    0 -0.12627030762E+03 -0.95483327237E+02 -0.19859221319E+02  0.15954825301E+03  0.00000000000E+00 0.  1.
</event>
<event>
 5    1  0.7625606E-005  0.3062413E+03  0.7818608E-02  0.1004762E+00
         -4   -1    0    0    0  501 -0.00000000000E+00  0.00000000000E+00  0.17684022728E+04  0.17684022728E+04  0.00000000000E+00 0. -1.
         21   -1    0    0  501  502  0.00000000000E+00 -0.00000000000E+00 -0.18233002246E+03  0.18233002246E+03  0.00000000000E+00 0. -1.
        -13    1    1    2    0    0 -0.30428872058E+03  0.11872812387E+03  0.10545675781E+04  0.11039931072E+04  0.10566000000E+00 0.  1.
         13    1    1    2    0    0  0.24695660518E+03 -0.13936240891E+03  0.65239732022E+03  0.71135906577E+03  0.10566000000E+00 0. -1.
         -4    1    1    2    0  502  0.57332115404E+02  0.20634285048E+02 -0.12089264796E+03  0.13538012228E+03  0.00000000000E+00 0. -1.
</event>
<event>
 5    1  0.7625606E-005  0.1445799E+03  0.7818608E-02  0.1106583E+00
         21   -1    0    0  501  502  0.00000000000E+00  0.00000000000E+00  0.30284742123E+03  0.30284742123E+03  0.00000000000E+00 0.  1.
         -4   -1    0    0    0  501 -0.00000000000E+00 -0.00000000000E+00 -0.19283250461E+03  0.19283250461E+03  0.00000000000E+00 0. -1.
        -13    1    1    2    0    0 -0.86092234451E+02  0.10785157861E+03  0.13993907540E+03  0.19653699862E+03  0.10566000000E+00 0.  1.
         13    1    1    2    0    0  0.99245448325E+02 -0.10695907669E+03 -0.13167556828E+03  0.19654101238E+03  0.10566000000E+00 0. -1.
         -4    1    1    2    0  502 -0.13153213874E+02 -0.89250191772E+00  0.10175140950E+03  0.10260191484E+03  0.00000000000E+00 0. -1.
</event>
<event>
 5    1  0.7625606E-005  0.4936150E+03  0.7818608E-02  0.9930558E-01
          4   -1    0    0  502    0 -0.00000000000E+00  0.00000000000E+00  0.61305040623E+03  0.61305040623E+03  0.00000000000E+00 0.  1.
         21   -1    0    0  501  502  0.00000000000E+00 -0.00000000000E+00 -0.95583346256E+03  0.95583346256E+03  0.00000000000E+00 0.  1.
        -13    1    1    2    0    0 -0.62683899650E+02 -0.44828531004E+03 -0.35745448729E+03  0.57676920178E+03  0.10566000000E+00 0.  1.
         13    1    1    2    0    0 -0.52633489731E+02 -0.93642689041E+02  0.33521857469E+03  0.35200957577E+03  0.10566000000E+00 0. -1.
          4    1    1    2  501    0  0.11531738938E+03  0.54192799908E+03 -0.32054714373E+03  0.64010509124E+03  0.00000000000E+00 0.  1.
</event>
<event>
 5    1  0.7625606E-005  0.2218986E+03  0.7818608E-02  0.1097897E+00
          4   -1    0    0  502    0 -0.00000000000E+00  0.00000000000E+00  0.26964705500E+03  0.26964705500E+03  0.00000000000E+00 0.  1.
         21   -1    0    0  501  502  0.00000000000E+00 -0.00000000000E+00 -0.75865216678E+03  0.75865216678E+03  0.00000000000E+00 0.  1.
        -13    1    1    2    0    0  0.18395638826E+03  0.17524338132E+03  0.17700191130E+03  0.30964476945E+03  0.10566000000E+00 0.  1.
         13    1    1    2    0    0 -0.36797457843E+01 -0.50421081868E+02 -0.13501411052E+03  0.14416881504E+03  0.10566000000E+00 0. -1.
          4    1    1    2  501    0 -0.18027664248E+03 -0.12482229945E+03 -0.53099291256E+03  0.57448563729E+03  0.00000000000E+00 0.  1.
</event>
<event>
 5    1  0.7625606E-005  0.4743186E+03  0.7818608E-02  0.9563987E-01
         21   -1    0    0  501  502  0.00000000000E+00  0.00000000000E+00  0.19450020060E+04  0.19450020060E+04  0.00000000000E+00 0.  1.
         -4   -1    0    0    0  501 -0.00000000000E+00 -0.00000000000E+00 -0.91543652488E+03  0.91543652488E+03  0.00000000000E+00 0. -1.
        -13    1    1    2    0    0 -0.19894350495E+03  0.55851422902E+03  0.85809714841E+03  0.10429992279E+04  0.10566000000E+00 0.  1.
         13    1    1    2    0    0 -0.26430734159E+03 -0.37386737498E+03 -0.68643423386E+03  0.82512250816E+03  0.10566000000E+00 0. -1.
         -4    1    1    2    0  502  0.46325084654E+03 -0.18464685404E+03  0.85790256661E+03  0.99231679485E+03  0.00000000000E+00 0. -1.
</event>
<event>
 5    1  0.7625606E-005  0.2640527E+03  0.7818608E-02  0.1023357E+00
         21   -1    0    0  501  502  0.00000000000E+00  0.00000000000E+00  0.34091703170E+03  0.34091703170E+03  0.00000000000E+00 0.  1.
         -4   -1    0    0    0  501 -0.00000000000E+00 -0.00000000000E+00 -0.63695593796E+03  0.63695593796E+03  0.00000000000E+00 0. -1.
        -13    1    1    2    0    0  0.27717461290E+03 -0.48198565352E+02  0.25672966326E+02  0.28250306211E+03  0.10566000000E+00 0.  1.
         13    1    1    2    0    0 -0.16161952443E+03  0.22579821862E+03 -0.38458616069E+03  0.47435454290E+03  0.10566000000E+00 0. -1.
         -4    1    1    2    0  502 -0.11555508847E+03 -0.17759965327E+03  0.62874288102E+02  0.22101536466E+03  0.00000000000E+00 0. -1.
</event>
<event>
 5    1  0.7625606E-005  0.4400587E+03  0.7818608E-02  0.1009483E+00
         21   -1    0    0  501  502  0.00000000000E+00  0.00000000000E+00  0.29921779638E+03  0.29921779638E+03  0.00000000000E+00 0. -1.
         -4   -1    0    0    0  501 -0.00000000000E+00 -0.00000000000E+00 -0.99224578296E+03  0.99224578296E+03  0.00000000000E+00 0. -1.
        -13    1    1    2    0    0  0.72999835896E+02 -0.50224998182E+02 -0.35242356480E+02  0.95360166408E+02  0.10566000000E+00 0.  1.
         13    1    1    2    0    0  0.35505598490E+03  0.20026046131E+03 -0.61858874248E+03  0.74082457320E+03  0.10566000000E+00 0. -1.
         -4    1    1    2    0  502 -0.42805582079E+03 -0.15003546313E+03 -0.39196887615E+02  0.45527883973E+03  0.00000000000E+00 0. -1.
</event>
<event>
 5    1  0.7625606E-005  0.8476839E+02  0.7818608E-02  0.1192558E+00
         21   -1    0    0  501  502  0.00000000000E+00  0.00000000000E+00  0.78127144662E+02  0.78127144662E+02  0.00000000000E+00 0. -1.
         -4   -1    0    0    0  501 -0.00000000000E+00 -0.00000000000E+00 -0.18883816074E+03  0.18883816074E+03  0.00000000000E+00 0. -1.
        -13    1    1    2    0    0  0.61581416114E+02 -0.60149530914E+02 -0.86832269995E+02  0.12227056537E+03  0.10566000000E+00 0.  1.
         13    1    1    2    0    0 -0.72140677884E+02  0.43762437599E+02 -0.60078044257E+02  0.10357997353E+03  0.10566000000E+00 0. -1.
         -4    1    1    2    0  502  0.10559261770E+02  0.16387093315E+02  0.36199298173E+02  0.41114766503E+02  0.00000000000E+00 0. -1.
</event>
<event>
 5    1  0.7625606E-005  0.1319707E+03  0.7818608E-02  0.1120391E+00
         -4   -1    0    0    0  501 -0.00000000000E+00  0.00000000000E+00  0.26587656869E+03  0.26587656869E+03  0.00000000000E+00 0. -1.
         21   -1    0    0  501  502  0.00000000000E+00 -0.00000000000E+00 -0.89664590530E+02  0.89664590530E+02  0.00000000000E+00 0.  1.
        -13    1    1    2    0    0  0.10113925388E+03 -0.86386697184E+02  0.94950230807E+02  0.16342388938E+03  0.10566000000E+00 0.  1.
         13    1    1    2    0    0 -0.89252625251E+02  0.96482377246E+02  0.10185804880E+03  0.16628275167E+03  0.10566000000E+00 0. -1.
         -4    1    1    2    0  502 -0.11886628624E+02 -0.10095680063E+02 -0.20596301446E+02  0.25834518173E+02  0.00000000000E+00 0. -1.
</event>
<event>
 5    1  0.7625606E-005  0.5429679E+03  0.7818608E-02  0.9617975E-01
         21   -1    0    0  501  502  0.00000000000E+00  0.00000000000E+00  0.31917027691E+03  0.31917027691E+03  0.00000000000E+00 0.  1.
          4   -1    0    0  502    0 -0.00000000000E+00 -0.00000000000E+00 -0.17207384143E+04  0.17207384143E+04  0.00000000000E+00 0.  1.
        -13    1    1    2    0    0  0.56512278177E+03 -0.12602368699E+03 -0.93960880440E+03  0.11036804087E+04  0.10566000000E+00 0.  1.
         13    1    1    2    0    0 -0.13113107976E+03 -0.19618255301E+03 -0.17829754343E+02  0.23664501999E+03  0.10566000000E+00 0. -1.
          4    1    1    2  501    0 -0.43399170202E+03  0.32220624000E+03 -0.44412957865E+03  0.69958326248E+03  0.00000000000E+00 0.  1.
</event>
<event>
 5    1  0.7625606E-005  0.1934458E+03  0.7818608E-02  0.1067351E+00
         -4   -1    0    0    0  501 -0.00000000000E+00  0.00000000000E+00  0.10769400107E+04  0.10769400107E+04  0.00000000000E+00 0. -1.
         21   -1    0    0  501  502  0.00000000000E+00 -0.00000000000E+00 -0.30275172651E+03  0.30275172651E+03  0.00000000000E+00 0. -1.
        -13    1    1    2    0    0  0.41721178568E+02  0.20985796345E+03  0.16262714968E+03  0.26875383261E+03  0.10566000000E+00 0.  1.
         13    1    1    2    0    0 -0.18630747542E+03 -0.70351396400E+02  0.80666220502E+03  0.83088129029E+03  0.10566000000E+00 0. -1.
         -4    1    1    2    0  502  0.14458629686E+03 -0.13950656705E+03 -0.19510107053E+03  0.28005661429E+03  0.00000000000E+00 0. -1.
</event>
<event>
 5    1  0.7625606E-005  0.4696439E+03  0.7818608E-02  0.9648592E-01
         21   -1    0    0  501  502  0.00000000000E+00  0.00000000000E+00  0.29428179030E+03  0.29428179030E+03  0.00000000000E+00 0. -1.
         -4   -1    0    0    0  501 -0.00000000000E+00 -0.00000000000E+00 -0.19902915837E+04  0.19902915837E+04  0.00000000000E+00 0. -1.
        -13    1    1    2    0    0 -0.26052081252E+03 -0.19808398515E+03 -0.10308699496E+04  0.10815734941E+04  0.10566000000E+00 0.  1.
         13    1    1    2    0    0  0.79228714623E+02  0.55447235230E+03 -0.21254006343E+03  0.59907434297E+03  0.10566000000E+00 0. -1.
         -4    1    1    2    0  502  0.18129209790E+03 -0.35638836715E+03 -0.45259978043E+03  0.60392553700E+03  0.00000000000E+00 0. -1.
</event>
<event>
 5    1  0.7625606E-005  0.1963637E+03  0.7818608E-02  0.1062658E+00
         21   -1    0    0  501  502  0.00000000000E+00  0.00000000000E+00  0.26275404287E+03  0.26275404287E+03  0.00000000000E+00 0.  1.
         -4   -1    0    0    0  501 -0.00000000000E+00 -0.00000000000E+00 -0.35156030284E+03  0.35156030284E+03  0.00000000000E+00 0. -1.
        -13    1    1    2    0    0 -0.59516054971E+02  0.16871286422E+03  0.10295873928E+03  0.20641391549E+03  0.10566000000E+00 0.  1.
         13    1    1    2    0    0  0.16613533198E+03 -0.12536240740E+03 -0.20489410263E+03  0.29205870331E+03  0.10566000000E+00 0. -1.
         -4    1    1    2    0  502 -0.10661927701E+03 -0.43350456814E+02  0.13129103379E+02  0.11584172691E+03  0.00000000000E+00 0. -1.
</event>
<event>
 5    1  0.7625606E-005  0.3934157E+03  0.7818608E-02  0.9853306E-01
         -4   -1    0    0    0  501 -0.00000000000E+00  0.00000000000E+00  0.57014101680E+03  0.57014101680E+03  0.00000000000E+00 0. -1.
         21   -1    0    0  501  502  0.00000000000E+00 -0.00000000000E+00 -0.59233732642E+03  0.59233732642E+03  0.00000000000E+00 0. -1.
        -13    1    1    2    0    0 -0.56058432723E+02  0.26909021072E+03  0.10355827521E+03  0.29372847481E+03  0.10566000000E+00 0.  1.
         13    1    1    2    0    0  0.18062459063E+03 -0.53487572544E+03 -0.10718202624E+03  0.57463491220E+03  0.10566000000E+00 0. -1.
         -4    1    1    2    0  502 -0.12456615791E+03  0.26578551472E+03 -0.18572558577E+02  0.29411495620E+03  0.00000000000E+00 0. -1.
</event>
<event>
 5    1  0.7625606E-005  0.4935837E+03  0.7818608E-02  0.9693098E-01
         21   -1    0    0  501  502  0.00000000000E+00  0.00000000000E+00  0.26460219037E+03  0.26460219037E+03  0.00000000000E+00 0. -1.
         -4   -1    0    0    0  501 -0.00000000000E+00 -0.00000000000E+00 -0.20781569458E+04  0.20781569458E+04  0.00000000000E+00 0. -1.
        -13    1    1    2    0    0 -0.18349407327E+03  0.15657421566E+03 -0.10021292464E+04  0.10307514723E+04  0.10566000000E+00 0.  1.
         13    1    1    2    0    0  0.46757966431E+03  0.23555286716E+03 -0.28251732562E+03  0.59492179834E+03  0.10566000000E+00 0. -1.
         -4    1    1    2    0  502 -0.28408559104E+03 -0.39212708282E+03 -0.52890818346E+03  0.71708586560E+03  0.00000000000E+00 0. -1.
</event>
<event>
 5    1  0.7625606E-005  0.2836064E+03  0.7818608E-02  0.1027727E+00
          4   -1    0    0  502    0 -0.00000000000E+00  0.00000000000E+00  0.31518064217E+03  0.31518064217E+03  0.00000000000E+00 0.  1.
         21   -1    0    0  501  502  0.00000000000E+00 -0.00000000000E+00 -0.14202063696E+04  0.14202063696E+04  0.00000000000E+00 0. -1.
        -13    1    1    2    0    0 -0.31076551196E+02 -0.27531777122E+03  0.20311272522E+03  0.34354099828E+03  0.10566000000E+00 0.  1.
         13    1    1    2    0    0  0.18363702496E+03  0.29397891172E+02 -0.51951138991E+03  0.55179605685E+03  0.10566000000E+00 0. -1.
          4    1    1    2  501    0 -0.15256047376E+03  0.24591988005E+03 -0.78862706270E+03  0.84004995660E+03  0.00000000000E+00 0.  1.
</event>
<event>
 5    1  0.7625606E-005  0.2781361E+03  0.7818608E-02  0.1016762E+00
          4   -1    0    0  502    0 -0.00000000000E+00  0.00000000000E+00  0.11656361363E+04  0.11656361363E+04  0.00000000000E+00 0.  1.
         21   -1    0    0  501  502  0.00000000000E+00 -0.00000000000E+00 -0.19406711639E+03  0.19406711639E+03  0.00000000000E+00 0.  1.
        -13    1    1    2    0    0 -0.18171645774E+02 -0.27767929468E+03  0.42599312349E+03  0.50882821446E+03  0.10566000000E+00 0.  1.
         13    1    1    2    0    0  0.28375325681E+02  0.27666871973E+03  0.67031127913E+03  0.72571892746E+03  0.10566000000E+00 0. -1.
          4    1    1    2  501    0 -0.10203679906E+02  0.10105749527E+01 -0.12473538274E+03  0.12515611073E+03  0.00000000000E+00 0.  1.
</event>
<event>
 5    1  0.9388165E-005  0.2556996E+03  0.7818608E-02  0.1043221E+00
         21   -1    0    0  501  502  0.00000000000E+00  0.00000000000E+00  0.34627178654E+03  0.34627178654E+03  0.00000000000E+00 0. -1.
         -4   -1    0    0    0  501 -0.00000000000E+00 -0.00000000000E+00 -0.10534404868E+04  0.10534404868E+04  0.00000000000E+00 0. -1.
        -13    1    1    2    0    0  0.42863872634E+02 -0.15209390372E+03 -0.22863947780E+03  0.27793144676E+03  0.10566000000E+00 0.  1.
         13    1    1    2    0    0  0.20007806527E+03  0.22982391434E+03 -0.71295655950E+03  0.77534336310E+03  0.10566000000E+00 0. -1.
         -4    1    1    2    0  502 -0.24294193791E+03 -0.77730010621E+02  0.23442733705E+03  0.34643746348E+03  0.00000000000E+00 0. -1.
</event>
<event>
 5    1  0.7625606E-005  0.4831208E+03  0.7818608E-02  0.9939258E-01
          4   -1    0    0  502    0 -0.00000000000E+00  0.00000000000E+00  0.24324834748E+04  0.24324834748E+04  0.00000000000E+00 0.  1.
         21   -1    0    0  501  502  0.00000000000E+00 -0.00000000000E+00 -0.13247161406E+03  0.13247161406E+03  0.00000000000E+00 0.  1.
        -13    1    1    2    0    0  0.10453454847E+03 -0.52319031873E+03  0.11366429011E+04  0.12556323814E+04  0.10566000000E+00 0.  1.
         13    1    1    2    0    0 -0.86003296572E+02  0.70664458903E+02  0.45597563519E+03  0.46936534152E+03  0.10566000000E+00 0. -1.
          4    1    1    2  501    0 -0.18531251898E+02  0.45252585983E+03  0.70739332439E+03  0.83995736589E+03  0.00000000000E+00 0.  1.
</event>
<event>
 5    1  0.7625606E-005  0.3839245E+03  0.7818608E-02  0.1004244E+00
         21   -1    0    0  501  502  0.00000000000E+00  0.00000000000E+00  0.50658664265E+03  0.50658664265E+03  0.00000000000E+00 0.  1.
          4   -1    0    0  502    0 -0.00000000000E+00 -0.00000000000E+00 -0.66397649082E+03  0.66397649082E+03  0.00000000000E+00 0.  1.
        -13    1    1    2    0    0  0.33304629619E+03  0.13517302175E+03  0.20878654258E+03  0.41567224197E+03  0.10566000000E+00 0.  1.
         13    1    1    2    0    0  0.85983708359E+02  0.13262796376E+03 -0.50806540447E+02  0.16602617441E+03  0.10566000000E+00 0. -1.
          4    1    1    2  501    0 -0.41903000455E+03 -0.26780098551E+03 -0.31536985030E+03  0.58886471709E+03  0.00000000000E+00 0.  1.
</event>
<event>
 5    1  0.7625606E-005  0.2408989E+03  0.7818608E-02  0.1035220E+00
         21   -1    0    0  501  502  0.00000000000E+00  0.00000000000E+00  0.12283401997E+04  0.12283401997E+04  0.00000000000E+00 0. -1.
         -4   -1    0    0    0  501 -0.00000000000E+00 -0.00000000000E+00 -0.40355265233E+03  0.40355265233E+03  0.00000000000E+00 0. -1.
        -13    1    1    2    0    0 -0.59953062791E+02 -0.25617131557E+03  0.24081461010E+02  0.26419318801E+03  0.10566000000E+00 0.  1.
         13    1    1    2    0    0  0.28062757920E+02  0.23215764666E+03 -0.23482329145E+03  0.33140108729E+03  0.10566000000E+00 0. -1.
         -4    1    1    2    0  502  0.31890304872E+02  0.24013668910E+02  0.10355293778E+04  0.10362985767E+04  0.00000000000E+00 0. -1.
</event>
<event>
 5    1  0.7625606E-005  0.4346967E+03  0.7818608E-02  0.1008995E+00
         21   -1    0    0  501  502  0.00000000000E+00  0.00000000000E+00  0.13260366795E+04  0.13260366795E+04  0.00000000000E+00 0. -1.
         -4   -1    0    0    0  501 -0.00000000000E+00 -0.00000000000E+00 -0.30122288984E+03  0.30122288984E+03  0.00000000000E+00 0. -1.
        -13    1    1    2    0    0 -0.39137561094E+02  0.84784017495E+02 -0.82249957753E+02  0.12443932267E+03  0.10566000000E+00 0.  1.
         13    1    1    2    0    0 -0.33986392327E+02 -0.45320444560E+03  0.10208505406E+04  0.11174458294E+04  0.10566000000E+00 0. -1.
         -4    1    1    2    0  502  0.73123953420E+02  0.36842042810E+03  0.86213206801E+02  0.38537441720E+03  0.00000000000E+00 0. -1.
</event>
<event>
 5    1  0.7625606E-005  0.4144053E+03  0.7818608E-02  0.9688339E-01
          4   -1    0    0  502    0 -0.00000000000E+00  0.00000000000E+00  0.15334986073E+04  0.15334986073E+04  0.00000000000E+00 0.  1.
         21   -1    0    0  501  502  0.00000000000E+00 -0.00000000000E+00 -0.40842104931E+03  0.40842104931E+03  0.00000000000E+00 0.  1.
        -13    1    1    2    0    0  0.22986440853E+03  0.51435714153E+03 -0.11072004685E+03  0.57416013036E+03  0.10566000000E+00 0.  1.
         13    1    1    2    0    0 -0.16802377283E+03 -0.35335938368E+03  0.66598872827E+03  0.77242206054E+03  0.10566000000E+00 0. -1.
          4    1    1    2  501    0 -0.61840635708E+02 -0.16099775785E+03  0.56980887659E+03  0.59533746573E+03  0.00000000000E+00 0.  1.
</event>
<event>
 5    1  0.7625606E-005  0.3119732E+03  0.7818608E-02  0.1009897E+00
         -4   -1    0    0    0  501 -0.00000000000E+00  0.00000000000E+00  0.28528498949E+03  0.28528498949E+03  0.00000000000E+00 0. -1.
         21   -1    0    0  501  502  0.00000000000E+00 -0.00000000000E+00 -0.23377883073E+04  0.23377883073E+04  0.00000000000E+00 0. -1.
        -13    1    1    2    0    0  0.13547682035E+03  0.20460661583E+03  0.59615985772E+02  0.25253101397E+03  0.10566000000E+00 0.  1.
         13    1    1    2    0    0 -0.15015899680E+03 -0.49521153970E+03 -0.45806808150E+03  0.69109230341E+03  0.10566000000E+00 0. -1.
         -4    1    1    2    0  502  0.14682176452E+02  0.29060492387E+03 -0.16540512220E+04  0.16794499794E+04  0.00000000000E+00 0. -1.
</event>
<event>
 5    1  0.7625606E-005  0.4716143E+03  0.7818608E-02  0.9596604E-01
         21   -1    0    0  501  502  0.00000000000E+00  0.00000000000E+00  0.15343048723E+03  0.15343048723E+03  0.00000000000E+00 0. -1.
         -4   -1    0    0    0  501 -0.00000000000E+00 -0.00000000000E+00 -0.38202529714E+04  0.38202529714E+04  0.00000000000E+00 0. -1.
        -13    1    1    2    0    0  0.15028141729E+03 -0.35825439616E+03 -0.16889698848E+04  0.17330753012E+04  0.10566000000E+00 0.  1.
         13    1    1    2    0    0 -0.55819962008E+03  0.13739029854E+03 -0.12734049675E+04  0.13971482142E+04  0.10566000000E+00 0. -1.
         -4    1    1    2    0  502  0.40791820279E+03  0.22086409762E+03 -0.70444763188E+03  0.84345994323E+03  0.00000000000E+00 0. -1.
</event>
<event>
 5    1  0.7625606E-005  0.3480168E+03  0.7818608E-02  0.9892512E-01
         -4   -1    0    0    0  501 -0.00000000000E+00  0.00000000000E+00  0.14312928990E+04  0.14312928990E+04  0.00000000000E+00 0. -1.
         21   -1    0    0  501  502  0.00000000000E+00 -0.00000000000E+00 -0.13987273215E+03  0.13987273215E+03  0.00000000000E+00 0. -1.
        -13    1    1    2    0    0 -0.18565649392E+03  0.27943779450E+03  0.58208329736E+03  0.67184432048E+03  0.10566000000E+00 0.  1.
         13    1    1    2    0    0  0.14634649896E+03 -0.33122223497E+03  0.74267931310E+03  0.82625543264E+03  0.10566000000E+00 0. -1.
         -4    1    1    2    0  502  0.39309994958E+02  0.51784440470E+02 -0.33342443649E+02  0.73065877993E+02  0.00000000000E+00 0. -1.
</event>
<event>
 5    1  0.7625606E-005  0.6940977E+03  0.7818608E-02  0.9131584E-01
         21   -1    0    0  501  502  0.00000000000E+00  0.00000000000E+00  0.13808170709E+04  0.13808170709E+04  0.00000000000E+00 0.  1.
         -4   -1    0    0    0  501 -0.00000000000E+00 -0.00000000000E+00 -0.62046357225E+03  0.62046357225E+03  0.00000000000E+00 0. -1.
        -13    1    1    2    0    0  0.24767366448E+03  0.58604454264E+03  0.78641123211E+02  0.64107323097E+03  0.10566000000E+00 0.  1.
         13    1    1    2    0    0 -0.52472066868E+03 -0.66998497362E+03  0.64621926787E+03  0.10685555663E+04  0.10566000000E+00 0. -1.
         -4    1    1    2    0  502  0.27704700420E+03  0.83940430981E+02  0.35493107547E+02  0.29165184583E+03  0.00000000000E+00 0. -1.
</event>
<event>
 5    1  0.7625606E-005  0.3212430E+03  0.7818608E-02  0.1008695E+00
         21   -1    0    0  501  502  0.00000000000E+00  0.00000000000E+00  0.75726677631E+03  0.75726677631E+03  0.00000000000E+00 0.  1.
          4   -1    0    0  502    0 -0.00000000000E+00 -0.00000000000E+00 -0.52883940265E+03  0.52883940265E+03  0.00000000000E+00 0.  1.
        -13    1    1    2    0    0  0.69363804317E+02 -0.17059269532E+03 -0.32323743755E+03  0.37201566801E+03  0.10566000000E+00 0.  1.
         13    1    1    2    0    0 -0.17091382149E+03 -0.15927777468E+03 -0.32204804472E+02  0.23583490937E+03  0.10566000000E+00 0. -1.
          4    1    1    2  501    0  0.10155001717E+03  0.32987047000E+03  0.58386961568E+03  0.67825560158E+03  0.00000000000E+00 0.  1.
</event>
<event>
 5    1  0.7625606E-005  0.4149494E+03  0.7818608E-02  0.9811440E-01
         21   -1    0    0  501  502  0.00000000000E+00  0.00000000000E+00  0.20445443586E+03  0.20445443586E+03  0.00000000000E+00 0. -1.
          4   -1    0    0  502    0 -0.00000000000E+00 -0.00000000000E+00 -0.20534177778E+04  0.20534177778E+04  0.00000000000E+00 0.  1.
        -13    1    1    2    0    0  0.19369619762E+03  0.94874244244E+02 -0.11817556256E+04  0.12012766995E+04  0.10566000000E+00 0.  1.
         13    1    1    2    0    0  0.26958183835E+03  0.15003471008E+02 -0.46835929267E+03  0.54061068239E+03  0.10566000000E+00 0. -1.
          4    1    1    2  501    0 -0.46327803598E+03 -0.10987771525E+03 -0.19884842367E+03  0.51598483168E+03  0.00000000000E+00 0.  1.
</event>
<event>
 5    1  0.7625606E-005  0.4961550E+02  0.7818608E-02  0.1293362E+00
         21   -1    0    0  501  502  0.00000000000E+00  0.00000000000E+00  0.67055286849E+02  0.67055286849E+02  0.00000000000E+00 0. -1.
         -4   -1    0    0    0  501 -0.00000000000E+00 -0.00000000000E+00 -0.11956334942E+03  0.11956334942E+03  0.00000000000E+00 0. -1.
        -13    1    1    2    0    0 -0.59753413427E+02 -0.13441485502E+02  0.13867074408E+02  0.62796901718E+02  0.10566000000E+00 0.  1.
         13    1    1    2    0    0  0.47906550498E+02  0.25659792539E+00 -0.85337252732E+02  0.97865015664E+02  0.10566000000E+00 0. -1.
         -4    1    1    2    0  502  0.11846862929E+02  0.13184887577E+02  0.18962115751E+02  0.25956718888E+02  0.00000000000E+00 0. -1.
</event>
<event>
 5    1  0.7625606E-005  0.3719053E+03  0.7818608E-02  0.9813886E-01
         21   -1    0    0  501  502  0.00000000000E+00  0.00000000000E+00  0.31040447905E+03  0.31040447905E+03  0.00000000000E+00 0. -1.
         -4   -1    0    0    0  501 -0.00000000000E+00 -0.00000000000E+00 -0.19019151479E+04  0.19019151479E+04  0.00000000000E+00 0. -1.
        -13    1    1    2    0    0 -0.30603490164E+03 -0.17073694595E+03 -0.30544313738E+03  0.46486986036E+03  0.10566000000E+00 0.  1.
         13    1    1    2    0    0  0.35260871583E+03  0.13902004270E+03 -0.14891843973E+04  0.15366618558E+04  0.10566000000E+00 0. -1.
         -4    1    1    2    0  502 -0.46573814188E+02  0.31716903258E+02  0.20311686587E+03  0.21078791075E+03  0.00000000000E+00 0. -1.
</event>
<event>
 5    1  0.7625606E-005  0.4512287E+02  0.7818608E-02  0.1347750E+00
         21   -1    0    0  501  502  0.00000000000E+00  0.00000000000E+00  0.89600793644E+01  0.89600793644E+01  0.00000000000E+00 0.  1.
          4   -1    0    0  502    0 -0.00000000000E+00 -0.00000000000E+00 -0.41976600020E+03  0.41976600020E+03  0.00000000000E+00 0.  1.
        -13    1    1    2    0    0 -0.49867429253E+02 -0.31596678279E+01 -0.11408792909E+03  0.12455043448E+03  0.10566000000E+00 0.  1.
         13    1    1    2    0    0  0.14399637765E+02 -0.18844701538E+02 -0.13999787061E+03  0.14199256066E+03  0.10566000000E+00 0. -1.
          4    1    1    2  501    0  0.35467791488E+02  0.22004369366E+02 -0.15672012114E+03  0.16218308443E+03  0.00000000000E+00 0.  1.
</event>
<event>
 5    1  0.7625606E-005  0.3954959E+03  0.7818608E-02  0.1009222E+00
          4   -1    0    0  502    0 -0.00000000000E+00  0.00000000000E+00  0.18152571063E+04  0.18152571063E+04  0.00000000000E+00 0.  1.
         21   -1    0    0  501  502  0.00000000000E+00 -0.00000000000E+00 -0.24131028422E+03  0.24131028422E+03  0.00000000000E+00 0.  1.
        -13    1    1    2    0    0 -0.35454533623E+03 -0.14023200176E+03  0.32028322346E+02  0.38261368814E+03  0.10566000000E+00 0.  1.
         13    1    1    2    0    0 -0.10426497556E+03  0.65420717707E+02  0.71329563001E+03  0.72383818799E+03  0.10566000000E+00 0. -1.
          4    1    1    2  501    0  0.45881031179E+03  0.74811284050E+02  0.82862286970E+03  0.95011551436E+03  0.00000000000E+00 0.  1.
</event>
<event>
 5    1  0.7625606E-005  0.4822530E+03  0.7818608E-02  0.9517741E-01
          4   -1    0    0  502    0 -0.00000000000E+00  0.00000000000E+00  0.12657976756E+04  0.12657976756E+04  0.00000000000E+00 0.  1.
         21   -1    0    0  501  502  0.00000000000E+00 -0.00000000000E+00 -0.19821244565E+03  0.19821244565E+03  0.00000000000E+00 0. -1.
        -13    1    1    2    0    0  0.10691414698E+03 -0.48210450220E+03  0.55526424932E+03  0.74308396807E+03  0.10566000000E+00 0.  1.
         13    1    1    2    0    0 -0.11756924758E+03  0.45609902316E+03  0.50753740754E+03  0.69241828263E+03  0.10566000000E+00 0. -1.
          4    1    1    2  501    0  0.10655100606E+02  0.26005479045E+02  0.47835730375E+01  0.28507870497E+02  0.00000000000E+00 0.  1.
</event>
<event>
 5    1  0.7625606E-005  0.4965546E+03  0.7818608E-02  0.9698807E-01
         21   -1    0    0  501  502  0.00000000000E+00  0.00000000000E+00  0.90187640557E+03  0.90187640557E+03  0.00000000000E+00 0. -1.
         -4   -1    0    0    0  501 -0.00000000000E+00 -0.00000000000E+00 -0.47402861263E+03  0.47402861263E+03  0.00000000000E+00 0. -1.
        -13    1    1    2    0    0  0.16968515271E+02  0.23162564576E+03 -0.62967448879E+02  0.24063100604E+03  0.10566000000E+00 0.  1.
         13    1    1    2    0    0 -0.37473017023E+03 -0.44007670416E+03  0.42169800965E+03  0.71548544956E+03  0.10566000000E+00 0. -1.
         -4    1    1    2    0  502  0.35776165496E+03  0.20845105840E+03  0.69117232168E+02  0.41978856260E+03  0.00000000000E+00 0. -1.
</event>
<event>
 5    1  0.7625606E-005  0.4728050E+02  0.7818608E-02  0.1303275E+00
         21   -1    0    0  501  502  0.00000000000E+00  0.00000000000E+00  0.15261434083E+03  0.15261434083E+03  0.00000000000E+00 0. -1.
          4   -1    0    0  502    0 -0.00000000000E+00 -0.00000000000E+00 -0.24429007746E+02  0.24429007746E+02  0.00000000000E+00 0.  1.
        -13    1    1    2    0    0 -0.36952931316E+02  0.57344453032E+01  0.55820200587E+02  0.67188607319E+02  0.10566000000E+00 0.  1.
         13    1    1    2    0    0  0.54459540225E+02 -0.77439762772E+00  0.26617477740E+02  0.60621303998E+02  0.10566000000E+00 0. -1.
          4    1    1    2  501    0 -0.17506608909E+02 -0.49600476755E+01  0.45747654754E+02  0.49233437255E+02  0.00000000000E+00 0.  1.
</event>
<event>
 5    1  0.7625606E-005  0.1485904E+03  0.7818608E-02  0.1102510E+00
         -4   -1    0    0    0  501 -0.00000000000E+00  0.00000000000E+00  0.62588914902E+02  0.62588914902E+02  0.00000000000E+00 0. -1.
         21   -1    0    0  501  502  0.00000000000E+00 -0.00000000000E+00 -0.59373130727E+03  0.59373130727E+03  0.00000000000E+00 0.  1.
        -13    1    1    2    0    0  0.70151758599E+02  0.11436749110E+03 -0.28632684625E+03  0.31620288788E+03  0.10566000000E+00 0.  1.
         13    1    1    2    0    0 -0.86144637650E+02 -0.12852612434E+03 -0.80489354512E+02  0.17440874573E+03  0.10566000000E+00 0. -1.
         -4    1    1    2    0  502  0.15992879051E+02  0.14158633234E+02 -0.16432619160E+03  0.16570858856E+03  0.00000000000E+00 0. -1.
</event>
<event>
 5    1  0.7625606E-005  0.6785345E+02  0.7818608E-02  0.1232475E+00
         21   -1    0    0  501  502  0.00000000000E+00  0.00000000000E+00  0.92799913360E+03  0.92799913360E+03  0.00000000000E+00 0.  1.
          4   -1    0    0  502    0 -0.00000000000E+00 -0.00000000000E+00 -0.16672462447E+02  0.16672462447E+02  0.00000000000E+00 0.  1.
        -13    1    1    2    0    0 -0.39183480773E+02  0.48785102009E+02  0.13539635152E+03  0.14915600729E+03  0.10566000000E+00 0.  1.
         13    1    1    2    0    0  0.38072816531E+02 -0.62588310097E+02  0.12833725871E+03  0.14777448716E+03  0.10566000000E+00 0. -1.
          4    1    1    2  501    0  0.11106642418E+01  0.13803208088E+02  0.64759306093E+03  0.64774110159E+03  0.00000000000E+00 0.  1.
</event>
<event>
 5    1  0.7625606E-005  0.4165161E+03  0.7818608E-02  0.9837835E-01
         21   -1    0    0  501  502  0.00000000000E+00  0.00000000000E+00  0.77550439250E+03  0.77550439250E+03  0.00000000000E+00 0. -1.
         -4   -1    0    0    0  501 -0.00000000000E+00 -0.00000000000E+00 -0.63102275252E+03  0.63102275252E+03  0.00000000000E+00 0. -1.
        -13    1    1    2    0    0 -0.15367828086E+03  0.18961044261E+03 -0.19537841452E+03  0.31263696195E+03  0.10566000000E+00 0.  1.
         13    1    1    2    0    0 -0.13509334880E+03 -0.47748030478E+03 -0.86761512582E+02  0.50375115441E+03  0.10566000000E+00 0. -1.
         -4    1    1    2    0  502  0.28877162966E+03  0.28786986216E+03  0.42662156708E+03  0.59013902865E+03  0.00000000000E+00 0. -1.
</event>
<event>
 5    1  0.7625606E-005  0.1380517E+03  0.7818608E-02  0.1113533E+00
         21   -1    0    0  501  502  0.00000000000E+00  0.00000000000E+00  0.10471803535E+03  0.10471803535E+03  0.00000000000E+00 0. -1.
          4   -1    0    0  502    0 -0.00000000000E+00 -0.00000000000E+00 -0.23106004187E+03  0.23106004187E+03  0.00000000000E+00 0.  1.
        -13    1    1    2    0    0 -0.37617696421E+02 -0.13251057738E+03 -0.12460368858E+03  0.18574238766E+03  0.10566000000E+00 0.  1.
         13    1    1    2    0    0  0.47542594793E+02  0.13062951088E+03  0.26131747839E+01  0.13903671198E+03  0.10566000000E+00 0. -1.
          4    1    1    2  501    0 -0.99248983713E+01  0.18810664983E+01 -0.43514927188E+01  0.10998977577E+02  0.00000000000E+00 0.  1.
</event>
<event>
 5    1  0.7625606E-005  0.1325704E+03  0.7818608E-02  0.1119697E+00
         21   -1    0    0  501  502  0.00000000000E+00  0.00000000000E+00  0.54336617555E+03  0.54336617555E+03  0.00000000000E+00 0. -1.
          4   -1    0    0  502    0 -0.00000000000E+00 -0.00000000000E+00 -0.45074805333E+02  0.45074805333E+02  0.00000000000E+00 0.  1.
        -13    1    1    2    0    0  0.94808848500E+02  0.11132775409E+03  0.30390095716E+03  0.33725122611E+03  0.10566000000E+00 0.  1.
         13    1    1    2    0    0 -0.77205647463E+02 -0.99968548364E+02  0.12117742310E+03  0.17503828637E+03  0.10566000000E+00 0. -1.
          4    1    1    2  501    0 -0.17603201037E+02 -0.11359205728E+02  0.73212989960E+02  0.76151468406E+02  0.00000000000E+00 0.  1.
</event>
<event>
 5    1  0.7625606E-005  0.6174059E+03  0.7818608E-02  0.9252262E-01
         21   -1    0    0  501  502  0.00000000000E+00  0.00000000000E+00  0.34069885080E+03  0.34069885080E+03  0.00000000000E+00 0.  1.
          4   -1    0    0  502    0 -0.00000000000E+00 -0.00000000000E+00 -0.20589829005E+04  0.20589829005E+04  0.00000000000E+00 0.  1.
        -13    1    1    2    0    0  0.58346910218E+03 -0.16721918243E+03 -0.34787730926E+03  0.69958350583E+03  0.10566000000E+00 0.  1.
         13    1    1    2    0    0 -0.59488838441E+03  0.17871494541E+03 -0.14717539468E+04  0.15974639002E+04  0.10566000000E+00 0. -1.
          4    1    1    2  501    0  0.11419282228E+02 -0.11495762983E+02  0.10134720636E+03  0.10263434518E+03  0.00000000000E+00 0.  1.
</event>
<event>
 5    1  0.7625606E-005  0.5584505E+02  0.7818608E-02  0.1269662E+00
         21   -1    0    0  501  502  0.00000000000E+00  0.00000000000E+00  0.26196241198E+03  0.26196241198E+03  0.00000000000E+00 0. -1.
         -4   -1    0    0    0  501 -0.00000000000E+00 -0.00000000000E+00 -0.46047143723E+02  0.46047143723E+02  0.00000000000E+00 0. -1.
        -13    1    1    2    0    0  0.96927188298E+01 -0.59367191641E+02  0.33384201044E+02  0.68796281041E+02  0.10566000000E+00 0.  1.
         13    1    1    2    0    0 -0.35939877441E+02  0.43406956022E+02  0.23195947688E+01  0.56402396275E+02  0.10566000000E+00 0. -1.
         -4    1    1    2    0  502  0.26247158612E+02  0.15960235619E+02  0.18021147244E+03  0.18281087838E+03  0.00000000000E+00 0. -1.
</event>
<event>
 5    1  0.7625606E-005  0.2982317E+03  0.7818608E-02  0.1008038E+00
         21   -1    0    0  501  502  0.00000000000E+00  0.00000000000E+00  0.18619869977E+03  0.18619869977E+03  0.00000000000E+00 0. -1.
          4   -1    0    0  502    0 -0.00000000000E+00 -0.00000000000E+00 -0.86211984210E+03  0.86211984210E+03  0.00000000000E+00 0.  1.
        -13    1    1    2    0    0 -0.35559990057E+03  0.12487287367E+03 -0.38219173985E+03  0.53676350568E+03  0.10566000000E+00 0.  1.
         13    1    1    2    0    0  0.22319999336E+03 -0.11465125565E+03 -0.28315863872E+03  0.37834108064E+03  0.10566000000E+00 0. -1.
          4    1    1    2  501    0  0.13239990721E+03 -0.10221618014E+02 -0.10570763771E+02  0.13321395554E+03  0.00000000000E+00 0.  1.
</event>
<event>
 5    1  0.7625606E-005  0.5478535E+03  0.7818608E-02  0.9570654E-01
         21   -1    0    0  501  502  0.00000000000E+00  0.00000000000E+00  0.26101264327E+03  0.26101264327E+03  0.00000000000E+00 0. -1.
         -4   -1    0    0    0  501 -0.00000000000E+00 -0.00000000000E+00 -0.27600981561E+04  0.27600981561E+04  0.00000000000E+00 0. -1.
        -13    1    1    2    0    0 -0.26873652829E+03  0.41263488063E+02 -0.14621169538E+04  0.14871812246E+04  0.10566000000E+00 0.  1.
         13    1    1    2    0    0  0.45192636578E+03 -0.47291950201E+03 -0.51720472430E+03  0.83390109333E+03  0.10566000000E+00 0. -1.
         -4    1    1    2    0  502 -0.18318983748E+03  0.43165601394E+03 -0.51976383476E+03  0.70002848146E+03  0.00000000000E+00 0. -1.
</event>
<event>
 5    1  0.7625606E-005  0.1598568E+03  0.7818608E-02  0.1091778E+00
         21   -1    0    0  501  502  0.00000000000E+00  0.00000000000E+00  0.25366961942E+03  0.25366961942E+03  0.00000000000E+00 0.  1.
         -4   -1    0    0    0  501 -0.00000000000E+00 -0.00000000000E+00 -0.20655994403E+03  0.20655994403E+03  0.00000000000E+00 0. -1.
        -13    1    1    2    0    0  0.14875532600E+03  0.27356905061E+02  0.11876490657E+03  0.19230616596E+03  0.10566000000E+00 0.  1.
         13    1    1    2    0    0 -0.16203566717E+03 -0.88978561193E+01 -0.12830875870E+03  0.20687648006E+03  0.10566000000E+00 0. -1.
         -4    1    1    2    0  502  0.13280341162E+02 -0.18459048941E+02  0.56653527518E+02  0.61046917444E+02  0.00000000000E+00 0. -1.
</event>
<event>
 5    1  0.7625606E-005  0.3821085E+03  0.7818608E-02  0.9902994E-01
         -4   -1    0    0    0  501 -0.00000000000E+00  0.00000000000E+00  0.15214060384E+04  0.15214060384E+04  0.00000000000E+00 0. -1.
         21   -1    0    0  501  502  0.00000000000E+00 -0.00000000000E+00 -0.42061686982E+03  0.42061686982E+03  0.00000000000E+00 0. -1.
        -13    1    1    2    0    0 -0.24918387202E+02 -0.25263931313E+03  0.85578138493E+03  0.89264177502E+03  0.10566000000E+00 0.  1.
         13    1    1    2    0    0  0.38804215505E+03  0.31041716496E+03  0.41203602410E+03  0.64553019040E+03  0.10566000000E+00 0. -1.
         -4    1    1    2    0  502 -0.36312376785E+03 -0.57777851823E+02 -0.16702824041E+03  0.40385094284E+03  0.00000000000E+00 0. -1.
</event>
<event>
 5    1  0.7625606E-005  0.2718368E+03  0.7818608E-02  0.1061130E+00
         21   -1    0    0  501  502  0.00000000000E+00  0.00000000000E+00  0.24646273938E+03  0.24646273938E+03  0.00000000000E+00 0. -1.
         -4   -1    0    0    0  501 -0.00000000000E+00 -0.00000000000E+00 -0.10345411009E+04  0.10345411009E+04  0.00000000000E+00 0. -1.
        -13    1    1    2    0    0 -0.55957019000E+02 -0.53442051633E+02 -0.43628357314E+03  0.44309209902E+03  0.10566000000E+00 0.  1.
         13    1    1    2    0    0  0.28504036344E+03 -0.86753008802E+02 -0.46024113541E+03  0.54826636521E+03  0.10566000000E+00 0. -1.
         -4    1    1    2    0  502 -0.22908334444E+03  0.14019506044E+03  0.10844634705E+03  0.28964537604E+03  0.00000000000E+00 0. -1.
</event>
<event>
 5    1  0.7625606E-005  0.3736264E+03  0.7818608E-02  0.9808465E-01
          4   -1    0    0  502    0 -0.00000000000E+00  0.00000000000E+00  0.24733452308E+04  0.24733452308E+04  0.00000000000E+00 0.  1.
         21   -1    0    0  501  502  0.00000000000E+00 -0.00000000000E+00 -0.23392865304E+03  0.23392865304E+03  0.00000000000E+00 0.  1.
        -13    1    1    2    0    0 -0.10448114887E+03  0.33364170066E+03  0.11798358596E+04  0.12305469360E+04  0.10566000000E+00 0.  1.
         13    1    1    2    0    0  0.15880865202E+03 -0.37313017337E+03  0.12291629725E+04  0.12943291461E+04  0.10566000000E+00 0. -1.
          4    1    1    2  501    0 -0.54327503147E+02  0.39488472708E+02 -0.16958225439E+03  0.18239780174E+03  0.00000000000E+00 0.  1.
</event>
<event>
 5    1  0.7625606E-005  0.1507740E+03  0.7818608E-02  0.1100351E+00
         21   -1    0    0  501  502  0.00000000000E+00  0.00000000000E+00  0.85260941429E+02  0.85260941429E+02  0.00000000000E+00 0.  1.
         -4   -1    0    0    0  501 -0.00000000000E+00 -0.00000000000E+00 -0.97360324387E+03  0.97360324387E+03  0.00000000000E+00 0. -1.
        -13    1    1    2    0    0  0.41059059512E+02  0.14523565174E+03 -0.76527214456E+01  0.15112185882E+03  0.10566000000E+00 0.  1.
         13    1    1    2    0    0 -0.30513936317E+02 -0.14767230896E+03 -0.88372823260E+03  0.89650087083E+03  0.10566000000E+00 0. -1.
         -4    1    1    2    0  502 -0.10545123195E+02  0.24366572224E+01  0.30386515979E+01  0.11241455651E+02  0.00000000000E+00 0. -1.
</event>
<event>
 5    1  0.7625606E-005  0.4418136E+03  0.7818608E-02  0.1001377E+00
         21   -1    0    0  501  502  0.00000000000E+00  0.00000000000E+00  0.12484279335E+04  0.12484279335E+04  0.00000000000E+00 0. -1.
         -4   -1    0    0    0  501 -0.00000000000E+00 -0.00000000000E+00 -0.41803066622E+03  0.41803066622E+03  0.00000000000E+00 0. -1.
        -13    1    1    2    0    0 -0.64779639901E+02 -0.93648867915E+02 -0.18677899228E+03  0.21875309216E+03  0.10566000000E+00 0.  1.
         13    1    1    2    0    0  0.27297430208E+03  0.45116305620E+03  0.26711641680E+03  0.59111273389E+03  0.10566000000E+00 0. -1.
         -4    1    1    2    0  502 -0.20819466218E+03 -0.35751418829E+03  0.75005984280E+03  0.85659277371E+03  0.00000000000E+00 0. -1.
</event>
<event>
 5    1  0.7625606E-005  0.1276769E+03  0.7818608E-02  0.1125480E+00
         -4   -1    0    0    0  501 -0.00000000000E+00  0.00000000000E+00  0.76653523710E+03  0.76653523710E+03  0.00000000000E+00 0. -1.
         21   -1    0    0  501  502  0.00000000000E+00 -0.00000000000E+00 -0.55525963494E+03  0.55525963494E+03  0.00000000000E+00 0. -1.
        -13    1    1    2    0    0 -0.10544897216E+03  0.70622370374E+02  0.23656170162E+03  0.26845568492E+03  0.10566000000E+00 0.  1.
         13    1    1    2    0    0  0.17449276491E+03 -0.13452549087E+02 -0.52098803626E+03  0.54959734458E+03  0.10566000000E+00 0. -1.
         -4    1    1    2    0  502 -0.69043792745E+02 -0.57169821287E+02  0.49570193680E+03  0.50374184254E+03  0.00000000000E+00 0. -1.
</event>
<event>
 5    1  0.7625606E-005  0.9041864E+02  0.7818608E-02  0.1187184E+00
         21   -1    0    0  501  502  0.00000000000E+00  0.00000000000E+00  0.76571303026E+02  0.76571303026E+02  0.00000000000E+00 0.  1.
          4   -1    0    0  502    0 -0.00000000000E+00 -0.00000000000E+00 -0.38688596404E+03  0.38688596404E+03  0.00000000000E+00 0.  1.
        -13    1    1    2    0    0  0.13383430869E+03 -0.51314935527E+02 -0.23507628946E+03  0.27532838179E+03  0.10566000000E+00 0.  1.
         13    1    1    2    0    0 -0.78368875859E+02 -0.10746777265E+02 -0.68468614674E+02  0.10461900537E+03  0.10566000000E+00 0. -1.
          4    1    1    2  501    0 -0.55465432832E+02  0.62061712792E+02 -0.67697568825E+01  0.83509879907E+02  0.00000000000E+00 0.  1.
</event>
