<event>
 8    1  0.7446554E-006  0.1662187E+04  0.7818608E-02  0.8321822E-01
          2   -1    0    0  502    0  0.00000000000E+00  0.00000000000E+00  0.36197488674E+04  0.36197488674E+04  0.00000000000E+00 0. -1.
         -2   -1    0    0    0  501 -0.00000000000E+00 -0.00000000000E+00 -0.91846309396E+03  0.91846309396E+03  0.00000000000E+00 0.  1.
    9000010    2    1    2  502    0  0.78018093348E+03  0.10746628367E+04  0.41575800588E+03  0.17102766344E+04  0.99428816003E+03 0.  0.
   -9000010    2    1    2    0  501 -0.78018093348E+03 -0.10746628367E+04  0.22855277676E+04  0.28279353270E+04  0.10049868336E+04 0.  0.
        -13    1    3    3    0    0  0.45337333310E+03 -0.42980027112E+02 -0.45779024298E+02  0.45770120398E+03  0.10566000000E+00 0.  1.
         13    1    4    4    0    0 -0.98034497891E+03 -0.10819428261E+04  0.19323065256E+04  0.24218763545E+04  0.10566000000E+00 0. -1.
          4    1    3    3  502    0  0.32680760039E+03  0.11176428638E+04  0.46153703018E+03  0.12525754304E+04  0.00000000000E+00 0.  1.
         -4    1    4    4    0  501  0.20016404542E+03  0.72799894152E+01  0.35322124201E+03  0.40605897248E+03  0.00000000000E+00 0. -1.
</event>
<event>
 8    1  0.7446554E-006  0.1104287E+04  0.7818608E-02  0.8682346E-01
          2   -1    0    0  502    0  0.00000000000E+00  0.00000000000E+00  0.13775856460E+04  0.13775856460E+04  0.00000000000E+00 0. -1.
         -2   -1    0    0    0  501 -0.00000000000E+00 -0.00000000000E+00 -0.89124165435E+03  0.89124165435E+03  0.00000000000E+00 0.  1.
    9000010    2    1    2  502    0  0.43606226583E+03 -0.78191457415E+02  0.15313144085E+03  0.11263829361E+04  0.10242192524E+04 0.  0.
   -9000010    2    1    2    0  501 -0.43606226583E+03  0.78191457415E+02  0.33321255084E+03  0.11424443642E+04  0.99894159873E+03 0.  0.
        -13    1    3    3    0    0  0.33643498498E+03 -0.14239347157E+03 -0.41102292460E+03  0.54991295273E+03  0.10566000000E+00 0.  1.
         13    1    4    4    0    0 -0.58382571996E+03  0.42065722824E+03  0.22982119774E+03  0.75539576981E+03  0.10566000000E+00 0. -1.
          4    1    3    3  502    0  0.99627280847E+02  0.64202014157E+02  0.56415436545E+03  0.57646998341E+03  0.00000000000E+00 0.  1.
         -4    1    4    4    0  501  0.14776345413E+03 -0.34246577082E+03  0.10339135310E+03  0.38704859444E+03  0.00000000000E+00 0. -1.
</event>
<event>
 8    1  0.7446554E-006  0.1180006E+04  0.7818608E-02  0.8621772E-01
         -2   -1    0    0    0  501 -0.00000000000E+00  0.00000000000E+00  0.10514004049E+04  0.10514004049E+04  0.00000000000E+00 0. -1.
          2   -1    0    0  502    0  0.00000000000E+00 -0.00000000000E+00 -0.13257643416E+04  0.13257643416E+04  0.00000000000E+00 0.  1.
    9000010    2    1    2  502    0  0.18888394163E+03 -0.58938072489E+03 -0.17611513783E+03  0.12017493130E+04  0.10149571850E+04 0.  0.
   -9000010    2    1    2    0  501 -0.18888394163E+03  0.58938072489E+03 -0.98248798869E+02  0.11754154335E+04  0.99443543410E+03 0.  0.
        -13    1    3    3    0    0  0.78867408625E+02 -0.87538334406E+03 -0.90469379782E+02  0.88357274009E+03  0.10566000000E+00 0.  1.
         13    1    4    4    0    0  0.37921851907E+03  0.76748749610E+02 -0.13380065332E+03  0.40938940114E+03  0.10566000000E+00 0. -1.
          4    1    3    3  502    0  0.11001653300E+03  0.28600261917E+03 -0.85645758043E+02  0.31817657295E+03  0.00000000000E+00 0.  1.
         -4    1    4    4    0  501 -0.56810246069E+03  0.51263197528E+03  0.35551854456E+02  0.76602603238E+03  0.00000000000E+00 0. -1.
</event>
<event>
 8    1  0.7446554E-006  0.1232965E+04  0.7818608E-02  0.8582144E-01
         -2   -1    0    0    0  501 -0.00000000000E+00  0.00000000000E+00  0.12466386277E+04  0.12466386277E+04  0.00000000000E+00 0. -1.
          2   -1    0    0  502    0  0.00000000000E+00 -0.00000000000E+00 -0.14761939371E+04  0.14761939371E+04  0.00000000000E+00 0.  1.
    9000010    2    1    2  502    0  0.34198724535E+03  0.63449773998E+03 -0.68286015699E+03  0.14131472574E+04  0.10055568204E+04 0.  0.
   -9000010    2    1    2    0  501 -0.34198724535E+03 -0.63449773998E+03  0.45330484757E+03  0.13096853075E+04  0.99511188404E+03 0.  0.
        -13    1    3    3    0    0 -0.31326371619E+03  0.22567859097E+03 -0.47735419148E+03  0.61394789485E+03  0.10566000000E+00 0.  1.
         13    1    4    4    0    0 -0.27006489364E+03  0.39628982945E+02  0.56038607628E+03  0.62332821909E+03  0.10566000000E+00 0. -1.
          4    1    3    3  502    0  0.65525096154E+03  0.40881914901E+03 -0.20550596551E+03  0.79919936252E+03  0.00000000000E+00 0.  1.
         -4    1    4    4    0  501 -0.71922351712E+02 -0.67412672293E+03 -0.10708122870E+03  0.68635708839E+03  0.00000000000E+00 0. -1.
</event>
<event>
 8    1  0.7446554E-006  0.1055323E+04  0.7818608E-02  0.8724278E-01
         -1   -1    0    0    0  501 -0.00000000000E+00  0.00000000000E+00  0.10443158459E+04  0.10443158459E+04  0.00000000000E+00 0.  1.
          1   -1    0    0  502    0  0.00000000000E+00 -0.00000000000E+00 -0.10957005092E+04  0.10957005092E+04  0.00000000000E+00 0. -1.
    9000010    2    1    2  502    0  0.23561026245E+03  0.25843174613E+03  0.14782322521E+03  0.10831378780E+04  0.10144145079E+04 0.  0.
   -9000010    2    1    2    0  501 -0.23561026245E+03 -0.25843174613E+03 -0.19920788845E+03  0.10568784771E+04  0.97724570569E+03 0.  0.
        -13    1    3    3    0    0 -0.11637633813E+03  0.49638320181E+03  0.34412406411E+03  0.61511065490E+03  0.10566000000E+00 0.  1.
         13    1    4    4    0    0 -0.57924220510E+03 -0.29710096331E+03  0.13063799941E+02  0.65112302109E+03  0.10566000000E+00 0. -1.
          4    1    3    3  502    0  0.35198660058E+03 -0.23795145568E+03 -0.19630083889E+03  0.46802722314E+03  0.00000000000E+00 0.  1.
         -4    1    4    4    0  501  0.34363194265E+03  0.38669217178E+02 -0.21227168839E+03  0.40575545598E+03  0.00000000000E+00 0. -1.
</event>
<event>
 8    1  0.7446554E-006  0.1389867E+04  0.7818608E-02  0.8475843E-01
         -1   -1    0    0    0  501 -0.00000000000E+00  0.00000000000E+00  0.10483800331E+04  0.10483800331E+04  0.00000000000E+00 0.  1.
          1   -1    0    0  502    0  0.00000000000E+00 -0.00000000000E+00 -0.19375835416E+04  0.19375835416E+04  0.00000000000E+00 0. -1.
    9000010    2    1    2  502    0 -0.60835345406E+03  0.74070886363E+03 -0.77513429702E+03  0.15912627097E+04  0.10062506085E+04 0.  0.
   -9000010    2    1    2    0  501  0.60835345406E+03 -0.74070886363E+03 -0.11406921151E+03  0.13947008651E+04  0.10066951735E+04 0.  0.
        -13    1    3    3    0    0 -0.27852601545E+03  0.92913639410E+03 -0.37612902251E+03  0.10403577427E+04  0.10566000000E+00 0.  1.
         13    1    4    4    0    0  0.32745094919E+03 -0.28644981999E+03  0.44442888221E+03  0.62192818396E+03  0.10566000000E+00 0. -1.
          4    1    3    3  502    0 -0.32982743862E+03 -0.18842753047E+03 -0.39900527452E+03  0.55090496694E+03  0.00000000000E+00 0.  1.
         -4    1    4    4    0  501  0.28090250487E+03 -0.45425904364E+03 -0.55849809372E+03  0.77277268110E+03  0.00000000000E+00 0. -1.
</event>
<event>
 8    1  0.7446554E-006  0.1276087E+04  0.7818608E-02  0.8551369E-01
         -2   -1    0    0    0  501 -0.00000000000E+00  0.00000000000E+00  0.77969834236E+03  0.77969834236E+03  0.00000000000E+00 0.  1.
          2   -1    0    0  502    0  0.00000000000E+00 -0.00000000000E+00 -0.28323971822E+04  0.28323971822E+04  0.00000000000E+00 0. -1.
    9000010    2    1    2  502    0 -0.44952496331E+03  0.62430158925E+03 -0.10666512923E+03  0.12903034041E+04  0.10303786963E+04 0.  0.
   -9000010    2    1    2    0  501  0.44952496331E+03 -0.62430158925E+03 -0.19460337106E+04  0.23217921205E+04  0.10059057018E+04 0.  0.
        -13    1    3    3    0    0 -0.62348274748E+03  0.79227158533E+03 -0.20577473296E+03  0.10289646511E+04  0.10566000000E+00 0.  1.
         13    1    4    4    0    0 -0.16434813033E+03  0.17673755454E+03 -0.24497757073E+03  0.34389023315E+03  0.10566000000E+00 0. -1.
          4    1    3    3  502    0  0.17395778417E+03 -0.16796999607E+03  0.99109603732E+02  0.26133875297E+03  0.00000000000E+00 0.  1.
         -4    1    4    4    0  501  0.61387309364E+03 -0.80103914379E+03 -0.17010561399E+04  0.19779018874E+04  0.00000000000E+00 0. -1.
</event>
<event>
 8    1  0.7446554E-006  0.1244924E+04  0.7818608E-02  0.8573480E-01
         -2   -1    0    0    0  501 -0.00000000000E+00  0.00000000000E+00  0.42466342041E+03  0.42466342041E+03  0.00000000000E+00 0.  1.
          2   -1    0    0  502    0  0.00000000000E+00 -0.00000000000E+00 -0.37943035377E+04  0.37943035377E+04  0.00000000000E+00 0. -1.
    9000010    2    1    2  502    0  0.49155050829E+03  0.57284772598E+03 -0.12735595627E+04  0.17813526079E+04  0.99070012341E+03 0.  0.
   -9000010    2    1    2    0  501 -0.49155050829E+03 -0.57284772598E+03 -0.20960805546E+04  0.24376143502E+04  0.98925912160E+03 0.  0.
        -13    1    3    3    0    0  0.28251853078E+03 -0.93782070263E+02 -0.97883226746E+03  0.10230955067E+04  0.10566000000E+00 0.  1.
         13    1    4    4    0    0  0.18143122079E+03 -0.21274271926E+03 -0.94008125520E+02  0.29498184911E+03  0.10566000000E+00 0. -1.
          4    1    3    3  502    0  0.20903197752E+03  0.66662979624E+03 -0.29472729520E+03  0.75825710112E+03  0.00000000000E+00 0.  1.
         -4    1    4    4    0  501 -0.67298172908E+03 -0.36010500672E+03 -0.20020724291E+04  0.21426325011E+04  0.00000000000E+00 0. -1.
</event>
<event>
 8    1  0.7446554E-006  0.1665348E+04  0.7818608E-02  0.8320218E-01
          2   -1    0    0  502    0  0.00000000000E+00  0.00000000000E+00  0.36918930621E+04  0.36918930621E+04  0.00000000000E+00 0. -1.
         -2   -1    0    0    0  501 -0.00000000000E+00 -0.00000000000E+00 -0.76958993116E+03  0.76958993116E+03  0.00000000000E+00 0.  1.
    9000010    2    1    2  502    0 -0.12296101122E+04 -0.51677377922E+03  0.18059678335E+04  0.24566576184E+04  0.99732174936E+03 0.  0.
   -9000010    2    1    2    0  501  0.12296101122E+04  0.51677377922E+03  0.11163352974E+04  0.20048253748E+04  0.99705773165E+03 0.  0.
        -13    1    3    3    0    0 -0.11336630748E+04 -0.78992532992E+02  0.91376777081E+03  0.14582192351E+04  0.10566000000E+00 0.  1.
         13    1    4    4    0    0  0.92473629592E+03  0.29007327468E+03  0.16852743881E+03  0.98370789895E+03  0.10566000000E+00 0. -1.
          4    1    3    3  502    0 -0.95947037411E+02 -0.43778124623E+03  0.89220006268E+03  0.99843838337E+03  0.00000000000E+00 0.  1.
         -4    1    4    4    0  501  0.30487381628E+03  0.22670050455E+03  0.94780785862E+03  0.10211174758E+04  0.00000000000E+00 0. -1.
</event>
<event>
 7    1  0.7446554E-006  0.1718126E+04  0.7818608E-02  0.8293952E-01
         -2   -1    0    0    0  501 -0.00000000000E+00  0.00000000000E+00  0.39737811487E+04  0.39737811487E+04  0.00000000000E+00 0. -1.
          2   -1    0    0  502    0  0.00000000000E+00 -0.00000000000E+00 -0.81764756962E+03  0.81764756962E+03  0.00000000000E+00 0.  1.
    9000010    2    1    2  502    0  0.82890698759E+03 -0.12662401437E+04  0.94304212001E+03  0.20443731713E+04  0.99984115127E+03 0.  0.
        -13    1    3    3    0    0 -0.18928081380E+03 -0.30764024763E+00  0.99265781568E+02  0.21373120425E+03  0.10566000000E+00 0.  1.
         13    1    1    2    0    0 -0.84316921754E+03  0.11209300046E+04  0.21878724809E+04  0.25988852242E+04  0.10566000000E+00 0. -1.
          4    1    3    3  502    0  0.10181878014E+04 -0.12659325034E+04  0.84377633844E+03  0.18306419670E+04  0.00000000000E+00 0.  1.
         -4    1    1    2    0  501  0.14262229948E+02  0.14531013908E+03  0.25218978201E+02  0.14817032288E+03  0.00000000000E+00 0. -1.
</event>
<event>
 8    1  0.7446554E-006  0.1172598E+04  0.7818608E-02  0.8627488E-01
          2   -1    0    0  502    0  0.00000000000E+00  0.00000000000E+00  0.87573404651E+03  0.87573404651E+03  0.00000000000E+00 0. -1.
         -2   -1    0    0    0  501 -0.00000000000E+00 -0.00000000000E+00 -0.16597298330E+04  0.16597298330E+04  0.00000000000E+00 0.  1.
    9000010    2    1    2  502    0 -0.39841103213E+03  0.53150502890E+03 -0.91236788637E+02  0.11537688164E+04  0.93895121485E+03 0.  0.
   -9000010    2    1    2    0  501  0.39841103213E+03 -0.53150502890E+03 -0.69275899790E+03  0.13816950631E+04  0.99395033681E+03 0.  0.
        -13    1    3    3    0    0  0.20847354341E+03 -0.64637102095E+02 -0.20012812777E+03  0.29612573674E+03  0.10566000000E+00 0.  1.
         13    1    4    4    0    0  0.85905511622E+02  0.19853004644E+03 -0.52810914570E+03  0.57069538039E+03  0.10566000000E+00 0. -1.
          4    1    3    3  502    0 -0.60688457555E+03  0.59614213100E+03  0.10889133914E+03  0.85764307968E+03  0.00000000000E+00 0.  1.
         -4    1    4    4    0  501  0.31250552051E+03 -0.73003507534E+03 -0.16464985220E+03  0.81099968274E+03  0.00000000000E+00 0. -1.
</event>
<event>
 8    1  0.7446554E-006  0.1511170E+04  0.7818608E-02  0.8403099E-01
         -2   -1    0    0    0  501 -0.00000000000E+00  0.00000000000E+00  0.14803082081E+04  0.14803082081E+04  0.00000000000E+00 0. -1.
          2   -1    0    0  502    0  0.00000000000E+00 -0.00000000000E+00 -0.15442703054E+04  0.15442703054E+04  0.00000000000E+00 0.  1.
    9000010    2    1    2  502    0 -0.10719474314E+04 -0.34384244823E+03  0.16408198292E+02  0.15057106564E+04  0.99979819304E+03 0.  0.
   -9000010    2    1    2    0  501  0.10719474314E+04  0.34384244823E+03 -0.80370295542E+02  0.15188678571E+04  0.10164650796E+04 0.  0.
        -13    1    3    3    0    0 -0.16953342386E+03 -0.34480490221E+03 -0.36131963528E+03  0.52743141014E+03  0.10566000000E+00 0.  1.
         13    1    4    4    0    0  0.11454213138E+04  0.25201809731E+03  0.22270513041E+03  0.11937758138E+04  0.10566000000E+00 0. -1.
          4    1    3    3  502    0 -0.90241400755E+03  0.96245397841E+00  0.37772783358E+03  0.97827924622E+03  0.00000000000E+00 0.  1.
         -4    1    4    4    0  501 -0.73473882358E+02  0.91824350923E+02 -0.30307542595E+03  0.32509204332E+03  0.00000000000E+00 0. -1.
</event>
<event>
 8    1  0.7446554E-006  0.1655727E+04  0.7818608E-02  0.8325114E-01
          2   -1    0    0  502    0  0.00000000000E+00  0.00000000000E+00  0.29697333289E+04  0.29697333289E+04  0.00000000000E+00 0. -1.
         -2   -1    0    0    0  501 -0.00000000000E+00 -0.00000000000E+00 -0.11482424681E+04  0.11482424681E+04  0.00000000000E+00 0.  1.
    9000010    2    1    2  502    0 -0.57044841866E+03 -0.11562675453E+04 -0.98929019568E+01  0.16348188271E+04  0.10050714866E+04 0.  0.
   -9000010    2    1    2    0  501  0.57044841866E+03  0.11562675453E+04  0.18313837627E+04  0.24831569699E+04  0.10722574392E+04 0.  0.
        -13    1    3    3    0    0  0.14588298989E+03 -0.70883309490E+03  0.22555918367E+03  0.75802583047E+03  0.10566000000E+00 0.  1.
         13    1    4    4    0    0  0.57322597961E+03  0.12358715569E+03  0.36876082179E+03  0.69270943664E+03  0.10566000000E+00 0. -1.
          4    1    3    3  502    0 -0.71633140855E+03 -0.44743445045E+03 -0.23545208563E+03  0.87679299664E+03  0.00000000000E+00 0.  1.
         -4    1    4    4    0  501 -0.27775609470E+01  0.10326803897E+04  0.14626229409E+04  0.17904475332E+04  0.00000000000E+00 0. -1.
</event>
<event>
 8    1  0.7446554E-006  0.2221611E+04  0.7818608E-02  0.8083697E-01
         -2   -1    0    0    0  501 -0.00000000000E+00  0.00000000000E+00  0.21985167687E+04  0.21985167687E+04  0.00000000000E+00 0.  1.
          2   -1    0    0  502    0  0.00000000000E+00 -0.00000000000E+00 -0.22559945088E+04  0.22559945088E+04  0.00000000000E+00 0. -1.
    9000010    2    1    2  502    0 -0.19526680220E+04  0.40791312928E+03 -0.18417837403E+03  0.22197633018E+04  0.95609723203E+03 0.  0.
   -9000010    2    1    2    0  501  0.19526680220E+04 -0.40791312928E+03  0.12670063396E+03  0.22347479757E+04  0.99936977076E+03 0.  0.
        -13    1    3    3    0    0 -0.61775795040E+03 -0.19064563797E+03 -0.37024229678E+03  0.74501678776E+03  0.10566000000E+00 0.  1.
         13    1    4    4    0    0  0.62301329604E+03 -0.50778196899E+03  0.36071745254E+03  0.88096832338E+03  0.10566000000E+00 0. -1.
          4    1    3    3  502    0 -0.13349100716E+04  0.59855876725E+03  0.18606392275E+03  0.14747465140E+04  0.00000000000E+00 0.  1.
         -4    1    4    4    0  501  0.13296547260E+04  0.99868839714E+02 -0.23401681858E+03  0.13537796523E+04  0.00000000000E+00 0. -1.
</event>
<event>
 8    1  0.7446554E-006  0.1163417E+04  0.7818608E-02  0.8634631E-01
          2   -1    0    0  502    0  0.00000000000E+00  0.00000000000E+00  0.24964774604E+04  0.24964774604E+04  0.00000000000E+00 0. -1.
         -2   -1    0    0    0  501 -0.00000000000E+00 -0.00000000000E+00 -0.55835826518E+03  0.55835826518E+03  0.00000000000E+00 0.  1.
    9000010    2    1    2  502    0  0.58984615998E+03  0.70956964482E+02  0.12295735917E+04  0.16931867903E+04  0.10010379145E+04 0.  0.
   -9000010    2    1    2    0  501 -0.58984615998E+03 -0.70956964482E+02  0.70854560349E+03  0.13616489353E+04  0.99954868187E+03 0.  0.
        -13    1    3    3    0    0 -0.38018896814E+02 -0.42049539353E+02 -0.15698512082E+03  0.16690697888E+03  0.10566000000E+00 0.  1.
         13    1    4    4    0    0 -0.18593566863E+03 -0.49760156192E+03  0.15234486075E+03  0.55261953915E+03  0.10566000000E+00 0. -1.
          4    1    3    3  502    0  0.62786505680E+03  0.11300650383E+03  0.13865587125E+04  0.15262798114E+04  0.00000000000E+00 0.  1.
         -4    1    4    4    0  501 -0.40391049135E+03  0.42664459744E+03  0.55620074275E+03  0.80902939611E+03  0.00000000000E+00 0. -1.
</event>
<event>
 8    1  0.7446554E-006  0.1439627E+04  0.7818608E-02  0.8445115E-01
          1   -1    0    0  502    0  0.00000000000E+00  0.00000000000E+00  0.86249192300E+03  0.86249192300E+03  0.00000000000E+00 0.  1.
         -1   -1    0    0    0  501 -0.00000000000E+00 -0.00000000000E+00 -0.24034455247E+04  0.24034455247E+04  0.00000000000E+00 0. -1.
    9000010    2    1    2  502    0  0.10221311994E+04 -0.10464016237E+03 -0.75682871456E+03  0.16364298774E+04  0.10244077742E+04 0.  0.
   -9000010    2    1    2    0  501 -0.10221311994E+04  0.10464016237E+03 -0.78412488712E+03  0.16295075703E+04  0.99234133776E+03 0.  0.
        -13    1    3    3    0    0  0.14903480930E+03  0.40214105292E+03 -0.32655233010E+03  0.53904103395E+03  0.10566000000E+00 0.  1.
         13    1    4    4    0    0  0.93656384024E+01 -0.30311454777E+03 -0.72895472076E+02  0.31189726717E+03  0.10566000000E+00 0. -1.
          4    1    3    3  502    0  0.87309639014E+03 -0.50678121529E+03 -0.43027638446E+03  0.10973888434E+04  0.00000000000E+00 0.  1.
         -4    1    4    4    0  501 -0.10314968378E+04  0.40775471014E+03 -0.71122941505E+03  0.13176103031E+04  0.00000000000E+00 0. -1.
</event>
<event>
 8    1  0.7446554E-006  0.1088564E+04  0.7818608E-02  0.8695560E-01
         -1   -1    0    0    0  501 -0.00000000000E+00  0.00000000000E+00  0.56317521951E+03  0.56317521951E+03  0.00000000000E+00 0.  1.
          1   -1    0    0  502    0  0.00000000000E+00 -0.00000000000E+00 -0.25150717780E+04  0.25150717780E+04  0.00000000000E+00 0. -1.
    9000010    2    1    2  502    0 -0.74693819007E+02  0.47922041706E+03 -0.16085987962E+04  0.19504705490E+04  0.99071383380E+03 0.  0.
   -9000010    2    1    2    0  501  0.74693819007E+02 -0.47922041706E+03 -0.34329776229E+03  0.11277764486E+04  0.95853794376E+03 0.  0.
        -13    1    3    3    0    0 -0.17008797866E+03 -0.12199187289E+03  0.21504764246E+02  0.21041483689E+03  0.10566000000E+00 0.  1.
         13    1    4    4    0    0  0.26068637183E+03 -0.36523532165E+03  0.23725964663E+03  0.50758878605E+03  0.10566000000E+00 0. -1.
          4    1    3    3  502    0  0.95394159655E+02  0.60121228995E+03 -0.16301035605E+04  0.17400557121E+04  0.00000000000E+00 0.  1.
         -4    1    4    4    0  501 -0.18599255282E+03 -0.11398509542E+03 -0.58055740893E+03  0.62018766252E+03  0.00000000000E+00 0. -1.
</event>
<event>
 8    1  0.7446554E-006  0.1355481E+04  0.7818608E-02  0.8497860E-01
         -2   -1    0    0    0  501 -0.00000000000E+00  0.00000000000E+00  0.13885165711E+04  0.13885165711E+04  0.00000000000E+00 0. -1.
          2   -1    0    0  502    0  0.00000000000E+00 -0.00000000000E+00 -0.14199780745E+04  0.14199780745E+04  0.00000000000E+00 0.  1.
    9000010    2    1    2  502    0 -0.74487093138E+02 -0.91450538269E+03  0.35082287331E+03  0.13947592436E+04  0.99015566312E+03 0.  0.
   -9000010    2    1    2    0  501  0.74487093138E+02  0.91450538269E+03 -0.38228437673E+03  0.14137354020E+04  0.10053049389E+04 0.  0.
        -13    1    3    3    0    0  0.22177399870E+03 -0.97679258777E+03  0.41680875441E+03  0.10849133675E+04  0.10566000000E+00 0.  1.
         13    1    4    4    0    0 -0.45698263137E+03  0.52894345262E+03 -0.26031192541E+03  0.74590656996E+03  0.10566000000E+00 0. -1.
          4    1    3    3  502    0 -0.29626109183E+03  0.62287205086E+02 -0.65985881101E+02  0.30984587613E+03  0.00000000000E+00 0.  1.
         -4    1    4    4    0  501  0.53146972450E+03  0.38556193007E+03 -0.12197245133E+03  0.66782883201E+03  0.00000000000E+00 0. -1.
</event>
<event>
 8    1  0.7446554E-006  0.1448391E+04  0.7818608E-02  0.8439834E-01
         -1   -1    0    0    0  501 -0.00000000000E+00  0.00000000000E+00  0.44189464539E+04  0.44189464539E+04  0.00000000000E+00 0. -1.
          1   -1    0    0  502    0  0.00000000000E+00 -0.00000000000E+00 -0.67495404526E+03  0.67495404526E+03  0.00000000000E+00 0.  1.
    9000010    2    1    2  502    0  0.53085881256E+03  0.94577552777E+03  0.50044710658E+03  0.15484677027E+04  0.98539458688E+03 0.  0.
   -9000010    2    1    2    0  501 -0.53085881256E+03 -0.94577552777E+03  0.32435453021E+04  0.35454327965E+04  0.93445447196E+03 0.  0.
        -13    1    3    3    0    0  0.16793163500E+03 -0.19710770154E+03  0.14968272117E+03  0.29909431326E+03  0.10566000000E+00 0.  1.
         13    1    4    4    0    0 -0.64292373350E+03 -0.10144754563E+04  0.31803599059E+04  0.33995882870E+04  0.10566000000E+00 0. -1.
          4    1    3    3  502    0  0.36292717756E+03  0.11428832293E+04  0.35076438540E+03  0.12493733894E+04  0.00000000000E+00 0.  1.
         -4    1    4    4    0  501  0.11206492094E+03  0.68699928513E+02  0.63185396185E+02  0.14584450958E+03  0.00000000000E+00 0. -1.
</event>
<event>
 8    1  0.7446554E-006  0.1415479E+04  0.7818608E-02  0.8459865E-01
         -2   -1    0    0    0  501 -0.00000000000E+00  0.00000000000E+00  0.24238112661E+04  0.24238112661E+04  0.00000000000E+00 0.  1.
          2   -1    0    0  502    0  0.00000000000E+00 -0.00000000000E+00 -0.84634420209E+03  0.84634420209E+03  0.00000000000E+00 0. -1.
    9000010    2    1    2  502    0  0.10057172462E+04  0.16651016110E+03  0.10241175905E+04  0.17283679517E+04  0.94828588736E+03 0.  0.
   -9000010    2    1    2    0  501 -0.10057172462E+04 -0.16651016110E+03  0.55334947353E+03  0.15417875165E+04  0.10157363304E+04 0.  0.
        -13    1    3    3    0    0 -0.12172194190E+03 -0.45648325068E+02  0.40372166507E+03  0.42413582109E+03  0.10566000000E+00 0.  1.
         13    1    4    4    0    0 -0.58280602077E+03 -0.42158209359E+02  0.83465230235E+03  0.10188643921E+04  0.10566000000E+00 0. -1.
          4    1    3    3  502    0  0.11274391882E+04  0.21215848616E+03  0.62039592540E+03  0.13042321306E+04  0.00000000000E+00 0.  1.
         -4    1    4    4    0  501 -0.42291122548E+03 -0.12435195174E+03 -0.28130282882E+03  0.52292312441E+03  0.00000000000E+00 0. -1.
</event>
<event>
 8    1  0.7446554E-006  0.1129292E+04  0.7818608E-02  0.8661799E-01
          2   -1    0    0  502    0  0.00000000000E+00  0.00000000000E+00  0.17830750516E+04  0.17830750516E+04  0.00000000000E+00 0.  1.
         -2   -1    0    0    0  501 -0.00000000000E+00 -0.00000000000E+00 -0.76435510817E+03  0.76435510817E+03  0.00000000000E+00 0. -1.
    9000010    2    1    2  502    0  0.16389479406E+03 -0.51143809020E+03  0.83088812228E+03  0.13994066559E+04  0.98971384405E+03 0.  0.
   -9000010    2    1    2    0  501 -0.16389479406E+03  0.51143809020E+03  0.18783182116E+03  0.11480235039E+04  0.99711922499E+03 0.  0.
        -13    1    3    3    0    0  0.19703661473E+03 -0.73745028841E+03  0.29764787807E+03  0.81929886238E+03  0.10566000000E+00 0.  1.
         13    1    4    4    0    0 -0.36250259660E+02  0.42084999447E+03  0.58474845867E+03  0.72135952912E+03  0.10566000000E+00 0. -1.
          4    1    3    3  502    0 -0.33141820672E+02  0.22601219820E+03  0.53324024421E+03  0.58010779348E+03  0.00000000000E+00 0.  1.
         -4    1    4    4    0  501 -0.12764453440E+03  0.90588095733E+02 -0.39691663751E+03  0.42666397479E+03  0.00000000000E+00 0. -1.
</event>
<event>
 8    1  0.7446554E-006  0.1412006E+04  0.7818608E-02  0.8462012E-01
         -2   -1    0    0    0  501 -0.00000000000E+00  0.00000000000E+00  0.10569408856E+04  0.10569408856E+04  0.00000000000E+00 0.  1.
          2   -1    0    0  502    0  0.00000000000E+00 -0.00000000000E+00 -0.18885792627E+04  0.18885792627E+04  0.00000000000E+00 0. -1.
    9000010    2    1    2  502    0 -0.32531861742E+03  0.85849254138E+03 -0.42358299004E+03  0.15211458130E+04  0.11364947815E+04 0.  0.
   -9000010    2    1    2    0  501  0.32531861742E+03 -0.85849254138E+03 -0.40805538707E+03  0.14243743354E+04  0.10096986689E+04 0.  0.
        -13    1    3    3    0    0  0.29589054839E+03  0.77561958341E+03 -0.29775176432E+03  0.88192577869E+03  0.10566000000E+00 0.  1.
         13    1    4    4    0    0  0.66436754864E+03 -0.67729815825E+03 -0.14793228183E+03  0.96020883459E+03  0.10566000000E+00 0. -1.
          4    1    3    3  502    0 -0.62120916581E+03  0.82872957970E+02 -0.12583122572E+03  0.63922003427E+03  0.00000000000E+00 0.  1.
         -4    1    4    4    0  501 -0.33904893123E+03 -0.18119438313E+03 -0.26012310524E+03  0.46416550079E+03  0.00000000000E+00 0. -1.
</event>
<event>
 8    1  0.7446554E-006  0.1165212E+04  0.7818608E-02  0.8633230E-01
         -1   -1    0    0    0  501 -0.00000000000E+00  0.00000000000E+00  0.46141896880E+03  0.46141896880E+03  0.00000000000E+00 0. -1.
          1   -1    0    0  502    0  0.00000000000E+00 -0.00000000000E+00 -0.30710505318E+04  0.30710505318E+04  0.00000000000E+00 0.  1.
    9000010    2    1    2  502    0 -0.51222433030E+03 -0.34432869366E+03 -0.16804984638E+04  0.20529414877E+04  0.10047674612E+04 0.  0.
   -9000010    2    1    2    0  501  0.51222433030E+03  0.34432869366E+03 -0.92913309917E+03  0.14795280129E+04  0.97199733087E+03 0.  0.
        -13    1    3    3    0    0 -0.58962184965E+03 -0.41141600800E+03 -0.51848332973E+03  0.88642091108E+03  0.10566000000E+00 0.  1.
         13    1    4    4    0    0 -0.26418067554E+02  0.53434650358E+03 -0.65572847866E+03  0.84628833684E+03  0.10566000000E+00 0. -1.
          4    1    3    3  502    0  0.77397519355E+02  0.67087314349E+02 -0.11620151341E+04  0.11665205766E+04  0.00000000000E+00 0.  1.
         -4    1    4    4    0  501  0.53864239785E+03 -0.19001780992E+03 -0.27340462051E+03  0.63323967609E+03  0.00000000000E+00 0. -1.
</event>
<event>
 8    1  0.7446554E-006  0.1466872E+04  0.7818608E-02  0.8428824E-01
         -1   -1    0    0    0  501 -0.00000000000E+00  0.00000000000E+00  0.12484692019E+04  0.12484692019E+04  0.00000000000E+00 0. -1.
          1   -1    0    0  502    0  0.00000000000E+00 -0.00000000000E+00 -0.17385155418E+04  0.17385155418E+04  0.00000000000E+00 0.  1.
    9000010    2    1    2  502    0  0.69376487958E+03  0.81349336849E+03 -0.10949318898E+03  0.14860932968E+04  0.10263544026E+04 0.  0.
   -9000010    2    1    2    0  501 -0.69376487958E+03 -0.81349336849E+03 -0.38055315089E+03  0.15008914468E+04  0.98222872379E+03 0.  0.
        -13    1    3    3    0    0 -0.17822313736E+03  0.17040967465E+03  0.24351758525E+03  0.34655990737E+03  0.10566000000E+00 0.  1.
         13    1    4    4    0    0 -0.32057963539E+03 -0.96803323986E+03 -0.40269238761E+03  0.10963671038E+04  0.10566000000E+00 0. -1.
          4    1    3    3  502    0  0.87198801694E+03  0.64308369384E+03 -0.35301077423E+03  0.11395333895E+04  0.00000000000E+00 0.  1.
         -4    1    4    4    0  501 -0.37318524418E+03  0.15453987136E+03  0.22139236712E+02  0.40452434305E+03  0.00000000000E+00 0. -1.
</event>
<event>
 8    1  0.7446554E-006  0.1366095E+04  0.7818608E-02  0.8490993E-01
          2   -1    0    0  502    0  0.00000000000E+00  0.00000000000E+00  0.61822124159E+03  0.61822124159E+03  0.00000000000E+00 0.  1.
         -2   -1    0    0    0  501 -0.00000000000E+00 -0.00000000000E+00 -0.37091262298E+04  0.37091262298E+04  0.00000000000E+00 0. -1.
    9000010    2    1    2  502    0  0.92584191235E+03  0.11849801584E+03 -0.60656161928E+03  0.14893297969E+04  0.98942469123E+03 0.  0.
   -9000010    2    1    2    0  501 -0.92584191235E+03 -0.11849801584E+03 -0.24843433690E+04  0.28380176745E+04  0.10055631852E+04 0.  0.
        -13    1    3    3    0    0  0.43428136628E+03 -0.31120580153E+03 -0.64228814406E+03  0.83545402457E+03  0.10566000000E+00 0.  1.
         13    1    4    4    0    0 -0.63093406515E+03 -0.21274660937E+03 -0.50780843875E+03  0.83738183405E+03  0.10566000000E+00 0. -1.
          4    1    3    3  502    0  0.49156054606E+03  0.42970381737E+03  0.35726524783E+02  0.65387577236E+03  0.00000000000E+00 0.  1.
         -4    1    4    4    0  501 -0.29490784720E+03  0.94248593528E+02 -0.19765349302E+04  0.20006358405E+04  0.00000000000E+00 0. -1.
</event>
<event>
 8    1  0.7446554E-006  0.1026024E+04  0.7818608E-02  0.8750517E-01
         -2   -1    0    0    0  501 -0.00000000000E+00  0.00000000000E+00  0.70195317054E+03  0.70195317054E+03  0.00000000000E+00 0.  1.
          2   -1    0    0  502    0  0.00000000000E+00 -0.00000000000E+00 -0.17072457415E+04  0.17072457415E+04  0.00000000000E+00 0. -1.
    9000010    2    1    2  502    0  0.15512628366E+03  0.14884972400E+03 -0.91971978997E+03  0.13729925397E+04  0.99649566873E+03 0.  0.
   -9000010    2    1    2    0  501 -0.15512628366E+03 -0.14884972400E+03 -0.85572780985E+02  0.10362063723E+04  0.10100398710E+04 0.  0.
        -13    1    3    3    0    0  0.38466971722E+03 -0.20164622294E+03 -0.84123084688E+03  0.94673192588E+03  0.10566000000E+00 0.  1.
         13    1    4    4    0    0 -0.49606918785E+03  0.48879547877E+02 -0.30572491510E+03  0.58475771410E+03  0.10566000000E+00 0. -1.
          4    1    3    3  502    0 -0.22954343356E+03  0.35049594694E+03 -0.78488943089E+02  0.42626061382E+03  0.00000000000E+00 0.  1.
         -4    1    4    4    0  501  0.34094290418E+03 -0.19772927187E+03  0.22015213411E+03  0.45144865823E+03  0.00000000000E+00 0. -1.
</event>
<event>
 8    1  0.7446554E-006  0.1458955E+04  0.7818608E-02  0.8433520E-01
         -4   -1    0    0    0  501 -0.00000000000E+00  0.00000000000E+00  0.10883235557E+04  0.10883235557E+04  0.00000000000E+00 0. -1.
          4   -1    0    0  502    0  0.00000000000E+00 -0.00000000000E+00 -0.23238281986E+04  0.23238281986E+04  0.00000000000E+00 0.  1.
    9000010    2    1    2  502    0 -0.25977381151E+03  0.10309334905E+04 -0.12973810618E+04  0.19538194822E+04  0.10019514233E+04 0.  0.
   -9000010    2    1    2    0  501  0.25977381151E+03 -0.10309334905E+04  0.61876418945E+02  0.14583322721E+04  0.99629214064E+03 0.  0.
        -13    1    3    3    0    0 -0.18545724273E+03  0.33015085153E+03 -0.11801608945E+04  0.12394247544E+04  0.10566000000E+00 0.  1.
         13    1    4    4    0    0  0.40222022408E+03 -0.86046430599E+02  0.25430325889E+03  0.48358583057E+03  0.10566000000E+00 0. -1.
          4    1    3    3  502    0 -0.74316568774E+02  0.70078263902E+03 -0.11722016722E+03  0.71439472783E+03  0.00000000000E+00 0.  1.
         -4    1    4    4    0  501 -0.14244641258E+03 -0.94488705995E+03 -0.19242683995E+03  0.97474644151E+03  0.00000000000E+00 0. -1.
</event>
<event>
 8    1  0.7446554E-006  0.1451251E+04  0.7818608E-02  0.8438119E-01
          2   -1    0    0  502    0  0.00000000000E+00  0.00000000000E+00  0.12429873358E+04  0.12429873358E+04  0.00000000000E+00 0. -1.
         -2   -1    0    0    0  501 -0.00000000000E+00 -0.00000000000E+00 -0.16945907683E+04  0.16945907683E+04  0.00000000000E+00 0.  1.
    9000010    2    1    2  502    0 -0.51690510192E+03  0.90508020395E+03 -0.21345399644E+03  0.14563414271E+04  0.99448815164E+03 0.  0.
   -9000010    2    1    2    0  501  0.51690510192E+03 -0.90508020395E+03 -0.23814943605E+03  0.14812366769E+04  0.10251760235E+04 0.  0.
        -13    1    3    3    0    0 -0.40991062313E+03  0.46198640925E+03 -0.59821299060E+03  0.85983542296E+03  0.10566000000E+00 0.  1.
         13    1    4    4    0    0  0.40961491311E+03 -0.10192863253E+04 -0.47535174328E+03  0.11969495733E+04  0.10566000000E+00 0. -1.
          4    1    3    3  502    0 -0.10699447879E+03  0.44309379471E+03  0.38475899417E+03  0.59650600415E+03  0.00000000000E+00 0.  1.
         -4    1    4    4    0  501  0.10729018880E+03  0.11420612131E+03  0.23720230724E+03  0.28428710367E+03  0.00000000000E+00 0. -1.
</event>
<event>
 8    1  0.7446554E-006  0.1806980E+04  0.7818608E-02  0.8251856E-01
          2   -1    0    0  502    0  0.00000000000E+00  0.00000000000E+00  0.11264529003E+04  0.11264529003E+04  0.00000000000E+00 0.  1.
         -2   -1    0    0    0  501 -0.00000000000E+00 -0.00000000000E+00 -0.30037379396E+04  0.30037379396E+04  0.00000000000E+00 0. -1.
    9000010    2    1    2  502    0  0.10300078495E+04  0.11012568867E+04 -0.13206036324E+04  0.22313547672E+04  0.98044237094E+03 0.  0.
   -9000010    2    1    2    0  501 -0.10300078495E+04 -0.11012568867E+04 -0.55668140689E+03  0.18988360726E+04  0.10109408199E+04 0.  0.
        -13    1    3    3    0    0  0.97994183880E+03  0.37558770521E+03 -0.60692391891E+03  0.12123154648E+04  0.10566000000E+00 0.  1.
         13    1    4    4    0    0  0.64563691682E+02 -0.59625481794E+03 -0.28078354357E+03  0.66221423098E+03  0.10566000000E+00 0. -1.
          4    1    3    3  502    0  0.50066010724E+02  0.72566918149E+03 -0.71367971349E+03  0.10190393024E+04  0.00000000000E+00 0.  1.
         -4    1    4    4    0  501 -0.10945715412E+04 -0.50500206876E+03 -0.27589786332E+03  0.12366218417E+04  0.00000000000E+00 0. -1.
</event>
<event>
 8    1  0.7446554E-006  0.1202032E+04  0.7818608E-02  0.8605034E-01
          1   -1    0    0  502    0  0.00000000000E+00  0.00000000000E+00  0.15127617478E+04  0.15127617478E+04  0.00000000000E+00 0. -1.
         -1   -1    0    0    0  501 -0.00000000000E+00 -0.00000000000E+00 -0.95953330430E+03  0.95953330430E+03  0.00000000000E+00 0.  1.
    9000010    2    1    2  502    0  0.12168734015E+03  0.61207085788E+03  0.19199223042E+03  0.12131010853E+04  0.10224063199E+04 0.  0.
   -9000010    2    1    2    0  501 -0.12168734015E+03 -0.61207085788E+03  0.36123621307E+03  0.12591939668E+04  0.10322980676E+04 0.  0.
        -13    1    3    3    0    0  0.48143488892E+03  0.67822181999E+03  0.12063441102E+03  0.84042671404E+03  0.10566000000E+00 0.  1.
         13    1    4    4    0    0  0.19120504014E+03 -0.57533909912E+03 -0.18044364757E+03  0.63256174992E+03  0.10566000000E+00 0. -1.
          4    1    3    3  502    0 -0.35974754877E+03 -0.66150962116E+02  0.71357819391E+02  0.37267437130E+03  0.00000000000E+00 0.  1.
         -4    1    4    4    0  501 -0.31289238029E+03 -0.36731758761E+02  0.54167986064E+03  0.62663221683E+03  0.00000000000E+00 0. -1.
</event>
<event>
 8    1  0.7446554E-006  0.1191351E+04  0.7818608E-02  0.8613104E-01
          1   -1    0    0  502    0  0.00000000000E+00  0.00000000000E+00  0.37473132047E+03  0.37473132047E+03  0.00000000000E+00 0. -1.
         -1   -1    0    0    0  501 -0.00000000000E+00 -0.00000000000E+00 -0.39460137712E+04  0.39460137712E+04  0.00000000000E+00 0.  1.
    9000010    2    1    2  502    0  0.60220222881E+03 -0.39599980724E+03 -0.14217099932E+04  0.18833030547E+04  0.10030492109E+04 0.  0.
   -9000010    2    1    2    0  501 -0.60220222881E+03  0.39599980724E+03 -0.21495724575E+04  0.24374420369E+04  0.89498522979E+03 0.  0.
        -13    1    3    3    0    0  0.37870402272E+03  0.19018188608E+03 -0.12340998085E+03  0.44137956585E+03  0.10566000000E+00 0.  1.
         13    1    4    4    0    0 -0.14489185735E+03  0.60932092980E+03 -0.97206347213E+03  0.11563619895E+04  0.10566000000E+00 0. -1.
          4    1    3    3  502    0  0.22349820609E+03 -0.58618169332E+03 -0.12983000123E+04  0.14419234889E+04  0.00000000000E+00 0.  1.
         -4    1    4    4    0  501 -0.45731037147E+03 -0.21332112255E+03 -0.11775089854E+04  0.12810800474E+04  0.00000000000E+00 0. -1.
</event>
<event>
 8    1  0.7446554E-006  0.1318435E+04  0.7818608E-02  0.8522344E-01
          1   -1    0    0  502    0  0.00000000000E+00  0.00000000000E+00  0.19410400948E+04  0.19410400948E+04  0.00000000000E+00 0. -1.
         -1   -1    0    0    0  501 -0.00000000000E+00 -0.00000000000E+00 -0.90065358712E+03  0.90065358712E+03  0.00000000000E+00 0.  1.
    9000010    2    1    2  502    0  0.34051889824E+03  0.82421381574E+03  0.62090443947E+03  0.14450154500E+04  0.95250500981E+03 0.  0.
   -9000010    2    1    2    0  501 -0.34051889824E+03 -0.82421381574E+03  0.41948206819E+03  0.13966782319E+04  0.98967840422E+03 0.  0.
        -13    1    3    3    0    0  0.48429505876E+03  0.21330998681E+03 -0.43608507300E+02  0.53098452660E+03  0.10566000000E+00 0.  1.
         13    1    4    4    0    0 -0.15881357558E+02  0.97619204978E+02  0.40744644600E+03  0.41927836126E+03  0.10566000000E+00 0. -1.
          4    1    3    3  502    0 -0.14377616052E+03  0.61090382892E+03  0.66451294677E+03  0.91403092341E+03  0.00000000000E+00 0.  1.
         -4    1    4    4    0  501 -0.32463754069E+03 -0.92183302071E+03  0.12035622195E+02  0.97739987063E+03  0.00000000000E+00 0. -1.
</event>
<event>
 8    1  0.7446554E-006  0.1002948E+04  0.7818608E-02  0.8771826E-01
          2   -1    0    0  502    0  0.00000000000E+00  0.00000000000E+00  0.18094903044E+04  0.18094903044E+04  0.00000000000E+00 0.  1.
         -2   -1    0    0    0  501 -0.00000000000E+00 -0.00000000000E+00 -0.74848791102E+03  0.74848791102E+03  0.00000000000E+00 0. -1.
    9000010    2    1    2  502    0  0.10310046431E+03 -0.44141810922E+03 -0.72365718424E+02  0.11009447093E+04  0.10006811695E+04 0.  0.
   -9000010    2    1    2    0  501 -0.10310046431E+03  0.44141810922E+03  0.11333681118E+04  0.14570335061E+04  0.79557759407E+03 0.  0.
        -13    1    3    3    0    0  0.34007297212E+03  0.15026372474E+03 -0.23920923153E+03  0.44209713973E+03  0.10566000000E+00 0.  1.
         13    1    4    4    0    0  0.46948777425E+02  0.24282097952E+03 -0.46108072833E+02  0.25157937384E+03  0.10566000000E+00 0. -1.
          4    1    3    3  502    0 -0.23697250781E+03 -0.59168183396E+03  0.16684351311E+03  0.65884756960E+03  0.00000000000E+00 0.  1.
         -4    1    4    4    0  501 -0.15004924174E+03  0.19859712970E+03  0.11794761847E+04  0.12054541323E+04  0.00000000000E+00 0. -1.
</event>
<event>
 8    1  0.7446554E-006  0.1287403E+04  0.7818608E-02  0.8543500E-01
          2   -1    0    0  502    0  0.00000000000E+00  0.00000000000E+00  0.33063832260E+04  0.33063832260E+04  0.00000000000E+00 0. -1.
         -2   -1    0    0    0  501 -0.00000000000E+00 -0.00000000000E+00 -0.52627586091E+03  0.52627586091E+03  0.00000000000E+00 0.  1.
    9000010    2    1    2  502    0  0.79346597059E+03  0.21409375964E+03  0.17883056198E+04  0.21930848726E+04  0.96755355627E+03 0.  0.
   -9000010    2    1    2    0  501 -0.79346597059E+03 -0.21409375964E+03  0.99180174534E+03  0.16395742144E+04  0.10144498597E+04 0.  0.
        -13    1    3    3    0    0 -0.11401134747E+03  0.30579355489E+03  0.27790233328E+03  0.42864671183E+03  0.10566000000E+00 0.  1.
         13    1    4    4    0    0 -0.42551402967E+03  0.37623256799E+03  0.65420312695E+03  0.86636878818E+03  0.10566000000E+00 0. -1.
          4    1    3    3  502    0  0.90747731806E+03 -0.91699795243E+02  0.15104032865E+04  0.17644381608E+04  0.00000000000E+00 0.  1.
         -4    1    4    4    0  501 -0.36795194092E+03 -0.59032632764E+03  0.33759861839E+03  0.77320542618E+03  0.00000000000E+00 0. -1.
</event>
<event>
 8    1  0.7446554E-006  0.1185603E+04  0.7818608E-02  0.8617483E-01
         -1   -1    0    0    0  501 -0.00000000000E+00  0.00000000000E+00  0.14644332868E+04  0.14644332868E+04  0.00000000000E+00 0. -1.
          1   -1    0    0  502    0  0.00000000000E+00 -0.00000000000E+00 -0.10635699918E+04  0.10635699918E+04  0.00000000000E+00 0.  1.
    9000010    2    1    2  502    0 -0.58955355356E+03  0.22126871976E+03  0.59214457041E+03  0.13102465442E+04  0.98467130328E+03 0.  0.
   -9000010    2    1    2    0  501  0.58955355356E+03 -0.22126871976E+03 -0.19128127549E+03  0.12177567344E+04  0.10246022150E+04 0.  0.
        -13    1    3    3    0    0  0.44788928632E+02 -0.32008661607E+03  0.25102350611E+03  0.40923624191E+03  0.10566000000E+00 0.  1.
         13    1    4    4    0    0 -0.84143307064E+02  0.18544906504E+03  0.24450392401E+03  0.31820375841E+03  0.10566000000E+00 0. -1.
          4    1    3    3  502    0 -0.63434248219E+03  0.54135533583E+03  0.34112106431E+03  0.90101030230E+03  0.00000000000E+00 0.  1.
         -4    1    4    4    0  501  0.67369686062E+03 -0.40671778480E+03 -0.43578519950E+03  0.89955297597E+03  0.00000000000E+00 0. -1.
</event>
<event>
 8    1  0.7446554E-006  0.1079751E+04  0.7818608E-02  0.8703069E-01
         -1   -1    0    0    0  501 -0.00000000000E+00  0.00000000000E+00  0.47320115868E+03  0.47320115868E+03  0.00000000000E+00 0.  1.
          1   -1    0    0  502    0  0.00000000000E+00 -0.00000000000E+00 -0.24777941775E+04  0.24777941775E+04  0.00000000000E+00 0. -1.
    9000010    2    1    2  502    0 -0.44246823628E+03  0.18488429126E+03 -0.87601453372E+03  0.13747502184E+04  0.94476259371E+03 0.  0.
   -9000010    2    1    2    0  501  0.44246823628E+03 -0.18488429126E+03 -0.11285784851E+04  0.15762451178E+04  0.99040341932E+03 0.  0.
        -13    1    3    3    0    0  0.29465550346E+03 -0.81805213686E+01 -0.20100242117E+03  0.35677832212E+03  0.10566000000E+00 0.  1.
         13    1    4    4    0    0  0.28929853665E+03  0.36609751482E+03 -0.25391368985E+03  0.53121860540E+03  0.10566000000E+00 0. -1.
          4    1    3    3  502    0 -0.73712373975E+03  0.19306481262E+03 -0.67501211255E+03  0.10179718963E+04  0.00000000000E+00 0.  1.
         -4    1    4    4    0  501  0.15316969963E+03 -0.55098180608E+03 -0.87466479527E+03  0.10450265124E+04  0.00000000000E+00 0. -1.
</event>
<event>
 8    1  0.7446554E-006  0.1302858E+04  0.7818608E-02  0.8532888E-01
          1   -1    0    0  502    0  0.00000000000E+00  0.00000000000E+00  0.15191490599E+04  0.15191490599E+04  0.00000000000E+00 0. -1.
         -1   -1    0    0    0  501 -0.00000000000E+00 -0.00000000000E+00 -0.12141320282E+04  0.12141320282E+04  0.00000000000E+00 0.  1.
    9000010    2    1    2  502    0  0.70085286835E+03 -0.60869612601E+03 -0.22402961311E+03  0.13736238955E+04  0.98739435990E+03 0.  0.
   -9000010    2    1    2    0  501 -0.70085286835E+03  0.60869612601E+03  0.52904664478E+03  0.13596571926E+04  0.84087550334E+03 0.  0.
        -13    1    3    3    0    0 -0.99804593581E+02 -0.88769396891E+02  0.26813737918E+03  0.29956406327E+03  0.10566000000E+00 0.  1.
         13    1    4    4    0    0 -0.24027608355E+03 -0.52859401993E+01 -0.19119654226E+03  0.30711018613E+03  0.10566000000E+00 0. -1.
          4    1    3    3  502    0  0.80065746193E+03 -0.51992672912E+03 -0.49216699229E+03  0.10740598323E+04  0.00000000000E+00 0.  1.
         -4    1    4    4    0  501 -0.46057678479E+03  0.61398206621E+03  0.72024318704E+03  0.10525470065E+04  0.00000000000E+00 0. -1.
</event>
<event>
 8    1  0.7446554E-006  0.1242924E+04  0.7818608E-02  0.8574922E-01
          1   -1    0    0  502    0  0.00000000000E+00  0.00000000000E+00  0.18932310201E+04  0.18932310201E+04  0.00000000000E+00 0. -1.
         -1   -1    0    0    0  501 -0.00000000000E+00 -0.00000000000E+00 -0.84769541741E+03  0.84769541741E+03  0.00000000000E+00 0.  1.
    9000010    2    1    2  502    0  0.33835467789E+03  0.64395506641E+03  0.78706185687E+03  0.14696293835E+04  0.10055755281E+04 0.  0.
   -9000010    2    1    2    0  501 -0.33835467789E+03 -0.64395506641E+03  0.25847374579E+03  0.12712970540E+04  0.10100621301E+04 0.  0.
        -13    1    3    3    0    0 -0.35858532995E+03  0.19337315293E+03  0.31395784806E+03  0.51434050652E+03  0.10566000000E+00 0.  1.
         13    1    4    4    0    0  0.33599954356E+03 -0.40733555909E+03  0.73843403428E+02  0.53317052653E+03  0.10566000000E+00 0. -1.
          4    1    3    3  502    0  0.69694000783E+03  0.45058191349E+03  0.47310400881E+03  0.95528887695E+03  0.00000000000E+00 0.  1.
         -4    1    4    4    0  501 -0.67435422144E+03 -0.23661950733E+03  0.18463034236E+03  0.73812652746E+03  0.00000000000E+00 0. -1.
</event>
<event>
 8    1  0.7446554E-006  0.1207056E+04  0.7818608E-02  0.8601268E-01
          2   -1    0    0  502    0  0.00000000000E+00  0.00000000000E+00  0.17373941141E+04  0.17373941141E+04  0.00000000000E+00 0.  1.
         -2   -1    0    0    0  501 -0.00000000000E+00 -0.00000000000E+00 -0.96498648617E+03  0.96498648617E+03  0.00000000000E+00 0. -1.
    9000010    2    1    2  502    0  0.32657450997E+01  0.68215312291E+03 -0.10290256324E+03  0.12110193920E+04  0.99530672767E+03 0.  0.
   -9000010    2    1    2    0  501 -0.32657450997E+01 -0.68215312291E+03  0.87531019121E+03  0.14913612083E+04  0.99631660356E+03 0.  0.
        -13    1    3    3    0    0  0.41253236981E+03  0.89023265616E+02 -0.22790155878E+03  0.47963239009E+03  0.10566000000E+00 0.  1.
         13    1    4    4    0    0 -0.22946579825E+03  0.16715297385E+03  0.40481641086E+03  0.49444009435E+03  0.10566000000E+00 0. -1.
          4    1    3    3  502    0 -0.40926662471E+03  0.59312985730E+03  0.12499899553E+03  0.73138700194E+03  0.00000000000E+00 0.  1.
         -4    1    4    4    0  501  0.22620005315E+03 -0.84930609677E+03  0.47049378035E+03  0.99692111393E+03  0.00000000000E+00 0. -1.
</event>
<event>
 8    1  0.7446554E-006  0.1290069E+04  0.7818608E-02  0.8541659E-01
          2   -1    0    0  502    0  0.00000000000E+00  0.00000000000E+00  0.38639900604E+04  0.38639900604E+04  0.00000000000E+00 0. -1.
         -2   -1    0    0    0  501 -0.00000000000E+00 -0.00000000000E+00 -0.45267686071E+03  0.45267686071E+03  0.00000000000E+00 0.  1.
    9000010    2    1    2  502    0  0.73839518972E+03  0.37666278356E+03  0.12245774202E+04  0.17754263629E+04  0.98257142405E+03 0.  0.
   -9000010    2    1    2    0  501 -0.73839518972E+03 -0.37666278356E+03  0.21867357795E+04  0.25412405582E+04  0.99447870597E+03 0.  0.
        -13    1    3    3    0    0 -0.15887766337E+03  0.17064672676E+03  0.64918405370E+03  0.68978428804E+03  0.10566000000E+00 0.  1.
         13    1    4    4    0    0  0.22665684805E+02 -0.25164280071E+03  0.14594256312E+04  0.14811350433E+04  0.10566000000E+00 0. -1.
          4    1    3    3  502    0  0.89727285309E+03  0.20601605680E+03  0.57539336653E+03  0.10856420749E+04  0.00000000000E+00 0.  1.
         -4    1    4    4    0  501 -0.76106087453E+03 -0.12501998285E+03  0.72731014829E+03  0.10601055149E+04  0.00000000000E+00 0. -1.
</event>
<event>
 8    1  0.7446554E-006  0.1178671E+04  0.7818608E-02  0.8622799E-01
         -1   -1    0    0    0  501 -0.00000000000E+00  0.00000000000E+00  0.25165011652E+04  0.25165011652E+04  0.00000000000E+00 0.  1.
          1   -1    0    0  502    0  0.00000000000E+00 -0.00000000000E+00 -0.55505812665E+03  0.55505812665E+03  0.00000000000E+00 0. -1.
    9000010    2    1    2  502    0  0.35310554511E+03  0.45324652812E+03  0.86738714543E+03  0.14629423714E+04  0.10284570874E+04 0.  0.
   -9000010    2    1    2    0  501 -0.35310554511E+03 -0.45324652812E+03  0.10940558931E+04  0.16086169204E+04  0.10298418123E+04 0.  0.
        -13    1    3    3    0    0 -0.10928507710E+03 -0.21397203392E+03  0.53363893161E+03  0.58523309875E+03  0.10566000000E+00 0.  1.
         13    1    4    4    0    0 -0.15521591888E+03 -0.18266384926E+03  0.12253669357E+04  0.12485920877E+04  0.10566000000E+00 0. -1.
          4    1    3    3  502    0  0.46239062221E+03  0.66721856203E+03  0.33374821382E+03  0.87770927263E+03  0.00000000000E+00 0.  1.
         -4    1    4    4    0  501 -0.19788962624E+03 -0.27058267885E+03 -0.13131104260E+03  0.36002483272E+03  0.00000000000E+00 0. -1.
</event>
<event>
 8    1  0.7446554E-006  0.1214022E+04  0.7818608E-02  0.8596077E-01
         -1   -1    0    0    0  501 -0.00000000000E+00  0.00000000000E+00  0.70163537001E+03  0.70163537001E+03  0.00000000000E+00 0.  1.
          1   -1    0    0  502    0  0.00000000000E+00 -0.00000000000E+00 -0.21581344463E+04  0.21581344463E+04  0.00000000000E+00 0. -1.
    9000010    2    1    2  502    0  0.54474535678E+03 -0.39012838253E+03 -0.97068999794E+03  0.15676066044E+04  0.10325714191E+04 0.  0.
   -9000010    2    1    2    0  501 -0.54474535678E+03  0.39012838253E+03 -0.48580907834E+03  0.12921632119E+04  0.99233444309E+03 0.  0.
        -13    1    3    3    0    0  0.17730791113E+03  0.33877469268E+03 -0.15189714639E+03  0.41143546516E+03  0.10566000000E+00 0.  1.
         13    1    4    4    0    0 -0.13806487108E+03 -0.31842351857E+03 -0.28946100230E+03  0.45193265961E+03  0.10566000000E+00 0. -1.
          4    1    3    3  502    0  0.36743744565E+03 -0.72890307521E+03 -0.81879285155E+03  0.11561711393E+04  0.00000000000E+00 0.  1.
         -4    1    4    4    0  501 -0.40668048571E+03  0.70855190110E+03 -0.19634807604E+03  0.84023055227E+03  0.00000000000E+00 0. -1.
</event>
<event>
 8    1  0.7446554E-006  0.1248102E+04  0.7818608E-02  0.8571195E-01
          1   -1    0    0  502    0  0.00000000000E+00  0.00000000000E+00  0.58068931842E+03  0.58068931842E+03  0.00000000000E+00 0. -1.
         -1   -1    0    0    0  501 -0.00000000000E+00 -0.00000000000E+00 -0.27686279157E+04  0.27686279157E+04  0.00000000000E+00 0.  1.
    9000010    2    1    2  502    0 -0.63555793074E+03 -0.38819563973E+03 -0.80410448579E+03  0.14898832874E+04  0.10092266583E+04 0.  0.
   -9000010    2    1    2    0  501  0.63555793074E+03  0.38819563973E+03 -0.13838341115E+04  0.18594339468E+04  0.99391549753E+03 0.  0.
        -13    1    3    3    0    0 -0.23801606756E+02  0.31468331097E+03 -0.13783171938E+03  0.34436854780E+03  0.10566000000E+00 0.  1.
         13    1    4    4    0    0  0.41222646400E+03 -0.26638591846E+03 -0.30474423965E+03  0.57772067467E+03  0.10566000000E+00 0. -1.
          4    1    3    3  502    0 -0.61175632398E+03 -0.70287895070E+03 -0.66627276641E+03  0.11455147395E+04  0.00000000000E+00 0.  1.
         -4    1    4    4    0  501  0.22333146674E+03  0.65458155820E+03 -0.10790898718E+04  0.12817132721E+04  0.00000000000E+00 0. -1.
</event>
<event>
 8    1  0.7446554E-006  0.1296042E+04  0.7818608E-02  0.8537550E-01
         -2   -1    0    0    0  501 -0.00000000000E+00  0.00000000000E+00  0.58253244077E+03  0.58253244077E+03  0.00000000000E+00 0.  1.
          2   -1    0    0  502    0  0.00000000000E+00 -0.00000000000E+00 -0.31401846770E+04  0.31401846770E+04  0.00000000000E+00 0. -1.
    9000010    2    1    2  502    0  0.81450748404E+03 -0.14026018181E+03 -0.18050059724E+04  0.22183108570E+04  0.98982884273E+03 0.  0.
   -9000010    2    1    2    0  501 -0.81450748404E+03  0.14026018181E+03 -0.75264626383E+03  0.15044062607E+04  0.10068100311E+04 0.  0.
        -13    1    3    3    0    0 -0.20782409120E+03  0.10554551548E+03 -0.40706526275E+03  0.46907659078E+03  0.10566000000E+00 0.  1.
         13    1    4    4    0    0 -0.99357672965E+03  0.47779803090E+02 -0.82288707775E+03  0.12909766772E+04  0.10566000000E+00 0. -1.
          4    1    3    3  502    0  0.10223315752E+04 -0.24580569729E+03 -0.13979407097E+04  0.17492342663E+04  0.00000000000E+00 0.  1.
         -4    1    4    4    0  501  0.17906924561E+03  0.92480378721E+02  0.70240813925E+02  0.21342958350E+03  0.00000000000E+00 0. -1.
</event>
<event>
 8    1  0.7446554E-006  0.1243732E+04  0.7818608E-02  0.8574339E-01
          1   -1    0    0  502    0  0.00000000000E+00  0.00000000000E+00  0.13718451784E+04  0.13718451784E+04  0.00000000000E+00 0.  1.
         -1   -1    0    0    0  501 -0.00000000000E+00 -0.00000000000E+00 -0.11492614373E+04  0.11492614373E+04  0.00000000000E+00 0. -1.
    9000010    2    1    2  502    0 -0.34368813213E+03 -0.64678209450E+03  0.28422759702E+03  0.12738226637E+04  0.10026914988E+04 0.  0.
   -9000010    2    1    2    0  501  0.34368813213E+03  0.64678209450E+03 -0.61643855984E+02  0.12472839520E+04  0.10077046601E+04 0.  0.
        -13    1    3    3    0    0 -0.25640158633E+03  0.23325763788E+03  0.15638350571E+03  0.38027189105E+03  0.10566000000E+00 0.  1.
         13    1    4    4    0    0  0.60306706124E+03  0.71434742505E+03 -0.18373217019E+03  0.95275371716E+03  0.10566000000E+00 0. -1.
          4    1    3    3  502    0 -0.87286545801E+02 -0.88003973238E+03  0.12784409132E+03  0.89355077267E+03  0.00000000000E+00 0.  1.
         -4    1    4    4    0  501 -0.25937892911E+03 -0.67565330552E+02  0.12208831420E+03  0.29453023482E+03  0.00000000000E+00 0. -1.
</event>
<event>
 8    1  0.7446554E-006  0.2180511E+04  0.7818608E-02  0.8098616E-01
          1   -1    0    0  502    0  0.00000000000E+00  0.00000000000E+00  0.15971749013E+04  0.15971749013E+04  0.00000000000E+00 0.  1.
         -1   -1    0    0    0  501 -0.00000000000E+00 -0.00000000000E+00 -0.31321072509E+04  0.31321072509E+04  0.00000000000E+00 0. -1.
    9000010    2    1    2  502    0  0.15338751877E+04  0.11687027295E+04 -0.12936393278E+04  0.25348270378E+04  0.10164675301E+04 0.  0.
   -9000010    2    1    2    0  501 -0.15338751877E+04 -0.11687027295E+04 -0.24129302178E+03  0.21944551144E+04  0.10192015333E+04 0.  0.
        -13    1    3    3    0    0  0.71295557044E+03  0.88448894227E+03 -0.22585309815E+03  0.11582901051E+04  0.10566000000E+00 0.  1.
         13    1    4    4    0    0 -0.93217835402E+03 -0.11169707201E+04 -0.49873075650E+03  0.15379572335E+04  0.10566000000E+00 0. -1.
          4    1    3    3  502    0  0.82091961726E+03  0.28421378722E+03 -0.10677862297E+04  0.13765369327E+04  0.00000000000E+00 0.  1.
         -4    1    4    4    0  501 -0.60169683368E+03 -0.51732009371E+02  0.25743773472E+03  0.65649788096E+03  0.00000000000E+00 0. -1.
</event>
<event>
 8    1  0.7446554E-006  0.1176393E+04  0.7818608E-02  0.8624554E-01
         -2   -1    0    0    0  501 -0.00000000000E+00  0.00000000000E+00  0.51598099910E+03  0.51598099910E+03  0.00000000000E+00 0. -1.
          2   -1    0    0  502    0  0.00000000000E+00 -0.00000000000E+00 -0.27626716647E+04  0.27626716647E+04  0.00000000000E+00 0.  1.
    9000010    2    1    2  502    0  0.28359636588E+03 -0.51423657997E+03 -0.84100635384E+03  0.14440219176E+04  0.10163864681E+04 0.  0.
   -9000010    2    1    2    0  501 -0.28359636588E+03  0.51423657997E+03 -0.14056843118E+04  0.18346307462E+04  0.10222795271E+04 0.  0.
        -13    1    3    3    0    0  0.74672654785E+02 -0.76909282368E+03 -0.79948425527E+03  0.11118699845E+04  0.10566000000E+00 0.  1.
         13    1    4    4    0    0  0.30992904226E+03 -0.90474757941E+02 -0.29250855752E+03  0.43566381586E+03  0.10566000000E+00 0. -1.
          4    1    3    3  502    0  0.20892371110E+03  0.25485624371E+03 -0.41522098575E+02  0.33215193314E+03  0.00000000000E+00 0.  1.
         -4    1    4    4    0  501 -0.59352540815E+03  0.60471133791E+03 -0.11131757543E+04  0.13989669303E+04  0.00000000000E+00 0. -1.
</event>
<event>
 8    1  0.7446554E-006  0.1177621E+04  0.7818608E-02  0.8623608E-01
         -2   -1    0    0    0  501 -0.00000000000E+00  0.00000000000E+00  0.14018016870E+04  0.14018016870E+04  0.00000000000E+00 0.  1.
          2   -1    0    0  502    0  0.00000000000E+00 -0.00000000000E+00 -0.10680925323E+04  0.10680925323E+04  0.00000000000E+00 0. -1.
    9000010    2    1    2  502    0  0.53258678692E+03  0.13278532080E+03 -0.17107951348E+03  0.11598085685E+04  0.10072770664E+04 0.  0.
   -9000010    2    1    2    0  501 -0.53258678692E+03 -0.13278532080E+03  0.50478866820E+03  0.13100856508E+04  0.10771407457E+04 0.  0.
        -13    1    3    3    0    0 -0.63917738692E+02 -0.18683706109E+03 -0.39943472872E+03  0.44558015933E+03  0.10566000000E+00 0.  1.
         13    1    4    4    0    0 -0.45592259414E+03 -0.50212911922E+03 -0.21060584202E+01  0.67823558654E+03  0.10566000000E+00 0. -1.
          4    1    3    3  502    0  0.59650452561E+03  0.31962238189E+03  0.22835521523E+03  0.71422840912E+03  0.00000000000E+00 0.  1.
         -4    1    4    4    0  501 -0.76664192781E+02  0.36934379842E+03  0.50689472662E+03  0.63185006430E+03  0.00000000000E+00 0. -1.
</event>
<event>
 8    1  0.7446554E-006  0.1547682E+04  0.7818608E-02  0.8382575E-01
          2   -1    0    0  502    0  0.00000000000E+00  0.00000000000E+00  0.20273847550E+04  0.20273847550E+04  0.00000000000E+00 0.  1.
         -2   -1    0    0    0  501 -0.00000000000E+00 -0.00000000000E+00 -0.11819791063E+04  0.11819791063E+04  0.00000000000E+00 0. -1.
    9000010    2    1    2  502    0 -0.16000638361E+03  0.11581176935E+04  0.38901371912E+03  0.15840233488E+04  0.99546956815E+03 0.  0.
   -9000010    2    1    2    0  501  0.16000638361E+03 -0.11581176935E+04  0.45639192955E+03  0.16253405125E+04  0.10327630673E+04 0.  0.
        -13    1    3    3    0    0  0.34060827220E+03  0.90064648748E+03  0.33052084913E+03  0.10180481980E+04  0.10566000000E+00 0.  1.
         13    1    4    4    0    0 -0.11740648399E+03 -0.11633046743E+04  0.59862181889E+03  0.13135486824E+04  0.10566000000E+00 0. -1.
          4    1    3    3  502    0 -0.50061465582E+03  0.25747120607E+03  0.58492869989E+02  0.56597515088E+03  0.00000000000E+00 0.  1.
         -4    1    4    4    0  501  0.27741286760E+03  0.51869807936E+01 -0.14222988934E+03  0.31179183008E+03  0.00000000000E+00 0. -1.
</event>
<event>
 8    1  0.7446554E-006  0.1151614E+04  0.7818608E-02  0.8643917E-01
         -2   -1    0    0    0  501 -0.00000000000E+00  0.00000000000E+00  0.17466546835E+04  0.17466546835E+04  0.00000000000E+00 0.  1.
          2   -1    0    0  502    0  0.00000000000E+00 -0.00000000000E+00 -0.99672573424E+03  0.99672573424E+03  0.00000000000E+00 0. -1.
    9000010    2    1    2  502    0 -0.44310559779E+03 -0.42691739029E+03 -0.28053136999E+03  0.12322800600E+04  0.10301530313E+04 0.  0.
   -9000010    2    1    2    0  501  0.44310559779E+03  0.42691739029E+03  0.10304603193E+04  0.15111003578E+04  0.91813658717E+03 0.  0.
        -13    1    3    3    0    0  0.10500556684E+03 -0.43080527251E+02  0.31604618992E+03  0.33580843680E+03  0.10566000000E+00 0.  1.
         13    1    4    4    0    0  0.22155257854E+03  0.64906596877E+03  0.97567549959E+03  0.11926084305E+04  0.10566000000E+00 0. -1.
          4    1    3    3  502    0 -0.54811116464E+03 -0.38383686304E+03 -0.59657755991E+03  0.89647162321E+03  0.00000000000E+00 0.  1.
         -4    1    4    4    0  501  0.22155301925E+03 -0.22214857848E+03  0.54784819714E+02  0.31849192726E+03  0.00000000000E+00 0. -1.
</event>
<event>
 8    1  0.7446554E-006  0.1064544E+04  0.7818608E-02  0.8716202E-01
         -1   -1    0    0    0  501 -0.00000000000E+00  0.00000000000E+00  0.22830615866E+04  0.22830615866E+04  0.00000000000E+00 0. -1.
          1   -1    0    0  502    0  0.00000000000E+00 -0.00000000000E+00 -0.49826527993E+03  0.49826527993E+03  0.00000000000E+00 0.  1.
    9000010    2    1    2  502    0  0.85421213767E+02 -0.35477165949E+03  0.98034106651E+03  0.14492637902E+04  0.10030639126E+04 0.  0.
   -9000010    2    1    2    0  501 -0.85421213767E+02  0.35477165949E+03  0.80445524013E+03  0.13320630763E+04  0.99703765811E+03 0.  0.
        -13    1    3    3    0    0  0.41378157169E+03 -0.54651260985E+03  0.66871132270E+03  0.95763566458E+03  0.10566000000E+00 0.  1.
         13    1    4    4    0    0  0.26614549769E+03  0.31321031370E+03 -0.43367588317E+02  0.41329757491E+03  0.10566000000E+00 0. -1.
          4    1    3    3  502    0 -0.32836035793E+03  0.19174095036E+03  0.31162974381E+03  0.49162812565E+03  0.00000000000E+00 0.  1.
         -4    1    4    4    0  501 -0.35156671146E+03  0.41561345790E+02  0.84782282845E+03  0.91876550137E+03  0.00000000000E+00 0. -1.
</event>
<event>
 8    1  0.7446554E-006  0.1314878E+04  0.7818608E-02  0.8524738E-01
          1   -1    0    0  502    0  0.00000000000E+00  0.00000000000E+00  0.20480954433E+04  0.20480954433E+04  0.00000000000E+00 0. -1.
         -1   -1    0    0    0  501 -0.00000000000E+00 -0.00000000000E+00 -0.85085001550E+03  0.85085001550E+03  0.00000000000E+00 0.  1.
    9000010    2    1    2  502    0 -0.83996214457E+03 -0.18211465273E+03  0.47048176766E+03  0.13974623366E+04  0.99641644778E+03 0.  0.
   -9000010    2    1    2    0  501  0.83996214457E+03  0.18211465273E+03  0.72676366011E+03  0.15014831222E+04  0.99376254585E+03 0.  0.
        -13    1    3    3    0    0 -0.32510041836E+03 -0.58006625965E+03  0.24989001629E+03  0.71036059787E+03  0.10566000000E+00 0.  1.
         13    1    4    4    0    0  0.94055089076E+03 -0.16084228104E+03  0.48889147338E+03  0.10721572186E+04  0.10566000000E+00 0. -1.
          4    1    3    3  502    0 -0.51486172621E+03  0.39795160692E+03  0.22059175138E+03  0.68710173871E+03  0.00000000000E+00 0.  1.
         -4    1    4    4    0  501 -0.10058874620E+03  0.34295693376E+03  0.23787218673E+03  0.42932590360E+03  0.00000000000E+00 0. -1.
</event>
<event>
 8    1  0.7446554E-006  0.1096632E+04  0.7818608E-02  0.8688751E-01
          2   -1    0    0  502    0  0.00000000000E+00  0.00000000000E+00  0.14445924112E+04  0.14445924112E+04  0.00000000000E+00 0. -1.
         -2   -1    0    0    0  501 -0.00000000000E+00 -0.00000000000E+00 -0.88239229155E+03  0.88239229155E+03  0.00000000000E+00 0.  1.
    9000010    2    1    2  502    0  0.79725306873E+02 -0.42805006884E+03  0.47146120111E+01  0.10979393633E+04  0.10079015983E+04 0.  0.
   -9000010    2    1    2    0  501 -0.79725306873E+02  0.42805006884E+03  0.55748550762E+03  0.12290453395E+04  0.10050767977E+04 0.  0.
        -13    1    3    3    0    0  0.31995304860E+03  0.73137312747E+02 -0.31654702109E+03  0.45598360448E+03  0.10566000000E+00 0.  1.
         13    1    4    4    0    0  0.33248950879E+03 -0.13722329003E+03  0.34369137397E+03  0.49749701154E+03  0.10566000000E+00 0. -1.
          4    1    3    3  502    0 -0.24022774173E+03 -0.50118738158E+03  0.32126163310E+03  0.64195575880E+03  0.00000000000E+00 0.  1.
         -4    1    4    4    0  501 -0.41221481566E+03  0.56527335887E+03  0.21379413365E+03  0.73154832792E+03  0.00000000000E+00 0. -1.
</event>
<event>
 8    1  0.7446554E-006  0.1341516E+04  0.7818608E-02  0.8506994E-01
          2   -1    0    0  502    0  0.00000000000E+00  0.00000000000E+00  0.16221926098E+04  0.16221926098E+04  0.00000000000E+00 0. -1.
         -2   -1    0    0    0  501 -0.00000000000E+00 -0.00000000000E+00 -0.11268350721E+04  0.11268350721E+04  0.00000000000E+00 0.  1.
    9000010    2    1    2  502    0  0.12602579556E+03 -0.88592422271E+03  0.76934263654E+02  0.13448982996E+04  0.10010436184E+04 0.  0.
   -9000010    2    1    2    0  501 -0.12602579556E+03  0.88592422271E+03  0.41842327408E+03  0.14041293823E+04  0.99787627311E+03 0.  0.
        -13    1    3    3    0    0 -0.16840859250E+03 -0.10072776647E+04  0.96676547779E+02  0.10258246020E+04  0.10566000000E+00 0.  1.
         13    1    4    4    0    0 -0.26055428045E+03  0.52803051444E+02 -0.22069354348E+03  0.34551750549E+03  0.10566000000E+00 0. -1.
          4    1    3    3  502    0  0.29443438806E+03  0.12135344204E+03 -0.19742284124E+02  0.31907369768E+03  0.00000000000E+00 0.  1.
         -4    1    4    4    0  501  0.13452848489E+03  0.83312117126E+03  0.63911681756E+03  0.10586118768E+04  0.00000000000E+00 0. -1.
</event>
<event>
 8    1  0.7446554E-006  0.1138162E+04  0.7818608E-02  0.8654641E-01
          2   -1    0    0  502    0  0.00000000000E+00  0.00000000000E+00  0.22157973521E+04  0.22157973521E+04  0.00000000000E+00 0. -1.
         -2   -1    0    0    0  501 -0.00000000000E+00 -0.00000000000E+00 -0.58774958903E+03  0.58774958903E+03  0.00000000000E+00 0.  1.
    9000010    2    1    2  502    0  0.30036294740E+03 -0.43240936364E+03  0.71783315845E+03  0.13522410535E+04  0.10178780209E+04 0.  0.
   -9000010    2    1    2    0  501 -0.30036294740E+03  0.43240936364E+03  0.91021460462E+03  0.14513058876E+04  0.10003011522E+04 0.  0.
        -13    1    3    3    0    0 -0.24917195394E+03 -0.27506576136E+03 -0.71199310960E+02  0.37791161500E+03  0.10566000000E+00 0.  1.
         13    1    4    4    0    0  0.29237988883E+03  0.17905559652E+03  0.86047367637E+01  0.34295912103E+03  0.10566000000E+00 0. -1.
          4    1    3    3  502    0  0.54953490134E+03 -0.15734360228E+03  0.78903246941E+03  0.97432943851E+03  0.00000000000E+00 0.  1.
         -4    1    4    4    0  501 -0.59274283623E+03  0.25335376712E+03  0.90160986785E+03  0.11083467666E+04  0.00000000000E+00 0. -1.
</event>
<event>
 8    1  0.7446554E-006  0.1386116E+04  0.7818608E-02  0.8478213E-01
          1   -1    0    0  502    0  0.00000000000E+00  0.00000000000E+00  0.22038317558E+04  0.22038317558E+04  0.00000000000E+00 0.  1.
         -1   -1    0    0    0  501 -0.00000000000E+00 -0.00000000000E+00 -0.88061724066E+03  0.88061724066E+03  0.00000000000E+00 0. -1.
    9000010    2    1    2  502    0 -0.69412174929E+03  0.61665045392E+03  0.81845051013E+03  0.16146893997E+04  0.10369656864E+04 0.  0.
   -9000010    2    1    2    0  501  0.69412174929E+03 -0.61665045392E+03  0.50476400502E+03  0.14697595968E+04  0.10214420132E+04 0.  0.
        -13    1    3    3    0    0  0.20144425017E+03  0.10592425064E+03 -0.85925712654E+02  0.24327550649E+03  0.10566000000E+00 0.  1.
         13    1    4    4    0    0  0.23248497233E+03 -0.65326915970E+03  0.68324848943E+03  0.97346718838E+03  0.10566000000E+00 0. -1.
          4    1    3    3  502    0 -0.89556599947E+03  0.51072620328E+03  0.90437622279E+03  0.13714138932E+04  0.00000000000E+00 0.  1.
         -4    1    4    4    0  501  0.46163677696E+03  0.36618705789E+02 -0.17848448441E+03  0.49629240840E+03  0.00000000000E+00 0. -1.
</event>
<event>
 8    1  0.7446554E-006  0.1136549E+04  0.7818608E-02  0.8655938E-01
         -2   -1    0    0    0  501 -0.00000000000E+00  0.00000000000E+00  0.48435332589E+03  0.48435332589E+03  0.00000000000E+00 0. -1.
          2   -1    0    0  502    0  0.00000000000E+00 -0.00000000000E+00 -0.26778324681E+04  0.26778324681E+04  0.00000000000E+00 0.  1.
    9000010    2    1    2  502    0 -0.26783682682E+03  0.47310413173E+03 -0.98808968089E+03  0.14992812856E+04  0.98790640774E+03 0.  0.
   -9000010    2    1    2    0  501  0.26783682682E+03 -0.47310413173E+03 -0.12053894613E+04  0.16629045084E+04  0.10083271123E+04 0.  0.
        -13    1    3    3    0    0 -0.26506955180E+02  0.20900979026E+03  0.18032944178E+03  0.27732008552E+03  0.10566000000E+00 0.  1.
         13    1    4    4    0    0  0.15228186339E+03 -0.74191945293E+03 -0.52295952894E+03  0.92039172130E+03  0.10566000000E+00 0. -1.
          4    1    3    3  502    0 -0.24132987164E+03  0.26409434148E+03 -0.11684191227E+04  0.12219612000E+04  0.00000000000E+00 0.  1.
         -4    1    4    4    0  501  0.11555496343E+03  0.26881532119E+03 -0.68242993236E+03  0.74251278714E+03  0.00000000000E+00 0. -1.
</event>
<event>
 8    1  0.7446554E-006  0.1454139E+04  0.7818608E-02  0.8436392E-01
          2   -1    0    0  502    0  0.00000000000E+00  0.00000000000E+00  0.42110004820E+04  0.42110004820E+04  0.00000000000E+00 0. -1.
         -2   -1    0    0    0  501 -0.00000000000E+00 -0.00000000000E+00 -0.65904085983E+03  0.65904085983E+03  0.00000000000E+00 0.  1.
    9000010    2    1    2  502    0  0.10560520839E+04 -0.10346824895E+03  0.60172378101E+03  0.15873152151E+04  0.10156507279E+04 0.  0.
   -9000010    2    1    2    0  501 -0.10560520839E+04  0.10346824895E+03  0.29502358412E+04  0.32827261267E+04  0.97285539624E+03 0.  0.
        -13    1    3    3    0    0  0.50097673699E+03  0.47005261495E+02 -0.24822858621E+03  0.56107452962E+03  0.10566000000E+00 0.  1.
         13    1    4    4    0    0 -0.12000674327E+04  0.48965761381E+02  0.21047342796E+04  0.24233171248E+04  0.10566000000E+00 0. -1.
          4    1    3    3  502    0  0.55507534690E+03 -0.15047351044E+03  0.84995236722E+03  0.10262406855E+04  0.00000000000E+00 0.  1.
         -4    1    4    4    0  501  0.14401534878E+03  0.54502487568E+02  0.84550156163E+03  0.85940900190E+03  0.00000000000E+00 0. -1.
</event>
<event>
 8    1  0.7446554E-006  0.1776773E+04  0.7818608E-02  0.8265882E-01
         -1   -1    0    0    0  501 -0.00000000000E+00  0.00000000000E+00  0.19002882614E+04  0.19002882614E+04  0.00000000000E+00 0.  1.
          1   -1    0    0  502    0  0.00000000000E+00 -0.00000000000E+00 -0.18992467334E+04  0.18992467334E+04  0.00000000000E+00 0. -1.
    9000010    2    1    2  502    0 -0.13074132545E+04 -0.67016876838E+03 -0.67193016333E+03  0.18980923192E+04  0.99639786823E+03 0.  0.
   -9000010    2    1    2    0  501  0.13074132545E+04  0.67016876838E+03  0.67297169141E+03  0.19014426756E+04  0.10020667417E+04 0.  0.
        -13    1    3    3    0    0 -0.79815286351E+03 -0.29209275728E+02 -0.72372633587E+03  0.10778130616E+04  0.10566000000E+00 0.  1.
         13    1    4    4    0    0  0.86989751468E+03  0.77415814062E+03  0.93918038368E+02  0.11682735646E+04  0.10566000000E+00 0. -1.
          4    1    3    3  502    0 -0.50926039097E+03 -0.64095949266E+03  0.51796172539E+02  0.82027925765E+03  0.00000000000E+00 0.  1.
         -4    1    4    4    0  501  0.43751573980E+03 -0.10398937223E+03  0.57905365305E+03  0.73316911093E+03  0.00000000000E+00 0. -1.
</event>
<event>
 8    1  0.7446554E-006  0.1146882E+04  0.7818608E-02  0.8647672E-01
          2   -1    0    0  502    0  0.00000000000E+00  0.00000000000E+00  0.32365055300E+04  0.32365055300E+04  0.00000000000E+00 0. -1.
         -2   -1    0    0    0  501 -0.00000000000E+00 -0.00000000000E+00 -0.42219421460E+03  0.42219421460E+03  0.00000000000E+00 0.  1.
    9000010    2    1    2  502    0 -0.25252180293E+02 -0.53761343135E+03  0.10705124723E+04  0.15791112631E+04  0.10285570249E+04 0.  0.
   -9000010    2    1    2    0  501  0.25252180293E+02  0.53761343135E+03  0.17437988430E+04  0.20795884815E+04  0.99708975190E+03 0.  0.
        -13    1    3    3    0    0 -0.79758185904E+02  0.30544603804E+03  0.27403590671E+03  0.41803628994E+03  0.10566000000E+00 0.  1.
         13    1    4    4    0    0  0.37555663362E+03  0.58161546862E+03  0.14954434278E+04  0.16479291232E+04  0.10566000000E+00 0. -1.
          4    1    3    3  502    0  0.54506005611E+02 -0.84305946939E+03  0.79647656564E+03  0.11610749731E+04  0.00000000000E+00 0.  1.
         -4    1    4    4    0  501 -0.35030445333E+03 -0.44002037269E+02  0.24835541527E+03  0.43165935829E+03  0.00000000000E+00 0. -1.
</event>
<event>
 8    1  0.7446554E-006  0.1558625E+04  0.7818608E-02  0.8376537E-01
         -1   -1    0    0    0  501 -0.00000000000E+00  0.00000000000E+00  0.64870758314E+03  0.64870758314E+03  0.00000000000E+00 0. -1.
          1   -1    0    0  502    0  0.00000000000E+00 -0.00000000000E+00 -0.38180169360E+04  0.38180169360E+04  0.00000000000E+00 0.  1.
    9000010    2    1    2  502    0 -0.70177738460E+03 -0.97391847071E+03 -0.12740131982E+04  0.20119180169E+04  0.99181439410E+03 0.  0.
   -9000010    2    1    2    0  501  0.70177738460E+03  0.97391847071E+03 -0.18952961547E+04  0.24548065022E+04  0.99645309196E+03 0.  0.
        -13    1    3    3    0    0 -0.72508746445E+03 -0.11239750047E+04 -0.91074406762E+03  0.16181861482E+04  0.10566000000E+00 0.  1.
         13    1    4    4    0    0  0.72352850815E+03  0.82808755726E+03 -0.82580734503E+03  0.13752019077E+04  0.10566000000E+00 0. -1.
          4    1    3    3  502    0  0.23310079851E+02  0.15005653398E+03 -0.36326913056E+03  0.39373186870E+03  0.00000000000E+00 0.  1.
         -4    1    4    4    0  501 -0.21751123556E+02  0.14583091345E+03 -0.10694888096E+04  0.10796045946E+04  0.00000000000E+00 0. -1.
</event>
<event>
 8    1  0.7446554E-006  0.1351423E+04  0.7818608E-02  0.8500502E-01
          1   -1    0    0  502    0  0.00000000000E+00  0.00000000000E+00  0.54853568538E+03  0.54853568538E+03  0.00000000000E+00 0.  1.
         -1   -1    0    0    0  501 -0.00000000000E+00 -0.00000000000E+00 -0.38670467723E+04  0.38670467723E+04  0.00000000000E+00 0. -1.
    9000010    2    1    2  502    0 -0.91441497567E+03  0.51538992728E+02 -0.24602189575E+04  0.27972851961E+04  0.96608288150E+03 0.  0.
   -9000010    2    1    2    0  501  0.91441497567E+03 -0.51538992728E+02 -0.85829212939E+03  0.16182972616E+04  0.10214742444E+04 0.  0.
        -13    1    3    3    0    0 -0.95175956191E+03 -0.64278462891E+02 -0.12083179400E+04  0.15394837575E+04  0.10566000000E+00 0.  1.
         13    1    4    4    0    0  0.16403677879E+03 -0.88775782503E+01 -0.85095987212E+03  0.86667155908E+03  0.10566000000E+00 0. -1.
          4    1    3    3  502    0  0.37344586244E+02  0.11581745562E+03 -0.12519010176E+04  0.12578014386E+04  0.00000000000E+00 0.  1.
         -4    1    4    4    0  501  0.75037819688E+03 -0.42661414478E+02 -0.73322572603E+01  0.75162570248E+03  0.00000000000E+00 0. -1.
</event>
<event>
 8    1  0.7446554E-006  0.1398465E+04  0.7818608E-02  0.8470441E-01
          2   -1    0    0  502    0  0.00000000000E+00  0.00000000000E+00  0.11777713009E+04  0.11777713009E+04  0.00000000000E+00 0. -1.
         -2   -1    0    0    0  501 -0.00000000000E+00 -0.00000000000E+00 -0.24932716551E+04  0.24932716551E+04  0.00000000000E+00 0.  1.
    9000010    2    1    2  502    0  0.77881086296E+03  0.61080130554E+03 -0.17191260785E+04  0.22172605537E+04  0.99056816725E+03 0.  0.
   -9000010    2    1    2    0  501 -0.77881086296E+03 -0.61080130554E+03  0.40362572427E+03  0.14537824023E+04  0.98536539058E+03 0.  0.
        -13    1    3    3    0    0 -0.19130111996E+03  0.11798928998E+03 -0.66628972982E+03  0.70317821800E+03  0.10566000000E+00 0.  1.
         13    1    4    4    0    0 -0.22252121107E+03 -0.32221416494E+03 -0.31335075473E+03  0.50152404141E+03  0.10566000000E+00 0. -1.
          4    1    3    3  502    0  0.97011198292E+03  0.49281201556E+03 -0.10528363487E+04  0.15140823357E+04  0.00000000000E+00 0.  1.
         -4    1    4    4    0  501 -0.55628965189E+03 -0.28858714060E+03  0.71697647900E+03  0.95225836093E+03  0.00000000000E+00 0. -1.
</event>
<event>
 8    1  0.7446554E-006  0.1109155E+04  0.7818608E-02  0.8678302E-01
         -1   -1    0    0    0  501 -0.00000000000E+00  0.00000000000E+00  0.20754685323E+04  0.20754685323E+04  0.00000000000E+00 0.  1.
          1   -1    0    0  502    0  0.00000000000E+00 -0.00000000000E+00 -0.80470559732E+03  0.80470559732E+03  0.00000000000E+00 0. -1.
    9000010    2    1    2  502    0  0.43443209736E+03  0.20219461307E+03 -0.10108790254E+03  0.11198603799E+04  0.10071020790E+04 0.  0.
   -9000010    2    1    2    0  501 -0.43443209736E+03 -0.20219461307E+03  0.13718508376E+04  0.17603137498E+04  0.99353704933E+03 0.  0.
        -13    1    3    3    0    0  0.74412401700E+03  0.15783546316E+02 -0.13635068192E+03  0.75667773367E+03  0.10566000000E+00 0.  1.
         13    1    4    4    0    0 -0.42411014534E+03 -0.27743642598E+03  0.13952475882E+03  0.52564965075E+03  0.10566000000E+00 0. -1.
          4    1    3    3  502    0 -0.30969191964E+03  0.18641106675E+03  0.35262779385E+02  0.36318264621E+03  0.00000000000E+00 0.  1.
         -4    1    4    4    0  501 -0.10321952019E+02  0.75241812916E+02  0.12323260787E+04  0.12346640990E+04  0.00000000000E+00 0. -1.
</event>
<event>
 8    1  0.7446554E-006  0.1301709E+04  0.7818608E-02  0.8533671E-01
         -2   -1    0    0    0  501 -0.00000000000E+00  0.00000000000E+00  0.72118512284E+03  0.72118512284E+03  0.00000000000E+00 0. -1.
          2   -1    0    0  502    0  0.00000000000E+00 -0.00000000000E+00 -0.23931458361E+04  0.23931458361E+04  0.00000000000E+00 0.  1.
    9000010    2    1    2  502    0 -0.44033512850E+03 -0.67987915517E+03 -0.63621928725E+03  0.14627247778E+04  0.10385846635E+04 0.  0.
   -9000010    2    1    2    0  501  0.44033512850E+03  0.67987915517E+03 -0.10357414260E+04  0.16516061811E+04  0.99945584438E+03 0.  0.
        -13    1    3    3    0    0  0.52272731683E+02 -0.16439944183E+03 -0.72405854120E+03  0.74432546456E+03  0.10566000000E+00 0.  1.
         13    1    4    4    0    0  0.23959089433E+03  0.93215010865E+03 -0.81135640416E+03  0.12588116807E+04  0.10566000000E+00 0. -1.
          4    1    3    3  502    0 -0.49260786018E+03 -0.51547971334E+03  0.87839253952E+02  0.71839931327E+03  0.00000000000E+00 0.  1.
         -4    1    4    4    0  501  0.20074423417E+03 -0.25227095348E+03 -0.22438502188E+03  0.39279450043E+03  0.00000000000E+00 0. -1.
</event>
<event>
 8    1  0.7446554E-006  0.1134402E+04  0.7818608E-02  0.8657667E-01
          1   -1    0    0  502    0  0.00000000000E+00  0.00000000000E+00  0.13227139136E+04  0.13227139136E+04  0.00000000000E+00 0. -1.
         -1   -1    0    0    0  501 -0.00000000000E+00 -0.00000000000E+00 -0.14797976557E+04  0.14797976557E+04  0.00000000000E+00 0.  1.
    9000010    2    1    2  502    0  0.60107587178E+03 -0.18174150544E+03  0.74217188570E+03  0.13273857389E+04  0.90377630717E+03 0.  0.
   -9000010    2    1    2    0  501 -0.60107587178E+03  0.18174150544E+03 -0.89925562784E+03  0.14751258304E+04  0.98641439205E+03 0.  0.
        -13    1    3    3    0    0 -0.10629459385E+03 -0.16506465532E+03 -0.10576837859E+03  0.22300637254E+03  0.10566000000E+00 0.  1.
         13    1    4    4    0    0 -0.24433693618E+03 -0.34565970457E+03 -0.68137882661E+03  0.80215851692E+03  0.10566000000E+00 0. -1.
          4    1    3    3  502    0  0.70737046563E+03 -0.16676850118E+02  0.84794026429E+03  0.11043793663E+04  0.00000000000E+00 0.  1.
         -4    1    4    4    0  501 -0.35673893560E+03  0.52740121001E+03 -0.21787680123E+03  0.67296731347E+03  0.00000000000E+00 0. -1.
</event>
<event>
 8    1  0.7446554E-006  0.1300596E+04  0.7818608E-02  0.8534431E-01
         -2   -1    0    0    0  501 -0.00000000000E+00  0.00000000000E+00  0.53770799494E+03  0.53770799494E+03  0.00000000000E+00 0.  1.
          2   -1    0    0  502    0  0.00000000000E+00 -0.00000000000E+00 -0.31671360354E+04  0.31671360354E+04  0.00000000000E+00 0. -1.
    9000010    2    1    2  502    0 -0.13118498907E+03  0.81492517311E+03 -0.11885756579E+04  0.17785361242E+04  0.10340048896E+04 0.  0.
   -9000010    2    1    2    0  501  0.13118498907E+03 -0.81492517311E+03 -0.14408523826E+04  0.19263079061E+04  0.97636776960E+03 0.  0.
        -13    1    3    3    0    0  0.16690127568E+03 -0.18485366722E+03 -0.39823598917E+03  0.46970078597E+03  0.10566000000E+00 0.  1.
         13    1    4    4    0    0 -0.15261889988E+03  0.17607624324E+03 -0.38968429398E+03  0.45403659784E+03  0.10566000000E+00 0. -1.
          4    1    3    3  502    0 -0.29808626474E+03  0.99977884033E+03 -0.79033966868E+03  0.13088353383E+04  0.00000000000E+00 0.  1.
         -4    1    4    4    0  501  0.28380388894E+03 -0.99100141635E+03 -0.10511680886E+04  0.14722713082E+04  0.00000000000E+00 0. -1.
</event>
<event>
 8    1  0.7446554E-006  0.1138006E+04  0.7818608E-02  0.8654767E-01
          2   -1    0    0  502    0  0.00000000000E+00  0.00000000000E+00  0.27126773103E+04  0.27126773103E+04  0.00000000000E+00 0.  1.
         -2   -1    0    0    0  501 -0.00000000000E+00 -0.00000000000E+00 -0.66400307163E+03  0.66400307163E+03  0.00000000000E+00 0. -1.
    9000010    2    1    2  502    0 -0.52832173051E+03 -0.10692277296E+03  0.19156153553E+04  0.22252506957E+04  0.99579221682E+03 0.  0.
   -9000010    2    1    2    0  501  0.52832173051E+03  0.10692277296E+03  0.13305888340E+03  0.11514296862E+04  0.10087265862E+04 0.  0.
        -13    1    3    3    0    0 -0.72311391744E+03 -0.11725533925E+03  0.18918671045E+04  0.20287443665E+04  0.10566000000E+00 0.  1.
         13    1    4    4    0    0  0.11586932798E+02 -0.40191513489E+03  0.14125481846E+03  0.42617246223E+03  0.10566000000E+00 0. -1.
          4    1    3    3  502    0  0.19479218694E+03  0.10332566293E+02  0.23748250773E+02  0.19650632924E+03  0.00000000000E+00 0.  1.
         -4    1    4    4    0  501  0.51673479771E+03  0.50883790785E+03 -0.81959350590E+01  0.72525722401E+03  0.00000000000E+00 0. -1.
</event>
<event>
 8    1  0.7446554E-006  0.1078698E+04  0.7818608E-02  0.8703971E-01
          1   -1    0    0  502    0  0.00000000000E+00  0.00000000000E+00  0.48556766978E+03  0.48556766978E+03  0.00000000000E+00 0.  1.
         -1   -1    0    0    0  501 -0.00000000000E+00 -0.00000000000E+00 -0.37304076255E+04  0.37304076255E+04  0.00000000000E+00 0. -1.
    9000010    2    1    2  502    0  0.40417222100E+03 -0.45972407710E+02 -0.36998816933E+03  0.11483265922E+04  0.10081141157E+04 0.  0.
   -9000010    2    1    2    0  501 -0.40417222100E+03  0.45972407710E+02 -0.28748517864E+04  0.30676487031E+04  0.99006420269E+03 0.  0.
        -13    1    3    3    0    0  0.51306417286E+03 -0.12998098261E+03 -0.64888327853E+03  0.83736456913E+03  0.10566000000E+00 0.  1.
         13    1    4    4    0    0 -0.50282676870E+03 -0.40952373027E+02 -0.57866822614E+03  0.76770357775E+03  0.10566000000E+00 0. -1.
          4    1    3    3  502    0 -0.10889195186E+03  0.84008574903E+02  0.27889510920E+03  0.31096202304E+03  0.00000000000E+00 0.  1.
         -4    1    4    4    0  501  0.98654547700E+02  0.86924780737E+02 -0.22961835602E+04  0.22999451253E+04  0.00000000000E+00 0. -1.
</event>
<event>
 8    1  0.7446554E-006  0.1087115E+04  0.7818608E-02  0.8696790E-01
         -2   -1    0    0    0  501 -0.00000000000E+00  0.00000000000E+00  0.11665951042E+04  0.11665951042E+04  0.00000000000E+00 0.  1.
          2   -1    0    0  502    0  0.00000000000E+00 -0.00000000000E+00 -0.13254992761E+04  0.13254992761E+04  0.00000000000E+00 0. -1.
    9000010    2    1    2  502    0 -0.10162898581E+03 -0.27854778146E+03  0.52627700865E+03  0.11820643770E+04  0.10160666239E+04 0.  0.
   -9000010    2    1    2    0  501  0.10162898581E+03  0.27854778146E+03 -0.68518118055E+03  0.13100300034E+04  0.10764701771E+04 0.  0.
        -13    1    3    3    0    0  0.36006021287E+03 -0.61743900629E+02 -0.95747014687E+02  0.37765482671E+03  0.10566000000E+00 0.  1.
         13    1    4    4    0    0 -0.27235263955E+03  0.17388903919E+03  0.17411352542E+03  0.36705434083E+03  0.10566000000E+00 0. -1.
          4    1    3    3  502    0 -0.46168919867E+03 -0.21680388083E+03  0.62202402333E+03  0.80440955024E+03  0.00000000000E+00 0.  1.
         -4    1    4    4    0  501  0.37398162536E+03  0.10465874228E+03 -0.85929470597E+03  0.94297566254E+03  0.00000000000E+00 0. -1.
</event>
<event>
 8    1  0.7446554E-006  0.1035759E+04  0.7818608E-02  0.8741699E-01
          1   -1    0    0  502    0  0.00000000000E+00  0.00000000000E+00  0.38995692550E+03  0.38995692550E+03  0.00000000000E+00 0. -1.
         -1   -1    0    0    0  501 -0.00000000000E+00 -0.00000000000E+00 -0.37261409135E+04  0.37261409135E+04  0.00000000000E+00 0.  1.
    9000010    2    1    2  502    0 -0.12010630582E+03  0.29690652981E+03 -0.58812310978E+03  0.11707967655E+04  0.96036308849E+03 0.  0.
   -9000010    2    1    2    0  501  0.12010630582E+03 -0.29690652981E+03 -0.27480608782E+04  0.29453010735E+04  0.10101390057E+04 0.  0.
        -13    1    3    3    0    0  0.41817362126E+03  0.20402781077E+03 -0.29427479245E+03  0.55053990747E+03  0.10566000000E+00 0.  1.
         13    1    4    4    0    0 -0.87935179993E+02  0.30153340486E+03 -0.37521750983E+03  0.48932931751E+03  0.10566000000E+00 0. -1.
          4    1    3    3  502    0 -0.53827992708E+03  0.92878719040E+02 -0.29384831733E+03  0.62025685804E+03  0.00000000000E+00 0.  1.
         -4    1    4    4    0  501  0.20804148581E+03 -0.59843993467E+03 -0.23728433684E+04  0.24559717560E+04  0.00000000000E+00 0. -1.
</event>
<event>
 8    1  0.7446554E-006  0.1208582E+04  0.7818608E-02  0.8600128E-01
         -1   -1    0    0    0  501 -0.00000000000E+00  0.00000000000E+00  0.16438931849E+04  0.16438931849E+04  0.00000000000E+00 0.  1.
          1   -1    0    0  502    0  0.00000000000E+00 -0.00000000000E+00 -0.92870122157E+03  0.92870122157E+03  0.00000000000E+00 0. -1.
    9000010    2    1    2  502    0 -0.67826176441E+03 -0.61173534357E+00  0.62296648445E+03  0.13534278178E+04  0.99178637924E+03 0.  0.
   -9000010    2    1    2    0  501  0.67826176441E+03  0.61173534357E+00  0.92225478931E+02  0.12191665887E+04  0.10088717643E+04 0.  0.
        -13    1    3    3    0    0  0.21131227544E+03 -0.12160025571E+03 -0.26693169745E+02  0.24525912096E+03  0.10566000000E+00 0.  1.
         13    1    4    4    0    0  0.29650648924E+03 -0.11035741472E+03 -0.44798352126E+03  0.54843787582E+03  0.10566000000E+00 0. -1.
          4    1    3    3  502    0 -0.88957403984E+03  0.12098852037E+03  0.64965965420E+03  0.11081686969E+04  0.00000000000E+00 0.  1.
         -4    1    4    4    0  501  0.38175527517E+03  0.11096915006E+03  0.54020900019E+03  0.67072871287E+03  0.00000000000E+00 0. -1.
</event>
<event>
 8    1  0.7446554E-006  0.1276227E+04  0.7818608E-02  0.8551271E-01
         -2   -1    0    0    0  501 -0.00000000000E+00  0.00000000000E+00  0.66325600077E+03  0.66325600077E+03  0.00000000000E+00 0.  1.
          2   -1    0    0  502    0  0.00000000000E+00 -0.00000000000E+00 -0.29658636274E+04  0.29658636274E+04  0.00000000000E+00 0. -1.
    9000010    2    1    2  502    0 -0.63475187218E+03  0.41715436693E+03 -0.19206588940E+04  0.23191710668E+04  0.10548441331E+04 0.  0.
   -9000010    2    1    2    0  501  0.63475187218E+03 -0.41715436693E+03 -0.38194873261E+03  0.13099485613E+04  0.99657046606E+03 0.  0.
        -13    1    3    3    0    0 -0.52586051375E+02  0.55784721228E+03 -0.41055457672E+03  0.69463218805E+03  0.10566000000E+00 0.  1.
         13    1    4    4    0    0  0.22055443233E+03 -0.69881488683E+03 -0.11311156628E+03  0.74147200976E+03  0.10566000000E+00 0. -1.
          4    1    3    3  502    0 -0.58216582080E+03 -0.14069284535E+03 -0.15101043173E+04  0.16245388788E+04  0.00000000000E+00 0.  1.
         -4    1    4    4    0  501  0.41419743984E+03  0.28166051990E+03 -0.26883716633E+03  0.56847655154E+03  0.00000000000E+00 0. -1.
</event>
<event>
 8    1  0.7446554E-006  0.1388830E+04  0.7818608E-02  0.8476498E-01
         -2   -1    0    0    0  501 -0.00000000000E+00  0.00000000000E+00  0.12759331751E+04  0.12759331751E+04  0.00000000000E+00 0.  1.
          2   -1    0    0  502    0  0.00000000000E+00 -0.00000000000E+00 -0.15859358306E+04  0.15859358306E+04  0.00000000000E+00 0. -1.
    9000010    2    1    2  502    0  0.60265690793E+03  0.74831337939E+03 -0.46507932361E+03  0.14697620245E+04  0.10103135004E+04 0.  0.
   -9000010    2    1    2    0  501 -0.60265690793E+03 -0.74831337939E+03  0.15507666814E+03  0.13921069812E+04  0.99536164863E+03 0.  0.
        -13    1    3    3    0    0  0.65368236837E+02  0.45116628726E+02  0.29356910781E+03  0.30412390370E+03  0.10566000000E+00 0.  1.
         13    1    4    4    0    0 -0.24385144327E+02 -0.67984700366E+03  0.36634595919E+03  0.77265513435E+03  0.10566000000E+00 0. -1.
          4    1    3    3  502    0  0.53728867110E+03  0.70319675067E+03 -0.75864843142E+03  0.11656381208E+04  0.00000000000E+00 0.  1.
         -4    1    4    4    0  501 -0.57827176361E+03 -0.68466375732E+02 -0.21126929105E+03  0.61945184682E+03  0.00000000000E+00 0. -1.
</event>
<event>
 8    1  0.7446554E-006  0.1166121E+04  0.7818608E-02  0.8632520E-01
          2   -1    0    0  502    0  0.00000000000E+00  0.00000000000E+00  0.24195679941E+04  0.24195679941E+04  0.00000000000E+00 0.  1.
         -2   -1    0    0    0  501 -0.00000000000E+00 -0.00000000000E+00 -0.68279890809E+03  0.68279890809E+03  0.00000000000E+00 0. -1.
    9000010    2    1    2  502    0 -0.18297540250E+03 -0.59716170854E+03  0.15202662457E+04  0.19154777041E+04  0.98374959874E+03 0.  0.
   -9000010    2    1    2    0  501  0.18297540250E+03  0.59716170854E+03  0.21650284029E+03  0.11868891981E+04  0.98577400279E+03 0.  0.
        -13    1    3    3    0    0 -0.99822203443E+02 -0.30968923150E+03 -0.39041391911E+02  0.32771349355E+03  0.10566000000E+00 0.  1.
         13    1    4    4    0    0  0.36889185664E+03 -0.14045860574E+03 -0.44750863739E+01  0.39475290928E+03  0.10566000000E+00 0. -1.
          4    1    3    3  502    0 -0.83153199056E+02 -0.28747247704E+03  0.15593076376E+04  0.15877642106E+04  0.00000000000E+00 0.  1.
         -4    1    4    4    0  501 -0.18591645414E+03  0.73762031428E+03  0.22097792666E+03  0.79213628880E+03  0.00000000000E+00 0. -1.
</event>
<event>
 8    1  0.7446554E-006  0.1091589E+04  0.7818608E-02  0.8693000E-01
         -1   -1    0    0    0  501 -0.00000000000E+00  0.00000000000E+00  0.11874546700E+04  0.11874546700E+04  0.00000000000E+00 0.  1.
          1   -1    0    0  502    0  0.00000000000E+00 -0.00000000000E+00 -0.12061876629E+04  0.12061876629E+04  0.00000000000E+00 0. -1.
    9000010    2    1    2  502    0 -0.32629389716E+03 -0.32552594056E+03 -0.49999355643E+03  0.12084825336E+04  0.99900031638E+03 0.  0.
   -9000010    2    1    2    0  501  0.32629389716E+03  0.32552594056E+03  0.48126056346E+03  0.11851597994E+04  0.98008018793E+03 0.  0.
        -13    1    3    3    0    0 -0.41125250780E+03 -0.86553233786E+02  0.19892852409E+03  0.46496522054E+03  0.10566000000E+00 0.  1.
         13    1    4    4    0    0 -0.25727938876E+03  0.27174023641E+03 -0.69864387108E+02  0.38067897724E+03  0.10566000000E+00 0. -1.
          4    1    3    3  502    0  0.84958610638E+02 -0.23897270677E+03 -0.69892208052E+03  0.74351731301E+03  0.00000000000E+00 0.  1.
         -4    1    4    4    0  501  0.58357328592E+03  0.53785704145E+02  0.55112495057E+03  0.80448082212E+03  0.00000000000E+00 0. -1.
</event>
<event>
 8    1  0.7446554E-006  0.1331019E+04  0.7818608E-02  0.8513936E-01
          2   -1    0    0  502    0  0.00000000000E+00  0.00000000000E+00  0.28077560353E+04  0.28077560353E+04  0.00000000000E+00 0.  1.
         -2   -1    0    0    0  501 -0.00000000000E+00 -0.00000000000E+00 -0.69717600157E+03  0.69717600157E+03  0.00000000000E+00 0. -1.
    9000010    2    1    2  502    0  0.81289341487E+03  0.32934626496E+03  0.51348462470E+03  0.14243264495E+04  0.99788511795E+03 0.  0.
   -9000010    2    1    2    0  501 -0.81289341487E+03 -0.32934626496E+03  0.15970954090E+04  0.20806055874E+04  0.10044606506E+04 0.  0.
        -13    1    3    3    0    0 -0.15156012019E+03 -0.21944569504E+02  0.35382620317E+03  0.38554510421E+03  0.10566000000E+00 0.  1.
         13    1    4    4    0    0 -0.84839477456E+03 -0.60111004752E+03  0.13960189301E+04  0.17406825808E+04  0.10566000000E+00 0. -1.
          4    1    3    3  502    0  0.96445353506E+03  0.35129083447E+03  0.15965842153E+03  0.10387813452E+04  0.00000000000E+00 0.  1.
         -4    1    4    4    0  501  0.35501359692E+02  0.27176378256E+03  0.20107647894E+03  0.33992300663E+03  0.00000000000E+00 0. -1.
</event>
<event>
 8    1  0.7446554E-006  0.1383896E+04  0.7818608E-02  0.8479619E-01
          1   -1    0    0  502    0  0.00000000000E+00  0.00000000000E+00  0.20394557335E+04  0.20394557335E+04  0.00000000000E+00 0. -1.
         -1   -1    0    0    0  501 -0.00000000000E+00 -0.00000000000E+00 -0.98218858040E+03  0.98218858040E+03  0.00000000000E+00 0.  1.
    9000010    2    1    2  502    0  0.95322664144E+03  0.10523996056E+03  0.21333839834E+03  0.14037111593E+04  0.10025842944E+04 0.  0.
   -9000010    2    1    2    0  501 -0.95322664144E+03 -0.10523996056E+03  0.84392875475E+03  0.16179331546E+04  0.99286226148E+03 0.  0.
        -13    1    3    3    0    0  0.12157996767E+03  0.46236040592E+03  0.21737626053E+02  0.47857221926E+03  0.10566000000E+00 0.  1.
         13    1    4    4    0    0 -0.69530535465E+03 -0.45621107744E+03  0.22571789335E+03  0.86169986766E+03  0.10566000000E+00 0. -1.
          4    1    3    3  502    0  0.83164667377E+03 -0.35712044536E+03  0.19160077229E+03  0.92513894007E+03  0.00000000000E+00 0.  1.
         -4    1    4    4    0  501 -0.25792128679E+03  0.35097111688E+03  0.61821086140E+03  0.75623328690E+03  0.00000000000E+00 0. -1.
</event>
<event>
 8    1  0.7446554E-006  0.1066863E+04  0.7818608E-02  0.8714185E-01
          2   -1    0    0  502    0  0.00000000000E+00  0.00000000000E+00  0.52041529087E+03  0.52041529087E+03  0.00000000000E+00 0. -1.
         -2   -1    0    0    0  501 -0.00000000000E+00 -0.00000000000E+00 -0.22261235181E+04  0.22261235181E+04  0.00000000000E+00 0.  1.
    9000010    2    1    2  502    0  0.24044135660E+03  0.28859929497E+03 -0.67950631743E+03  0.12735449931E+04  0.10094981006E+04 0.  0.
   -9000010    2    1    2    0  501 -0.24044135660E+03 -0.28859929497E+03 -0.10262019098E+04  0.14729938158E+04  0.98768356411E+03 0.  0.
        -13    1    3    3    0    0  0.12808121664E+03  0.66443128312E+03 -0.50436341788E+03  0.84395272173E+03  0.10566000000E+00 0.  1.
         13    1    4    4    0    0 -0.28789684043E+03 -0.52192571443E+03 -0.10756947750E+04  0.12298009198E+04  0.10566000000E+00 0. -1.
          4    1    3    3  502    0  0.11236013995E+03 -0.37583198816E+03 -0.17514289955E+03  0.42959227139E+03  0.00000000000E+00 0.  1.
         -4    1    4    4    0  501  0.47455483832E+02  0.23332641947E+03  0.49492865271E+02  0.24319289603E+03  0.00000000000E+00 0. -1.
</event>
<event>
 8    1  0.7446554E-006  0.1709219E+04  0.7818608E-02  0.8298316E-01
         -2   -1    0    0    0  501 -0.00000000000E+00  0.00000000000E+00  0.13511036093E+04  0.13511036093E+04  0.00000000000E+00 0.  1.
          2   -1    0    0  502    0  0.00000000000E+00 -0.00000000000E+00 -0.21699883602E+04  0.21699883602E+04  0.00000000000E+00 0. -1.
    9000010    2    1    2  502    0  0.35722817042E+03 -0.13443717835E+04 -0.30763676783E+03  0.17476952069E+04  0.10123490984E+04 0.  0.
   -9000010    2    1    2    0  501 -0.35722817042E+03  0.13443717835E+04 -0.51124798306E+03  0.17733967627E+04  0.97396823338E+03 0.  0.
        -13    1    3    3    0    0  0.41679705139E+03 -0.14619487757E+04 -0.41707589939E+03  0.15763775949E+04  0.10566000000E+00 0.  1.
         13    1    4    4    0    0 -0.46683548935E+03  0.13275501714E+04 -0.68669270562E+03  0.15658453675E+04  0.10566000000E+00 0. -1.
          4    1    3    3  502    0 -0.59568880972E+02  0.11757699212E+03  0.10943913156E+03  0.17131761198E+03  0.00000000000E+00 0.  1.
         -4    1    4    4    0  501  0.10960731892E+03  0.16821612164E+02  0.17544472256E+03  0.20755139525E+03  0.00000000000E+00 0. -1.
</event>
<event>
 8    1  0.7446554E-006  0.1131559E+04  0.7818608E-02  0.8659962E-01
          2   -1    0    0  502    0  0.00000000000E+00  0.00000000000E+00  0.28215794449E+04  0.28215794449E+04  0.00000000000E+00 0.  1.
         -2   -1    0    0    0  501 -0.00000000000E+00 -0.00000000000E+00 -0.47534786431E+03  0.47534786431E+03  0.00000000000E+00 0. -1.
    9000010    2    1    2  502    0  0.32902052949E+03 -0.35699248224E+03  0.82404302186E+03  0.14013734297E+04  0.10242570216E+04 0.  0.
   -9000010    2    1    2    0  501 -0.32902052949E+03  0.35699248224E+03  0.15221885587E+04  0.18955538795E+04  0.10199844904E+04 0.  0.
        -13    1    3    3    0    0  0.71787238410E+02  0.20741978433E+03  0.74431596308E+03  0.77600427743E+03  0.10566000000E+00 0.  1.
         13    1    4    4    0    0 -0.64197769066E+03 -0.14453101288E+01  0.73662543208E+03  0.97711538857E+03  0.10566000000E+00 0. -1.
          4    1    3    3  502    0  0.25723329108E+03 -0.56441226657E+03  0.79727058779E+02  0.62536915226E+03  0.00000000000E+00 0.  1.
         -4    1    4    4    0  501  0.31295716116E+03  0.35843779236E+03  0.78556312665E+03  0.91843849096E+03  0.00000000000E+00 0. -1.
</event>
<event>
 7    1  0.7446554E-006  0.1658558E+04  0.7818608E-02  0.8323669E-01
          2   -1    0    0  502    0  0.00000000000E+00  0.00000000000E+00  0.17632609115E+04  0.17632609115E+04  0.00000000000E+00 0. -1.
         -2   -1    0    0    0  501 -0.00000000000E+00 -0.00000000000E+00 -0.15653307757E+04  0.15653307757E+04  0.00000000000E+00 0.  1.
    9000010    2    1    2  502    0 -0.13528515571E+04 -0.48173462945E+03  0.13825400347E+03  0.17565699194E+04  0.10020719153E+04 0.  0.
        -13    1    3    3    0    0 -0.89274795865E+03 -0.79424233833E+03  0.96873312574E+02  0.11988345422E+04  0.10566000000E+00 0.  1.
         13    1    1    2    0    0  0.19899832373E+03  0.82717662247E+02  0.25687367723E+03  0.33530082272E+03  0.10566000000E+00 0. -1.
          4    1    3    3  502    0 -0.46010359843E+03  0.31250770889E+03  0.41380690896E+02  0.55773537720E+03  0.00000000000E+00 0.  1.
         -4    1    1    2    0  501  0.11538532334E+04  0.39901696720E+03 -0.19719754492E+03  0.12367209451E+04  0.00000000000E+00 0. -1.
</event>
<event>
 8    1  0.7446554E-006  0.1135896E+04  0.7818608E-02  0.8656463E-01
          2   -1    0    0  502    0  0.00000000000E+00  0.00000000000E+00  0.16842639096E+04  0.16842639096E+04  0.00000000000E+00 0.  1.
         -2   -1    0    0    0  501 -0.00000000000E+00 -0.00000000000E+00 -0.79277702264E+03  0.79277702264E+03  0.00000000000E+00 0. -1.
    9000010    2    1    2  502    0 -0.47379831318E+03  0.22392467695E+03  0.21987845318E+03  0.11606894708E+04  0.10120407160E+04 0.  0.
   -9000010    2    1    2    0  501  0.47379831318E+03 -0.22392467695E+03  0.67160843382E+03  0.13163514615E+04  0.10035418174E+04 0.  0.
        -13    1    3    3    0    0  0.38873742038E+02 -0.24033499175E+03 -0.23055689344E+03  0.33530369571E+03  0.10566000000E+00 0.  1.
         13    1    4    4    0    0  0.59944665551E+03  0.48228443944E+02  0.22997776244E+02  0.60182321697E+03  0.10566000000E+00 0. -1.
          4    1    3    3  502    0 -0.51267205522E+03  0.46425966870E+03  0.45043534663E+03  0.82538577506E+03  0.00000000000E+00 0.  1.
         -4    1    4    4    0  501 -0.12564834233E+03 -0.27215312090E+03  0.64861065757E+03  0.71452824455E+03  0.00000000000E+00 0. -1.
</event>
<event>
 8    1  0.7446554E-006  0.1665056E+04  0.7818608E-02  0.8320366E-01
          1   -1    0    0  502    0  0.00000000000E+00  0.00000000000E+00  0.13089453529E+04  0.13089453529E+04  0.00000000000E+00 0.  1.
         -1   -1    0    0    0  501 -0.00000000000E+00 -0.00000000000E+00 -0.30641403666E+04  0.30641403666E+04  0.00000000000E+00 0. -1.
    9000010    2    1    2  502    0  0.13345538489E+04 -0.19259210864E+03  0.33398952079E+03  0.17072410066E+04  0.99247023063E+03 0.  0.
   -9000010    2    1    2    0  501 -0.13345538489E+04  0.19259210864E+03 -0.20891845346E+04  0.26658447129E+04  0.96120253725E+03 0.  0.
        -13    1    3    3    0    0  0.25390208401E+03 -0.16815068602E+03  0.52753140526E+03  0.60912257894E+03  0.10566000000E+00 0.  1.
         13    1    4    4    0    0 -0.30320665678E+03  0.33213152341E+03 -0.16649058431E+03  0.47954640170E+03  0.10566000000E+00 0. -1.
          4    1    3    3  502    0  0.10806517649E+04 -0.24441422619E+02 -0.19354188447E+03  0.10981184277E+04  0.00000000000E+00 0.  1.
         -4    1    4    4    0  501 -0.10313471921E+04 -0.13953941477E+03 -0.19226939503E+04  0.21862983112E+04  0.00000000000E+00 0. -1.
</event>
<event>
 8    1  0.7446554E-006  0.1071054E+04  0.7818608E-02  0.8710552E-01
         -2   -1    0    0    0  501 -0.00000000000E+00  0.00000000000E+00  0.44496379364E+03  0.44496379364E+03  0.00000000000E+00 0.  1.
          2   -1    0    0  502    0  0.00000000000E+00 -0.00000000000E+00 -0.26408577920E+04  0.26408577920E+04  0.00000000000E+00 0. -1.
    9000010    2    1    2  502    0 -0.37399488887E+03  0.94437020682E+02 -0.86267916903E+03  0.13772749471E+04  0.10019383232E+04 0.  0.
   -9000010    2    1    2    0  501  0.37399488887E+03 -0.94437020682E+02 -0.13332148293E+04  0.17085466385E+04  0.99643329285E+03 0.  0.
        -13    1    3    3    0    0 -0.43302075192E+03  0.43755345340E+03 -0.23388664217E+03  0.65853091706E+03  0.10566000000E+00 0.  1.
         13    1    4    4    0    0 -0.34146963092E+03 -0.56629415951E+02 -0.35279590631E+03  0.49424018682E+03  0.10566000000E+00 0. -1.
          4    1    3    3  502    0  0.59025863047E+02 -0.34311643272E+03 -0.62879252686E+03  0.71874403005E+03  0.00000000000E+00 0.  1.
         -4    1    4    4    0  501  0.71546451979E+03 -0.37807604731E+02 -0.98041892303E+03  0.12143064517E+04  0.00000000000E+00 0. -1.
</event>
<event>
 8    1  0.7446554E-006  0.1039076E+04  0.7818608E-02  0.8738718E-01
          2   -1    0    0  502    0  0.00000000000E+00  0.00000000000E+00  0.13774411279E+04  0.13774411279E+04  0.00000000000E+00 0.  1.
         -2   -1    0    0    0  501 -0.00000000000E+00 -0.00000000000E+00 -0.80968969947E+03  0.80968969947E+03  0.00000000000E+00 0. -1.
    9000010    2    1    2  502    0  0.41525070056E+03  0.25248283339E+03  0.48364580186E+03  0.11655890198E+04  0.94260478251E+03 0.  0.
   -9000010    2    1    2    0  501 -0.41525070056E+03 -0.25248283339E+03  0.84105626562E+02  0.10215418075E+04  0.89459107008E+03 0.  0.
        -13    1    3    3    0    0  0.23851168759E+03  0.21554127497E+03 -0.25177096124E+03  0.40833135371E+03  0.10566000000E+00 0.  1.
         13    1    4    4    0    0  0.36783336332E+02  0.75352543905E+02 -0.32093581284E+03  0.33170894898E+03  0.10566000000E+00 0. -1.
          4    1    3    3  502    0  0.17673901297E+03  0.36941558421E+02  0.73541676310E+03  0.75725766612E+03  0.00000000000E+00 0.  1.
         -4    1    4    4    0  501 -0.45203403689E+03 -0.32783537729E+03  0.40504143941E+03  0.68983285856E+03  0.00000000000E+00 0. -1.
</event>
<event>
 8    1  0.7446554E-006  0.1472158E+04  0.7818608E-02  0.8425705E-01
          1   -1    0    0  502    0  0.00000000000E+00  0.00000000000E+00  0.15738792035E+04  0.15738792035E+04  0.00000000000E+00 0. -1.
         -1   -1    0    0    0  501 -0.00000000000E+00 -0.00000000000E+00 -0.13914815362E+04  0.13914815362E+04  0.00000000000E+00 0.  1.
    9000010    2    1    2  502    0 -0.57830784122E+03  0.74471461546E+03  0.18466318695E+03  0.13763150619E+04  0.98544550300E+03 0.  0.
   -9000010    2    1    2    0  501  0.57830784122E+03 -0.74471461546E+03 -0.22655197004E+01  0.15890456777E+04  0.12790704498E+04 0.  0.
        -13    1    3    3    0    0 -0.29666739975E+03  0.69420611773E+03 -0.30091627002E+03  0.81270184736E+03  0.10566000000E+00 0.  1.
         13    1    4    4    0    0  0.89622772249E+03 -0.14192821816E+03 -0.12486926579E+02  0.90748205721E+03  0.10566000000E+00 0. -1.
          4    1    3    3  502    0 -0.28164044147E+03  0.50508497733E+02  0.48557945697E+03  0.56361321458E+03  0.00000000000E+00 0.  1.
         -4    1    4    4    0  501 -0.31791988126E+03 -0.60278639730E+03  0.10221406878E+02  0.68156362053E+03  0.00000000000E+00 0. -1.
</event>
<event>
 8    1  0.7446554E-006  0.1216234E+04  0.7818608E-02  0.8594437E-01
         -2   -1    0    0    0  501 -0.00000000000E+00  0.00000000000E+00  0.75987993519E+03  0.75987993519E+03  0.00000000000E+00 0.  1.
          2   -1    0    0  502    0  0.00000000000E+00 -0.00000000000E+00 -0.20155524432E+04  0.20155524432E+04  0.00000000000E+00 0. -1.
    9000010    2    1    2  502    0  0.61444031553E+03 -0.29331414568E+03 -0.88867966038E+03  0.15136105318E+04  0.10186732616E+04 0.  0.
   -9000010    2    1    2    0  501 -0.61444031553E+03  0.29331414568E+03 -0.36699284766E+03  0.12618218466E+04  0.99696566283E+03 0.  0.
        -13    1    3    3    0    0 -0.93199991998E+02 -0.28065841088E+03 -0.73093202665E+03  0.78849034290E+03  0.10566000000E+00 0.  1.
         13    1    4    4    0    0  0.71931899531E+02  0.32880766996E+03 -0.45816658047E+03  0.56851148503E+03  0.10566000000E+00 0. -1.
          4    1    3    3  502    0  0.70764030753E+03 -0.12655734800E+02 -0.15774763373E+03  0.72512018894E+03  0.00000000000E+00 0.  1.
         -4    1    4    4    0  501 -0.68637221506E+03 -0.35493524278E+02  0.91173732804E+02  0.69331036155E+03  0.00000000000E+00 0. -1.
</event>
<event>
 8    1  0.7446554E-006  0.1370173E+04  0.7818608E-02  0.8488372E-01
         -1   -1    0    0    0  501 -0.00000000000E+00  0.00000000000E+00  0.18107923494E+04  0.18107923494E+04  0.00000000000E+00 0. -1.
          1   -1    0    0  502    0  0.00000000000E+00 -0.00000000000E+00 -0.11575971784E+04  0.11575971784E+04  0.00000000000E+00 0.  1.
    9000010    2    1    2  502    0  0.83798293360E+03 -0.40279939332E+03 -0.15189867002E+03  0.13831690729E+04  0.10127293469E+04 0.  0.
   -9000010    2    1    2    0  501 -0.83798293360E+03  0.40279939332E+03  0.80509384102E+03  0.15852204550E+04  0.10001425147E+04 0.  0.
        -13    1    3    3    0    0  0.10692474735E+04 -0.25205208902E+03 -0.11213769232E+03  0.11042623277E+04  0.10566000000E+00 0.  1.
         13    1    4    4    0    0 -0.59338377987E+03 -0.26148101661E+03  0.47707425221E+03  0.80503197796E+03  0.10566000000E+00 0. -1.
          4    1    3    3  502    0 -0.23126453991E+03 -0.15074730430E+03 -0.39760977699E+02  0.27890674521E+03  0.00000000000E+00 0.  1.
         -4    1    4    4    0  501 -0.24459915373E+03  0.66428040993E+03  0.32801958881E+03  0.78018847701E+03  0.00000000000E+00 0. -1.
</event>
<event>
 8    1  0.7446554E-006  0.1032159E+04  0.7818608E-02  0.8744949E-01
          2   -1    0    0  502    0  0.00000000000E+00  0.00000000000E+00  0.19593401475E+04  0.19593401475E+04  0.00000000000E+00 0.  1.
         -2   -1    0    0    0  501 -0.00000000000E+00 -0.00000000000E+00 -0.58268560165E+03  0.58268560165E+03  0.00000000000E+00 0. -1.
    9000010    2    1    2  502    0 -0.18375071037E+03  0.13095751117E+03  0.10146097348E+04  0.14446822087E+04  0.10033740961E+04 0.  0.
   -9000010    2    1    2    0  501  0.18375071037E+03 -0.13095751117E+03  0.36204481104E+03  0.10973435405E+04  0.10110253248E+04 0.  0.
        -13    1    3    3    0    0  0.18003524851E+03 -0.13291678700E+03  0.96723037870E+03  0.99278103307E+03  0.10566000000E+00 0.  1.
         13    1    4    4    0    0  0.35097472145E+03  0.50988783785E+02  0.63612174800E+03  0.72830900077E+03  0.10566000000E+00 0. -1.
          4    1    3    3  502    0 -0.36378595888E+03  0.26387429817E+03  0.47379356099E+02  0.45190117559E+03  0.00000000000E+00 0.  1.
         -4    1    4    4    0  501 -0.16722401108E+03 -0.18194629496E+03 -0.27407693695E+03  0.36903453971E+03  0.00000000000E+00 0. -1.
</event>
<event>
 8    1  0.7446554E-006  0.1117051E+04  0.7818608E-02  0.8671787E-01
          2   -1    0    0  502    0  0.00000000000E+00  0.00000000000E+00  0.18406572251E+04  0.18406572251E+04  0.00000000000E+00 0. -1.
         -2   -1    0    0    0  501 -0.00000000000E+00 -0.00000000000E+00 -0.72254440448E+03  0.72254440448E+03  0.00000000000E+00 0.  1.
    9000010    2    1    2  502    0  0.43757721613E+03 -0.29979134971E+03  0.90085692682E+03  0.14947067768E+04  0.10682960603E+04 0.  0.
   -9000010    2    1    2    0  501 -0.43757721613E+03  0.29979134971E+03  0.21725589377E+03  0.10684948528E+04  0.90173857278E+03 0.  0.
        -13    1    3    3    0    0  0.51342236631E+03  0.29263935872E+03  0.38321096124E+03  0.70433725762E+03  0.10566000000E+00 0.  1.
         13    1    4    4    0    0 -0.68645893176E+03  0.37289771003E+03  0.11478220257E+03  0.78959073723E+03  0.10566000000E+00 0. -1.
          4    1    3    3  502    0 -0.75845150179E+02 -0.59243070843E+03  0.51764596558E+03  0.79036951914E+03  0.00000000000E+00 0.  1.
         -4    1    4    4    0  501  0.24888171563E+03 -0.73106360315E+02  0.10247369120E+03  0.27890411557E+03  0.00000000000E+00 0. -1.
</event>
<event>
 8    1  0.7446554E-006  0.1117025E+04  0.7818608E-02  0.8671809E-01
          2   -1    0    0  502    0  0.00000000000E+00  0.00000000000E+00  0.28146924833E+04  0.28146924833E+04  0.00000000000E+00 0. -1.
         -2   -1    0    0    0  501 -0.00000000000E+00 -0.00000000000E+00 -0.47319587706E+03  0.47319587706E+03  0.00000000000E+00 0.  1.
    9000010    2    1    2  502    0 -0.32629075970E+03  0.31784218195E+03  0.75583912273E+03  0.13472953388E+04  0.10180484458E+04 0.  0.
   -9000010    2    1    2    0  501  0.32629075970E+03 -0.31784218195E+03  0.15856574835E+04  0.19405930215E+04  0.10218132451E+04 0.  0.
        -13    1    3    3    0    0 -0.28586195557E+03  0.26583705369E+03 -0.16521438155E+03  0.42388937211E+03  0.10566000000E+00 0.  1.
         13    1    4    4    0    0  0.53755676775E+03 -0.57419238184E+03  0.11176416949E+04  0.13666700916E+04  0.10566000000E+00 0. -1.
          4    1    3    3  502    0 -0.40428804126E+02  0.52005128265E+02  0.92105350427E+03  0.92340596668E+03  0.00000000000E+00 0.  1.
         -4    1    4    4    0  501 -0.21126600805E+03  0.25635019989E+03  0.46801578857E+03  0.57392292992E+03  0.00000000000E+00 0. -1.
</event>
<event>
 8    1  0.7446554E-006  0.1762675E+04  0.7818608E-02  0.8272528E-01
         -1   -1    0    0    0  501 -0.00000000000E+00  0.00000000000E+00  0.16711205138E+04  0.16711205138E+04  0.00000000000E+00 0. -1.
          1   -1    0    0  502    0  0.00000000000E+00 -0.00000000000E+00 -0.19883565308E+04  0.19883565308E+04  0.00000000000E+00 0.  1.
    9000010    2    1    2  502    0  0.11197630054E+04 -0.92626969466E+03 -0.62498591453E+03  0.18714622708E+04  0.99995945027E+03 0.  0.
   -9000010    2    1    2    0  501 -0.11197630054E+04  0.92626969466E+03  0.30774989751E+03  0.17880147739E+04  0.99520957428E+03 0.  0.
        -13    1    3    3    0    0  0.13236980496E+03  0.16921991726E+03  0.89455843536E+02  0.23272194733E+03  0.10566000000E+00 0.  1.
         13    1    4    4    0    0  0.11273730113E+03  0.40969135698E+03  0.69650563854E+02  0.43059019875E+03  0.10566000000E+00 0. -1.
          4    1    3    3  502    0  0.98739320041E+03 -0.10954896119E+04 -0.71444175807E+03  0.16387403235E+04  0.00000000000E+00 0.  1.
         -4    1    4    4    0  501 -0.12325003065E+04  0.51657833768E+03  0.23809933365E+03  0.13574245751E+04  0.00000000000E+00 0. -1.
</event>
<event>
 8    1  0.7446554E-006  0.1495970E+04  0.7818608E-02  0.8411822E-01
          2   -1    0    0  502    0  0.00000000000E+00  0.00000000000E+00  0.15299058043E+04  0.15299058043E+04  0.00000000000E+00 0. -1.
         -2   -1    0    0    0  501 -0.00000000000E+00 -0.00000000000E+00 -0.14685091057E+04  0.14685091057E+04  0.00000000000E+00 0.  1.
    9000010    2    1    2  502    0  0.32091417449E+03  0.11034785081E+04 -0.62862367544E+02  0.14926976674E+04  0.95054927466E+03 0.  0.
   -9000010    2    1    2    0  501 -0.32091417449E+03 -0.11034785081E+04  0.12425906618E+03  0.15057172426E+04  0.96493179756E+03 0.  0.
        -13    1    3    3    0    0  0.32009455548E+02  0.10002456201E+04  0.27347913584E+03  0.10374520494E+04  0.10566000000E+00 0.  1.
         13    1    4    4    0    0 -0.55073675986E+03 -0.11224324216E+04  0.19302723124E+03  0.12650790659E+04  0.10566000000E+00 0. -1.
          4    1    3    3  502    0  0.28890471894E+03  0.10323288801E+03 -0.33634150339E+03  0.45524561798E+03  0.00000000000E+00 0.  1.
         -4    1    4    4    0  501  0.22982258537E+03  0.18953913487E+02 -0.68768165057E+02  0.24063817675E+03  0.00000000000E+00 0. -1.
</event>
<event>
 8    1  0.7446554E-006  0.1188595E+04  0.7818608E-02  0.8615201E-01
         -2   -1    0    0    0  501 -0.00000000000E+00  0.00000000000E+00  0.90044335203E+03  0.90044335203E+03  0.00000000000E+00 0.  1.
          2   -1    0    0  502    0  0.00000000000E+00 -0.00000000000E+00 -0.15896816506E+04  0.15896816506E+04  0.00000000000E+00 0. -1.
    9000010    2    1    2  502    0  0.19811432126E+03  0.57484205697E+03 -0.48003075559E+03  0.12645974489E+04  0.99954214857E+03 0.  0.
   -9000010    2    1    2    0  501 -0.19811432126E+03 -0.57484205697E+03 -0.20920754299E+03  0.12255275537E+04  0.10432915767E+04 0.  0.
        -13    1    3    3    0    0 -0.26698454540E+03  0.15812984895E+03  0.17774771838E+03  0.35760321471E+03  0.10566000000E+00 0.  1.
         13    1    4    4    0    0  0.30509336878E+03  0.12182912858E+03  0.39446550397E+02  0.33087813731E+03  0.10566000000E+00 0. -1.
          4    1    3    3  502    0  0.46509886667E+03  0.41671220801E+03 -0.65777847397E+03  0.90699423422E+03  0.00000000000E+00 0.  1.
         -4    1    4    4    0  501 -0.50320769005E+03 -0.69667118555E+03 -0.24865409338E+03  0.89464941639E+03  0.00000000000E+00 0. -1.
</event>
<event>
 8    1  0.7446554E-006  0.1527247E+04  0.7818608E-02  0.8393989E-01
          1   -1    0    0  502    0  0.00000000000E+00  0.00000000000E+00  0.86590744552E+03  0.86590744552E+03  0.00000000000E+00 0. -1.
         -1   -1    0    0    0  501 -0.00000000000E+00 -0.00000000000E+00 -0.27976063238E+04  0.27976063238E+04  0.00000000000E+00 0.  1.
    9000010    2    1    2  502    0  0.11517444094E+04  0.15547909277E+03 -0.61416523151E+03  0.16481598359E+04  0.99425498746E+03 0.  0.
   -9000010    2    1    2    0  501 -0.11517444094E+04 -0.15547909277E+03 -0.13175336468E+04  0.20153539335E+04  0.98745513002E+03 0.  0.
        -13    1    3    3    0    0  0.24225033780E+03  0.48268826268E+03 -0.86521364673E+02  0.54695442480E+03  0.10566000000E+00 0.  1.
         13    1    4    4    0    0 -0.12144232834E+04 -0.10453188777E+03 -0.72685669854E+03  0.14191798682E+04  0.10566000000E+00 0. -1.
          4    1    3    3  502    0  0.90949407161E+03 -0.32720916991E+03 -0.52764386683E+03  0.11012054111E+04  0.00000000000E+00 0.  1.
         -4    1    4    4    0  501  0.62678873988E+02 -0.50947205005E+02 -0.59067694825E+03  0.59617406530E+03  0.00000000000E+00 0. -1.
</event>
<event>
 8    1  0.7446554E-006  0.1252464E+04  0.7818608E-02  0.8568069E-01
          2   -1    0    0  502    0  0.00000000000E+00  0.00000000000E+00  0.10826918924E+04  0.10826918924E+04  0.00000000000E+00 0. -1.
         -2   -1    0    0    0  501 -0.00000000000E+00 -0.00000000000E+00 -0.14489932010E+04  0.14489932010E+04  0.00000000000E+00 0.  1.
    9000010    2    1    2  502    0 -0.74285621035E+03 -0.14677328608E+03 -0.17411098440E+03  0.12551284070E+04  0.98572558886E+03 0.  0.
   -9000010    2    1    2    0  501  0.74285621035E+03  0.14677328608E+03 -0.19219032419E+03  0.12765566864E+04  0.10095950209E+04 0.  0.
        -13    1    3    3    0    0 -0.82374216972E+03  0.14996482663E+03 -0.34233645133E+03  0.90456335791E+03  0.10566000000E+00 0.  1.
         13    1    4    4    0    0  0.33650955536E+03 -0.42191864109E+03  0.37118264731E+02  0.54095452423E+03  0.10566000000E+00 0. -1.
          4    1    3    3  502    0  0.80885959366E+02 -0.29673811271E+03  0.16822546693E+03  0.35056504914E+03  0.00000000000E+00 0.  1.
         -4    1    4    4    0  501  0.40634665499E+03  0.56869192717E+03 -0.22930858892E+03  0.73560216217E+03  0.00000000000E+00 0. -1.
</event>
<event>
 8    1  0.7446554E-006  0.1124482E+04  0.7818608E-02  0.8665708E-01
         -2   -1    0    0    0  501 -0.00000000000E+00  0.00000000000E+00  0.48072424413E+03  0.48072424413E+03  0.00000000000E+00 0.  1.
          2   -1    0    0  502    0  0.00000000000E+00 -0.00000000000E+00 -0.26317511653E+04  0.26317511653E+04  0.00000000000E+00 0. -1.
    9000010    2    1    2  502    0  0.48265514377E+03  0.15615440008E+03 -0.11146988291E+04  0.15857505310E+04  0.10073286865E+04 0.  0.
   -9000010    2    1    2    0  501 -0.48265514377E+03 -0.15615440008E+03 -0.10363280921E+04  0.15267248784E+04  0.99978635489E+03 0.  0.
        -13    1    3    3    0    0 -0.17295320247E+03 -0.23342831337E+03 -0.59721452142E+03  0.66412858958E+03  0.10566000000E+00 0.  1.
         13    1    4    4    0    0  0.28056091720E+02 -0.48642894149E+03 -0.62505017870E+03  0.79252002906E+03  0.10566000000E+00 0. -1.
          4    1    3    3  502    0  0.65560834624E+03  0.38958271345E+03 -0.51748430769E+03  0.92162194146E+03  0.00000000000E+00 0.  1.
         -4    1    4    4    0  501 -0.51071123549E+03  0.33027454141E+03 -0.41127791336E+03  0.73420484933E+03  0.00000000000E+00 0. -1.
</event>
<event>
 8    1  0.7446554E-006  0.1133310E+04  0.7818608E-02  0.8658548E-01
         -1   -1    0    0    0  501 -0.00000000000E+00  0.00000000000E+00  0.71088566847E+03  0.71088566847E+03  0.00000000000E+00 0.  1.
          1   -1    0    0  502    0  0.00000000000E+00 -0.00000000000E+00 -0.18417678309E+04  0.18417678309E+04  0.00000000000E+00 0. -1.
    9000010    2    1    2  502    0  0.26293944812E+03 -0.42796247279E+03 -0.39839669025E+03  0.12168179500E+04  0.10342325508E+04 0.  0.
   -9000010    2    1    2    0  501 -0.26293944812E+03  0.42796247279E+03 -0.73248547216E+03  0.13358355493E+04  0.99781391873E+03 0.  0.
        -13    1    3    3    0    0 -0.31904810288E+03 -0.46796641550E+03 -0.19354669501E+03  0.59853537264E+03  0.10566000000E+00 0.  1.
         13    1    4    4    0    0 -0.55171969058E+03  0.54110131703E+03 -0.36405050438E+03  0.85423534999E+03  0.10566000000E+00 0. -1.
          4    1    3    3  502    0  0.58198755100E+03  0.40003942717E+02 -0.20484999524E+03  0.61828257739E+03  0.00000000000E+00 0.  1.
         -4    1    4    4    0  501  0.28878024246E+03 -0.11313884425E+03 -0.36843496778E+03  0.48160019933E+03  0.00000000000E+00 0. -1.
</event>
<event>
 8    1  0.7446554E-006  0.1145265E+04  0.7818608E-02  0.8648960E-01
          2   -1    0    0  502    0  0.00000000000E+00  0.00000000000E+00  0.32049593075E+04  0.32049593075E+04  0.00000000000E+00 0.  1.
         -2   -1    0    0    0  501 -0.00000000000E+00 -0.00000000000E+00 -0.44730461799E+03  0.44730461799E+03  0.00000000000E+00 0. -1.
    9000010    2    1    2  502    0  0.55012159078E+03  0.47623009629E+02  0.84018976909E+03  0.14159744393E+04  0.99707725332E+03 0.  0.
   -9000010    2    1    2    0  501 -0.55012159078E+03 -0.47623009629E+02  0.19174649204E+04  0.22362894862E+04  0.10096619381E+04 0.  0.
        -13    1    3    3    0    0 -0.12971597477E+03  0.14098251261E+03 -0.12716591079E+03  0.22994234713E+03  0.10566000000E+00 0.  1.
         13    1    4    4    0    0 -0.74589819433E+03  0.23589827544E+03  0.11060629178E+04  0.13547646666E+04  0.10566000000E+00 0. -1.
          4    1    3    3  502    0  0.67983756556E+03 -0.93359502985E+02  0.96735567988E+03  0.11860320922E+04  0.00000000000E+00 0.  1.
         -4    1    4    4    0  501  0.19577660355E+03 -0.28352128507E+03  0.81140200266E+03  0.88152481956E+03  0.00000000000E+00 0. -1.
</event>
<event>
 8    1  0.7446554E-006  0.1502728E+04  0.7818608E-02  0.8407931E-01
          1   -1    0    0  502    0  0.00000000000E+00  0.00000000000E+00  0.11782282353E+04  0.11782282353E+04  0.00000000000E+00 0. -1.
         -1   -1    0    0    0  501 -0.00000000000E+00 -0.00000000000E+00 -0.20759238358E+04  0.20759238358E+04  0.00000000000E+00 0.  1.
    9000010    2    1    2  502    0 -0.86784232656E+03 -0.67326745503E+03 -0.90225445335E+03  0.17614667095E+04  0.10403184610E+04 0.  0.
   -9000010    2    1    2    0  501  0.86784232656E+03  0.67326745503E+03  0.45588528411E+01  0.14926853616E+04  0.10107667564E+04 0.  0.
        -13    1    3    3    0    0 -0.20237857765E+03 -0.24314142820E+03 -0.91588544060E+03  0.96897935698E+03  0.10566000000E+00 0.  1.
         13    1    4    4    0    0  0.80444458151E+03  0.11260245765E+03 -0.28200577659E+03  0.85984746751E+03  0.10566000000E+00 0. -1.
          4    1    3    3  502    0 -0.66546374891E+03 -0.43012602683E+03  0.13630987248E+02  0.79248735251E+03  0.00000000000E+00 0.  1.
         -4    1    4    4    0  501  0.63397745050E+02  0.56066499738E+03  0.28656462943E+03  0.63283789410E+03  0.00000000000E+00 0. -1.
</event>
<event>
 8    1  0.7446554E-006  0.1466888E+04  0.7818608E-02  0.8428815E-01
         -2   -1    0    0    0  501 -0.00000000000E+00  0.00000000000E+00  0.16036824960E+04  0.16036824960E+04  0.00000000000E+00 0. -1.
          2   -1    0    0  502    0  0.00000000000E+00 -0.00000000000E+00 -0.19990956254E+04  0.19990956254E+04  0.00000000000E+00 0.  1.
    9000010    2    1    2  502    0 -0.26144985767E+03  0.10490609780E+04 -0.12313382715E+04  0.19212328319E+04  0.10030237744E+04 0.  0.
   -9000010    2    1    2    0  501  0.26144985767E+03 -0.10490609780E+04  0.83592514215E+03  0.16815452895E+04  0.97976464202E+03 0.  0.
        -13    1    3    3    0    0 -0.19040611190E+03 -0.13890908245E+03 -0.41764996171E+03  0.47956409615E+03  0.10566000000E+00 0.  1.
         13    1    4    4    0    0  0.48479121607E+03 -0.10971021891E+04  0.81917583117E+03  0.14524822856E+04  0.10566000000E+00 0. -1.
          4    1    3    3  502    0 -0.71043745776E+02  0.11879700604E+04 -0.81368830979E+03  0.14416687358E+04  0.00000000000E+00 0.  1.
         -4    1    4    4    0  501 -0.22334135840E+03  0.48041211096E+02  0.16749310982E+02  0.22906300390E+03  0.00000000000E+00 0. -1.
</event>
<event>
 8    1  0.7446554E-006  0.1191711E+04  0.7818608E-02  0.8612830E-01
         -1   -1    0    0    0  501 -0.00000000000E+00  0.00000000000E+00  0.10599953194E+04  0.10599953194E+04  0.00000000000E+00 0.  1.
          1   -1    0    0  502    0  0.00000000000E+00 -0.00000000000E+00 -0.13408332230E+04  0.13408332230E+04  0.00000000000E+00 0. -1.
    9000010    2    1    2  502    0 -0.56187629790E+03 -0.29366541736E+03 -0.17385100117E+03  0.12117877108E+04  0.10179690240E+04 0.  0.
   -9000010    2    1    2    0  501  0.56187629790E+03  0.29366541736E+03 -0.10698690249E+03  0.11890408316E+04  0.10002137524E+04 0.  0.
        -13    1    3    3    0    0 -0.84133765929E+03 -0.33457166725E+03 -0.20284230503E+03  0.92786435934E+03  0.10566000000E+00 0.  1.
         13    1    4    4    0    0  0.21875382340E+03 -0.26712391209E+03 -0.34667590147E+03  0.48927764254E+03  0.10566000000E+00 0. -1.
          4    1    3    3  502    0  0.27946136139E+03  0.40906249891E+02  0.28991303859E+02  0.28392335143E+03  0.00000000000E+00 0.  1.
         -4    1    4    4    0  501  0.34312247449E+03  0.56078932945E+03  0.23968899898E+03  0.69976318906E+03  0.00000000000E+00 0. -1.
</event>
<event>
 8    1  0.7446554E-006  0.1198591E+04  0.7818608E-02  0.8607624E-01
          2   -1    0    0  502    0  0.00000000000E+00  0.00000000000E+00  0.19486103831E+04  0.19486103831E+04  0.00000000000E+00 0.  1.
         -2   -1    0    0    0  501 -0.00000000000E+00 -0.00000000000E+00 -0.73873581472E+03  0.73873581472E+03  0.00000000000E+00 0. -1.
    9000010    2    1    2  502    0 -0.62178469736E+03 -0.90475551406E+02  0.54471868238E+03  0.13164952037E+04  0.10206072423E+04 0.  0.
   -9000010    2    1    2    0  501  0.62178469736E+03  0.90475551406E+02  0.66515588595E+03  0.13708509941E+04  0.10207830622E+04 0.  0.
        -13    1    3    3    0    0  0.14204078491E+03  0.89619508592E+02 -0.18148507028E+03  0.24727329576E+03  0.10566000000E+00 0.  1.
         13    1    4    4    0    0  0.75837647960E+03 -0.26101368431E+03  0.56378843399E+03  0.98036750133E+03  0.10566000000E+00 0. -1.
          4    1    3    3  502    0 -0.76382548227E+03 -0.18009506000E+03  0.72620375267E+03  0.10692219079E+04  0.00000000000E+00 0.  1.
         -4    1    4    4    0  501 -0.13659178224E+03  0.35148923572E+03  0.10136745197E+03  0.39048349276E+03  0.00000000000E+00 0. -1.
</event>
<event>
 8    1  0.7446554E-006  0.1612980E+04  0.7818608E-02  0.8347291E-01
          2   -1    0    0  502    0  0.00000000000E+00  0.00000000000E+00  0.32203840864E+04  0.32203840864E+04  0.00000000000E+00 0. -1.
         -2   -1    0    0    0  501 -0.00000000000E+00 -0.00000000000E+00 -0.82486881795E+03  0.82486881795E+03  0.00000000000E+00 0.  1.
    9000010    2    1    2  502    0  0.12777434322E+04  0.48291254127E+02  0.90972111890E+03  0.18544261235E+04  0.98810091058E+03 0.  0.
   -9000010    2    1    2    0  501 -0.12777434322E+04 -0.48291254127E+02  0.14857941495E+04  0.21908267808E+04  0.97835443741E+03 0.  0.
        -13    1    3    3    0    0  0.32950011922E+03 -0.37826516818E+03  0.47914943881E+02  0.50393523297E+03  0.10566000000E+00 0.  1.
         13    1    4    4    0    0 -0.13002515041E+04  0.12969695098E+03  0.92216146206E+03  0.15993301868E+04  0.10566000000E+00 0. -1.
          4    1    3    3  502    0  0.94824331298E+03  0.42655642230E+03  0.86180617502E+03  0.13504908905E+04  0.00000000000E+00 0.  1.
         -4    1    4    4    0  501  0.22508071899E+02 -0.17798820510E+03  0.56363268745E+03  0.59149659409E+03  0.00000000000E+00 0. -1.
</event>
<event>
 8    1  0.7446554E-006  0.1148768E+04  0.7818608E-02  0.8646173E-01
         -1   -1    0    0    0  501 -0.00000000000E+00  0.00000000000E+00  0.51347302991E+03  0.51347302991E+03  0.00000000000E+00 0. -1.
          1   -1    0    0  502    0  0.00000000000E+00 -0.00000000000E+00 -0.26467884891E+04  0.26467884891E+04  0.00000000000E+00 0.  1.
    9000010    2    1    2  502    0  0.22603305483E+03  0.52083980697E+03 -0.79542340364E+03  0.13952156613E+04  0.99577271706E+03 0.  0.
   -9000010    2    1    2    0  501 -0.22603305483E+03 -0.52083980697E+03 -0.13378920555E+04  0.17650458577E+04  0.10015321668E+04 0.  0.
        -13    1    3    3    0    0 -0.70143131648E+02  0.20404898310E+02  0.21628729438E+03  0.22829065611E+03  0.10566000000E+00 0.  1.
         13    1    4    4    0    0 -0.17404870396E+03  0.81659706519E+02 -0.10976108560E+04  0.11143208072E+04  0.10566000000E+00 0. -1.
          4    1    3    3  502    0  0.29617618648E+03  0.50043490866E+03 -0.10117106980E+04  0.11669250052E+04  0.00000000000E+00 0.  1.
         -4    1    4    4    0  501 -0.51984350867E+02 -0.60249951349E+03 -0.24028119955E+03  0.65072505050E+03  0.00000000000E+00 0. -1.
</event>
<event>
 8    1  0.7446554E-006  0.1089511E+04  0.7818608E-02  0.8694758E-01
         -2   -1    0    0    0  501 -0.00000000000E+00  0.00000000000E+00  0.34769200198E+03  0.34769200198E+03  0.00000000000E+00 0. -1.
          2   -1    0    0  502    0  0.00000000000E+00 -0.00000000000E+00 -0.34212983580E+04  0.34212983580E+04  0.00000000000E+00 0.  1.
    9000010    2    1    2  502    0 -0.12698296165E+03 -0.40326081681E+03 -0.16215448877E+04  0.19527661702E+04  0.10025686679E+04 0.  0.
   -9000010    2    1    2    0  501  0.12698296165E+03  0.40326081681E+03 -0.14520614683E+04  0.18162241897E+04  0.10057056432E+04 0.  0.
        -13    1    3    3    0    0 -0.50267870912E+03 -0.47686550071E+03 -0.11797644818E+04  0.13681852338E+04  0.10566000000E+00 0.  1.
         13    1    4    4    0    0 -0.31767766346E+03  0.20067986759E+03 -0.12175818789E+04  0.12742437562E+04  0.10566000000E+00 0. -1.
          4    1    3    3  502    0  0.37569574747E+03  0.73604683901E+02 -0.44178040596E+03  0.58458093644E+03  0.00000000000E+00 0.  1.
         -4    1    4    4    0  501  0.44466062511E+03  0.20258094922E+03 -0.23447958935E+03  0.54198043353E+03  0.00000000000E+00 0. -1.
</event>
<event>
 8    1  0.7446554E-006  0.1380762E+04  0.7818608E-02  0.8481609E-01
         -1   -1    0    0    0  501 -0.00000000000E+00  0.00000000000E+00  0.77318163046E+03  0.77318163046E+03  0.00000000000E+00 0. -1.
          1   -1    0    0  502    0  0.00000000000E+00 -0.00000000000E+00 -0.24665539890E+04  0.24665539890E+04  0.00000000000E+00 0.  1.
    9000010    2    1    2  502    0 -0.94833156203E+03 -0.79239264165E+02 -0.82109080780E+03  0.16099615996E+04  0.10060688967E+04 0.  0.
   -9000010    2    1    2    0  501  0.94833156203E+03  0.79239264165E+02 -0.87228155069E+03  0.16297740199E+04  0.99482492913E+03 0.  0.
        -13    1    3    3    0    0 -0.78217259981E+03 -0.31114889161E+03 -0.11650929662E+03  0.84981294178E+03  0.10566000000E+00 0.  1.
         13    1    4    4    0    0  0.16469828166E+03  0.35274740074E+03  0.45966903047E+02  0.39200665817E+03  0.10566000000E+00 0. -1.
          4    1    3    3  502    0 -0.16615896222E+03  0.23190962745E+03 -0.70458151118E+03  0.76014865778E+03  0.00000000000E+00 0.  1.
         -4    1    4    4    0  501  0.78363328037E+03 -0.27350813657E+03 -0.91824845374E+03  0.12377673617E+04  0.00000000000E+00 0. -1.
</event>
<event>
 8    1  0.7446554E-006  0.1131722E+04  0.7818608E-02  0.8659831E-01
          1   -1    0    0  502    0  0.00000000000E+00  0.00000000000E+00  0.22373892808E+04  0.22373892808E+04  0.00000000000E+00 0. -1.
         -1   -1    0    0    0  501 -0.00000000000E+00 -0.00000000000E+00 -0.65001926549E+03  0.65001926549E+03  0.00000000000E+00 0.  1.
    9000010    2    1    2  502    0 -0.20239752842E+02  0.53573609853E+03  0.29298097981E+03  0.11659031276E+04  0.99301028870E+03 0.  0.
   -9000010    2    1    2    0  501  0.20239752842E+02 -0.53573609853E+03  0.12943890355E+04  0.17215054187E+04  0.10003574944E+04 0.  0.
        -13    1    3    3    0    0 -0.34134604758E+03  0.65853695507E+03  0.34526004989E+03  0.81816413915E+03  0.10566000000E+00 0.  1.
         13    1    4    4    0    0  0.50869403350E+03 -0.31313024505E+03  0.64884002217E+03  0.88193738758E+03  0.10566000000E+00 0. -1.
          4    1    3    3  502    0  0.32110629473E+03 -0.12280085654E+03 -0.52279070086E+02  0.34773898840E+03  0.00000000000E+00 0.  1.
         -4    1    4    4    0  501 -0.48845428066E+03 -0.22260585348E+03  0.64554901335E+03  0.83956803115E+03  0.00000000000E+00 0. -1.
</event>
<event>
 8    1  0.7446554E-006  0.1207208E+04  0.7818608E-02  0.8601154E-01
          1   -1    0    0  502    0  0.00000000000E+00  0.00000000000E+00  0.47926976570E+03  0.47926976570E+03  0.00000000000E+00 0.  1.
         -1   -1    0    0    0  501 -0.00000000000E+00 -0.00000000000E+00 -0.30503420851E+04  0.30503420851E+04  0.00000000000E+00 0. -1.
    9000010    2    1    2  502    0  0.69044078534E+03  0.32501599941E+03 -0.11641861380E+04  0.16537414517E+04  0.89285359791E+03 0.  0.
   -9000010    2    1    2    0  501 -0.69044078534E+03 -0.32501599941E+03 -0.14068861815E+04  0.18758703991E+04  0.97837474866E+03 0.  0.
        -13    1    3    3    0    0 -0.14623685702E+03  0.63562357160E+02 -0.57710615377E+03  0.59872941759E+03  0.10566000000E+00 0.  1.
         13    1    4    4    0    0  0.16249593961E+03 -0.33154564699E+03 -0.58231412539E+03  0.68950503858E+03  0.10566000000E+00 0. -1.
          4    1    3    3  502    0  0.83667764236E+03  0.26145364225E+03 -0.58707998419E+03  0.10550120341E+04  0.00000000000E+00 0.  1.
         -4    1    4    4    0  501 -0.85293672495E+03  0.65296475757E+01 -0.82457205607E+03  0.11863653606E+04  0.00000000000E+00 0. -1.
</event>
<event>
 8    1  0.7446554E-006  0.1224020E+04  0.7818608E-02  0.8588691E-01
          2   -1    0    0  502    0  0.00000000000E+00  0.00000000000E+00  0.11279897022E+04  0.11279897022E+04  0.00000000000E+00 0.  1.
         -2   -1    0    0    0  501 -0.00000000000E+00 -0.00000000000E+00 -0.13461497643E+04  0.13461497643E+04  0.00000000000E+00 0. -1.
    9000010    2    1    2  502    0  0.60694650522E+03  0.28830208826E+03  0.33830875889E+02  0.12224531132E+04  0.10206590672E+04 0.  0.
   -9000010    2    1    2    0  501 -0.60694650522E+03 -0.28830208826E+03 -0.25199093798E+03  0.12516863533E+04  0.10255326129E+04 0.  0.
        -13    1    3    3    0    0  0.37038150295E+03  0.33075841793E+03  0.49579347829E+03  0.70170846727E+03  0.10566000000E+00 0.  1.
         13    1    4    4    0    0 -0.73436133329E+03 -0.53206605948E+02  0.16667050578E+03  0.75491494846E+03  0.10566000000E+00 0. -1.
          4    1    3    3  502    0  0.23656500228E+03 -0.42456329670E+02 -0.46196260241E+03  0.52074464592E+03  0.00000000000E+00 0.  1.
         -4    1    4    4    0  501  0.12741482807E+03 -0.23509548231E+03 -0.41866144376E+03  0.49677140488E+03  0.00000000000E+00 0. -1.
</event>
<event>
 8    1  0.7446554E-006  0.1112858E+04  0.7818608E-02  0.8675240E-01
          2   -1    0    0  502    0  0.00000000000E+00  0.00000000000E+00  0.12667765384E+04  0.12667765384E+04  0.00000000000E+00 0.  1.
         -2   -1    0    0    0  501 -0.00000000000E+00 -0.00000000000E+00 -0.10061501803E+04  0.10061501803E+04  0.00000000000E+00 0. -1.
    9000010    2    1    2  502    0  0.23678139967E+03  0.48215631585E+03 -0.55212256955E+02  0.11442156138E+04  0.10087818562E+04 0.  0.
   -9000010    2    1    2    0  501 -0.23678139967E+03 -0.48215631585E+03  0.31583861510E+03  0.11287111050E+04  0.94111348071E+03 0.  0.
        -13    1    3    3    0    0  0.36515145600E+03  0.57488635250E+03  0.30839423787E+03  0.74762084055E+03  0.10566000000E+00 0.  1.
         13    1    4    4    0    0  0.13103852128E+03 -0.63395695406E+03  0.33779926445E+03  0.73019234992E+03  0.10566000000E+00 0. -1.
          4    1    3    3  502    0 -0.12837005633E+03 -0.92730036647E+02 -0.36360649483E+03  0.39659477321E+03  0.00000000000E+00 0.  1.
         -4    1    4    4    0  501 -0.36781992096E+03  0.15180063820E+03 -0.21960649357E+02  0.39851875506E+03  0.00000000000E+00 0. -1.
</event>
<event>
 8    1  0.7446554E-006  0.1087680E+04  0.7818608E-02  0.8696310E-01
          2   -1    0    0  502    0  0.00000000000E+00  0.00000000000E+00  0.19710296777E+04  0.19710296777E+04  0.00000000000E+00 0.  1.
         -2   -1    0    0    0  501 -0.00000000000E+00 -0.00000000000E+00 -0.60196355965E+03  0.60196355965E+03  0.00000000000E+00 0. -1.
    9000010    2    1    2  502    0 -0.31682635594E+03 -0.34873492688E+03  0.76191092713E+03  0.13434114965E+04  0.10011249668E+04 0.  0.
   -9000010    2    1    2    0  501  0.31682635594E+03  0.34873492688E+03  0.60715519092E+03  0.12295817408E+04  0.95981187867E+03 0.  0.
        -13    1    3    3    0    0  0.14498923325E+03 -0.54842271924E+03  0.23252993782E+03  0.61307384538E+03  0.10566000000E+00 0.  1.
         13    1    4    4    0    0  0.51900908868E+03  0.19014750633E+02  0.11638345679E+02  0.51948768718E+03  0.10566000000E+00 0. -1.
          4    1    3    3  502    0 -0.46181558919E+03  0.19968779236E+03  0.52938098931E+03  0.73033765114E+03  0.00000000000E+00 0.  1.
         -4    1    4    4    0  501 -0.20218273274E+03  0.32972017625E+03  0.59551684524E+03  0.71009405363E+03  0.00000000000E+00 0. -1.
</event>
<event>
 8    1  0.7446554E-006  0.1434903E+04  0.7818608E-02  0.8447977E-01
         -2   -1    0    0    0  501 -0.00000000000E+00  0.00000000000E+00  0.13126700540E+04  0.13126700540E+04  0.00000000000E+00 0.  1.
          2   -1    0    0  502    0  0.00000000000E+00 -0.00000000000E+00 -0.23051331922E+04  0.23051331922E+04  0.00000000000E+00 0. -1.
    9000010    2    1    2  502    0 -0.91176698951E+03  0.51341899516E+03 -0.15137641490E+04  0.20720577375E+04  0.95237768833E+03 0.  0.
   -9000010    2    1    2    0  501  0.91176698951E+03 -0.51341899516E+03  0.52130101076E+03  0.15457455087E+04  0.10112647162E+04 0.  0.
        -13    1    3    3    0    0 -0.49847592126E+03 -0.23217702686E+03 -0.73081183863E+03  0.91458754120E+03  0.10566000000E+00 0.  1.
         13    1    4    4    0    0 -0.15138692868E+03 -0.23673545690E+03 -0.81605508091E+02  0.29261091716E+03  0.10566000000E+00 0. -1.
          4    1    3    3  502    0 -0.41329106825E+03  0.74559602201E+03 -0.78295231033E+03  0.11574701963E+04  0.00000000000E+00 0.  1.
         -4    1    4    4    0  501  0.10631539182E+04 -0.27668353826E+03  0.60290651885E+03  0.12531345916E+04  0.00000000000E+00 0. -1.
</event>
<event>
 8    1  0.7446554E-006  0.1846951E+04  0.7818608E-02  0.8233722E-01
         -2   -1    0    0    0  501 -0.00000000000E+00  0.00000000000E+00  0.10331572294E+04  0.10331572294E+04  0.00000000000E+00 0.  1.
          2   -1    0    0  502    0  0.00000000000E+00 -0.00000000000E+00 -0.33036813374E+04  0.33036813374E+04  0.00000000000E+00 0. -1.
    9000010    2    1    2  502    0 -0.15371696612E+04  0.58798270067E+01 -0.11008447802E+04  0.21675633507E+04  0.10599747683E+04 0.  0.
   -9000010    2    1    2    0  501  0.15371696612E+04 -0.58798270067E+01 -0.11696793278E+04  0.21692752161E+04  0.98725887859E+03 0.  0.
        -13    1    3    3    0    0 -0.10628450166E+04  0.32586570784E+03 -0.11422322238E+04  0.15939016447E+04  0.10566000000E+00 0.  1.
         13    1    4    4    0    0  0.31880560850E+03 -0.13149830461E+03  0.14352176012E+03  0.37353356866E+03  0.10566000000E+00 0. -1.
          4    1    3    3  502    0 -0.47432464463E+03 -0.31998588083E+03  0.41387443533E+02  0.57366170599E+03  0.00000000000E+00 0.  1.
         -4    1    4    4    0  501  0.12183640527E+04  0.12561847760E+03 -0.13132010879E+04  0.17957416474E+04  0.00000000000E+00 0. -1.
</event>
<event>
 8    1  0.7446554E-006  0.1352441E+04  0.7818608E-02  0.8499839E-01
         -2   -1    0    0    0  501 -0.00000000000E+00  0.00000000000E+00  0.10923964940E+04  0.10923964940E+04  0.00000000000E+00 0. -1.
          2   -1    0    0  502    0  0.00000000000E+00 -0.00000000000E+00 -0.18464059281E+04  0.18464059281E+04  0.00000000000E+00 0.  1.
    9000010    2    1    2  502    0  0.89233801696E+03 -0.22154780530E+02  0.70046186189E+02  0.13598330662E+04  0.10234654508E+04 0.  0.
   -9000010    2    1    2    0  501 -0.89233801696E+03  0.22154780530E+02 -0.82405562033E+03  0.15789693559E+04  0.10086221248E+04 0.  0.
        -13    1    3    3    0    0  0.42821388992E+03 -0.29132671966E+03  0.46307486309E+03  0.69474940309E+03  0.10566000000E+00 0.  1.
         13    1    4    4    0    0 -0.23690851592E+03  0.48160686920E+03 -0.42481640259E+03  0.68449967746E+03  0.10566000000E+00 0. -1.
          4    1    3    3  502    0  0.46412412703E+03  0.26917193913E+03 -0.39302867690E+03  0.66508366314E+03  0.00000000000E+00 0.  1.
         -4    1    4    4    0  501 -0.65542950103E+03 -0.45945208867E+03 -0.39923921774E+03  0.89446967841E+03  0.00000000000E+00 0. -1.
</event>
<event>
 8    1  0.7446554E-006  0.1068045E+04  0.7818608E-02  0.8713158E-01
          1   -1    0    0  502    0  0.00000000000E+00  0.00000000000E+00  0.27360804297E+04  0.27360804297E+04  0.00000000000E+00 0.  1.
         -1   -1    0    0    0  501 -0.00000000000E+00 -0.00000000000E+00 -0.42284941001E+03  0.42284941001E+03  0.00000000000E+00 0. -1.
    9000010    2    1    2  502    0 -0.88818863125E+02 -0.37981590440E+03  0.13463992120E+04  0.17201853829E+04  0.99704463374E+03 0.  0.
   -9000010    2    1    2    0  501  0.88818863125E+02  0.37981590440E+03  0.96683180767E+03  0.14387444568E+04  0.99150035607E+03 0.  0.
        -13    1    3    3    0    0  0.10356927198E+03  0.32386092293E+03  0.39210903007E+03  0.51900095773E+03  0.10566000000E+00 0.  1.
         13    1    4    4    0    0  0.38950502585E+03  0.36615780624E+02  0.24779620437E+02  0.39200627712E+03  0.10566000000E+00 0. -1.
          4    1    3    3  502    0 -0.19238813511E+03 -0.70367682733E+03  0.95429018197E+03  0.12011844252E+04  0.00000000000E+00 0.  1.
         -4    1    4    4    0  501 -0.30068616272E+03  0.34320012378E+03  0.94205218724E+03  0.10467381797E+04  0.00000000000E+00 0. -1.
</event>
<event>
 8    1  0.7446554E-006  0.1056448E+04  0.7818608E-02  0.8723288E-01
         -2   -1    0    0    0  501 -0.00000000000E+00  0.00000000000E+00  0.60088222333E+03  0.60088222333E+03  0.00000000000E+00 0. -1.
          2   -1    0    0  502    0  0.00000000000E+00 -0.00000000000E+00 -0.18579926092E+04  0.18579926092E+04  0.00000000000E+00 0.  1.
    9000010    2    1    2  502    0  0.68339901336E+02  0.35397622639E+03 -0.65310119168E+03  0.12490014512E+04  0.10017454504E+04 0.  0.
   -9000010    2    1    2    0  501 -0.68339901336E+02 -0.35397622639E+03 -0.60400919419E+03  0.12098733814E+04  0.98437644289E+03 0.  0.
        -13    1    3    3    0    0 -0.68857297412E+02  0.32695481314E+03  0.19673093165E+03  0.38774198621E+03  0.10566000000E+00 0.  1.
         13    1    4    4    0    0 -0.38003927983E+03 -0.15235950166E+03  0.93272226119E+02  0.41993212700E+03  0.10566000000E+00 0. -1.
          4    1    3    3  502    0  0.13719719875E+03  0.27021413247E+02 -0.84983212333E+03  0.86125946494E+03  0.00000000000E+00 0.  1.
         -4    1    4    4    0  501  0.31169937849E+03 -0.20161672473E+03 -0.69728142031E+03  0.78994125437E+03  0.00000000000E+00 0. -1.
</event>
<event>
 8    1  0.7446554E-006  0.1748126E+04  0.7818608E-02  0.8279452E-01
          4   -1    0    0  502    0  0.00000000000E+00  0.00000000000E+00  0.12452330041E+04  0.12452330041E+04  0.00000000000E+00 0.  1.
         -4   -1    0    0    0  501 -0.00000000000E+00 -0.00000000000E+00 -0.26454967628E+04  0.26454967628E+04  0.00000000000E+00 0. -1.
    9000010    2    1    2  502    0  0.17677955340E+03 -0.14240784264E+04 -0.12241486292E+04  0.21358553941E+04  0.10020419268E+04 0.  0.
   -9000010    2    1    2    0  501 -0.17677955340E+03  0.14240784264E+04 -0.17611512945E+03  0.17548743728E+04  0.99464423316E+03 0.  0.
        -13    1    3    3    0    0  0.38148157766E+03 -0.86549373220E+02 -0.35039324755E+03  0.52516133444E+03  0.10566000000E+00 0.  1.
         13    1    4    4    0    0 -0.13248573023E+03  0.41645984678E+03 -0.52914422345E+03  0.68628339123E+03  0.10566000000E+00 0. -1.
          4    1    3    3  502    0 -0.20470202426E+03 -0.13375290532E+04 -0.87375538164E+03  0.16106940597E+04  0.00000000000E+00 0.  1.
         -4    1    4    4    0  501 -0.44293823166E+02  0.10076185796E+04  0.35302909400E+03  0.10685909816E+04  0.00000000000E+00 0. -1.
</event>
<event>
 8    1  0.7446554E-006  0.1164963E+04  0.7818608E-02  0.8633423E-01
          1   -1    0    0  502    0  0.00000000000E+00  0.00000000000E+00  0.16228756243E+04  0.16228756243E+04  0.00000000000E+00 0. -1.
         -1   -1    0    0    0  501 -0.00000000000E+00 -0.00000000000E+00 -0.89782984905E+03  0.89782984905E+03  0.00000000000E+00 0.  1.
    9000010    2    1    2  502    0 -0.39714329510E+03 -0.45037435064E+03  0.68659003668E+03  0.13363983985E+04  0.97672664984E+03 0.  0.
   -9000010    2    1    2    0  501  0.39714329510E+03  0.45037435064E+03  0.38455738608E+02  0.11843070749E+04  0.10200708560E+04 0.  0.
        -13    1    3    3    0    0 -0.41497530031E+03  0.82108214736E+02  0.68325527871E+03  0.80360689758E+03  0.10566000000E+00 0.  1.
         13    1    4    4    0    0 -0.32122688224E+03 -0.10390355604E+02 -0.53904395234E+02  0.32588397376E+03  0.10566000000E+00 0. -1.
          4    1    3    3  502    0  0.17832005208E+02 -0.53248256538E+03  0.33347579665E+01  0.53279150092E+03  0.00000000000E+00 0.  1.
         -4    1    4    4    0  501  0.71837017734E+03  0.46076470625E+03  0.92360133842E+02  0.85842310112E+03  0.00000000000E+00 0. -1.
</event>
<event>
 8    1  0.7446554E-006  0.1173683E+04  0.7818608E-02  0.8626648E-01
          2   -1    0    0  502    0  0.00000000000E+00  0.00000000000E+00  0.34715705394E+04  0.34715705394E+04  0.00000000000E+00 0. -1.
         -2   -1    0    0    0  501 -0.00000000000E+00 -0.00000000000E+00 -0.46076414035E+03  0.46076414035E+03  0.00000000000E+00 0.  1.
    9000010    2    1    2  502    0  0.53000414511E+03  0.21282157526E+03  0.22031802217E+04  0.24825419789E+04  0.99136984584E+03 0.  0.
   -9000010    2    1    2    0  501 -0.53000414511E+03 -0.21282157526E+03  0.80762617742E+03  0.14497927009E+04  0.10599251937E+04 0.  0.
        -13    1    3    3    0    0 -0.26117914701E+03  0.21208224182E+03  0.47735386465E+03  0.58400355084E+03  0.10566000000E+00 0.  1.
         13    1    4    4    0    0 -0.32213312295E+03 -0.56708165563E+03  0.80886779427E+03  0.10390469060E+04  0.10566000000E+00 0. -1.
          4    1    3    3  502    0  0.79118329213E+03  0.73933343807E+00  0.17258263570E+04  0.18985384281E+04  0.00000000000E+00 0.  1.
         -4    1    4    4    0  501 -0.20787102216E+03  0.35426008036E+03 -0.12416168523E+01  0.41074579487E+03  0.00000000000E+00 0. -1.
</event>
<event>
 8    1  0.7446554E-006  0.1248220E+04  0.7818608E-02  0.8571110E-01
         -2   -1    0    0    0  501 -0.00000000000E+00  0.00000000000E+00  0.67730053705E+03  0.67730053705E+03  0.00000000000E+00 0. -1.
          2   -1    0    0  502    0  0.00000000000E+00 -0.00000000000E+00 -0.25897508339E+04  0.25897508339E+04  0.00000000000E+00 0.  1.
    9000010    2    1    2  502    0  0.71359626803E+01 -0.72378283786E+03 -0.14974437635E+04  0.19450209279E+04  0.10083928137E+04 0.  0.
   -9000010    2    1    2    0  501 -0.71359626803E+01  0.72378283786E+03 -0.41500653328E+03  0.13220304430E+04  0.10254860074E+04 0.  0.
        -13    1    3    3    0    0  0.18864225224E+03 -0.31826657927E+03 -0.14520294585E+04  0.14984221950E+04  0.10566000000E+00 0.  1.
         13    1    4    4    0    0 -0.25641044498E+02  0.69052995415E+03  0.18934819255E+03  0.71647877145E+03  0.10566000000E+00 0. -1.
          4    1    3    3  502    0 -0.18150628956E+03 -0.40551625860E+03 -0.45414305004E+02  0.44659873291E+03  0.00000000000E+00 0.  1.
         -4    1    4    4    0  501  0.18505081818E+02  0.33252883706E+02 -0.60435472583E+03  0.60555167159E+03  0.00000000000E+00 0. -1.
</event>
<event>
 8    1  0.7446554E-006  0.9403319E+03  0.7818608E-02  0.8832769E-01
          2   -1    0    0  502    0  0.00000000000E+00  0.00000000000E+00  0.10817075136E+04  0.10817075136E+04  0.00000000000E+00 0.  1.
         -2   -1    0    0    0  501 -0.00000000000E+00 -0.00000000000E+00 -0.86357369176E+03  0.86357369176E+03  0.00000000000E+00 0. -1.
    9000010    2    1    2  502    0 -0.23458220926E+03 -0.20447409603E+03 -0.87585910171E+02  0.10350399905E+04  0.98325887813E+03 0.  0.
   -9000010    2    1    2    0  501  0.23458220926E+03  0.20447409603E+03  0.30571973198E+03  0.91024121483E+03  0.79889676792E+03 0.  0.
        -13    1    3    3    0    0 -0.92904986021E+02  0.37499906792E+03  0.11818083691E+03  0.40400786966E+03  0.10566000000E+00 0.  1.
         13    1    4    4    0    0  0.20956175910E+03  0.50063451325E+03  0.28320743735E+03  0.61217441180E+03  0.10566000000E+00 0. -1.
          4    1    3    3  502    0 -0.14167722324E+03 -0.57947316395E+03 -0.20576674708E+03  0.63103212084E+03  0.00000000000E+00 0.  1.
         -4    1    4    4    0  501  0.25020450165E+02 -0.29616041722E+03  0.22512294634E+02  0.29806680302E+03  0.00000000000E+00 0. -1.
</event>
<event>
 8    1  0.7446554E-006  0.1283349E+04  0.7818608E-02  0.8546309E-01
          1   -1    0    0  502    0  0.00000000000E+00  0.00000000000E+00  0.10323480456E+04  0.10323480456E+04  0.00000000000E+00 0.  1.
         -1   -1    0    0    0  501 -0.00000000000E+00 -0.00000000000E+00 -0.16307685106E+04  0.16307685106E+04  0.00000000000E+00 0. -1.
    9000010    2    1    2  502    0 -0.83461316155E+03  0.24764054570E+03 -0.49977912706E+03  0.14254063335E+04  0.10119778014E+04 0.  0.
   -9000010    2    1    2    0  501  0.83461316155E+03 -0.24764054570E+03 -0.98641337935E+02  0.12377102228E+04  0.87423767515E+03 0.  0.
        -13    1    3    3    0    0 -0.68125756657E+03  0.56651606465E+03 -0.10019809684E+03  0.89167931079E+03  0.10566000000E+00 0.  1.
         13    1    4    4    0    0  0.15351588832E+03 -0.27015010597E+03 -0.38822996111E+03  0.49726323169E+03  0.10566000000E+00 0. -1.
          4    1    3    3  502    0 -0.15335559498E+03 -0.31887551895E+03 -0.39958103022E+03  0.53372702274E+03  0.00000000000E+00 0.  1.
         -4    1    4    4    0  501  0.68109727323E+03  0.22509560268E+02  0.28958862317E+03  0.74044699106E+03  0.00000000000E+00 0. -1.
</event>
<event>
 8    1  0.7446554E-006  0.1223858E+04  0.7818608E-02  0.8588810E-01
         -1   -1    0    0    0  501 -0.00000000000E+00  0.00000000000E+00  0.97129079051E+03  0.97129079051E+03  0.00000000000E+00 0. -1.
          1   -1    0    0  502    0  0.00000000000E+00 -0.00000000000E+00 -0.15438369034E+04  0.15438369034E+04  0.00000000000E+00 0.  1.
    9000010    2    1    2  502    0 -0.61500926483E+03  0.34797569854E+03 -0.32900414729E+03  0.12700644373E+04  0.10027444656E+04 0.  0.
   -9000010    2    1    2    0  501  0.61500926483E+03 -0.34797569854E+03 -0.24354196562E+03  0.12450632566E+04  0.99576419967E+03 0.  0.
        -13    1    3    3    0    0 -0.58388766783E+03  0.55398573754E+03 -0.54337756856E+03  0.97112522324E+03  0.10566000000E+00 0.  1.
         13    1    4    4    0    0  0.86890699545E+03 -0.11748283222E+03 -0.20061947726E+03  0.89947193866E+03  0.10566000000E+00 0. -1.
          4    1    3    3  502    0 -0.31121597000E+02 -0.20601003899E+03  0.21437342126E+03  0.29893921407E+03  0.00000000000E+00 0.  1.
         -4    1    4    4    0  501 -0.25389773062E+03 -0.23049286632E+03 -0.42922488368E+02  0.34559131796E+03  0.00000000000E+00 0. -1.
</event>
<event>
 8    1  0.7446554E-006  0.1215778E+04  0.7818608E-02  0.8594775E-01
          2   -1    0    0  502    0  0.00000000000E+00  0.00000000000E+00  0.14692250088E+04  0.14692250088E+04  0.00000000000E+00 0.  1.
         -2   -1    0    0    0  501 -0.00000000000E+00 -0.00000000000E+00 -0.10139891370E+04  0.10139891370E+04  0.00000000000E+00 0. -1.
    9000010    2    1    2  502    0 -0.68720025491E+03  0.92828548162E+01  0.11903821395E+03  0.12275129328E+04  0.10100928383E+04 0.  0.
   -9000010    2    1    2    0  501  0.68720025491E+03 -0.92828548162E+01  0.33619765783E+03  0.12557012130E+04  0.99570392655E+03 0.  0.
        -13    1    3    3    0    0 -0.12417024408E+03  0.57853181027E+02 -0.42289943617E+03  0.44453254588E+03  0.10566000000E+00 0.  1.
         13    1    4    4    0    0  0.91129610892E+03  0.10830085161E+02  0.43513674481E+03  0.10099118213E+04  0.10566000000E+00 0. -1.
          4    1    3    3  502    0 -0.56303001083E+03 -0.48570326211E+02  0.54193765012E+03  0.78298038692E+03  0.00000000000E+00 0.  1.
         -4    1    4    4    0  501 -0.22409585401E+03 -0.20112939977E+02 -0.98939086985E+02  0.24578939170E+03  0.00000000000E+00 0. -1.
</event>
<event>
 8    1  0.7446554E-006  0.1404768E+04  0.7818608E-02  0.8466504E-01
         -2   -1    0    0    0  501 -0.00000000000E+00  0.00000000000E+00  0.58363273267E+03  0.58363273267E+03  0.00000000000E+00 0. -1.
          2   -1    0    0  502    0  0.00000000000E+00 -0.00000000000E+00 -0.33990046827E+04  0.33990046827E+04  0.00000000000E+00 0.  1.
    9000010    2    1    2  502    0  0.97434833247E+03  0.95456616449E+02 -0.15482517328E+04  0.20882080616E+04  0.10025282249E+04 0.  0.
   -9000010    2    1    2    0  501 -0.97434833247E+03 -0.95456616449E+02 -0.12671202172E+04  0.18944293537E+04  0.10123251913E+04 0.  0.
        -13    1    3    3    0    0 -0.10457993987E+03 -0.22822575464E+03 -0.44828312719E+03  0.51379152600E+03  0.10566000000E+00 0.  1.
         13    1    4    4    0    0  0.51041002798E+01  0.28392791118E+03 -0.56100850718E+03  0.62878586727E+03  0.10566000000E+00 0. -1.
          4    1    3    3  502    0  0.10789282723E+04  0.32368237108E+03 -0.10999686056E+04  0.15744165356E+04  0.00000000000E+00 0.  1.
         -4    1    4    4    0  501 -0.97945243275E+03 -0.37938452763E+03 -0.70611170999E+03  0.12656434865E+04  0.00000000000E+00 0. -1.
</event>
<event>
 8    1  0.7446554E-006  0.1124021E+04  0.7818608E-02  0.8666084E-01
          1   -1    0    0  502    0  0.00000000000E+00  0.00000000000E+00  0.71835785622E+03  0.71835785622E+03  0.00000000000E+00 0.  1.
         -1   -1    0    0    0  501 -0.00000000000E+00 -0.00000000000E+00 -0.17588251734E+04  0.17588251734E+04  0.00000000000E+00 0. -1.
    9000010    2    1    2  502    0  0.98102389076E+02 -0.50083375535E+03 -0.52785004042E+03  0.12426213630E+04  0.10025086819E+04 0.  0.
   -9000010    2    1    2    0  501 -0.98102389076E+02  0.50083375535E+03 -0.51261727675E+03  0.12345616666E+04  0.10004536506E+04 0.  0.
        -13    1    3    3    0    0  0.11703128372E+03 -0.77873217505E+03 -0.20010810960E+03  0.81250439292E+03  0.10566000000E+00 0.  1.
         13    1    4    4    0    0 -0.50986724850E+03  0.52830688183E+02 -0.27134411264E+03  0.57998563028E+03  0.10566000000E+00 0. -1.
          4    1    3    3  502    0 -0.18928894642E+02  0.27789841969E+03 -0.32774193082E+03  0.43011697006E+03  0.00000000000E+00 0.  1.
         -4    1    4    4    0  501  0.41176485942E+03  0.44800306717E+03 -0.24127316411E+03  0.65457603635E+03  0.00000000000E+00 0. -1.
</event>
<event>
 8    1  0.7446554E-006  0.1373302E+04  0.7818608E-02  0.8486367E-01
         -2   -1    0    0    0  501 -0.00000000000E+00  0.00000000000E+00  0.39592423677E+03  0.39592423677E+03  0.00000000000E+00 0. -1.
          2   -1    0    0  502    0  0.00000000000E+00 -0.00000000000E+00 -0.47680205229E+04  0.47680205229E+04  0.00000000000E+00 0.  1.
    9000010    2    1    2  502    0  0.10335198521E+04 -0.28735610636E+02 -0.21363279369E+04  0.25176890647E+04  0.84016197990E+03 0.  0.
   -9000010    2    1    2    0  501 -0.10335198521E+04  0.28735610636E+02 -0.22357683492E+04  0.26462556950E+04  0.96696435905E+03 0.  0.
        -13    1    3    3    0    0  0.85319050020E+03  0.24648677684E+03 -0.19423063565E+04  0.21357068512E+04  0.10566000000E+00 0.  1.
         13    1    4    4    0    0 -0.72491249410E+03 -0.28873634057E+02 -0.49705846333E+03  0.87943103082E+03  0.10566000000E+00 0. -1.
          4    1    3    3  502    0  0.18032935194E+03 -0.27522238748E+03 -0.19402158040E+03  0.38198221346E+03  0.00000000000E+00 0.  1.
         -4    1    4    4    0  501 -0.30860735804E+03  0.57609244694E+02 -0.17387098859E+04  0.17668246642E+04  0.00000000000E+00 0. -1.
</event>
<event>
 8    1  0.7446554E-006  0.1112704E+04  0.7818608E-02  0.8675367E-01
          4   -1    0    0  502    0  0.00000000000E+00  0.00000000000E+00  0.52669872640E+03  0.52669872640E+03  0.00000000000E+00 0.  1.
         -4   -1    0    0    0  501 -0.00000000000E+00 -0.00000000000E+00 -0.29441162253E+04  0.29441162253E+04  0.00000000000E+00 0. -1.
    9000010    2    1    2  502    0 -0.51846983521E+03  0.25993491006E+02 -0.41953314264E+03  0.11781594875E+04  0.97085791367E+03 0.  0.
   -9000010    2    1    2    0  501  0.51846983521E+03 -0.25993491006E+02 -0.19978843563E+04  0.22926554643E+04  0.99761743423E+03 0.  0.
        -13    1    3    3    0    0 -0.41455835536E+02 -0.39111913977E+03 -0.37419994020E+03  0.54287970510E+03  0.10566000000E+00 0.  1.
         13    1    4    4    0    0  0.41193817938E+03  0.37253263435E+03 -0.52926379013E+03  0.76719866918E+03  0.10566000000E+00 0. -1.
          4    1    3    3  502    0 -0.47701399968E+03  0.41711263078E+03 -0.45333202437E+02  0.63527978237E+03  0.00000000000E+00 0.  1.
         -4    1    4    4    0  501  0.10653165583E+03 -0.39852612536E+03 -0.14686205662E+04  0.15254567951E+04  0.00000000000E+00 0. -1.
</event>
<event>
 8    1  0.7446554E-006  0.1106522E+04  0.7818608E-02  0.8680487E-01
         -2   -1    0    0    0  501 -0.00000000000E+00  0.00000000000E+00  0.44594688063E+03  0.44594688063E+03  0.00000000000E+00 0.  1.
          2   -1    0    0  502    0  0.00000000000E+00 -0.00000000000E+00 -0.32575572723E+04  0.32575572723E+04  0.00000000000E+00 0. -1.
    9000010    2    1    2  502    0  0.43641811422E+03  0.35588478252E+01 -0.21434200735E+04  0.24137044392E+04  0.10204146573E+04 0.  0.
   -9000010    2    1    2    0  501 -0.43641811422E+03 -0.35588478252E+01 -0.66819031816E+03  0.12897997137E+04  0.10132282883E+04 0.  0.
        -13    1    3    3    0    0  0.44340007747E+03 -0.41876870611E+03 -0.16769629001E+04  0.17844258004E+04  0.10566000000E+00 0.  1.
         13    1    4    4    0    0 -0.47174521887E+03 -0.39821947423E+03 -0.64507833772E+03  0.89288766043E+03  0.10566000000E+00 0. -1.
          4    1    3    3  502    0 -0.69819632509E+01  0.42232755394E+03 -0.46645717339E+03  0.62927863879E+03  0.00000000000E+00 0.  1.
         -4    1    4    4    0  501  0.35327104654E+02  0.39466062640E+03 -0.23111980441E+02  0.39691205323E+03  0.00000000000E+00 0. -1.
</event>
<event>
 8    1  0.7446554E-006  0.1165220E+04  0.7818608E-02  0.8633223E-01
          2   -1    0    0  502    0  0.00000000000E+00  0.00000000000E+00  0.19452271297E+04  0.19452271297E+04  0.00000000000E+00 0. -1.
         -2   -1    0    0    0  501 -0.00000000000E+00 -0.00000000000E+00 -0.73973435788E+03  0.73973435788E+03  0.00000000000E+00 0.  1.
    9000010    2    1    2  502    0 -0.10288044530E+03  0.57699996419E+03  0.91944389984E+03  0.14807738820E+04  0.10018986276E+04 0.  0.
   -9000010    2    1    2    0  501  0.10288044530E+03 -0.57699996419E+03  0.28604887198E+03  0.12041876056E+04  0.10122897251E+04 0.  0.
        -13    1    3    3    0    0 -0.53976695633E+03  0.20191733391E+03  0.36979077210E+03  0.68473659400E+03  0.10566000000E+00 0.  1.
         13    1    4    4    0    0  0.18016516699E+02  0.26979630437E+03 -0.73662614115E+02  0.28025137396E+03  0.10566000000E+00 0. -1.
          4    1    3    3  502    0  0.43688651103E+03  0.37508263029E+03  0.54965312775E+03  0.79603728801E+03  0.00000000000E+00 0.  1.
         -4    1    4    4    0  501  0.84863928602E+02 -0.84679626856E+03  0.35971148609E+03  0.92393623159E+03  0.00000000000E+00 0. -1.
</event>
<event>
 8    1  0.7446554E-006  0.1049928E+04  0.7818608E-02  0.8729044E-01
         -2   -1    0    0    0  501 -0.00000000000E+00  0.00000000000E+00  0.25406120510E+04  0.25406120510E+04  0.00000000000E+00 0. -1.
          2   -1    0    0  502    0  0.00000000000E+00 -0.00000000000E+00 -0.48035238756E+03  0.48035238756E+03  0.00000000000E+00 0.  1.
    9000010    2    1    2  502    0  0.16174690931E+03 -0.27113299262E+03  0.55185962206E+03  0.11774740712E+04  0.99107062486E+03 0.  0.
   -9000010    2    1    2    0  501 -0.16174690931E+03  0.27113299262E+03  0.15084000414E+04  0.18434903674E+04  0.10116871490E+04 0.  0.
        -13    1    3    3    0    0  0.20963358644E+03  0.32363709175E+03  0.33471865859E+02  0.38704984781E+03  0.10566000000E+00 0.  1.
         13    1    4    4    0    0  0.36281118817E+03  0.30705048213E+03  0.10224670764E+04  0.11275419683E+04  0.10566000000E+00 0. -1.
          4    1    3    3  502    0 -0.47886677139E+02 -0.59477008436E+03  0.51838775620E+03  0.79042422336E+03  0.00000000000E+00 0.  1.
         -4    1    4    4    0  501 -0.52455809747E+03 -0.35917489510E+02  0.48593296498E+03  0.71594839907E+03  0.00000000000E+00 0. -1.
</event>
<event>
 8    1  0.7446554E-006  0.1334252E+04  0.7818608E-02  0.8511790E-01
         -4   -1    0    0    0  501 -0.00000000000E+00  0.00000000000E+00  0.23663667138E+04  0.23663667138E+04  0.00000000000E+00 0. -1.
          4   -1    0    0  502    0  0.00000000000E+00 -0.00000000000E+00 -0.75609516184E+03  0.75609516184E+03  0.00000000000E+00 0.  1.
    9000010    2    1    2  502    0 -0.28338479092E+02 -0.89068745897E+03  0.69529230371E+03  0.15055589408E+04  0.99455976069E+03 0.  0.
   -9000010    2    1    2    0  501  0.28338479092E+02  0.89068745897E+03  0.91497924828E+03  0.16169029349E+04  0.99149425473E+03 0.  0.
        -13    1    3    3    0    0  0.36558596587E+03 -0.79293709552E+03  0.66687814957E+03  0.10986941401E+04  0.10566000000E+00 0.  1.
         13    1    4    4    0    0  0.44744136881E+03  0.69755093293E+03  0.38383727912E+03  0.91329740532E+03  0.10566000000E+00 0. -1.
          4    1    3    3  502    0 -0.39392444496E+03 -0.97750363453E+02  0.28414154134E+02  0.40686480070E+03  0.00000000000E+00 0.  1.
         -4    1    4    4    0  501 -0.41910288972E+03  0.19313652604E+03  0.53114196916E+03  0.70360552959E+03  0.00000000000E+00 0. -1.
</event>
<event>
 8    1  0.7446554E-006  0.1323745E+04  0.7818608E-02  0.8518784E-01
         -1   -1    0    0    0  501 -0.00000000000E+00  0.00000000000E+00  0.13653167862E+04  0.13653167862E+04  0.00000000000E+00 0.  1.
          1   -1    0    0  502    0  0.00000000000E+00 -0.00000000000E+00 -0.13445634864E+04  0.13445634864E+04  0.00000000000E+00 0. -1.
    9000010    2    1    2  502    0 -0.87221545391E+03 -0.80562679779E+02  0.29920552026E+03  0.13653957851E+04  0.10037587176E+04 0.  0.
   -9000010    2    1    2    0  501  0.87221545391E+03  0.80562679779E+02 -0.27845222050E+03  0.13444844875E+04  0.98125060747E+03 0.  0.
        -13    1    3    3    0    0 -0.55125165180E+02 -0.40351498827E+03 -0.68449612296E+02  0.41297516896E+03  0.10566000000E+00 0.  1.
         13    1    4    4    0    0  0.29943670223E+03 -0.41729717279E+03 -0.28123947938E+03  0.58557230551E+03  0.10566000000E+00 0. -1.
          4    1    3    3  502    0 -0.81709028873E+03  0.32295230849E+03  0.36765513256E+03  0.95242061611E+03  0.00000000000E+00 0.  1.
         -4    1    4    4    0  501  0.57277875169E+03  0.49785985257E+03  0.27872588788E+01  0.75891218201E+03  0.00000000000E+00 0. -1.
</event>
<event>
 8    1  0.7446554E-006  0.1105679E+04  0.7818608E-02  0.8681188E-01
         -1   -1    0    0    0  501 -0.00000000000E+00  0.00000000000E+00  0.13837218223E+04  0.13837218223E+04  0.00000000000E+00 0.  1.
          1   -1    0    0  502    0  0.00000000000E+00 -0.00000000000E+00 -0.10547539680E+04  0.10547539680E+04  0.00000000000E+00 0. -1.
    9000010    2    1    2  502    0  0.35338708965E+03  0.31680685431E+03  0.65541797402E+03  0.12830407805E+04  0.99567660700E+03 0.  0.
   -9000010    2    1    2    0  501 -0.35338708965E+03 -0.31680685431E+03 -0.32645011974E+03  0.11554350097E+04  0.10016043944E+04 0.  0.
        -13    1    3    3    0    0  0.56127592627E+03  0.11773774939E+03  0.69164047729E+01  0.57353351329E+03  0.10566000000E+00 0.  1.
         13    1    4    4    0    0 -0.51595685263E+03  0.16646715484E+03  0.14017119146E+02  0.54232764839E+03  0.10566000000E+00 0. -1.
          4    1    3    3  502    0 -0.20788883663E+03  0.19906910492E+03  0.64850156925E+03  0.70950726722E+03  0.00000000000E+00 0.  1.
         -4    1    4    4    0  501  0.16256976298E+03 -0.48327400915E+03 -0.34046723888E+03  0.61310736132E+03  0.00000000000E+00 0. -1.
</event>
<event>
 8    1  0.7446554E-006  0.1957669E+04  0.7818608E-02  0.8185848E-01
         -1   -1    0    0    0  501 -0.00000000000E+00  0.00000000000E+00  0.36362765543E+04  0.36362765543E+04  0.00000000000E+00 0. -1.
          1   -1    0    0  502    0  0.00000000000E+00 -0.00000000000E+00 -0.13890933904E+04  0.13890933904E+04  0.00000000000E+00 0.  1.
    9000010    2    1    2  502    0 -0.42809611859E+03 -0.16281560760E+04 -0.11780495807E+03  0.19443710183E+04  0.96568222206E+03 0.  0.
   -9000010    2    1    2    0  501  0.42809611859E+03  0.16281560760E+04  0.23649881220E+04  0.30809989264E+04  0.10320983834E+04 0.  0.
        -13    1    3    3    0    0 -0.12965153915E+03 -0.15951492804E+04  0.48467847187E+02  0.16011433077E+04  0.10566000000E+00 0.  1.
         13    1    4    4    0    0  0.83387072736E+02  0.25626677812E+03 -0.57690159481E+02  0.27559795198E+03  0.10566000000E+00 0. -1.
          4    1    3    3  502    0 -0.29844457944E+03 -0.33006795604E+02 -0.16627280526E+03  0.34322771059E+03  0.00000000000E+00 0.  1.
         -4    1    4    4    0  501  0.34470904585E+03  0.13718892979E+04  0.24226782815E+04  0.28054009745E+04  0.00000000000E+00 0. -1.
</event>
<event>
 8    1  0.7446554E-006  0.1130873E+04  0.7818608E-02  0.8660518E-01
          2   -1    0    0  502    0  0.00000000000E+00  0.00000000000E+00  0.24933080179E+04  0.24933080179E+04  0.00000000000E+00 0. -1.
         -2   -1    0    0    0  501 -0.00000000000E+00 -0.00000000000E+00 -0.51656971046E+03  0.51656971046E+03  0.00000000000E+00 0.  1.
    9000010    2    1    2  502    0 -0.50954562136E+03  0.11057714961E+03  0.86057929123E+03  0.14198412483E+04  0.10017426853E+04 0.  0.
   -9000010    2    1    2    0  501  0.50954562136E+03 -0.11057714961E+03  0.11161590162E+04  0.15900364801E+04  0.10052566897E+04 0.  0.
        -13    1    3    3    0    0 -0.49799832215E+03 -0.14051237880E+03  0.10046864509E+04  0.11301066026E+04  0.10566000000E+00 0.  1.
         13    1    4    4    0    0 -0.29695361720E+03 -0.12632217676E+03  0.26729852636E+03  0.41903133113E+03  0.10566000000E+00 0. -1.
          4    1    3    3  502    0 -0.11547299212E+02  0.25108952841E+03 -0.14410715971E+03  0.28973464563E+03  0.00000000000E+00 0.  1.
         -4    1    4    4    0  501  0.80649923856E+03  0.15745027149E+02  0.84886048982E+03  0.11710051489E+04  0.00000000000E+00 0. -1.
</event>
<event>
 8    1  0.7446554E-006  0.1078995E+04  0.7818608E-02  0.8703716E-01
         -2   -1    0    0    0  501 -0.00000000000E+00  0.00000000000E+00  0.33240078076E+03  0.33240078076E+03  0.00000000000E+00 0.  1.
          2   -1    0    0  502    0  0.00000000000E+00 -0.00000000000E+00 -0.35040427353E+04  0.35040427353E+04  0.00000000000E+00 0. -1.
    9000010    2    1    2  502    0 -0.37888777214E+03 -0.28534092636E+02 -0.15652710435E+04  0.19071015484E+04  0.10210743058E+04 0.  0.
   -9000010    2    1    2    0  501  0.37888777214E+03  0.28534092636E+02 -0.16063709110E+04  0.19293419677E+04  0.99878064964E+03 0.  0.
        -13    1    3    3    0    0 -0.48795086913E+03 -0.42186045035E+03 -0.70892375655E+03  0.95845458631E+03  0.10566000000E+00 0.  1.
         13    1    4    4    0    0 -0.11209007548E+03 -0.37383569277E+03 -0.89222765928E+03  0.97385189704E+03  0.10566000000E+00 0. -1.
          4    1    3    3  502    0  0.10906309700E+03  0.39332635771E+03 -0.85634728698E+03  0.94864696211E+03  0.00000000000E+00 0.  1.
         -4    1    4    4    0  501  0.49097784761E+03  0.40236978541E+03 -0.71414325175E+03  0.95549007063E+03  0.00000000000E+00 0. -1.
</event>
<event>
 8    1  0.7446554E-006  0.1068734E+04  0.7818608E-02  0.8712561E-01
          1   -1    0    0  502    0  0.00000000000E+00  0.00000000000E+00  0.93551506114E+03  0.93551506114E+03  0.00000000000E+00 0. -1.
         -1   -1    0    0    0  501 -0.00000000000E+00 -0.00000000000E+00 -0.12356732300E+04  0.12356732300E+04  0.00000000000E+00 0.  1.
    9000010    2    1    2  502    0 -0.17566911393E+03 -0.50201337405E+03 -0.25416092943E+03  0.10571931471E+04  0.87760042560E+03 0.  0.
   -9000010    2    1    2    0  501  0.17566911393E+03  0.50201337405E+03 -0.45997239449E+02  0.11139951440E+04  0.97774862288E+03 0.  0.
        -13    1    3    3    0    0 -0.41722915933E+03  0.37512803701E+02 -0.19814722835E+03  0.46341095920E+03  0.10566000000E+00 0.  1.
         13    1    4    4    0    0  0.30313726690E+03 -0.21847721026E+03  0.46284320686E+02  0.37651924717E+03  0.10566000000E+00 0. -1.
          4    1    3    3  502    0  0.24156004540E+03 -0.53952617775E+03 -0.56013701084E+02  0.59378218794E+03  0.00000000000E+00 0.  1.
         -4    1    4    4    0  501 -0.12746815297E+03  0.72049058430E+03 -0.92281560135E+02  0.73747589685E+03  0.00000000000E+00 0. -1.
</event>
<event>
 8    1  0.7446554E-006  0.1418414E+04  0.7818608E-02  0.8458056E-01
          1   -1    0    0  502    0  0.00000000000E+00  0.00000000000E+00  0.39277583345E+04  0.39277583345E+04  0.00000000000E+00 0. -1.
         -1   -1    0    0    0  501 -0.00000000000E+00 -0.00000000000E+00 -0.51275170259E+03  0.51275170259E+03  0.00000000000E+00 0.  1.
    9000010    2    1    2  502    0 -0.10511367118E+04  0.43688414914E+02  0.17244453372E+04  0.22140172644E+04  0.90629115727E+03 0.  0.
   -9000010    2    1    2    0  501  0.10511367118E+04 -0.43688414914E+02  0.16905612947E+04  0.22264927726E+04  0.99623065155E+03 0.  0.
        -13    1    3    3    0    0 -0.90942913071E+03  0.27037154273E+03  0.16983778818E+04  0.19454175787E+04  0.10566000000E+00 0.  1.
         13    1    4    4    0    0 -0.95449201809E+02  0.62874253418E+02 -0.61576504307E+02  0.12982834404E+03  0.10566000000E+00 0. -1.
          4    1    3    3  502    0 -0.14170758107E+03 -0.22668312782E+03  0.26067455449E+02  0.26859968578E+03  0.00000000000E+00 0.  1.
         -4    1    4    4    0  501  0.11465859136E+04 -0.10656266833E+03  0.17521377990E+04  0.20966644286E+04  0.00000000000E+00 0. -1.
</event>
<event>
 8    1  0.7446554E-006  0.2069725E+04  0.7818608E-02  0.8140579E-01
          4   -1    0    0  502    0  0.00000000000E+00  0.00000000000E+00  0.13715965704E+04  0.13715965704E+04  0.00000000000E+00 0.  1.
         -4   -1    0    0    0  501 -0.00000000000E+00 -0.00000000000E+00 -0.32682968086E+04  0.32682968086E+04  0.00000000000E+00 0. -1.
    9000010    2    1    2  502    0  0.90999863003E+03 -0.15710341946E+04 -0.46020719440E+03  0.21217888704E+04  0.99697111369E+03 0.  0.
   -9000010    2    1    2    0  501 -0.90999863003E+03  0.15710341946E+04 -0.14364930438E+04  0.25181045087E+04  0.99050093612E+03 0.  0.
        -13    1    3    3    0    0  0.81579963936E+03 -0.11865511247E+04 -0.75721460882E+03  0.16269009183E+04  0.10566000000E+00 0.  1.
         13    1    4    4    0    0 -0.54513718876E+03  0.14914850568E+04 -0.79509480712E+03  0.17759160995E+04  0.10566000000E+00 0. -1.
          4    1    3    3  502    0  0.94198990668E+02 -0.38448306993E+03  0.29700741442E+03  0.49488795209E+03  0.00000000000E+00 0.  1.
         -4    1    4    4    0  501 -0.36486144127E+03  0.79549137840E+02 -0.64139823666E+03  0.74218840913E+03  0.00000000000E+00 0. -1.
</event>
<event>
 8    1  0.7446554E-006  0.1521406E+04  0.7818608E-02  0.8397285E-01
          1   -1    0    0  502    0  0.00000000000E+00  0.00000000000E+00  0.15615470548E+04  0.15615470548E+04  0.00000000000E+00 0. -1.
         -1   -1    0    0    0  501 -0.00000000000E+00 -0.00000000000E+00 -0.19833133353E+04  0.19833133353E+04  0.00000000000E+00 0.  1.
    9000010    2    1    2  502    0  0.65647162491E+03 -0.94510995672E+03  0.68026791861E+03  0.16637693800E+04  0.99054342872E+03 0.  0.
   -9000010    2    1    2    0  501 -0.65647162491E+03  0.94510995672E+03 -0.11020341992E+04  0.18810910101E+04  0.99991809037E+03 0.  0.
        -13    1    3    3    0    0  0.68939200499E+03 -0.10862211004E+04  0.39833004223E+03  0.13467755750E+04  0.10566000000E+00 0.  1.
         13    1    4    4    0    0 -0.48544227656E+03  0.69054773737E+03 -0.12037677864E+03  0.85264351370E+03  0.10566000000E+00 0. -1.
          4    1    3    3  502    0 -0.32920380077E+02  0.14111114373E+03  0.28193787638E+03  0.31699380506E+03  0.00000000000E+00 0.  1.
         -4    1    4    4    0  501 -0.17102934834E+03  0.25456221935E+03 -0.98165742054E+03  0.10284474964E+04  0.00000000000E+00 0. -1.
</event>
<event>
 8    1  0.7446554E-006  0.1648995E+04  0.7818608E-02  0.8328560E-01
         -2   -1    0    0    0  501 -0.00000000000E+00  0.00000000000E+00  0.11693541415E+04  0.11693541415E+04  0.00000000000E+00 0. -1.
          2   -1    0    0  502    0  0.00000000000E+00 -0.00000000000E+00 -0.23259009865E+04  0.23259009865E+04  0.00000000000E+00 0.  1.
    9000010    2    1    2  502    0  0.50824241972E+03 -0.12007002447E+04 -0.55390830306E+03  0.17436757919E+04  0.10166609190E+04 0.  0.
   -9000010    2    1    2    0  501 -0.50824241972E+03  0.12007002447E+04 -0.60263854203E+03  0.17515793361E+04  0.10024298098E+04 0.  0.
        -13    1    3    3    0    0  0.70608835251E+03 -0.83083710001E+03 -0.70434859262E+03  0.12980593204E+04  0.10566000000E+00 0.  1.
         13    1    4    4    0    0 -0.74124640819E+03  0.77744600396E+03 -0.14110386573E+03  0.10834107434E+04  0.10566000000E+00 0. -1.
          4    1    3    3  502    0 -0.19784593279E+03 -0.36986314466E+03  0.15044028956E+03  0.44561647144E+03  0.00000000000E+00 0.  1.
         -4    1    4    4    0  501  0.23300398848E+03  0.42325424071E+03 -0.46153467630E+03  0.66816859276E+03  0.00000000000E+00 0. -1.
</event>
<event>
 8    1  0.7446554E-006  0.1131629E+04  0.7818608E-02  0.8659906E-01
         -2   -1    0    0    0  501 -0.00000000000E+00  0.00000000000E+00  0.44741062541E+03  0.44741062541E+03  0.00000000000E+00 0.  1.
          2   -1    0    0  502    0  0.00000000000E+00 -0.00000000000E+00 -0.29000550107E+04  0.29000550107E+04  0.00000000000E+00 0. -1.
    9000010    2    1    2  502    0 -0.31381153658E+03  0.44322495898E+03 -0.14217010729E+04  0.18195870270E+04  0.99736501015E+03 0.  0.
   -9000010    2    1    2    0  501  0.31381153658E+03 -0.44322495898E+03 -0.10309433124E+04  0.15278786091E+04  0.98825244042E+03 0.  0.
        -13    1    3    3    0    0  0.20990546000E+02  0.59280482896E+03 -0.35424768259E+03  0.69090491390E+03  0.10566000000E+00 0.  1.
         13    1    4    4    0    0 -0.64799799697E+02  0.16965339046E+03  0.84283588257E+02  0.20021244054E+03  0.10566000000E+00 0. -1.
          4    1    3    3  502    0 -0.33480208258E+03 -0.14957986999E+03 -0.10674533903E+04  0.11286821131E+04  0.00000000000E+00 0.  1.
         -4    1    4    4    0  501  0.37861133627E+03 -0.61287834943E+03 -0.11152269007E+04  0.13276661686E+04  0.00000000000E+00 0. -1.
</event>
<event>
 8    1  0.7446554E-006  0.1197900E+04  0.7818608E-02  0.8608145E-01
         -2   -1    0    0    0  501 -0.00000000000E+00  0.00000000000E+00  0.80840528738E+03  0.80840528738E+03  0.00000000000E+00 0.  1.
          2   -1    0    0  502    0  0.00000000000E+00 -0.00000000000E+00 -0.18047615557E+04  0.18047615557E+04  0.00000000000E+00 0. -1.
    9000010    2    1    2  502    0 -0.22067982970E+02 -0.62025602451E+03 -0.65034165200E+03  0.13371347390E+04  0.98983863029E+03 0.  0.
   -9000010    2    1    2    0  501  0.22067982970E+02  0.62025602451E+03 -0.34601461630E+03  0.12760321041E+04  0.10598713527E+04 0.  0.
        -13    1    3    3    0    0  0.11424979761E+03 -0.87323651851E+03 -0.50279753947E+03  0.10141007891E+04  0.10566000000E+00 0.  1.
         13    1    4    4    0    0  0.29451318712E+03  0.82613595088E+03 -0.31977617203E+03  0.93353920008E+03  0.10566000000E+00 0. -1.
          4    1    3    3  502    0 -0.13631778058E+03  0.25298049400E+03 -0.14754411252E+03  0.32303394990E+03  0.00000000000E+00 0.  1.
         -4    1    4    4    0  501 -0.27244520415E+03 -0.20587992637E+03 -0.26238444270E+02  0.34249290402E+03  0.00000000000E+00 0. -1.
</event>
<event>
 8    1  0.7446554E-006  0.1167500E+04  0.7818608E-02  0.8631446E-01
         -2   -1    0    0    0  501 -0.00000000000E+00  0.00000000000E+00  0.67741533988E+03  0.67741533988E+03  0.00000000000E+00 0. -1.
          2   -1    0    0  502    0  0.00000000000E+00 -0.00000000000E+00 -0.22018819924E+04  0.22018819924E+04  0.00000000000E+00 0.  1.
    9000010    2    1    2  502    0  0.13787353246E+03 -0.56986718418E+03 -0.11870796239E+04  0.16676627897E+04  0.10139938008E+04 0.  0.
   -9000010    2    1    2    0  501 -0.13787353246E+03  0.56986718418E+03 -0.33738702863E+03  0.12116345426E+04  0.10052216368E+04 0.  0.
        -13    1    3    3    0    0 -0.33823241942E+03  0.83566083836E+02 -0.48317279958E+03  0.59568483726E+03  0.10566000000E+00 0.  1.
         13    1    4    4    0    0  0.22912466161E+03  0.18130528376E+03 -0.56079277113E+03  0.63234346663E+03  0.10566000000E+00 0. -1.
          4    1    3    3  502    0  0.47610595188E+03 -0.65343326802E+03 -0.70390682432E+03  0.10719779524E+04  0.00000000000E+00 0.  1.
         -4    1    4    4    0  501 -0.36699819407E+03  0.38856190043E+03  0.22340574250E+03  0.57929107597E+03  0.00000000000E+00 0. -1.
</event>
<event>
 8    1  0.7446554E-006  0.1323858E+04  0.7818608E-02  0.8518708E-01
          2   -1    0    0  502    0  0.00000000000E+00  0.00000000000E+00  0.19156776043E+04  0.19156776043E+04  0.00000000000E+00 0.  1.
         -2   -1    0    0    0  501 -0.00000000000E+00 -0.00000000000E+00 -0.92096337846E+03  0.92096337846E+03  0.00000000000E+00 0. -1.
    9000010    2    1    2  502    0  0.83618846218E+03 -0.12749323762E+03  0.61487997528E+03  0.14654946357E+04  0.10267090500E+04 0.  0.
   -9000010    2    1    2    0  501 -0.83618846218E+03  0.12749323762E+03  0.37983425057E+03  0.13711463471E+04  0.10101002808E+04 0.  0.
        -13    1    3    3    0    0  0.14966924218E+03  0.41144914151E+03  0.89835714182E+02  0.44694713872E+03  0.10566000000E+00 0.  1.
         13    1    4    4    0    0 -0.86135631882E+03 -0.83049729881E+02  0.60958439763E+03  0.10585013531E+04  0.10566000000E+00 0. -1.
          4    1    3    3  502    0  0.68651922000E+03 -0.53894237913E+03  0.52504426110E+03  0.10185474970E+04  0.00000000000E+00 0.  1.
         -4    1    4    4    0  501  0.25167856633E+02  0.21054296750E+03 -0.22975014706E+03  0.31264499396E+03  0.00000000000E+00 0. -1.
</event>
<event>
 8    1  0.7446554E-006  0.1175947E+04  0.7818608E-02  0.8624898E-01
          1   -1    0    0  502    0  0.00000000000E+00  0.00000000000E+00  0.85794218017E+03  0.85794218017E+03  0.00000000000E+00 0.  1.
         -1   -1    0    0    0  501 -0.00000000000E+00 -0.00000000000E+00 -0.16678820126E+04  0.16678820126E+04  0.00000000000E+00 0. -1.
    9000010    2    1    2  502    0  0.41830037986E+03 -0.43748556070E+03 -0.63471284002E+03  0.13317645616E+04  0.10021814379E+04 0.  0.
   -9000010    2    1    2    0  501 -0.41830037986E+03  0.43748556070E+03 -0.17522699245E+03  0.11940596313E+04  0.10142509948E+04 0.  0.
        -13    1    3    3    0    0  0.33193228349E+03 -0.73830602923E+03 -0.27493091635E+03  0.85490458740E+03  0.10566000000E+00 0.  1.
         13    1    4    4    0    0 -0.63220552672E+03  0.39688901247E+03  0.18873041566E+03  0.76995058101E+03  0.10566000000E+00 0. -1.
          4    1    3    3  502    0  0.86368096369E+02  0.30082046853E+03 -0.35978192367E+03  0.47685997416E+03  0.00000000000E+00 0.  1.
         -4    1    4    4    0  501  0.21390514686E+03  0.40596548227E+02 -0.36395740812E+03  0.42410905025E+03  0.00000000000E+00 0. -1.
</event>
<event>
 8    1  0.7446554E-006  0.1419370E+04  0.7818608E-02  0.8457468E-01
         -1   -1    0    0    0  501 -0.00000000000E+00  0.00000000000E+00  0.14112908824E+04  0.14112908824E+04  0.00000000000E+00 0.  1.
          1   -1    0    0  502    0  0.00000000000E+00 -0.00000000000E+00 -0.15843469064E+04  0.15843469064E+04  0.00000000000E+00 0. -1.
    9000010    2    1    2  502    0 -0.51406583150E+03 -0.85297963340E+03  0.38458365900E+03  0.14733479592E+04  0.10153874551E+04 0.  0.
   -9000010    2    1    2    0  501  0.51406583150E+03  0.85297963340E+03 -0.55763968292E+03  0.15222898296E+04  0.10072568566E+04 0.  0.
        -13    1    3    3    0    0 -0.58344907113E+02  0.23463694455E+03  0.42404336502E+02  0.24547252973E+03  0.10566000000E+00 0.  1.
         13    1    4    4    0    0  0.36146367296E+03  0.72240192481E+03  0.11896923366E+03  0.81650120488E+03  0.10566000000E+00 0. -1.
          4    1    3    3  502    0 -0.45572092439E+03 -0.10876165780E+04  0.34217932249E+03  0.12278754295E+04  0.00000000000E+00 0.  1.
         -4    1    4    4    0  501  0.15260215854E+03  0.13057770859E+03 -0.67660891658E+03  0.70578862470E+03  0.00000000000E+00 0. -1.
</event>
<event>
 8    1  0.7446554E-006  0.1043274E+04  0.7818608E-02  0.8734961E-01
         -2   -1    0    0    0  501 -0.00000000000E+00  0.00000000000E+00  0.98543135929E+03  0.98543135929E+03  0.00000000000E+00 0. -1.
          2   -1    0    0  502    0  0.00000000000E+00 -0.00000000000E+00 -0.31954899970E+04  0.31954899970E+04  0.00000000000E+00 0.  1.
    9000010    2    1    2  502    0 -0.23572378004E+03 -0.39666895391E+03 -0.27736194036E+04  0.29447628076E+04  0.87507224696E+03 0.  0.
   -9000010    2    1    2    0  501  0.23572378004E+03  0.39666895391E+03  0.56356076587E+03  0.12361585487E+04  0.99878689483E+03 0.  0.
        -13    1    3    3    0    0 -0.50002553977E+03  0.14684849038E+02 -0.14222669743E+04  0.15076752113E+04  0.10566000000E+00 0.  1.
         13    1    4    4    0    0  0.51305897411E+03  0.50283941996E+03  0.60127848318E+03  0.93680991598E+03  0.10566000000E+00 0. -1.
          4    1    3    3  502    0  0.26430175973E+03 -0.41135380295E+03 -0.13513524292E+04  0.14370875963E+04  0.00000000000E+00 0.  1.
         -4    1    4    4    0  501 -0.27733519406E+03 -0.10617046605E+03 -0.37717717303E+02  0.29934863275E+03  0.00000000000E+00 0. -1.
</event>
<event>
 8    1  0.7446554E-006  0.1152333E+04  0.7818608E-02  0.8643348E-01
          2   -1    0    0  502    0  0.00000000000E+00  0.00000000000E+00  0.13366992304E+04  0.13366992304E+04  0.00000000000E+00 0.  1.
         -2   -1    0    0    0  501 -0.00000000000E+00 -0.00000000000E+00 -0.10059854583E+04  0.10059854583E+04  0.00000000000E+00 0. -1.
    9000010    2    1    2  502    0  0.50311092963E+03  0.28309476764E+03  0.33891332670E+02  0.11494757246E+04  0.99341963140E+03 0.  0.
   -9000010    2    1    2    0  501 -0.50311092963E+03 -0.28309476764E+03  0.29682243942E+03  0.11932089641E+04  0.10011897005E+04 0.  0.
        -13    1    3    3    0    0 -0.25467798116E+03 -0.89050764315E+02 -0.11308704801E+03  0.29253991916E+03  0.10566000000E+00 0.  1.
         13    1    4    4    0    0 -0.79639156315E+02  0.11364715157E+03 -0.31850200083E+03  0.34742136660E+03  0.10566000000E+00 0. -1.
          4    1    3    3  502    0  0.75778891079E+03  0.37214553195E+03  0.14697838068E+03  0.85693580545E+03  0.00000000000E+00 0.  1.
         -4    1    4    4    0  501 -0.42347177332E+03 -0.39674191921E+03  0.61532444024E+03  0.84578759746E+03  0.00000000000E+00 0. -1.
</event>
<event>
 8    1  0.7446554E-006  0.1613529E+04  0.7818608E-02  0.8347001E-01
         -2   -1    0    0    0  501 -0.00000000000E+00  0.00000000000E+00  0.35772084435E+04  0.35772084435E+04  0.00000000000E+00 0.  1.
          2   -1    0    0  502    0  0.00000000000E+00 -0.00000000000E+00 -0.87597411005E+03  0.87597411005E+03  0.00000000000E+00 0. -1.
    9000010    2    1    2  502    0  0.45074071750E+03 -0.11873655745E+04  0.43492910718E+03  0.16712356746E+04  0.99542008710E+03 0.  0.
   -9000010    2    1    2    0  501 -0.45074071750E+03  0.11873655745E+04  0.22663052263E+04  0.27819468790E+04  0.99503007824E+03 0.  0.
        -13    1    3    3    0    0 -0.26877287357E+03 -0.30379578343E+03  0.33738300249E+03  0.52759647187E+03  0.10566000000E+00 0.  1.
         13    1    4    4    0    0 -0.20692348934E+03  0.11767945636E+04  0.22370547443E+04  0.25361539219E+04  0.10566000000E+00 0. -1.
          4    1    3    3  502    0  0.71951359107E+03 -0.88356979111E+03  0.97546104686E+02  0.11436392027E+04  0.00000000000E+00 0.  1.
         -4    1    4    4    0  501 -0.24381722817E+03  0.10571010906E+02  0.29250481944E+02  0.24579295701E+03  0.00000000000E+00 0. -1.
</event>
<event>
 8    1  0.7446554E-006  0.1227840E+04  0.7818608E-02  0.8585888E-01
         -1   -1    0    0    0  501 -0.00000000000E+00  0.00000000000E+00  0.66023356085E+03  0.66023356085E+03  0.00000000000E+00 0.  1.
          1   -1    0    0  502    0  0.00000000000E+00 -0.00000000000E+00 -0.24896862824E+04  0.24896862824E+04  0.00000000000E+00 0. -1.
    9000010    2    1    2  502    0 -0.34085564207E+03  0.61438168472E+03 -0.13718491780E+04  0.18448506612E+04  0.10138325165E+04 0.  0.
   -9000010    2    1    2    0  501  0.34085564207E+03 -0.61438168472E+03 -0.45760354351E+03  0.13050691821E+04  0.10000785688E+04 0.  0.
        -13    1    3    3    0    0 -0.11259546678E+03  0.87772059787E+03 -0.97458909975E+03  0.13163947400E+04  0.10566000000E+00 0.  1.
         13    1    4    4    0    0 -0.19954577706E+03 -0.11473761466E+03 -0.51776675508E+03  0.56662656237E+03  0.10566000000E+00 0. -1.
          4    1    3    3  502    0 -0.22826017530E+03 -0.26333891315E+03 -0.39726007826E+03  0.52845592114E+03  0.00000000000E+00 0.  1.
         -4    1    4    4    0  501  0.54040141913E+03 -0.49964407006E+03  0.60163211567E+02  0.73844261969E+03  0.00000000000E+00 0. -1.
</event>
<event>
 8    1  0.7446554E-006  0.1144954E+04  0.7818608E-02  0.8649207E-01
         -4   -1    0    0    0  501 -0.00000000000E+00  0.00000000000E+00  0.12570829649E+04  0.12570829649E+04  0.00000000000E+00 0. -1.
          4   -1    0    0  502    0  0.00000000000E+00 -0.00000000000E+00 -0.17901049329E+04  0.17901049329E+04  0.00000000000E+00 0.  1.
    9000010    2    1    2  502    0 -0.19546550051E+03 -0.52663706071E+03 -0.12509050413E+04  0.16957611042E+04  0.99764169158E+03 0.  0.
   -9000010    2    1    2    0  501  0.19546550051E+03  0.52663706071E+03  0.71788307320E+03  0.13514267935E+04  0.99771985843E+03 0.  0.
        -13    1    3    3    0    0 -0.53747938044E+03 -0.94723826859E+02 -0.37925471674E+03  0.66459825391E+03  0.10566000000E+00 0.  1.
         13    1    4    4    0    0  0.38878691977E+03 -0.13361471325E+03  0.91824873617E+02  0.42123625101E+03  0.10566000000E+00 0. -1.
          4    1    3    3  502    0  0.34201387993E+03 -0.43191323385E+03 -0.87165032452E+03  0.10311628503E+04  0.00000000000E+00 0.  1.
         -4    1    4    4    0  501 -0.19332141926E+03  0.66025177396E+03  0.62605819958E+03  0.93019054254E+03  0.00000000000E+00 0. -1.
</event>
<event>
 8    1  0.7446554E-006  0.1296789E+04  0.7818608E-02  0.8537037E-01
         -2   -1    0    0    0  501 -0.00000000000E+00  0.00000000000E+00  0.67761780783E+03  0.67761780783E+03  0.00000000000E+00 0. -1.
          2   -1    0    0  502    0  0.00000000000E+00 -0.00000000000E+00 -0.25092854039E+04  0.25092854039E+04  0.00000000000E+00 0.  1.
    9000010    2    1    2  502    0 -0.37061891288E+02  0.81932794426E+03 -0.75005651893E+03  0.14995781170E+04  0.10067163867E+04 0.  0.
   -9000010    2    1    2    0  501  0.37061891288E+02 -0.81932794426E+03 -0.10816110771E+04  0.16873250948E+04  0.10022532560E+04 0.  0.
        -13    1    3    3    0    0 -0.40181861011E+03  0.55086748294E+02 -0.65854453252E+02  0.41088875069E+03  0.10566000000E+00 0.  1.
         13    1    4    4    0    0  0.33291253079E+03 -0.47840734088E+03 -0.79494053708E+02  0.58823775185E+03  0.10566000000E+00 0. -1.
          4    1    3    3  502    0  0.36475671882E+03  0.76424119597E+03 -0.68420206568E+03  0.10886893663E+04  0.00000000000E+00 0.  1.
         -4    1    4    4    0  501 -0.29585063950E+03 -0.34092060339E+03 -0.10021170234E+04  0.10990873429E+04  0.00000000000E+00 0. -1.
</event>
<event>
 8    1  0.7446554E-006  0.1235148E+04  0.7818608E-02  0.8580555E-01
          1   -1    0    0  502    0  0.00000000000E+00  0.00000000000E+00  0.34588863030E+04  0.34588863030E+04  0.00000000000E+00 0.  1.
         -1   -1    0    0    0  501 -0.00000000000E+00 -0.00000000000E+00 -0.46902858832E+03  0.46902858832E+03  0.00000000000E+00 0. -1.
    9000010    2    1    2  502    0 -0.71356367148E+03  0.17056284838E+03  0.19832164454E+04  0.23405480895E+04  0.10033708644E+04 0.  0.
   -9000010    2    1    2    0  501  0.71356367148E+03 -0.17056284838E+03  0.10066412693E+04  0.15873668018E+04  0.98394203075E+03 0.  0.
        -13    1    3    3    0    0 -0.78213850118E+03  0.18908168600E+03  0.20743781700E+04  0.22249802971E+04  0.10566000000E+00 0.  1.
         13    1    4    4    0    0 -0.10522232970E+03  0.22912878194E+03  0.33647060300E+02  0.25436956031E+03  0.10566000000E+00 0. -1.
          4    1    3    3  502    0  0.68574829703E+02 -0.18518837618E+02 -0.91161724614E+02  0.11556779244E+03  0.00000000000E+00 0.  1.
         -4    1    4    4    0  501  0.81878600118E+03 -0.39969163032E+03  0.97299420897E+03  0.13329972415E+04  0.00000000000E+00 0. -1.
</event>
<event>
 8    1  0.7446554E-006  0.1870019E+04  0.7818608E-02  0.8223469E-01
          4   -1    0    0  502    0  0.00000000000E+00  0.00000000000E+00  0.12811418788E+04  0.12811418788E+04  0.00000000000E+00 0.  1.
         -4   -1    0    0    0  501 -0.00000000000E+00 -0.00000000000E+00 -0.27573924842E+04  0.27573924842E+04  0.00000000000E+00 0. -1.
    9000010    2    1    2  502    0 -0.14363131422E+04 -0.66128845776E+03 -0.94339405104E+03  0.21003841327E+04  0.10106054137E+04 0.  0.
   -9000010    2    1    2    0  501  0.14363131422E+04  0.66128845776E+03 -0.53285655430E+03  0.19381502304E+04  0.98599814457E+03 0.  0.
        -13    1    3    3    0    0 -0.13069178423E+04 -0.44910380730E+03 -0.30481354548E+03  0.14151465595E+04  0.10566000000E+00 0.  1.
         13    1    4    4    0    0  0.81540045365E+03 -0.63932589709E+02  0.50257422381E+02  0.81944560253E+03  0.10566000000E+00 0. -1.
          4    1    3    3  502    0 -0.12939529991E+03 -0.21218465046E+03 -0.63858050556E+03  0.68523757311E+03  0.00000000000E+00 0.  1.
         -4    1    4    4    0  501  0.62091268858E+03  0.72522104747E+03 -0.58311397668E+03  0.11187046278E+04  0.00000000000E+00 0. -1.
</event>
<event>
 8    1  0.7446554E-006  0.1163684E+04  0.7818608E-02  0.8634422E-01
         -2   -1    0    0    0  501 -0.00000000000E+00  0.00000000000E+00  0.13676675755E+04  0.13676675755E+04  0.00000000000E+00 0.  1.
          2   -1    0    0  502    0  0.00000000000E+00 -0.00000000000E+00 -0.12706262323E+04  0.12706262323E+04  0.00000000000E+00 0. -1.
    9000010    2    1    2  502    0 -0.16530791496E+03 -0.56620406947E+03 -0.57136028372E+03  0.12939848510E+04  0.10000152327E+04 0.  0.
   -9000010    2    1    2    0  501  0.16530791496E+03  0.56620406947E+03  0.66840162696E+03  0.13443089569E+04  0.10062266551E+04 0.  0.
        -13    1    3    3    0    0  0.32708075642E+03 -0.20726123416E+03 -0.56458631721E+03  0.68461431562E+03  0.10566000000E+00 0.  1.
         13    1    4    4    0    0  0.47522899568E+03  0.15061707229E+02  0.49996906035E+03  0.68995545207E+03  0.10566000000E+00 0. -1.
          4    1    3    3  502    0 -0.49238867137E+03 -0.35894283531E+03 -0.67739665046E+01  0.60937053534E+03  0.00000000000E+00 0.  1.
         -4    1    4    4    0  501 -0.30992108072E+03  0.55114236224E+03  0.16843256661E+03  0.65435350479E+03  0.00000000000E+00 0. -1.
</event>
<event>
 8    1  0.7446554E-006  0.1924757E+04  0.7818608E-02  0.8199734E-01
          2   -1    0    0  502    0  0.00000000000E+00  0.00000000000E+00  0.25291662520E+04  0.25291662520E+04  0.00000000000E+00 0. -1.
         -2   -1    0    0    0  501 -0.00000000000E+00 -0.00000000000E+00 -0.14776569475E+04  0.14776569475E+04  0.00000000000E+00 0.  1.
    9000010    2    1    2  502    0 -0.11687795687E+04  0.11576277155E+04  0.33906242689E+03  0.19554065052E+04  0.10012510490E+04 0.  0.
   -9000010    2    1    2    0  501  0.11687795687E+04 -0.11576277155E+04  0.71244687762E+03  0.20514166943E+04  0.99728746710E+03 0.  0.
        -13    1    3    3    0    0 -0.12722323272E+04  0.74296049117E+03  0.39257946739E+03  0.15246914558E+04  0.10566000000E+00 0.  1.
         13    1    4    4    0    0  0.51627598082E+03 -0.25228800241E+03 -0.20152731117E+03  0.60893627979E+03  0.10566000000E+00 0. -1.
          4    1    3    3  502    0  0.10345275849E+03  0.41466722435E+03 -0.53517040500E+02  0.43071504944E+03  0.00000000000E+00 0.  1.
         -4    1    4    4    0  501  0.65250358792E+03 -0.90533971311E+03  0.91397418879E+03  0.14424804145E+04  0.00000000000E+00 0. -1.
</event>
<event>
 8    1  0.7446554E-006  0.1428808E+04  0.7818608E-02  0.8451687E-01
         -2   -1    0    0    0  501 -0.00000000000E+00  0.00000000000E+00  0.13008087569E+04  0.13008087569E+04  0.00000000000E+00 0. -1.
          2   -1    0    0  502    0  0.00000000000E+00 -0.00000000000E+00 -0.15694308693E+04  0.15694308693E+04  0.00000000000E+00 0.  1.
    9000010    2    1    2  502    0 -0.13955312196E+03 -0.10089570097E+04 -0.14003025756E+03  0.14386622928E+04  0.10063157549E+04 0.  0.
   -9000010    2    1    2    0  501  0.13955312196E+03  0.10089570097E+04 -0.12859185485E+03  0.14315773334E+04  0.99770159620E+03 0.  0.
        -13    1    3    3    0    0  0.30249159643E+03 -0.62663967847E+03  0.24623420629E+03  0.73811228689E+03  0.10566000000E+00 0.  1.
         13    1    4    4    0    0  0.11360235742E+03  0.91098484543E+03  0.31959015896E+03  0.97207857969E+03  0.10566000000E+00 0. -1.
          4    1    3    3  502    0 -0.44204471839E+03 -0.38231733124E+03 -0.38626446385E+03  0.70055000596E+03  0.00000000000E+00 0.  1.
         -4    1    4    4    0  501  0.25950764539E+02  0.97972164279E+02 -0.44818201381E+03  0.45949875371E+03  0.00000000000E+00 0. -1.
</event>
<event>
 8    1  0.7446554E-006  0.1111574E+04  0.7818608E-02  0.8676301E-01
          2   -1    0    0  502    0  0.00000000000E+00  0.00000000000E+00  0.77345370841E+03  0.77345370841E+03  0.00000000000E+00 0.  1.
         -2   -1    0    0    0  501 -0.00000000000E+00 -0.00000000000E+00 -0.17128351832E+04  0.17128351832E+04  0.00000000000E+00 0. -1.
    9000010    2    1    2  502    0 -0.10046813721E+03 -0.45855997604E+03 -0.79362916250E+03  0.13686747365E+04  0.10114604236E+04 0.  0.
   -9000010    2    1    2    0  501  0.10046813721E+03  0.45855997604E+03 -0.14575231230E+03  0.11176141551E+04  0.10037163768E+04 0.  0.
        -13    1    3    3    0    0 -0.16301197265E+02 -0.57088629750E+03 -0.98065356892E+03  0.11348384586E+04  0.10566000000E+00 0.  1.
         13    1    4    4    0    0  0.51104544933E+03  0.25169717410E+03 -0.28535681730E+03  0.63714004982E+03  0.10566000000E+00 0. -1.
          4    1    3    3  502    0 -0.84166939943E+02  0.11232632146E+03  0.18702440642E+03  0.23383627791E+03  0.00000000000E+00 0.  1.
         -4    1    4    4    0  501 -0.41057731212E+03  0.20686280194E+03  0.13960450500E+03  0.48047410531E+03  0.00000000000E+00 0. -1.
</event>
<event>
 8    1  0.7446554E-006  0.1649048E+04  0.7818608E-02  0.8328533E-01
         -2   -1    0    0    0  501 -0.00000000000E+00  0.00000000000E+00  0.26599755715E+04  0.26599755715E+04  0.00000000000E+00 0. -1.
          2   -1    0    0  502    0  0.00000000000E+00 -0.00000000000E+00 -0.11546196322E+04  0.11546196322E+04  0.00000000000E+00 0.  1.
    9000010    2    1    2  502    0 -0.32823102401E+03  0.12617846170E+04  0.13987648796E+04  0.21632870322E+04  0.10116479480E+04 0.  0.
   -9000010    2    1    2    0  501  0.32823102401E+03 -0.12617846170E+04  0.10659105971E+03  0.16513081715E+04  0.10077802333E+04 0.  0.
        -13    1    3    3    0    0 -0.61577676891E+03  0.38621244198E+03  0.66685592252E+03  0.98642684069E+03  0.10566000000E+00 0.  1.
         13    1    4    4    0    0  0.17536762581E+03 -0.64818174006E+03  0.55905511531E+03  0.87374825061E+03  0.10566000000E+00 0. -1.
          4    1    3    3  502    0  0.28754574490E+03  0.87557217497E+03  0.73190895707E+03  0.11768601915E+04  0.00000000000E+00 0.  1.
         -4    1    4    4    0  501  0.15286339821E+03 -0.61360287690E+03 -0.45246405560E+03  0.77755992094E+03  0.00000000000E+00 0. -1.
</event>
<event>
 8    1  0.7446554E-006  0.1101501E+04  0.7818608E-02  0.8684671E-01
         -2   -1    0    0    0  501 -0.00000000000E+00  0.00000000000E+00  0.78767296804E+03  0.78767296804E+03  0.00000000000E+00 0. -1.
          2   -1    0    0  502    0  0.00000000000E+00 -0.00000000000E+00 -0.15431785704E+04  0.15431785704E+04  0.00000000000E+00 0.  1.
    9000010    2    1    2  502    0 -0.37766725398E+03  0.30914880457E+03 -0.33073359498E+03  0.11563974444E+04  0.99481897870E+03 0.  0.
   -9000010    2    1    2    0  501  0.37766725398E+03 -0.30914880457E+03 -0.42477200740E+03  0.11744540941E+04  0.98015591759E+03 0.  0.
        -13    1    3    3    0    0 -0.32516409788E+03 -0.22111402750E+03 -0.46292436540E+03  0.60738956441E+03  0.10566000000E+00 0.  1.
         13    1    4    4    0    0  0.25146816012E+03  0.28125184935E+03  0.82152959336E+02  0.38611909847E+03  0.10566000000E+00 0. -1.
          4    1    3    3  502    0 -0.52503156097E+02  0.53026283207E+03  0.13219077041E+03  0.54900787996E+03  0.00000000000E+00 0.  1.
         -4    1    4    4    0  501  0.12619909386E+03 -0.59040065391E+03 -0.50692496673E+03  0.78833499563E+03  0.00000000000E+00 0. -1.
</event>
<event>
 8    1  0.7446554E-006  0.1425657E+04  0.7818608E-02  0.8453611E-01
         -1   -1    0    0    0  501 -0.00000000000E+00  0.00000000000E+00  0.17002172421E+04  0.17002172421E+04  0.00000000000E+00 0.  1.
          1   -1    0    0  502    0  0.00000000000E+00 -0.00000000000E+00 -0.15835246890E+04  0.15835246890E+04  0.00000000000E+00 0. -1.
    9000010    2    1    2  502    0  0.90756805429E+03 -0.46776357002E+03 -0.75477177884E+03  0.15986121114E+04  0.97128662805E+03 0.  0.
   -9000010    2    1    2    0  501 -0.90756805429E+03  0.46776357002E+03  0.87146433190E+03  0.16851298197E+04  0.10186902851E+04 0.  0.
        -13    1    3    3    0    0  0.46170807372E+03 -0.68998741108E+03 -0.20191139264E+03  0.85441511832E+03  0.10566000000E+00 0.  1.
         13    1    4    4    0    0 -0.79061906148E+03  0.41791603047E+03  0.96115583534E+02  0.89942788786E+03  0.10566000000E+00 0. -1.
          4    1    3    3  502    0  0.44585998058E+03  0.22222384105E+03 -0.55286038619E+03  0.74419699303E+03  0.00000000000E+00 0.  1.
         -4    1    4    4    0  501 -0.11694899282E+03  0.49847539557E+02  0.77534874836E+03  0.78570193185E+03  0.00000000000E+00 0. -1.
</event>
<event>
 8    1  0.7446554E-006  0.1071675E+04  0.7818608E-02  0.8710015E-01
          2   -1    0    0  502    0  0.00000000000E+00  0.00000000000E+00  0.26842827560E+04  0.26842827560E+04  0.00000000000E+00 0. -1.
         -2   -1    0    0    0  501 -0.00000000000E+00 -0.00000000000E+00 -0.43004400395E+03  0.43004400395E+03  0.00000000000E+00 0.  1.
    9000010    2    1    2  502    0  0.48521496563E+03  0.16532478352E+03  0.11439117043E+04  0.15306627004E+04  0.87842385461E+03 0.  0.
   -9000010    2    1    2    0  501 -0.48521496563E+03 -0.16532478352E+03  0.11103270477E+04  0.15836640595E+04  0.10061808254E+04 0.  0.
        -13    1    3    3    0    0 -0.29761578571E+02 -0.28203114989E+03  0.13831743909E+03  0.31552978653E+03  0.10566000000E+00 0.  1.
         13    1    4    4    0    0 -0.21033812125E+03 -0.92200896943E+02  0.12470870075E+04  0.12680572330E+04  0.10566000000E+00 0. -1.
          4    1    3    3  502    0  0.51497654420E+03  0.44735593341E+03  0.10055942652E+04  0.12151329139E+04  0.00000000000E+00 0.  1.
         -4    1    4    4    0  501 -0.27487684438E+03 -0.73123886574E+02 -0.13675995975E+03  0.31560682654E+03  0.00000000000E+00 0. -1.
</event>
<event>
 8    1  0.7446554E-006  0.1094605E+04  0.7818608E-02  0.8690456E-01
         -2   -1    0    0    0  501 -0.00000000000E+00  0.00000000000E+00  0.87746717123E+03  0.87746717123E+03  0.00000000000E+00 0. -1.
          2   -1    0    0  502    0  0.00000000000E+00 -0.00000000000E+00 -0.15328423207E+04  0.15328423207E+04  0.00000000000E+00 0.  1.
    9000010    2    1    2  502    0  0.32723149917E+03 -0.31796242460E+03  0.71134452724E+02  0.10946505445E+04  0.99248130800E+03 0.  0.
   -9000010    2    1    2    0  501 -0.32723149917E+03  0.31796242460E+03 -0.72650960217E+03  0.13156589474E+04  0.99747767208E+03 0.  0.
        -13    1    3    3    0    0 -0.24003758593E+03 -0.36383079304E+03 -0.18127091093E+03  0.47206995556E+03  0.10566000000E+00 0.  1.
         13    1    4    4    0    0 -0.24680058378E+03  0.24136764312E+03  0.18891599158E+03  0.39352017780E+03  0.10566000000E+00 0. -1.
          4    1    3    3  502    0  0.56726908511E+03  0.45868368438E+02  0.25240536366E+03  0.62258058896E+03  0.00000000000E+00 0.  1.
         -4    1    4    4    0  501 -0.80430915394E+02  0.76594781485E+02 -0.91542559375E+03  0.92213876960E+03  0.00000000000E+00 0. -1.
</event>
<event>
 8    1  0.7446554E-006  0.1110033E+04  0.7818608E-02  0.8677575E-01
         -2   -1    0    0    0  501 -0.00000000000E+00  0.00000000000E+00  0.14875114316E+04  0.14875114316E+04  0.00000000000E+00 0. -1.
          2   -1    0    0  502    0  0.00000000000E+00 -0.00000000000E+00 -0.85048775535E+03  0.85048775535E+03  0.00000000000E+00 0.  1.
    9000010    2    1    2  502    0  0.39250792915E+02 -0.44837855551E+03  0.50344424775E+03  0.12082384597E+04  0.10018982539E+04 0.  0.
   -9000010    2    1    2    0  501 -0.39250792915E+02  0.44837855551E+03  0.13357942855E+03  0.11297607273E+04  0.10275854628E+04 0.  0.
        -13    1    3    3    0    0  0.43790871809E+03 -0.53180515782E+03  0.35276373993E+03  0.77396578648E+03  0.10566000000E+00 0.  1.
         13    1    4    4    0    0 -0.17874804178E+03 -0.24403763549E+03 -0.18534938526E+03  0.35476701616E+03  0.10566000000E+00 0. -1.
          4    1    3    3  502    0 -0.39865792518E+03  0.83426602317E+02  0.15068050782E+03  0.43427267324E+03  0.00000000000E+00 0.  1.
         -4    1    4    4    0  501  0.13949724886E+03  0.69241619100E+03  0.31892881381E+03  0.77499371112E+03  0.00000000000E+00 0. -1.
</event>
<event>
 8    1  0.7446554E-006  0.1128775E+04  0.7818608E-02  0.8662217E-01
         -1   -1    0    0    0  501 -0.00000000000E+00  0.00000000000E+00  0.77638767248E+03  0.77638767248E+03  0.00000000000E+00 0.  1.
          1   -1    0    0  502    0  0.00000000000E+00 -0.00000000000E+00 -0.16414888852E+04  0.16414888852E+04  0.00000000000E+00 0. -1.
    9000010    2    1    2  502    0  0.53448131494E+03  0.65216926631E+02 -0.45191148815E+03  0.12236990858E+04  0.10016446155E+04 0.  0.
   -9000010    2    1    2    0  501 -0.53448131494E+03 -0.65216926631E+02 -0.41318972454E+03  0.11941774719E+04  0.98255308371E+03 0.  0.
        -13    1    3    3    0    0  0.22157200684E+03 -0.13884198011E+03 -0.71860748504E+03  0.76470123471E+03  0.10566000000E+00 0.  1.
         13    1    4    4    0    0 -0.51234487776E+01  0.23670060582E+03 -0.52379489607E+03  0.57481695420E+03  0.10566000000E+00 0. -1.
          4    1    3    3  502    0  0.31290930811E+03  0.20405890674E+03  0.26669599689E+03  0.45899785106E+03  0.00000000000E+00 0.  1.
         -4    1    4    4    0  501 -0.52935786617E+03 -0.30191753245E+03  0.11060517153E+03  0.61936051767E+03  0.00000000000E+00 0. -1.
</event>
<event>
 8    1  0.7446554E-006  0.1573447E+04  0.7818608E-02  0.8368441E-01
          4   -1    0    0  502    0  0.00000000000E+00  0.00000000000E+00  0.13291222302E+04  0.13291222302E+04  0.00000000000E+00 0.  1.
         -4   -1    0    0    0  501 -0.00000000000E+00 -0.00000000000E+00 -0.22575333105E+04  0.22575333105E+04  0.00000000000E+00 0. -1.
    9000010    2    1    2  502    0  0.10410565034E+04  0.61974117903E+03  0.28504888022E+03  0.16020244136E+04  0.10086384810E+04 0.  0.
   -9000010    2    1    2    0  501 -0.10410565034E+04 -0.61974117903E+03 -0.12134599605E+04  0.19846311271E+04  0.99919861023E+03 0.  0.
        -13    1    3    3    0    0  0.21398367530E+03 -0.23789793345E+03  0.25670209613E+03  0.41021996217E+03  0.10566000000E+00 0.  1.
         13    1    4    4    0    0  0.61791574919E+02  0.45045752406E+02  0.11266612828E+03  0.13616528987E+03  0.10566000000E+00 0. -1.
          4    1    3    3  502    0  0.82707282811E+03  0.85763911248E+03  0.28346784088E+02  0.11918044514E+04  0.00000000000E+00 0.  1.
         -4    1    4    4    0  501 -0.11028480783E+04 -0.66478693144E+03 -0.13261260888E+04  0.18484658373E+04  0.00000000000E+00 0. -1.
</event>
<event>
 8    1  0.7446554E-006  0.1454829E+04  0.7818608E-02  0.8435980E-01
         -2   -1    0    0    0  501 -0.00000000000E+00  0.00000000000E+00  0.30324720892E+04  0.30324720892E+04  0.00000000000E+00 0. -1.
          2   -1    0    0  502    0  0.00000000000E+00 -0.00000000000E+00 -0.70623303595E+03  0.70623303595E+03  0.00000000000E+00 0.  1.
    9000010    2    1    2  502    0 -0.89135632161E+03 -0.57654250882E+03  0.95843540441E+03  0.17397071696E+04  0.99048738247E+03 0.  0.
   -9000010    2    1    2    0  501  0.89135632161E+03  0.57654250882E+03  0.13678036489E+04  0.19989979556E+04  0.99909391361E+03 0.  0.
        -13    1    3    3    0    0 -0.15031155419E+03  0.18296407274E+03 -0.84921091226E+02  0.25155718661E+03  0.10566000000E+00 0.  1.
         13    1    4    4    0    0  0.66852682041E+03  0.69790022938E+03  0.14408609149E+04  0.17349562032E+04  0.10566000000E+00 0. -1.
          4    1    3    3  502    0 -0.74104476741E+03 -0.75950658156E+03  0.10433564956E+04  0.14881499829E+04  0.00000000000E+00 0.  1.
         -4    1    4    4    0  501  0.22282950119E+03 -0.12135772056E+03 -0.73057265966E+02  0.26404175248E+03  0.00000000000E+00 0. -1.
</event>
<event>
 8    1  0.7446554E-006  0.1065344E+04  0.7818608E-02  0.8715506E-01
          2   -1    0    0  502    0  0.00000000000E+00  0.00000000000E+00  0.11434717839E+04  0.11434717839E+04  0.00000000000E+00 0. -1.
         -2   -1    0    0    0  501 -0.00000000000E+00 -0.00000000000E+00 -0.10656431395E+04  0.10656431395E+04  0.00000000000E+00 0.  1.
    9000010    2    1    2  502    0  0.43510660676E+03  0.81946932859E+01 -0.25015145614E+03  0.10990322990E+04  0.97770718055E+03 0.  0.
   -9000010    2    1    2    0  501 -0.43510660676E+03 -0.81946932859E+01  0.32798010063E+03  0.11100826244E+04  0.96712335017E+03 0.  0.
        -13    1    3    3    0    0  0.43342612692E+03  0.42593729727E+03 -0.30110120305E+03  0.67819078020E+03  0.10566000000E+00 0.  1.
         13    1    4    4    0    0 -0.11847257821E+03 -0.30718913497E+03 -0.23047640901E+03  0.40189588541E+03  0.10566000000E+00 0. -1.
          4    1    3    3  502    0  0.16804798375E+01 -0.41774260399E+03  0.50949746908E+02  0.42084151875E+03  0.00000000000E+00 0.  1.
         -4    1    4    4    0  501 -0.31663402855E+03  0.29899444169E+03  0.55845650964E+03  0.70818673904E+03  0.00000000000E+00 0. -1.
</event>
<event>
 8    1  0.7446554E-006  0.1565304E+04  0.7818608E-02  0.8372878E-01
         -1   -1    0    0    0  501 -0.00000000000E+00  0.00000000000E+00  0.29565060817E+04  0.29565060817E+04  0.00000000000E+00 0.  1.
          1   -1    0    0  502    0  0.00000000000E+00 -0.00000000000E+00 -0.91490246228E+03  0.91490246228E+03  0.00000000000E+00 0. -1.
    9000010    2    1    2  502    0  0.91504040764E+03 -0.72801986356E+03  0.16241758048E+04  0.22671537599E+04  0.10652357752E+04 0.  0.
   -9000010    2    1    2    0  501 -0.91504040764E+03  0.72801986356E+03  0.41742781464E+03  0.16042547841E+04  0.10159111982E+04 0.  0.
        -13    1    3    3    0    0  0.37259453477E+01  0.14424559289E+03 -0.65544080821E+02  0.15848252722E+03  0.10566000000E+00 0.  1.
         13    1    4    4    0    0 -0.66141457536E+03  0.86082201733E+03 -0.14954297908E+02  0.10856829317E+04  0.10566000000E+00 0. -1.
          4    1    3    3  502    0  0.91131446229E+03 -0.87226545646E+03  0.16897198856E+04  0.21086712327E+04  0.00000000000E+00 0.  1.
         -4    1    4    4    0  501 -0.25362583228E+03 -0.13280215376E+03  0.43238211255E+03  0.51857185240E+03  0.00000000000E+00 0. -1.
</event>
<event>
 8    1  0.7446554E-006  0.1228367E+04  0.7818608E-02  0.8585502E-01
         -2   -1    0    0    0  501 -0.00000000000E+00  0.00000000000E+00  0.91075111981E+03  0.91075111981E+03  0.00000000000E+00 0. -1.
          2   -1    0    0  502    0  0.00000000000E+00 -0.00000000000E+00 -0.17044189785E+04  0.17044189785E+04  0.00000000000E+00 0.  1.
    9000010    2    1    2  502    0 -0.74042666541E+03 -0.13434257542E+03 -0.60796041836E+03  0.13523466429E+04  0.94495819896E+03 0.  0.
   -9000010    2    1    2    0  501  0.74042666541E+03  0.13434257542E+03 -0.18570744030E+03  0.12628234554E+04  0.99697354614E+03 0.  0.
        -13    1    3    3    0    0 -0.27272070355E+03 -0.31347613770E+03 -0.72717877114E+03  0.83751587890E+03  0.10566000000E+00 0.  1.
         13    1    4    4    0    0  0.26941117781E+02  0.90019942148E+02 -0.48047311397E+03  0.48957516095E+03  0.10566000000E+00 0. -1.
          4    1    3    3  502    0 -0.46770596186E+03  0.17913356228E+03  0.11921835278E+03  0.51483076397E+03  0.00000000000E+00 0.  1.
         -4    1    4    4    0  501  0.71348554763E+03  0.44322633271E+02  0.29476567367E+03  0.77324829445E+03  0.00000000000E+00 0. -1.
</event>
<event>
 8    1  0.7446554E-006  0.9929335E+03  0.7818608E-02  0.8781259E-01
          2   -1    0    0  502    0  0.00000000000E+00  0.00000000000E+00  0.24687345196E+04  0.24687345196E+04  0.00000000000E+00 0. -1.
         -2   -1    0    0    0  501 -0.00000000000E+00 -0.00000000000E+00 -0.42985012930E+03  0.42985012930E+03  0.00000000000E+00 0.  1.
    9000010    2    1    2  502    0  0.12704586128E+03  0.23623367915E+03  0.13710249489E+04  0.16740334763E+04  0.92235116263E+03 0.  0.
   -9000010    2    1    2    0  501 -0.12704586128E+03 -0.23623367915E+03  0.66785944144E+03  0.12245511726E+04  0.99072818617E+03 0.  0.
        -13    1    3    3    0    0  0.28689183324E+03  0.12415252589E+03  0.24644904216E+02  0.31357320698E+03  0.10566000000E+00 0.  1.
         13    1    4    4    0    0  0.16214781160E+03 -0.14447975319E+03  0.84551690423E+03  0.87296343474E+03  0.10566000000E+00 0. -1.
          4    1    3    3  502    0 -0.15984597197E+03  0.11208115326E+03  0.13463800447E+04  0.13604602693E+04  0.00000000000E+00 0.  1.
         -4    1    4    4    0  501 -0.28919367287E+03 -0.91753925959E+02 -0.17765746279E+03  0.35158773790E+03  0.00000000000E+00 0. -1.
</event>
<event>
 8    1  0.7446554E-006  0.1694648E+04  0.7818608E-02  0.8305515E-01
          2   -1    0    0  502    0  0.00000000000E+00  0.00000000000E+00  0.91913370836E+03  0.91913370836E+03  0.00000000000E+00 0. -1.
         -2   -1    0    0    0  501 -0.00000000000E+00 -0.00000000000E+00 -0.31423149605E+04  0.31423149605E+04  0.00000000000E+00 0.  1.
    9000010    2    1    2  502    0  0.62162359153E+03  0.12157100859E+04 -0.95848975608E+03  0.19466843663E+04  0.10032499724E+04 0.  0.
   -9000010    2    1    2    0  501 -0.62162359153E+03 -0.12157100859E+04 -0.12646914961E+04  0.21147643026E+04  0.10041994686E+04 0.  0.
        -13    1    3    3    0    0  0.17300678755E+03  0.11011965972E+03 -0.69522716024E+03  0.72484377869E+03  0.10566000000E+00 0.  1.
         13    1    4    4    0    0 -0.19169708299E+03 -0.30072786454E+02  0.13065011829E+03  0.23392650274E+03  0.10566000000E+00 0. -1.
          4    1    3    3  502    0  0.44861680397E+03  0.11055904261E+04 -0.26326259584E+03  0.12218405876E+04  0.00000000000E+00 0.  1.
         -4    1    4    4    0  501 -0.42992650854E+03 -0.11856372994E+04 -0.13953416144E+04  0.18808377998E+04  0.00000000000E+00 0. -1.
</event>
<event>
 8    1  0.7446554E-006  0.1042312E+04  0.7818608E-02  0.8735820E-01
         -1   -1    0    0    0  501 -0.00000000000E+00  0.00000000000E+00  0.80264416285E+03  0.80264416285E+03  0.00000000000E+00 0.  1.
          1   -1    0    0  502    0  0.00000000000E+00 -0.00000000000E+00 -0.15599102246E+04  0.15599102246E+04  0.00000000000E+00 0. -1.
    9000010    2    1    2  502    0 -0.22211699891E+03  0.30140550649E+03 -0.79924448516E+03  0.12934775477E+04  0.94557452312E+03 0.  0.
   -9000010    2    1    2    0  501  0.22211699891E+03 -0.30140550649E+03  0.41978423396E+02  0.10690768398E+04  0.10004908099E+04 0.  0.
        -13    1    3    3    0    0 -0.50322623860E+03  0.40253977998E+03 -0.29806480551E+03  0.71001236689E+03  0.10566000000E+00 0.  1.
         13    1    4    4    0    0 -0.44036484960E+02  0.35484787636E+03 -0.20486343885E+02  0.35815629104E+03  0.10566000000E+00 0. -1.
          4    1    3    3  502    0  0.28110923969E+03 -0.10113427349E+03 -0.50117967965E+03  0.58346518080E+03  0.00000000000E+00 0.  1.
         -4    1    4    4    0  501  0.26615348387E+03 -0.65625338285E+03  0.62464767281E+02  0.71092054874E+03  0.00000000000E+00 0. -1.
</event>
<event>
 8    1  0.7446554E-006  0.1086042E+04  0.7818608E-02  0.8697701E-01
          2   -1    0    0  502    0  0.00000000000E+00  0.00000000000E+00  0.25037892023E+04  0.25037892023E+04  0.00000000000E+00 0.  1.
         -2   -1    0    0    0  501 -0.00000000000E+00 -0.00000000000E+00 -0.47304559876E+03  0.47304559876E+03  0.00000000000E+00 0. -1.
    9000010    2    1    2  502    0  0.35701373774E+03 -0.27692709449E+03  0.90629927308E+03  0.14013737781E+04  0.96867056783E+03 0.  0.
   -9000010    2    1    2    0  501 -0.35701373774E+03  0.27692709449E+03  0.11244443305E+04  0.15754610230E+04  0.10067546662E+04 0.  0.
        -13    1    3    3    0    0  0.37801888880E+01 -0.37581345460E+03 -0.48112163143E+02  0.37889950369E+03  0.10566000000E+00 0.  1.
         13    1    4    4    0    0  0.34779621624E+03  0.53758677472E+02  0.47674887679E+03  0.59257211048E+03  0.10566000000E+00 0. -1.
          4    1    3    3  502    0  0.35323354885E+03  0.98886360109E+02  0.95441143623E+03  0.10224742744E+04  0.00000000000E+00 0.  1.
         -4    1    4    4    0  501 -0.70480995398E+03  0.22316841702E+03  0.64769545369E+03  0.98288891250E+03  0.00000000000E+00 0. -1.
</event>
<event>
 8    1  0.7446554E-006  0.2296645E+04  0.7818608E-02  0.8057297E-01
          2   -1    0    0  502    0  0.00000000000E+00  0.00000000000E+00  0.24579356510E+04  0.24579356510E+04  0.00000000000E+00 0.  1.
         -2   -1    0    0    0  501 -0.00000000000E+00 -0.00000000000E+00 -0.21763932832E+04  0.21763932832E+04  0.00000000000E+00 0. -1.
    9000010    2    1    2  502    0  0.11200195492E+03  0.20587348803E+04 -0.13340146933E+03  0.22993898476E+04  0.10091897612E+04 0.  0.
   -9000010    2    1    2    0  501 -0.11200195492E+03 -0.20587348803E+04  0.41494383716E+03  0.23349390866E+04  0.10143117889E+04 0.  0.
        -13    1    3    3    0    0 -0.14927334213E+03  0.17763638850E+04 -0.40552467617E+03  0.18281688809E+04  0.10566000000E+00 0.  1.
         13    1    4    4    0    0  0.14820348215E+03  0.53043077395E+02 -0.32311789321E+02  0.16069195087E+03  0.10566000000E+00 0. -1.
          4    1    3    3  502    0  0.26127529706E+03  0.28237099523E+03  0.27212320684E+03  0.47122096674E+03  0.00000000000E+00 0.  1.
         -4    1    4    4    0  501 -0.26020543707E+03 -0.21117779577E+04  0.44725562648E+03  0.21742471358E+04  0.00000000000E+00 0. -1.
</event>
<event>
 8    1  0.7446554E-006  0.1602914E+04  0.7818608E-02  0.8352616E-01
          2   -1    0    0  502    0  0.00000000000E+00  0.00000000000E+00  0.31806327907E+04  0.31806327907E+04  0.00000000000E+00 0. -1.
         -2   -1    0    0    0  501 -0.00000000000E+00 -0.00000000000E+00 -0.83398827925E+03  0.83398827925E+03  0.00000000000E+00 0.  1.
    9000010    2    1    2  502    0 -0.42392174368E+03 -0.11870431619E+04  0.82950344590E+03  0.18190539035E+04  0.10159232373E+04 0.  0.
   -9000010    2    1    2    0  501  0.42392174368E+03  0.11870431619E+04  0.15171410656E+04  0.21955671665E+04  0.96437391962E+03 0.  0.
        -13    1    3    3    0    0 -0.67594042757E+03 -0.10256890740E+04  0.39280284752E+03  0.12896618263E+04  0.10566000000E+00 0.  1.
         13    1    4    4    0    0  0.40957997836E+03  0.64147778442E+02  0.67399381132E+03  0.79128905276E+03  0.10566000000E+00 0. -1.
          4    1    3    3  502    0  0.25201868388E+03 -0.16135408788E+03  0.43670059838E+03  0.52939207713E+03  0.00000000000E+00 0.  1.
         -4    1    4    4    0  501  0.14341765317E+02  0.11228953834E+04  0.84314725425E+03  0.14042781137E+04  0.00000000000E+00 0. -1.
</event>
<event>
 8    1  0.7446554E-006  0.2017091E+04  0.7818608E-02  0.8161469E-01
         -4   -1    0    0    0  501 -0.00000000000E+00  0.00000000000E+00  0.28656534647E+04  0.28656534647E+04  0.00000000000E+00 0.  1.
          4   -1    0    0  502    0  0.00000000000E+00 -0.00000000000E+00 -0.14578625217E+04  0.14578625217E+04  0.00000000000E+00 0. -1.
    9000010    2    1    2  502    0 -0.16384460452E+04  0.62095230607E+03  0.35412889824E+03  0.20465693661E+04  0.99646961034E+03 0.  0.
   -9000010    2    1    2    0  501  0.16384460452E+04 -0.62095230607E+03  0.10536620447E+04  0.22769466203E+04  0.10020953038E+04 0.  0.
        -13    1    3    3    0    0 -0.88303588368E+03  0.76456719721E+03  0.48832205626E+03  0.12660070350E+04  0.10566000000E+00 0.  1.
         13    1    4    4    0    0  0.18719478955E+03  0.23917145883E+03  0.30782718570E+03  0.43243781446E+03  0.10566000000E+00 0. -1.
          4    1    3    3  502    0 -0.75541016149E+03 -0.14361489114E+03 -0.13419315802E+03  0.78056233108E+03  0.00000000000E+00 0.  1.
         -4    1    4    4    0  501  0.14512512556E+04 -0.86012376491E+03  0.74583485902E+03  0.18445088058E+04  0.00000000000E+00 0. -1.
</event>
<event>
 8    1  0.7446554E-006  0.1489955E+04  0.7818608E-02  0.8415303E-01
          2   -1    0    0  502    0  0.00000000000E+00  0.00000000000E+00  0.40718781506E+04  0.40718781506E+04  0.00000000000E+00 0.  1.
         -2   -1    0    0    0  501 -0.00000000000E+00 -0.00000000000E+00 -0.62274515660E+03  0.62274515660E+03  0.00000000000E+00 0. -1.
    9000010    2    1    2  502    0  0.17696622293E+03  0.11024318690E+04  0.90295667382E+03  0.17478504204E+04  0.99648244701E+03 0.  0.
   -9000010    2    1    2    0  501 -0.17696622293E+03 -0.11024318690E+04  0.25461763201E+04  0.29467728868E+04  0.97661841234E+03 0.  0.
        -13    1    3    3    0    0  0.29256186951E+03 -0.60812335423E+02  0.33272835104E+03  0.44721220285E+03  0.10566000000E+00 0.  1.
         13    1    4    4    0    0  0.30252537938E+03 -0.26203864867E+02  0.57725348141E+03  0.65224982995E+03  0.10566000000E+00 0. -1.
          4    1    3    3  502    0 -0.11559564658E+03  0.11632442045E+04  0.57022832278E+03  0.13006382175E+04  0.00000000000E+00 0.  1.
         -4    1    4    4    0  501 -0.47949160231E+03 -0.10762280042E+04  0.19689228387E+04  0.22945230569E+04  0.00000000000E+00 0. -1.
</event>
<event>
 8    1  0.7446554E-006  0.1512663E+04  0.7818608E-02  0.8402248E-01
          4   -1    0    0  502    0  0.00000000000E+00  0.00000000000E+00  0.12464319123E+04  0.12464319123E+04  0.00000000000E+00 0.  1.
         -4   -1    0    0    0  501 -0.00000000000E+00 -0.00000000000E+00 -0.20530724112E+04  0.20530724112E+04  0.00000000000E+00 0. -1.
    9000010    2    1    2  502    0 -0.83489218254E+03 -0.76354836579E+03  0.13304837308E+03  0.15200201254E+04  0.10063340642E+04 0.  0.
   -9000010    2    1    2    0  501  0.83489218254E+03  0.76354836579E+03 -0.93968887191E+03  0.17794841981E+04  0.10017473593E+04 0.  0.
        -13    1    3    3    0    0 -0.10268894997E+04 -0.45035727479E+03 -0.21416823686E+02  0.11215089884E+04  0.10566000000E+00 0.  1.
         13    1    4    4    0    0  0.41231246233E+03  0.95561121148E+03 -0.72278612731E+03  0.12671283089E+04  0.10566000000E+00 0. -1.
          4    1    3    3  502    0  0.19199731718E+03 -0.31319109100E+03  0.15446519677E+03  0.39851113698E+03  0.00000000000E+00 0.  1.
         -4    1    4    4    0  501  0.42257972021E+03 -0.19206284570E+03 -0.21690274459E+03  0.51235588924E+03  0.00000000000E+00 0. -1.
</event>
<event>
 8    1  0.7446554E-006  0.1115520E+04  0.7818608E-02  0.8673047E-01
         -2   -1    0    0    0  501 -0.00000000000E+00  0.00000000000E+00  0.44323898717E+03  0.44323898717E+03  0.00000000000E+00 0.  1.
          2   -1    0    0  502    0  0.00000000000E+00 -0.00000000000E+00 -0.28140023966E+04  0.28140023966E+04  0.00000000000E+00 0. -1.
    9000010    2    1    2  502    0  0.48139624730E+03 -0.15431389912E+03 -0.10995324449E+04  0.15607958795E+04  0.98567593752E+03 0.  0.
   -9000010    2    1    2    0  501 -0.48139624730E+03  0.15431389912E+03 -0.12712309645E+04  0.16964455042E+04  0.10031670136E+04 0.  0.
        -13    1    3    3    0    0  0.35318787835E+03 -0.24171779328E+03  0.22031346180E+02  0.42854936750E+03  0.10566000000E+00 0.  1.
         13    1    4    4    0    0 -0.53381777058E+03 -0.25769430752E+03 -0.10952573390E+04  0.12453740073E+04  0.10566000000E+00 0. -1.
          4    1    3    3  502    0  0.12820836896E+03  0.87403894165E+02 -0.11215637910E+04  0.11322465120E+04  0.00000000000E+00 0.  1.
         -4    1    4    4    0  501  0.52421523275E+02  0.41200820664E+03 -0.17597362555E+03  0.45107149692E+03  0.00000000000E+00 0. -1.
</event>
<event>
 8    1  0.7446554E-006  0.1343238E+04  0.7818608E-02  0.8505861E-01
          2   -1    0    0  502    0  0.00000000000E+00  0.00000000000E+00  0.24233525301E+04  0.24233525301E+04  0.00000000000E+00 0. -1.
         -2   -1    0    0    0  501 -0.00000000000E+00 -0.00000000000E+00 -0.75464311923E+03  0.75464311923E+03  0.00000000000E+00 0.  1.
    9000010    2    1    2  502    0  0.40321644864E+03 -0.80626580432E+03  0.10189296440E+04  0.16869398829E+04  0.99744698969E+03 0.  0.
   -9000010    2    1    2    0  501 -0.40321644864E+03  0.80626580432E+03  0.64977976681E+03  0.14910557664E+04  0.99417579009E+03 0.  0.
        -13    1    3    3    0    0  0.39753660312E+03 -0.93425278984E+03  0.46203639733E+03  0.11155004571E+04  0.10566000000E+00 0.  1.
         13    1    4    4    0    0  0.86751711806E+02  0.71759105925E+03  0.69081248329E+02  0.72610950817E+03  0.10566000000E+00 0. -1.
          4    1    3    3  502    0  0.56798455146E+01  0.12798698552E+03  0.55689324669E+03  0.57143942577E+03  0.00000000000E+00 0.  1.
         -4    1    4    4    0  501 -0.48996816044E+03  0.88674745063E+02  0.58069851848E+03  0.76494625826E+03  0.00000000000E+00 0. -1.
</event>
<event>
 8    1  0.7446554E-006  0.1286509E+04  0.7818608E-02  0.8544119E-01
         -2   -1    0    0    0  501 -0.00000000000E+00  0.00000000000E+00  0.43953652489E+03  0.43953652489E+03  0.00000000000E+00 0.  1.
          2   -1    0    0  502    0  0.00000000000E+00 -0.00000000000E+00 -0.40758560796E+04  0.40758560796E+04  0.00000000000E+00 0. -1.
    9000010    2    1    2  502    0 -0.41491650717E+03  0.69826323673E+03 -0.24333256434E+04  0.27497487320E+04  0.99010966408E+03 0.  0.
   -9000010    2    1    2    0  501  0.41491650717E+03 -0.69826323673E+03 -0.12029939113E+04  0.17656438725E+04  0.10052744292E+04 0.  0.
        -13    1    3    3    0    0 -0.42375544189E+03  0.50722117083E+03 -0.24683627766E+04  0.25553193145E+04  0.10566000000E+00 0.  1.
         13    1    4    4    0    0  0.52653913067E+03  0.56352567807E+02 -0.49880013520E+03  0.72747553503E+03  0.10566000000E+00 0. -1.
          4    1    3    3  502    0  0.88389347135E+01  0.19104206590E+03  0.35037133252E+02  0.19442941757E+03  0.00000000000E+00 0.  1.
         -4    1    4    4    0  501 -0.11162262350E+03 -0.75461580453E+03 -0.70419377615E+03  0.10381683375E+04  0.00000000000E+00 0. -1.
</event>
<event>
 8    1  0.7446554E-006  0.1048918E+04  0.7818608E-02  0.8729939E-01
          4   -1    0    0  502    0  0.00000000000E+00  0.00000000000E+00  0.57518082978E+03  0.57518082978E+03  0.00000000000E+00 0.  1.
         -4   -1    0    0    0  501 -0.00000000000E+00 -0.00000000000E+00 -0.31422511042E+04  0.31422511042E+04  0.00000000000E+00 0. -1.
    9000010    2    1    2  502    0 -0.85361101206E+02  0.34245767038E+03 -0.13149534444E+03  0.10710300446E+04  0.10026218416E+04 0.  0.
   -9000010    2    1    2    0  501  0.85361101206E+02 -0.34245767038E+03 -0.24355749300E+04  0.26464018893E+04  0.97306420485E+03 0.  0.
        -13    1    3    3    0    0 -0.35509871215E+03  0.39006225528E+03  0.26406507918E+03  0.58989324082E+03  0.10566000000E+00 0.  1.
         13    1    4    4    0    0  0.45405478888E+03 -0.14948018013E+02 -0.17084350186E+04  0.17678063860E+04  0.10566000000E+00 0. -1.
          4    1    3    3  502    0  0.26973761094E+03 -0.47604584903E+02 -0.39556042362E+03  0.48113680383E+03  0.00000000000E+00 0.  1.
         -4    1    4    4    0  501 -0.36869368767E+03 -0.32750965236E+03 -0.72713991141E+03  0.87859550334E+03  0.00000000000E+00 0. -1.
</event>
<event>
 8    1  0.7446554E-006  0.1107570E+04  0.7818608E-02  0.8679617E-01
          2   -1    0    0  502    0  0.00000000000E+00  0.00000000000E+00  0.38832611019E+04  0.38832611019E+04  0.00000000000E+00 0. -1.
         -2   -1    0    0    0  501 -0.00000000000E+00 -0.00000000000E+00 -0.38469445374E+03  0.38469445374E+03  0.00000000000E+00 0.  1.
    9000010    2    1    2  502    0  0.24275951182E+03  0.39084610944E+03  0.26641028705E+04  0.28889112903E+04  0.10181706521E+04 0.  0.
   -9000010    2    1    2    0  501 -0.24275951182E+03 -0.39084610944E+03  0.83446377761E+03  0.13790442653E+04  0.99686530065E+03 0.  0.
        -13    1    3    3    0    0 -0.18185551022E+03 -0.25072731822E+03  0.11441786268E+04  0.11853608547E+04  0.10566000000E+00 0.  1.
         13    1    4    4    0    0 -0.56749716445E+03 -0.67756936208E+02  0.21952336195E+03  0.61223733280E+03  0.10566000000E+00 0. -1.
          4    1    3    3  502    0  0.42461502203E+03  0.64157342766E+03  0.15199242437E+04  0.17035504356E+04  0.00000000000E+00 0.  1.
         -4    1    4    4    0  501  0.32473765264E+03 -0.32308917323E+03  0.61494041566E+03  0.76680693249E+03  0.00000000000E+00 0. -1.
</event>
<event>
 8    1  0.7446554E-006  0.1232600E+04  0.7818608E-02  0.8582410E-01
          4   -1    0    0  502    0  0.00000000000E+00  0.00000000000E+00  0.61555841236E+03  0.61555841236E+03  0.00000000000E+00 0.  1.
         -4   -1    0    0    0  501 -0.00000000000E+00 -0.00000000000E+00 -0.27197402192E+04  0.27197402192E+04  0.00000000000E+00 0. -1.
    9000010    2    1    2  502    0  0.38868992825E+03 -0.62736140006E+03 -0.54684545225E+03  0.13507427249E+04  0.99035537746E+03 0.  0.
   -9000010    2    1    2    0  501 -0.38868992825E+03  0.62736140006E+03 -0.15573363546E+04  0.19845559067E+04  0.98412572301E+03 0.  0.
        -13    1    3    3    0    0  0.59799431011E+03 -0.16120379376E+03 -0.56653615848E+03  0.83937303273E+03  0.10566000000E+00 0.  1.
         13    1    4    4    0    0 -0.42064289878E+03  0.85919725717E+03 -0.14231332227E+04  0.17147794481E+04  0.10566000000E+00 0. -1.
          4    1    3    3  502    0 -0.20930438186E+03 -0.46615760630E+03  0.19690706230E+02  0.51136969219E+03  0.00000000000E+00 0.  1.
         -4    1    4    4    0  501  0.31952970533E+02 -0.23183585711E+03 -0.13420313194E+03  0.26977645855E+03  0.00000000000E+00 0. -1.
</event>
<event>
 8    1  0.7446554E-006  0.1294892E+04  0.7818608E-02  0.8538339E-01
          2   -1    0    0  502    0  0.00000000000E+00  0.00000000000E+00  0.23683163320E+04  0.23683163320E+04  0.00000000000E+00 0. -1.
         -2   -1    0    0    0  501 -0.00000000000E+00 -0.00000000000E+00 -0.72020119841E+03  0.72020119841E+03  0.00000000000E+00 0.  1.
    9000010    2    1    2  502    0 -0.77264361996E+03  0.24787229072E+03  0.10283241233E+04  0.16576626265E+04  0.10158622174E+04 0.  0.
   -9000010    2    1    2    0  501  0.77264361996E+03 -0.24787229072E+03  0.61979101025E+03  0.14308549038E+04  0.10023901553E+04 0.  0.
        -13    1    3    3    0    0 -0.44334631678E+03  0.29842781516E+03 -0.42589595290E+02  0.53612405491E+03  0.10566000000E+00 0.  1.
         13    1    4    4    0    0  0.73700223252E+03  0.24377927708E+03  0.25313657633E+03  0.81650398903E+03  0.10566000000E+00 0. -1.
          4    1    3    3  502    0 -0.32929730318E+03 -0.50555524435E+02  0.10709137186E+04  0.11215385716E+04  0.00000000000E+00 0.  1.
         -4    1    4    4    0  501  0.35641387444E+02 -0.49165156780E+03  0.36665443392E+03  0.61435091482E+03  0.00000000000E+00 0. -1.
</event>
<event>
 8    1  0.7446554E-006  0.1273400E+04  0.7818608E-02  0.8553249E-01
         -2   -1    0    0    0  501 -0.00000000000E+00  0.00000000000E+00  0.55339141461E+03  0.55339141461E+03  0.00000000000E+00 0.  1.
          2   -1    0    0  502    0  0.00000000000E+00 -0.00000000000E+00 -0.31319507946E+04  0.31319507946E+04  0.00000000000E+00 0. -1.
    9000010    2    1    2  502    0  0.16911388557E+03 -0.77341687086E+03 -0.17512049608E+04  0.21617324618E+04  0.98974504774E+03 0.  0.
   -9000010    2    1    2    0  501 -0.16911388557E+03  0.77341687086E+03 -0.82735441917E+03  0.15236097473E+04  0.10050363997E+04 0.  0.
        -13    1    3    3    0    0 -0.29201360656E+03 -0.67667694743E+03 -0.13700492796E+04  0.15556987746E+04  0.10566000000E+00 0.  1.
         13    1    4    4    0    0 -0.16794331269E+03  0.37697004153E+03 -0.10070559579E+04  0.10883350045E+04  0.10566000000E+00 0. -1.
          4    1    3    3  502    0  0.46112749214E+03 -0.96739923437E+02 -0.38115568120E+03  0.60603368727E+03  0.00000000000E+00 0.  1.
         -4    1    4    4    0  501 -0.11705728826E+01  0.39644682933E+03  0.17970153872E+03  0.43527474283E+03  0.00000000000E+00 0. -1.
</event>
<event>
 8    1  0.7446554E-006  0.1215621E+04  0.7818608E-02  0.8594892E-01
          1   -1    0    0  502    0  0.00000000000E+00  0.00000000000E+00  0.44851767763E+03  0.44851767763E+03  0.00000000000E+00 0.  1.
         -1   -1    0    0    0  501 -0.00000000000E+00 -0.00000000000E+00 -0.33576324029E+04  0.33576324029E+04  0.00000000000E+00 0. -1.
    9000010    2    1    2  502    0  0.58837524374E+03  0.39492487702E+03 -0.11794862920E+04  0.16844849481E+04  0.97167409226E+03 0.  0.
   -9000010    2    1    2    0  501 -0.58837524374E+03 -0.39492487702E+03 -0.17296284332E+04  0.21216651324E+04  0.10038412877E+04 0.  0.
        -13    1    3    3    0    0  0.39028674926E+03 -0.23215466055E+03 -0.81405305330E+03  0.93214908561E+03  0.10566000000E+00 0.  1.
         13    1    4    4    0    0  0.20677543415E+03 -0.36807475748E+03 -0.46955803714E+03  0.63144268835E+03  0.10566000000E+00 0. -1.
          4    1    3    3  502    0  0.19808849448E+03  0.62707953758E+03 -0.36543323869E+03  0.75233586252E+03  0.00000000000E+00 0.  1.
         -4    1    4    4    0  501 -0.79515067789E+03 -0.26850119543E+02 -0.12600703961E+04  0.14902224440E+04  0.00000000000E+00 0. -1.
</event>
<event>
 8    1  0.7446554E-006  0.1370204E+04  0.7818608E-02  0.8488352E-01
          1   -1    0    0  502    0  0.00000000000E+00  0.00000000000E+00  0.30834104735E+04  0.30834104735E+04  0.00000000000E+00 0.  1.
         -1   -1    0    0    0  501 -0.00000000000E+00 -0.00000000000E+00 -0.60905148805E+03  0.60905148805E+03  0.00000000000E+00 0. -1.
    9000010    2    1    2  502    0 -0.37525636207E+03  0.85796221780E+03  0.12100509584E+04  0.18302374947E+04  0.10043054618E+04 0.  0.
   -9000010    2    1    2    0  501  0.37525636207E+03 -0.85796221780E+03  0.12643080271E+04  0.18622244669E+04  0.99623725753E+03 0.  0.
        -13    1    3    3    0    0 -0.45755377232E+03  0.36945749628E+03  0.76351652560E+02  0.59302941085E+03  0.10566000000E+00 0.  1.
         13    1    4    4    0    0  0.45510462288E+03 -0.10256770481E+03  0.10820161036E+03  0.47890286227E+03  0.10566000000E+00 0. -1.
          4    1    3    3  502    0  0.82297410252E+02  0.48850472152E+03  0.11336993058E+04  0.12372080838E+04  0.00000000000E+00 0.  1.
         -4    1    4    4    0  501 -0.79848260811E+02 -0.75539451299E+03  0.11561064168E+04  0.13833216046E+04  0.00000000000E+00 0. -1.
</event>
<event>
 7    1  0.7446554E-006  0.2267181E+04  0.7818608E-02  0.8067538E-01
          1   -1    0    0  502    0  0.00000000000E+00  0.00000000000E+00  0.20228119691E+04  0.20228119691E+04  0.00000000000E+00 0. -1.
         -1   -1    0    0    0  501 -0.00000000000E+00 -0.00000000000E+00 -0.29254012783E+04  0.29254012783E+04  0.00000000000E+00 0.  1.
    9000010    2    1    2  502    0  0.13251252874E+04  0.14091906545E+04 -0.13268578017E+04  0.25502301424E+04  0.10006731861E+04 0.  0.
        -13    1    3    3    0    0  0.13723286155E+04  0.14340187587E+04 -0.14216444207E+04  0.24414685128E+04  0.10566000000E+00 0.  1.
         13    1    1    2    0    0 -0.14269402607E+04 -0.15850708455E+04  0.48237093832E+03  0.21866160674E+04  0.10566000000E+00 0. -1.
          4    1    3    3  502    0 -0.47203328054E+02 -0.24828104203E+02  0.94786618974E+02  0.10876162960E+03  0.00000000000E+00 0.  1.
         -4    1    1    2    0  501  0.10181497328E+03  0.17588019102E+03 -0.58102445746E+02  0.21136703759E+03  0.00000000000E+00 0. -1.
</event>
<event>
 8    1  0.7446554E-006  0.1160378E+04  0.7818608E-02  0.8637011E-01
         -1   -1    0    0    0  501 -0.00000000000E+00  0.00000000000E+00  0.12975747295E+04  0.12975747295E+04  0.00000000000E+00 0. -1.
          1   -1    0    0  502    0  0.00000000000E+00 -0.00000000000E+00 -0.10418827096E+04  0.10418827096E+04  0.00000000000E+00 0.  1.
    9000010    2    1    2  502    0  0.30798440333E+03 -0.47307078696E+03  0.57113260414E+02  0.11777559189E+04  0.10320836777E+04 0.  0.
   -9000010    2    1    2    0  501 -0.30798440333E+03  0.47307078696E+03  0.19857875950E+03  0.11617015202E+04  0.99572412650E+03 0.  0.
        -13    1    3    3    0    0  0.65082917583E+02 -0.78090466833E+03  0.56257836190E+02  0.78562894707E+03  0.10566000000E+00 0.  1.
         13    1    4    4    0    0 -0.14831105382E+03 -0.28362469281E+03  0.21943717048E+03  0.38806161625E+03  0.10566000000E+00 0. -1.
          4    1    3    3  502    0  0.24290148575E+03  0.30783388137E+03  0.85542422406E+00  0.39212697185E+03  0.00000000000E+00 0.  1.
         -4    1    4    4    0  501 -0.15967334952E+03  0.75669547977E+03 -0.20858410987E+02  0.77363990393E+03  0.00000000000E+00 0. -1.
</event>
<event>
 8    1  0.7446554E-006  0.2178817E+04  0.7818608E-02  0.8099238E-01
          2   -1    0    0  502    0  0.00000000000E+00  0.00000000000E+00  0.18576900409E+04  0.18576900409E+04  0.00000000000E+00 0.  1.
         -2   -1    0    0    0  501 -0.00000000000E+00 -0.00000000000E+00 -0.39674339961E+04  0.39674339961E+04  0.00000000000E+00 0. -1.
    9000010    2    1    2  502    0  0.92129623125E+03  0.17110145438E+04 -0.27907400607E+04  0.35372839844E+04  0.97354526607E+03 0.  0.
   -9000010    2    1    2    0  501 -0.92129623125E+03 -0.17110145438E+04  0.68099610552E+03  0.22878400527E+04  0.99704508230E+03 0.  0.
        -13    1    3    3    0    0  0.97648958808E+03  0.85035226820E+03 -0.14594655312E+04  0.19510690771E+04  0.10566000000E+00 0.  1.
         13    1    4    4    0    0 -0.30175901895E+03 -0.81755252380E+02 -0.16144253968E+03  0.35186095491E+03  0.10566000000E+00 0. -1.
          4    1    3    3  502    0 -0.55193356826E+02  0.86066227559E+03 -0.13312745295E+04  0.15862149073E+04  0.00000000000E+00 0.  1.
         -4    1    4    4    0  501 -0.61953721230E+03 -0.16292592914E+04  0.84243864520E+03  0.19359790978E+04  0.00000000000E+00 0. -1.
</event>
<event>
 8    1  0.7446554E-006  0.1231266E+04  0.7818608E-02  0.8583383E-01
         -2   -1    0    0    0  501 -0.00000000000E+00  0.00000000000E+00  0.11335717594E+04  0.11335717594E+04  0.00000000000E+00 0.  1.
          2   -1    0    0  502    0  0.00000000000E+00 -0.00000000000E+00 -0.13692574358E+04  0.13692574358E+04  0.00000000000E+00 0. -1.
    9000010    2    1    2  502    0 -0.33477798212E+03 -0.64837999843E+03 -0.30945599207E+03  0.12794688700E+04  0.10043926814E+04 0.  0.
   -9000010    2    1    2    0  501  0.33477798212E+03  0.64837999843E+03  0.73770315640E+02  0.12233603252E+04  0.97912997410E+03 0.  0.
        -13    1    3    3    0    0 -0.55315639029E+03 -0.35975835853E+03  0.16745770347E+03  0.68077174021E+03  0.10566000000E+00 0.  1.
         13    1    4    4    0    0 -0.22939378904E+03  0.56289470835E+03  0.19819976523E+03  0.63933959774E+03  0.10566000000E+00 0. -1.
          4    1    3    3  502    0  0.21837840816E+03 -0.28862163989E+03 -0.47691369554E+03  0.59869712975E+03  0.00000000000E+00 0.  1.
         -4    1    4    4    0  501  0.56417177116E+03  0.85485290079E+02 -0.12442944960E+03  0.58402072748E+03  0.00000000000E+00 0. -1.
</event>
<event>
 8    1  0.7446554E-006  0.2032505E+04  0.7818608E-02  0.8155285E-01
         -2   -1    0    0    0  501 -0.00000000000E+00  0.00000000000E+00  0.36786708148E+04  0.36786708148E+04  0.00000000000E+00 0. -1.
          2   -1    0    0  502    0  0.00000000000E+00 -0.00000000000E+00 -0.14989194549E+04  0.14989194549E+04  0.00000000000E+00 0.  1.
    9000010    2    1    2  502    0  0.16667829400E+04 -0.62416140756E+03  0.23803244120E+04  0.31205250007E+04  0.95078343584E+03 0.  0.
   -9000010    2    1    2    0  501 -0.16667829400E+04  0.62416140756E+03 -0.20057305208E+03  0.20570652690E+04  0.10117040774E+04 0.  0.
        -13    1    3    3    0    0  0.10350189597E+04 -0.44198071943E+03  0.72331729149E+03  0.13378337410E+04  0.10566000000E+00 0.  1.
         13    1    4    4    0    0 -0.44002705780E+03  0.48722671730E+03 -0.45236016708E+03  0.79727248640E+03  0.10566000000E+00 0. -1.
          4    1    3    3  502    0  0.63176398029E+03 -0.18218068813E+03  0.16570071205E+04  0.17826912596E+04  0.00000000000E+00 0.  1.
         -4    1    4    4    0  501 -0.12267558822E+04  0.13693469026E+03  0.25178711500E+03  0.12597927826E+04  0.00000000000E+00 0. -1.
</event>
<event>
 8    1  0.7446554E-006  0.9899537E+03  0.7818608E-02  0.8784088E-01
          2   -1    0    0  502    0  0.00000000000E+00  0.00000000000E+00  0.25754602316E+04  0.25754602316E+04  0.00000000000E+00 0.  1.
         -2   -1    0    0    0  501 -0.00000000000E+00 -0.00000000000E+00 -0.39672501665E+03  0.39672501665E+03  0.00000000000E+00 0. -1.
    9000010    2    1    2  502    0 -0.34088572482E+03  0.95097596213E+02  0.14431605433E+04  0.17898962816E+04  0.99788261583E+03 0.  0.
   -9000010    2    1    2    0  501  0.34088572482E+03 -0.95097596213E+02  0.73557467174E+03  0.11822889667E+04  0.85527216308E+03 0.  0.
        -13    1    3    3    0    0 -0.37739228276E+03  0.17847963513E+03  0.81689459520E+02  0.42538581805E+03  0.10566000000E+00 0.  1.
         13    1    4    4    0    0 -0.28835259211E+03 -0.38511793320E+01  0.26009581908E+03  0.38834507235E+03  0.10566000000E+00 0. -1.
          4    1    3    3  502    0  0.36506557937E+02 -0.83382038921E+02  0.13614710837E+04  0.13645104635E+04  0.00000000000E+00 0.  1.
         -4    1    4    4    0  501  0.62923831693E+03 -0.91246416881E+02  0.47547885266E+03  0.79394389437E+03  0.00000000000E+00 0. -1.
</event>
<event>
 8    1  0.7446554E-006  0.1237439E+04  0.7818608E-02  0.8578891E-01
         -2   -1    0    0    0  501 -0.00000000000E+00  0.00000000000E+00  0.90215284031E+03  0.90215284031E+03  0.00000000000E+00 0.  1.
          2   -1    0    0  502    0  0.00000000000E+00 -0.00000000000E+00 -0.17009982656E+04  0.17009982656E+04  0.00000000000E+00 0. -1.
    9000010    2    1    2  502    0  0.45546600709E+03  0.37122869085E+03 -0.34259810684E+03  0.12468761491E+04  0.10450199252E+04 0.  0.
   -9000010    2    1    2    0  501 -0.45546600709E+03 -0.37122869085E+03 -0.45624731846E+03  0.13562749568E+04  0.11340459066E+04 0.  0.
        -13    1    3    3    0    0 -0.26779442311E+03  0.33183417031E+03  0.38965242710E+02  0.42818929334E+03  0.10566000000E+00 0.  1.
         13    1    4    4    0    0 -0.70163669883E+03 -0.60007813719E+03 -0.23113515053E+03  0.95174119216E+03  0.10566000000E+00 0. -1.
          4    1    3    3  502    0  0.72326043020E+03  0.39394520540E+02 -0.38156334955E+03  0.81868685580E+03  0.00000000000E+00 0.  1.
         -4    1    4    4    0  501  0.24617069174E+03  0.22884944634E+03 -0.22511216793E+03  0.40453376461E+03  0.00000000000E+00 0. -1.
</event>
<event>
 8    1  0.7446554E-006  0.1122018E+04  0.7818608E-02  0.8667718E-01
          2   -1    0    0  502    0  0.00000000000E+00  0.00000000000E+00  0.15381948446E+04  0.15381948446E+04  0.00000000000E+00 0.  1.
         -2   -1    0    0    0  501 -0.00000000000E+00 -0.00000000000E+00 -0.95594089830E+03  0.95594089830E+03  0.00000000000E+00 0. -1.
    9000010    2    1    2  502    0  0.30461716148E+03  0.34287434966E+03 -0.17772146202E+03  0.11527859862E+04  0.10425814966E+04 0.  0.
   -9000010    2    1    2    0  501 -0.30461716148E+03 -0.34287434966E+03  0.75997540832E+03  0.13413497567E+04  0.10056351793E+04 0.  0.
        -13    1    3    3    0    0  0.44868180317E+03  0.47957066545E+03 -0.46418071481E+03  0.80421833529E+03  0.10566000000E+00 0.  1.
         13    1    4    4    0    0 -0.10593255216E+03 -0.32607449425E+03  0.98365899577E+03  0.10416963629E+04  0.10566000000E+00 0. -1.
          4    1    3    3  502    0 -0.14406464169E+03 -0.13669631579E+03  0.28645925279E+03  0.34856765089E+03  0.00000000000E+00 0.  1.
         -4    1    4    4    0  501 -0.19868460932E+03 -0.16799855404E+02 -0.22368358745E+03  0.29965339380E+03  0.00000000000E+00 0. -1.
</event>
<event>
 8    1  0.7446554E-006  0.1072553E+04  0.7818608E-02  0.8709257E-01
          1   -1    0    0  502    0  0.00000000000E+00  0.00000000000E+00  0.13089916001E+04  0.13089916001E+04  0.00000000000E+00 0.  1.
         -1   -1    0    0    0  501 -0.00000000000E+00 -0.00000000000E+00 -0.88584552573E+03  0.88584552573E+03  0.00000000000E+00 0. -1.
    9000010    2    1    2  502    0  0.11584845680E+03 -0.47064866895E+03  0.28362539625E+03  0.10606900183E+04  0.89982715837E+03 0.  0.
   -9000010    2    1    2    0  501 -0.11584845680E+03  0.47064866895E+03  0.13952067812E+03  0.11341471076E+04  0.10158211493E+04 0.  0.
        -13    1    3    3    0    0 -0.10370437190E+03 -0.13960790047E+03 -0.30468844787E+03  0.35082762727E+03  0.10566000000E+00 0.  1.
         13    1    4    4    0    0  0.30119494337E+03 -0.10640135952E+03  0.26021868069E+03  0.41201142723E+03  0.10566000000E+00 0. -1.
          4    1    3    3  502    0  0.21955282870E+03 -0.33104076848E+03  0.58831384412E+03  0.70986239100E+03  0.00000000000E+00 0.  1.
         -4    1    4    4    0  501 -0.41704340017E+03  0.57705002847E+03 -0.12069800257E+03  0.72213568033E+03  0.00000000000E+00 0. -1.
</event>
<event>
 8    1  0.7446554E-006  0.1047229E+04  0.7818608E-02  0.8731438E-01
         -2   -1    0    0    0  501 -0.00000000000E+00  0.00000000000E+00  0.81786086565E+03  0.81786086565E+03  0.00000000000E+00 0.  1.
          2   -1    0    0  502    0  0.00000000000E+00 -0.00000000000E+00 -0.16230218038E+04  0.16230218038E+04  0.00000000000E+00 0. -1.
    9000010    2    1    2  502    0  0.16393786714E+03  0.39540837735E+03  0.11769926862E+03  0.10110603634E+04  0.90838677416E+03 0.  0.
   -9000010    2    1    2    0  501 -0.16393786714E+03 -0.39540837735E+03 -0.92286020675E+03  0.14298223060E+04  0.10047375062E+04 0.  0.
        -13    1    3    3    0    0 -0.69666609053E+02 -0.25917618807E+03  0.16396962060E+03  0.31450243326E+03  0.10566000000E+00 0.  1.
         13    1    4    4    0    0  0.15191057577E+02 -0.63332997255E+03 -0.22707394447E+03  0.67297861020E+03  0.10566000000E+00 0. -1.
          4    1    3    3  502    0  0.23360447619E+03  0.65458456542E+03 -0.46270351980E+02  0.69655793015E+03  0.00000000000E+00 0.  1.
         -4    1    4    4    0  501 -0.17912892472E+03  0.23792159520E+03 -0.69578626228E+03  0.75684369583E+03  0.00000000000E+00 0. -1.
</event>
<event>
 8    1  0.7446554E-006  0.1338226E+04  0.7818608E-02  0.8509162E-01
          1   -1    0    0  502    0  0.00000000000E+00  0.00000000000E+00  0.14017765204E+04  0.14017765204E+04  0.00000000000E+00 0.  1.
         -1   -1    0    0    0  501 -0.00000000000E+00 -0.00000000000E+00 -0.13277224745E+04  0.13277224745E+04  0.00000000000E+00 0. -1.
    9000010    2    1    2  502    0 -0.89994320393E+03  0.20060745851E+02  0.30222356810E+03  0.13694108163E+04  0.98673537223E+03 0.  0.
   -9000010    2    1    2    0  501  0.89994320393E+03 -0.20060745851E+02 -0.22816952217E+03  0.13600881786E+04  0.99371943674E+03 0.  0.
        -13    1    3    3    0    0 -0.51875653921E+02 -0.35342117102E+03  0.25995025286E+03  0.44178247218E+03  0.10566000000E+00 0.  1.
         13    1    4    4    0    0  0.81364580633E+03  0.33779433048E+03 -0.38313591002E+03  0.96068602809E+03  0.10566000000E+00 0. -1.
          4    1    3    3  502    0 -0.84806755000E+03  0.37348191687E+03  0.42273315239E+02  0.92762834410E+03  0.00000000000E+00 0.  1.
         -4    1    4    4    0  501  0.86297397600E+02 -0.35785507633E+03  0.15496638785E+03  0.39940215053E+03  0.00000000000E+00 0. -1.
</event>
<event>
 8    1  0.7446554E-006  0.1270260E+04  0.7818608E-02  0.8555453E-01
          1   -1    0    0  502    0  0.00000000000E+00  0.00000000000E+00  0.16406844482E+04  0.16406844482E+04  0.00000000000E+00 0.  1.
         -1   -1    0    0    0  501 -0.00000000000E+00 -0.00000000000E+00 -0.11571209353E+04  0.11571209353E+04  0.00000000000E+00 0. -1.
    9000010    2    1    2  502    0  0.71000611840E+03  0.32345066586E+03 -0.30235323548E+03  0.12910291621E+04  0.98316315881E+03 0.  0.
   -9000010    2    1    2    0  501 -0.71000611840E+03 -0.32345066586E+03  0.78591674833E+03  0.15067762214E+04  0.10217536028E+04 0.  0.
        -13    1    3    3    0    0  0.58824230832E+03  0.62380717769E+03 -0.40881548066E+03  0.94989184470E+03  0.10566000000E+00 0.  1.
         13    1    4    4    0    0 -0.23040864895E+03 -0.62618052715E+03  0.21246527650E+03  0.70023689061E+03  0.10566000000E+00 0. -1.
          4    1    3    3  502    0  0.12176381008E+03 -0.30035651182E+03  0.10646224518E+03  0.34113731735E+03  0.00000000000E+00 0.  1.
         -4    1    4    4    0  501 -0.47959746945E+03  0.30272986129E+03  0.57345147183E+03  0.80653933083E+03  0.00000000000E+00 0. -1.
</event>
<event>
 8    1  0.7446554E-006  0.1186206E+04  0.7818608E-02  0.8617023E-01
         -2   -1    0    0    0  501 -0.00000000000E+00  0.00000000000E+00  0.54370702651E+03  0.54370702651E+03  0.00000000000E+00 0.  1.
          2   -1    0    0  502    0  0.00000000000E+00 -0.00000000000E+00 -0.25881548771E+04  0.25881548771E+04  0.00000000000E+00 0. -1.
    9000010    2    1    2  502    0 -0.12903189890E+03 -0.63440758326E+03 -0.10085566062E+04  0.15573395755E+04  0.99448374184E+03 0.  0.
   -9000010    2    1    2    0  501  0.12903189890E+03  0.63440758326E+03 -0.10358912444E+04  0.15745223281E+04  0.99344233802E+03 0.  0.
        -13    1    3    3    0    0  0.42543312283E+03 -0.40007595230E+03 -0.47001420630E+03  0.74964489920E+03  0.10566000000E+00 0.  1.
         13    1    4    4    0    0  0.15200057147E+03  0.82255155907E+03 -0.10931968000E+04  0.13765080805E+04  0.10566000000E+00 0. -1.
          4    1    3    3  502    0 -0.55446502172E+03 -0.23433163096E+03 -0.53854239990E+03  0.80769467627E+03  0.00000000000E+00 0.  1.
         -4    1    4    4    0  501 -0.22968672571E+02 -0.18814397581E+03  0.57305555623E+02  0.19801424761E+03  0.00000000000E+00 0. -1.
</event>
<event>
 8    1  0.7446554E-006  0.1148891E+04  0.7818608E-02  0.8646076E-01
         -1   -1    0    0    0  501 -0.00000000000E+00  0.00000000000E+00  0.74510045191E+03  0.74510045191E+03  0.00000000000E+00 0. -1.
          1   -1    0    0  502    0  0.00000000000E+00 -0.00000000000E+00 -0.24456149595E+04  0.24456149595E+04  0.00000000000E+00 0.  1.
    9000010    2    1    2  502    0  0.56379808238E+03  0.14665958310E+03 -0.16809469496E+04  0.20290410661E+04  0.97572931177E+03 0.  0.
   -9000010    2    1    2    0  501 -0.56379808238E+03 -0.14665958310E+03 -0.19567558032E+02  0.11616743453E+04  0.10048517722E+04 0.  0.
        -13    1    3    3    0    0  0.51852828699E+03  0.44098659386E+03 -0.15700813989E+04  0.17112850057E+04  0.10566000000E+00 0.  1.
         13    1    4    4    0    0  0.22589581687E+03  0.14080447754E+03  0.14826378025E+03  0.30469161569E+03  0.10566000000E+00 0. -1.
          4    1    3    3  502    0  0.45269795386E+02 -0.29432701076E+03 -0.11086555068E+03  0.31775606047E+03  0.00000000000E+00 0.  1.
         -4    1    4    4    0  501 -0.78969389925E+03 -0.28746406065E+03 -0.16783133829E+03  0.85698272957E+03  0.00000000000E+00 0. -1.
</event>
<event>
 8    1  0.7446554E-006  0.1356366E+04  0.7818608E-02  0.8497285E-01
          1   -1    0    0  502    0  0.00000000000E+00  0.00000000000E+00  0.17450774137E+04  0.17450774137E+04  0.00000000000E+00 0. -1.
         -1   -1    0    0    0  501 -0.00000000000E+00 -0.00000000000E+00 -0.11328663325E+04  0.11328663325E+04  0.00000000000E+00 0.  1.
    9000010    2    1    2  502    0 -0.16044242124E+03  0.90775665719E+03  0.68566843396E+03  0.15218360980E+04  0.99803806976E+03 0.  0.
   -9000010    2    1    2    0  501  0.16044242124E+03 -0.90775665719E+03 -0.73457352818E+02  0.13561076482E+04  0.99190123077E+03 0.  0.
        -13    1    3    3    0    0  0.39925784090E+03  0.58545564706E+03  0.41775272216E+03  0.82260712751E+03  0.10566000000E+00 0.  1.
         13    1    4    4    0    0  0.11106195608E+03 -0.51869912706E+03 -0.53299305918E+03  0.75197417163E+03  0.10566000000E+00 0. -1.
          4    1    3    3  502    0 -0.55970026214E+03  0.32230101013E+03  0.26791571181E+03  0.69922897051E+03  0.00000000000E+00 0.  1.
         -4    1    4    4    0  501  0.49380465163E+02 -0.38905753014E+03  0.45953570636E+03  0.60413347657E+03  0.00000000000E+00 0. -1.
</event>
<event>
 8    1  0.7446554E-006  0.1164696E+04  0.7818608E-02  0.8633632E-01
         -1   -1    0    0    0  501 -0.00000000000E+00  0.00000000000E+00  0.62781035493E+03  0.62781035493E+03  0.00000000000E+00 0.  1.
          1   -1    0    0  502    0  0.00000000000E+00 -0.00000000000E+00 -0.22600476136E+04  0.22600476136E+04  0.00000000000E+00 0. -1.
    9000010    2    1    2  502    0  0.50379933399E+03 -0.34213800402E+03 -0.11208533078E+04  0.16186212374E+04  0.99636860146E+03 0.  0.
   -9000010    2    1    2    0  501 -0.50379933399E+03  0.34213800402E+03 -0.51138395090E+03  0.12692367311E+04  0.98923008022E+03 0.  0.
        -13    1    3    3    0    0  0.73114565784E+03 -0.34765527439E+03 -0.48599582292E+03  0.94426167657E+03  0.10566000000E+00 0.  1.
         13    1    4    4    0    0 -0.46366360893E+03 -0.24861089067E+03 -0.41334799080E+03  0.66906493696E+03  0.10566000000E+00 0. -1.
          4    1    3    3  502    0 -0.22734632385E+03  0.55172703620E+01 -0.63485748487E+03  0.67435956087E+03  0.00000000000E+00 0.  1.
         -4    1    4    4    0  501 -0.40135725064E+02  0.59074889470E+03 -0.98035960094E+02  0.60017179414E+03  0.00000000000E+00 0. -1.
</event>
<event>
 8    1  0.7446554E-006  0.1182627E+04  0.7818608E-02  0.8619761E-01
          2   -1    0    0  502    0  0.00000000000E+00  0.00000000000E+00  0.28133139965E+04  0.28133139965E+04  0.00000000000E+00 0.  1.
         -2   -1    0    0    0  501 -0.00000000000E+00 -0.00000000000E+00 -0.50551869386E+03  0.50551869386E+03  0.00000000000E+00 0. -1.
    9000010    2    1    2  502    0  0.53228922530E+03  0.24243537885E+03  0.91078831652E+03  0.14635999143E+04  0.98513076249E+03 0.  0.
   -9000010    2    1    2    0  501 -0.53228922530E+03 -0.24243537885E+03  0.13970069862E+04  0.18552327761E+04  0.10715192028E+04 0.  0.
        -13    1    3    3    0    0 -0.11360376724E+03  0.35658698161E+03  0.66515545645E+03  0.76321155900E+03  0.10566000000E+00 0.  1.
         13    1    4    4    0    0  0.27858605631E+03 -0.22595094781E+03  0.20401156427E+03  0.41265572952E+03  0.10566000000E+00 0. -1.
          4    1    3    3  502    0  0.64589299254E+03 -0.11415160276E+03  0.24563286007E+03  0.70038835526E+03  0.00000000000E+00 0.  1.
         -4    1    4    4    0  501 -0.81087528162E+03 -0.16484431042E+02  0.11929954219E+04  0.14425770466E+04  0.00000000000E+00 0. -1.
</event>
<event>
 8    1  0.7446554E-006  0.1243425E+04  0.7818608E-02  0.8574561E-01
          2   -1    0    0  502    0  0.00000000000E+00  0.00000000000E+00  0.10259196618E+04  0.10259196618E+04  0.00000000000E+00 0. -1.
         -2   -1    0    0    0  501 -0.00000000000E+00 -0.00000000000E+00 -0.15095157281E+04  0.15095157281E+04  0.00000000000E+00 0.  1.
    9000010    2    1    2  502    0  0.61067818751E+03  0.49027526766E+03 -0.28807843734E+03  0.13072365668E+04  0.10062706240E+04 0.  0.
   -9000010    2    1    2    0  501 -0.61067818751E+03 -0.49027526766E+03 -0.19551762905E+03  0.12281988231E+04  0.92571459917E+03 0.  0.
        -13    1    3    3    0    0 -0.19839127341E+03  0.37023478466E+03 -0.24917411301E+03  0.48838575215E+03  0.10566000000E+00 0.  1.
         13    1    4    4    0    0 -0.38017120601E+03  0.23720411593E+03 -0.99936710285E+02  0.45911141972E+03  0.10566000000E+00 0. -1.
          4    1    3    3  502    0  0.80906946092E+03  0.12004048299E+03 -0.38904324323E+02  0.81885081462E+03  0.00000000000E+00 0.  1.
         -4    1    4    4    0  501 -0.23050698150E+03 -0.72747938359E+03 -0.95580918767E+02  0.76908740342E+03  0.00000000000E+00 0. -1.
</event>
<event>
 8    1  0.7446554E-006  0.1313810E+04  0.7818608E-02  0.8525459E-01
         -2   -1    0    0    0  501 -0.00000000000E+00  0.00000000000E+00  0.17293221553E+04  0.17293221553E+04  0.00000000000E+00 0.  1.
          2   -1    0    0  502    0  0.00000000000E+00 -0.00000000000E+00 -0.13591242640E+04  0.13591242640E+04  0.00000000000E+00 0. -1.
    9000010    2    1    2  502    0  0.84612704002E+03 -0.36919322615E+02  0.98112689019E+03  0.16411769290E+04  0.10067560446E+04 0.  0.
   -9000010    2    1    2    0  501 -0.84612704002E+03  0.36919322615E+02 -0.61092899889E+03  0.14472694904E+04  0.10020283089E+04 0.  0.
        -13    1    3    3    0    0 -0.79823007365E+02  0.25904755377E+03  0.47081252784E+03  0.54326954189E+03  0.10566000000E+00 0.  1.
         13    1    4    4    0    0 -0.33585342716E+03  0.47554433601E+03 -0.49562119944E+03  0.76457852739E+03  0.10566000000E+00 0. -1.
          4    1    3    3  502    0  0.92595004739E+03 -0.29596687638E+03  0.51031436236E+03  0.10979073871E+04  0.00000000000E+00 0.  1.
         -4    1    4    4    0  501 -0.51027361286E+03 -0.43862501339E+03 -0.11530779945E+03  0.68269096301E+03  0.00000000000E+00 0. -1.
</event>
<event>
 8    1  0.7446554E-006  0.1419601E+04  0.7818608E-02  0.8457326E-01
         -4   -1    0    0    0  501 -0.00000000000E+00  0.00000000000E+00  0.26505717486E+04  0.26505717486E+04  0.00000000000E+00 0.  1.
          4   -1    0    0  502    0  0.00000000000E+00 -0.00000000000E+00 -0.76086150832E+03  0.76086150832E+03  0.00000000000E+00 0. -1.
    9000010    2    1    2  502    0  0.98810058334E+03  0.23641505819E+03  0.90270859688E+03  0.16864173111E+04  0.99844163270E+03 0.  0.
   -9000010    2    1    2    0  501 -0.98810058334E+03 -0.23641505819E+03  0.98700164340E+03  0.17250159458E+04  0.98451659537E+03 0.  0.
        -13    1    3    3    0    0  0.13580240649E+03 -0.33139167145E+03  0.42670895166E+03  0.55708462024E+03  0.10566000000E+00 0.  1.
         13    1    4    4    0    0 -0.11214509083E+04 -0.12998055253E+03  0.54983262458E+03  0.12557320614E+04  0.10566000000E+00 0. -1.
          4    1    3    3  502    0  0.85229817685E+03  0.56780672964E+03  0.47599964523E+03  0.11293326909E+04  0.00000000000E+00 0.  1.
         -4    1    4    4    0  501  0.13335032493E+03 -0.10643450566E+03  0.43716901882E+03  0.46928388441E+03  0.00000000000E+00 0. -1.
</event>
<event>
 8    1  0.7446554E-006  0.1278170E+04  0.7818608E-02  0.8549914E-01
          2   -1    0    0  502    0  0.00000000000E+00  0.00000000000E+00  0.18916893616E+04  0.18916893616E+04  0.00000000000E+00 0. -1.
         -2   -1    0    0    0  501 -0.00000000000E+00 -0.00000000000E+00 -0.90377037682E+03  0.90377037682E+03  0.00000000000E+00 0.  1.
    9000010    2    1    2  502    0  0.58925175012E+03 -0.32814860206E+03  0.74622461904E+03  0.14142459006E+04  0.99415348684E+03 0.  0.
   -9000010    2    1    2    0  501 -0.58925175012E+03  0.32814860206E+03  0.24169436572E+03  0.13812138377E+04  0.11808625530E+04 0.  0.
        -13    1    3    3    0    0 -0.10920088456E+03 -0.19986859861E+03  0.66085181607E+03  0.69899744196E+03  0.10566000000E+00 0.  1.
         13    1    4    4    0    0 -0.30246889628E+03 -0.43936701327E+02 -0.45065795326E+03  0.54452774855E+03  0.10566000000E+00 0. -1.
          4    1    3    3  502    0  0.69845263468E+03 -0.12828000345E+03  0.85372802971E+02  0.71524845869E+03  0.00000000000E+00 0.  1.
         -4    1    4    4    0  501 -0.28678285384E+03  0.37208530339E+03  0.69235231898E+03  0.83668608920E+03  0.00000000000E+00 0. -1.
</event>
<event>
 8    1  0.7446554E-006  0.1580992E+04  0.7818608E-02  0.8364355E-01
          2   -1    0    0  502    0  0.00000000000E+00  0.00000000000E+00  0.19000633416E+04  0.19000633416E+04  0.00000000000E+00 0.  1.
         -2   -1    0    0    0  501 -0.00000000000E+00 -0.00000000000E+00 -0.14285925514E+04  0.14285925514E+04  0.00000000000E+00 0. -1.
    9000010    2    1    2  502    0  0.12500390156E+04  0.82258758242E+02  0.70022558431E+03  0.17082495022E+04  0.92651845584E+03 0.  0.
   -9000010    2    1    2    0  501 -0.12500390156E+04 -0.82258758242E+02 -0.22875479416E+03  0.16204063908E+04  0.10020100158E+04 0.  0.
        -13    1    3    3    0    0  0.65213857988E+03  0.36868592361E+03  0.72813067063E+03  0.10446953251E+04  0.10566000000E+00 0.  1.
         13    1    4    4    0    0 -0.12229740408E+04  0.24401970796E+03 -0.30587992165E+03  0.12840458169E+04  0.10566000000E+00 0. -1.
          4    1    3    3  502    0  0.59790043571E+03 -0.28642716537E+03 -0.27905086315E+02  0.66355417708E+03  0.00000000000E+00 0.  1.
         -4    1    4    4    0  501 -0.27064974802E+02 -0.32627846620E+03  0.77125127489E+02  0.33636057387E+03  0.00000000000E+00 0. -1.
</event>
<event>
 7    1  0.7446554E-006  0.1000267E+04  0.7818608E-02  0.8774340E-01
         -2   -1    0    0    0  501 -0.00000000000E+00  0.00000000000E+00  0.39072046579E+03  0.39072046579E+03  0.00000000000E+00 0.  1.
          2   -1    0    0  502    0  0.00000000000E+00 -0.00000000000E+00 -0.26644515872E+04  0.26644515872E+04  0.00000000000E+00 0. -1.
   -9000010    2    1    2    0  501 -0.42133806077E+03  0.40760728547E+03 -0.15017465709E+04  0.18979619583E+04  0.10016722874E+04 0.  0.
        -13    1    1    2    0    0  0.37945142267E+03 -0.56146353398E+03 -0.72175980329E+03  0.99003126564E+03  0.10566000000E+00 0.  1.
         13    1    3    3    0    0  0.31403500239E+03  0.24427045676E+03 -0.63792329916E+03  0.75181925058E+03  0.10566000000E+00 0. -1.
          4    1    1    2  502    0  0.41886638104E+02  0.15385624850E+03 -0.50224747229E+02  0.16717882907E+03  0.00000000000E+00 0.  1.
         -4    1    3    3    0  501 -0.73537306316E+03  0.16333682872E+03 -0.86382327176E+03  0.11461427077E+04  0.00000000000E+00 0. -1.
</event>
<event>
 7    1  0.7446554E-006  0.9081722E+03  0.7818608E-02  0.8866012E-01
         -1   -1    0    0    0  501 -0.00000000000E+00  0.00000000000E+00  0.11980598488E+04  0.11980598488E+04  0.00000000000E+00 0.  1.
          1   -1    0    0  502    0  0.00000000000E+00 -0.00000000000E+00 -0.70454362976E+03  0.70454362976E+03  0.00000000000E+00 0. -1.
    9000010    2    1    2  502    0 -0.35611139995E+03  0.52308514105E+02  0.29734823889E+03  0.10980098242E+04  0.99380988582E+03 0.  0.
        -13    1    3    3    0    0 -0.19441464263E+03  0.50204918009E+02  0.66591447495E+03  0.69552835038E+03  0.10566000000E+00 0.  1.
         13    1    1    2    0    0  0.28496415462E+03 -0.94691492028E+02 -0.22508409008E+03  0.37527843910E+03  0.10566000000E+00 0. -1.
          4    1    3    3  502    0 -0.16169675732E+03  0.21035960960E+01 -0.36856623606E+03  0.40248147387E+03  0.00000000000E+00 0.  1.
         -4    1    1    2    0  501  0.71147245330E+02  0.42382977923E+02  0.42125207028E+03  0.42931521525E+03  0.00000000000E+00 0. -1.
</event>
<event>
 8    1  0.7446554E-006  0.1051735E+04  0.7818608E-02  0.8727444E-01
          2   -1    0    0  502    0  0.00000000000E+00  0.00000000000E+00  0.14349053089E+04  0.14349053089E+04  0.00000000000E+00 0. -1.
         -2   -1    0    0    0  501 -0.00000000000E+00 -0.00000000000E+00 -0.78190988470E+03  0.78190988470E+03  0.00000000000E+00 0.  1.
    9000010    2    1    2  502    0 -0.15411881000E+03 -0.29448150595E+03  0.20109320904E+03  0.10871482233E+04  0.10153722548E+04 0.  0.
   -9000010    2    1    2    0  501  0.15411881000E+03  0.29448150595E+03  0.45190221514E+03  0.11296669702E+04  0.98054060939E+03 0.  0.
        -13    1    3    3    0    0 -0.91952172590E+02  0.13990074035E+03  0.51896762936E+03  0.54530251300E+03  0.10566000000E+00 0.  1.
         13    1    4    4    0    0  0.44860107637E+02  0.63685231013E+03  0.42976391888E+03  0.76960400942E+03  0.10566000000E+00 0. -1.
          4    1    3    3  502    0 -0.62166637415E+02 -0.43438224630E+03 -0.31787442032E+03  0.54184571033E+03  0.00000000000E+00 0.  1.
         -4    1    4    4    0  501  0.10925870237E+03 -0.34237080418E+03  0.22138296264E+02  0.36006296083E+03  0.00000000000E+00 0. -1.
</event>
<event>
 8    1  0.7446554E-006  0.1211601E+04  0.7818608E-02  0.8597877E-01
         -2   -1    0    0    0  501 -0.00000000000E+00  0.00000000000E+00  0.15965897007E+04  0.15965897007E+04  0.00000000000E+00 0. -1.
          2   -1    0    0  502    0  0.00000000000E+00 -0.00000000000E+00 -0.92318094348E+03  0.92318094348E+03  0.00000000000E+00 0.  1.
    9000010    2    1    2  502    0 -0.56618872744E+03  0.38812222592E+03  0.41869749275E+03  0.12898956181E+04  0.10086201355E+04 0.  0.
   -9000010    2    1    2    0  501  0.56618872744E+03 -0.38812222592E+03  0.25471126444E+03  0.12298750261E+04  0.98818328979E+03 0.  0.
        -13    1    3    3    0    0 -0.53165963517E+03  0.69395530587E+03  0.44509026503E+03  0.98098995378E+03  0.10566000000E+00 0.  1.
         13    1    4    4    0    0 -0.23017478303E+03  0.97804990841E+02 -0.36111600843E+02  0.25268618058E+03  0.10566000000E+00 0. -1.
          4    1    3    3  502    0 -0.34529092264E+02 -0.30583307996E+03 -0.26392772280E+02  0.30890566430E+03  0.00000000000E+00 0.  1.
         -4    1    4    4    0  501  0.79636351047E+03 -0.48592721676E+03  0.29082286528E+03  0.97718884550E+03  0.00000000000E+00 0. -1.
</event>
<event>
 8    1  0.7446554E-006  0.1072758E+04  0.7818608E-02  0.8709080E-01
         -2   -1    0    0    0  501 -0.00000000000E+00  0.00000000000E+00  0.42932827235E+03  0.42932827235E+03  0.00000000000E+00 0.  1.
          2   -1    0    0  502    0  0.00000000000E+00 -0.00000000000E+00 -0.37099329685E+04  0.37099329685E+04  0.00000000000E+00 0. -1.
    9000010    2    1    2  502    0 -0.33404797497E+03  0.16168159784E+03 -0.58531842081E+03  0.12493336419E+04  0.10394748224E+04 0.  0.
   -9000010    2    1    2    0  501  0.33404797497E+03 -0.16168159784E+03 -0.26952862753E+04  0.28899275990E+04  0.97436360391E+03 0.  0.
        -13    1    3    3    0    0 -0.66446420386E+03  0.14667662009E+03 -0.61506580180E+03  0.91724187693E+03  0.10566000000E+00 0.  1.
         13    1    4    4    0    0  0.47048113282E+02 -0.48483783660E+03 -0.20909866352E+04  0.21469760997E+04  0.10566000000E+00 0. -1.
          4    1    3    3  502    0  0.33041622889E+03  0.15004977754E+02  0.29747380983E+02  0.33209176495E+03  0.00000000000E+00 0.  1.
         -4    1    4    4    0  501  0.28699986168E+03  0.32315623875E+03 -0.60429964010E+03  0.74295149927E+03  0.00000000000E+00 0. -1.
</event>
<event>
 8    1  0.7446554E-006  0.1231361E+04  0.7818608E-02  0.8583314E-01
         -2   -1    0    0    0  501 -0.00000000000E+00  0.00000000000E+00  0.11404038683E+04  0.11404038683E+04  0.00000000000E+00 0.  1.
          2   -1    0    0  502    0  0.00000000000E+00 -0.00000000000E+00 -0.15520632587E+04  0.15520632587E+04  0.00000000000E+00 0. -1.
    9000010    2    1    2  502    0  0.70969601604E+03 -0.14670962449E+03  0.30437426451E+03  0.12649683346E+04  0.99111505162E+03 0.  0.
   -9000010    2    1    2    0  501 -0.70969601604E+03  0.14670962449E+03 -0.71603365488E+03  0.14274987924E+04  0.99992822661E+03 0.  0.
        -13    1    3    3    0    0  0.53175556368E+03  0.12660055712E+03  0.60925345793E+03  0.81852395672E+03  0.10566000000E+00 0.  1.
         13    1    4    4    0    0 -0.89437659574E+03 -0.12824828909E+03 -0.51309142207E+03  0.10390476107E+04  0.10566000000E+00 0. -1.
          4    1    3    3  502    0  0.17794045236E+03 -0.27331018161E+03 -0.30487919342E+03  0.44644437788E+03  0.00000000000E+00 0.  1.
         -4    1    4    4    0  501  0.18468057970E+03  0.27495791358E+03 -0.20294223281E+03  0.38845118177E+03  0.00000000000E+00 0. -1.
</event>
<event>
 8    1  0.7446554E-006  0.1730918E+04  0.7818608E-02  0.8287733E-01
          2   -1    0    0  502    0  0.00000000000E+00  0.00000000000E+00  0.18344279768E+04  0.18344279768E+04  0.00000000000E+00 0.  1.
         -2   -1    0    0    0  501 -0.00000000000E+00 -0.00000000000E+00 -0.16913087199E+04  0.16913087199E+04  0.00000000000E+00 0. -1.
    9000010    2    1    2  502    0  0.13076464003E+04 -0.52403981459E+03  0.39790876516E+03  0.17705888456E+04  0.99604048062E+03 0.  0.
   -9000010    2    1    2    0  501 -0.13076464003E+04  0.52403981459E+03 -0.25478950823E+03  0.17551478511E+04  0.10154159001E+04 0.  0.
        -13    1    3    3    0    0  0.51184955829E+03 -0.73978664491E+03  0.17493193094E+03  0.91644718447E+03  0.10566000000E+00 0.  1.
         13    1    4    4    0    0 -0.81017139535E+03  0.82008725727E+03 -0.23134782809E+03  0.11757732044E+04  0.10566000000E+00 0. -1.
          4    1    3    3  502    0  0.79579684204E+03  0.21574683031E+03  0.22297683421E+03  0.85414166108E+03  0.00000000000E+00 0.  1.
         -4    1    4    4    0  501 -0.49747500499E+03 -0.29604744268E+03 -0.23441680139E+02  0.57937464673E+03  0.00000000000E+00 0. -1.
</event>
<event>
 8    1  0.7446554E-006  0.1354528E+04  0.7818608E-02  0.8498479E-01
         -2   -1    0    0    0  501 -0.00000000000E+00  0.00000000000E+00  0.53659451441E+03  0.53659451441E+03  0.00000000000E+00 0. -1.
          2   -1    0    0  502    0  0.00000000000E+00 -0.00000000000E+00 -0.42163540937E+04  0.42163540937E+04  0.00000000000E+00 0.  1.
    9000010    2    1    2  502    0 -0.13117440604E+03 -0.92554324654E+03 -0.78749702361E+03  0.15516025366E+04  0.95576244086E+03 0.  0.
   -9000010    2    1    2    0  501  0.13117440604E+03  0.92554324654E+03 -0.28922625557E+04  0.32013460715E+04  0.10047870185E+04 0.  0.
        -13    1    3    3    0    0  0.10721216367E+03 -0.50011834947E+03 -0.91437149193E+03  0.10477060885E+04  0.10566000000E+00 0.  1.
         13    1    4    4    0    0 -0.28226886383E+03  0.76429113719E+03 -0.11900219366E+04  0.14422097193E+04  0.10566000000E+00 0. -1.
          4    1    3    3  502    0 -0.23838656971E+03 -0.42542489707E+03  0.12687446832E+03  0.50389644807E+03  0.00000000000E+00 0.  1.
         -4    1    4    4    0  501  0.41344326987E+03  0.16125210934E+03 -0.17022406191E+04  0.17591363522E+04  0.00000000000E+00 0. -1.
</event>
<event>
 8    1  0.7446554E-006  0.1407070E+04  0.7818608E-02  0.8465073E-01
          2   -1    0    0  502    0  0.00000000000E+00  0.00000000000E+00  0.22195553037E+04  0.22195553037E+04  0.00000000000E+00 0.  1.
         -2   -1    0    0    0  501 -0.00000000000E+00 -0.00000000000E+00 -0.10452430024E+04  0.10452430024E+04  0.00000000000E+00 0. -1.
    9000010    2    1    2  502    0 -0.76459388950E+03 -0.62670166195E+03 -0.35884013780E+02  0.14130556187E+04  0.10089993707E+04 0.  0.
   -9000010    2    1    2    0  501  0.76459388950E+03  0.62670166195E+03  0.12101963150E+04  0.18517426874E+04  0.99348732785E+03 0.  0.
        -13    1    3    3    0    0 -0.29983418855E+03 -0.64733271243E+02 -0.47231737600E+03  0.56318260970E+03  0.10566000000E+00 0.  1.
         13    1    4    4    0    0  0.23874710454E+03  0.21802395252E+02 -0.14288199738E+03  0.27908923430E+03  0.10566000000E+00 0. -1.
          4    1    3    3  502    0 -0.46475970094E+03 -0.56196839070E+03  0.43643336222E+03  0.84987300900E+03  0.00000000000E+00 0.  1.
         -4    1    4    4    0  501  0.52584678496E+03  0.60489926669E+03  0.13530783124E+04  0.15726534531E+04  0.00000000000E+00 0. -1.
</event>
<event>
 8    1  0.7446554E-006  0.1244586E+04  0.7818608E-02  0.8573724E-01
          2   -1    0    0  502    0  0.00000000000E+00  0.00000000000E+00  0.14884871523E+04  0.14884871523E+04  0.00000000000E+00 0. -1.
         -2   -1    0    0    0  501 -0.00000000000E+00 -0.00000000000E+00 -0.10429049227E+04  0.10429049227E+04  0.00000000000E+00 0.  1.
    9000010    2    1    2  502    0 -0.70169366505E+03 -0.26266260372E+03  0.28250246508E+03  0.12838980003E+04  0.10036039006E+04 0.  0.
   -9000010    2    1    2    0  501  0.70169366505E+03  0.26266260372E+03  0.16307976451E+03  0.12474940748E+04  0.98401260871E+03 0.  0.
        -13    1    3    3    0    0  0.46697770991E+02 -0.47103971751E+03  0.14417992533E+03  0.49482012825E+03  0.10566000000E+00 0.  1.
         13    1    4    4    0    0 -0.80799891648E+01  0.33213835354E+03  0.37741584431E+03  0.50281597311E+03  0.10566000000E+00 0. -1.
          4    1    3    3  502    0 -0.74839143604E+03  0.20837711379E+03  0.13832253975E+03  0.78907787201E+03  0.00000000000E+00 0.  1.
         -4    1    4    4    0  501  0.70977365422E+03 -0.69475749820E+02 -0.21433607979E+03  0.74467810169E+03  0.00000000000E+00 0. -1.
</event>
<event>
 8    1  0.7446554E-006  0.1231215E+04  0.7818608E-02  0.8583420E-01
          2   -1    0    0  502    0  0.00000000000E+00  0.00000000000E+00  0.31122105658E+04  0.31122105658E+04  0.00000000000E+00 0. -1.
         -2   -1    0    0    0  501 -0.00000000000E+00 -0.00000000000E+00 -0.53883913261E+03  0.53883913261E+03  0.00000000000E+00 0.  1.
    9000010    2    1    2  502    0 -0.52603825951E+02 -0.66707143973E+03  0.18171954176E+04  0.21759247404E+04  0.99231941533E+03 0.  0.
   -9000010    2    1    2    0  501  0.52603825951E+02  0.66707143973E+03  0.75617601558E+03  0.14751249580E+04  0.10753790062E+04 0.  0.
        -13    1    3    3    0    0 -0.20914872993E+02 -0.67785257272E+03  0.46262447314E+03  0.82094028807E+03  0.10566000000E+00 0.  1.
         13    1    4    4    0    0  0.53682554715E+03  0.28001737329E+03  0.18735353453E+03  0.63379235991E+03  0.10566000000E+00 0. -1.
          4    1    3    3  502    0 -0.31688952957E+02  0.10781132988E+02  0.13545709445E+04  0.13549844524E+04  0.00000000000E+00 0.  1.
         -4    1    4    4    0  501 -0.48422172120E+03  0.38705406645E+03  0.56882248104E+03  0.84133259807E+03  0.00000000000E+00 0. -1.
</event>
<event>
 8    1  0.7446554E-006  0.1328675E+04  0.7818608E-02  0.8515494E-01
          2   -1    0    0  502    0  0.00000000000E+00  0.00000000000E+00  0.23014381210E+04  0.23014381210E+04  0.00000000000E+00 0. -1.
         -2   -1    0    0    0  501 -0.00000000000E+00 -0.00000000000E+00 -0.77308639756E+03  0.77308639756E+03  0.00000000000E+00 0.  1.
    9000010    2    1    2  502    0  0.17496871490E+03  0.86308441768E+03  0.89054349560E+03  0.15877159467E+04  0.97583064449E+03 0.  0.
   -9000010    2    1    2    0  501 -0.17496871490E+03 -0.86308441768E+03  0.63780822781E+03  0.14868085718E+04  0.10140372924E+04 0.  0.
        -13    1    3    3    0    0 -0.24407666084E+03  0.50311919316E+03  0.87086058288E+03  0.10349398557E+04  0.10566000000E+00 0.  1.
         13    1    4    4    0    0 -0.74024831196E+02  0.13585934449E+03  0.43607959953E+03  0.46271250838E+03  0.10566000000E+00 0. -1.
          4    1    3    3  502    0  0.41904537574E+03  0.35996522452E+03  0.19682912725E+02  0.55277609106E+03  0.00000000000E+00 0.  1.
         -4    1    4    4    0  501 -0.10094388370E+03 -0.99894376217E+03  0.20172862828E+03  0.10240960634E+04  0.00000000000E+00 0. -1.
</event>
<event>
 8    1  0.7446554E-006  0.1567282E+04  0.7818608E-02  0.8371797E-01
         -4   -1    0    0    0  501 -0.00000000000E+00  0.00000000000E+00  0.12020775519E+04  0.12020775519E+04  0.00000000000E+00 0. -1.
          4   -1    0    0  502    0  0.00000000000E+00 -0.00000000000E+00 -0.20794265510E+04  0.20794265510E+04  0.00000000000E+00 0.  1.
    9000010    2    1    2  502    0 -0.29986267608E+03  0.11859726036E+04 -0.65012588318E+03  0.16837872556E+04  0.95709310780E+03 0.  0.
   -9000010    2    1    2    0  501  0.29986267608E+03 -0.11859726036E+04 -0.22722311590E+03  0.15977168473E+04  0.10023074073E+04 0.  0.
        -13    1    3    3    0    0 -0.56612847916E+03  0.37195275702E+03 -0.41970868614E+03  0.79687244949E+03  0.10566000000E+00 0.  1.
         13    1    4    4    0    0  0.16182119679E+03 -0.62256198628E+03  0.38875528575E+03  0.75159843657E+03  0.10566000000E+00 0. -1.
          4    1    3    3  502    0  0.26626580308E+03  0.81401984660E+03 -0.23041719704E+03  0.88691480608E+03  0.00000000000E+00 0.  1.
         -4    1    4    4    0  501  0.13804147929E+03 -0.56341061734E+03 -0.61597840165E+03  0.84611841077E+03  0.00000000000E+00 0. -1.
</event>
<event>
 8    1  0.7446554E-006  0.1018812E+04  0.7818608E-02  0.8757114E-01
          2   -1    0    0  502    0  0.00000000000E+00  0.00000000000E+00  0.89360556893E+03  0.89360556893E+03  0.00000000000E+00 0.  1.
         -2   -1    0    0    0  501 -0.00000000000E+00 -0.00000000000E+00 -0.12589634562E+04  0.12589634562E+04  0.00000000000E+00 0. -1.
    9000010    2    1    2  502    0 -0.38874849935E+01  0.19006034723E+03  0.11646651805E+03  0.10267588021E+04  0.10022630093E+04 0.  0.
   -9000010    2    1    2    0  501  0.38874849935E+01 -0.19006034723E+03 -0.48182440529E+03  0.11258102230E+04  0.99957783715E+03 0.  0.
        -13    1    3    3    0    0 -0.11656028794E+03  0.45739447372E+03  0.40178207615E+03  0.61985873649E+03  0.10566000000E+00 0.  1.
         13    1    4    4    0    0 -0.49298336333E+03 -0.10357927346E+03 -0.31713526450E+03  0.59526132880E+03  0.10566000000E+00 0. -1.
          4    1    3    3  502    0  0.11267280294E+03 -0.26733412650E+03 -0.28531555810E+03  0.40690006563E+03  0.00000000000E+00 0.  1.
         -4    1    4    4    0  501  0.49687084832E+03 -0.86481073766E+02 -0.16468914079E+03  0.53054889419E+03  0.00000000000E+00 0. -1.
</event>
<event>
 8    1  0.7446554E-006  0.1221752E+04  0.7818608E-02  0.8590360E-01
          2   -1    0    0  502    0  0.00000000000E+00  0.00000000000E+00  0.22793534464E+04  0.22793534464E+04  0.00000000000E+00 0.  1.
         -2   -1    0    0    0  501 -0.00000000000E+00 -0.00000000000E+00 -0.67593925748E+03  0.67593925748E+03  0.00000000000E+00 0. -1.
    9000010    2    1    2  502    0  0.47800854724E+03 -0.50141391312E+03  0.54488310684E+03  0.13434455515E+04  0.10139232053E+04 0.  0.
   -9000010    2    1    2    0  501 -0.47800854724E+03  0.50141391312E+03  0.10585310821E+04  0.16118471523E+04  0.99882686550E+03 0.  0.
        -13    1    3    3    0    0  0.33891005180E+03  0.18491692470E+03 -0.91974858187E+02  0.39687992889E+03  0.10566000000E+00 0.  1.
         13    1    4    4    0    0 -0.12125552451E+03  0.63406938314E+03  0.20505049541E+03  0.67734230762E+03  0.10566000000E+00 0. -1.
          4    1    3    3  502    0  0.13909849545E+03 -0.68633083782E+03  0.63685796503E+03  0.94656562266E+03  0.00000000000E+00 0.  1.
         -4    1    4    4    0  501 -0.35675302274E+03 -0.13265547003E+03  0.85348058667E+03  0.93450484471E+03  0.00000000000E+00 0. -1.
</event>
<event>
 8    1  0.7446554E-006  0.1077780E+04  0.7818608E-02  0.8704758E-01
          2   -1    0    0  502    0  0.00000000000E+00  0.00000000000E+00  0.23173607131E+04  0.23173607131E+04  0.00000000000E+00 0.  1.
         -2   -1    0    0    0  501 -0.00000000000E+00 -0.00000000000E+00 -0.50231061303E+03  0.50231061303E+03  0.00000000000E+00 0. -1.
    9000010    2    1    2  502    0 -0.51229329150E+03  0.61632425185E+02  0.94886288485E+03  0.14208096709E+04  0.92310149732E+03 0.  0.
   -9000010    2    1    2    0  501  0.51229329150E+03 -0.61632425185E+02  0.86618721518E+03  0.13988616552E+04  0.96968585956E+03 0.  0.
        -13    1    3    3    0    0 -0.43307532846E+03 -0.78940484879E+02 -0.17996081970E+02  0.44057883563E+03  0.10566000000E+00 0.  1.
         13    1    4    4    0    0  0.28634054877E+03  0.76032670520E+02 -0.16166443381E+03  0.33750152174E+03  0.10566000000E+00 0. -1.
          4    1    3    3  502    0 -0.79217963038E+02  0.14057291006E+03  0.96685896682E+03  0.98023083528E+03  0.00000000000E+00 0.  1.
         -4    1    4    4    0  501  0.22595274273E+03 -0.13766509571E+03  0.10278516490E+04  0.10613601334E+04  0.00000000000E+00 0. -1.
</event>
<event>
 8    1  0.7446554E-006  0.1036405E+04  0.7818608E-02  0.8741118E-01
          2   -1    0    0  502    0  0.00000000000E+00  0.00000000000E+00  0.95152448937E+03  0.95152448937E+03  0.00000000000E+00 0. -1.
         -2   -1    0    0    0  501 -0.00000000000E+00 -0.00000000000E+00 -0.11595824511E+04  0.11595824511E+04  0.00000000000E+00 0.  1.
    9000010    2    1    2  502    0  0.28190942468E+03  0.19660959497E+03 -0.27194049934E+03  0.10492814780E+04  0.95336862143E+03 0.  0.
   -9000010    2    1    2    0  501 -0.28190942468E+03 -0.19660959497E+03  0.63882537620E+02  0.10618254625E+04  0.10026285840E+04 0.  0.
        -13    1    3    3    0    0 -0.34620317406E+03  0.10429315961E+03 -0.19206062942E+03  0.40941543377E+03  0.10566000000E+00 0.  1.
         13    1    4    4    0    0  0.32733642761E+03 -0.14751748742E+03  0.23253324150E+03  0.42776426394E+03  0.10566000000E+00 0. -1.
          4    1    3    3  502    0  0.62811259874E+03  0.92316435360E+02 -0.79879869919E+02  0.63986604422E+03  0.00000000000E+00 0.  1.
         -4    1    4    4    0  501 -0.60924585229E+03 -0.49092107552E+02 -0.16865070388E+03  0.63406119852E+03  0.00000000000E+00 0. -1.
</event>
<event>
 8    1  0.7446554E-006  0.1338320E+04  0.7818608E-02  0.8509100E-01
          1   -1    0    0  502    0  0.00000000000E+00  0.00000000000E+00  0.24116319079E+04  0.24116319079E+04  0.00000000000E+00 0. -1.
         -1   -1    0    0    0  501 -0.00000000000E+00 -0.00000000000E+00 -0.76049761546E+03  0.76049761546E+03  0.00000000000E+00 0.  1.
    9000010    2    1    2  502    0 -0.48024579857E+03 -0.74965509893E+03  0.58071080735E+03  0.14555181714E+04  0.99432857307E+03 0.  0.
   -9000010    2    1    2    0  501  0.48024579857E+03  0.74965509893E+03  0.10704234851E+04  0.17166113519E+04  0.10041560146E+04 0.  0.
        -13    1    3    3    0    0 -0.25683199180E+03 -0.39844515858E+02 -0.23569740767E+03  0.35086113578E+03  0.10566000000E+00 0.  1.
         13    1    4    4    0    0 -0.42854411083E+02  0.33142972558E+03 -0.11638169785E+03  0.35387409386E+03  0.10566000000E+00 0. -1.
          4    1    3    3  502    0 -0.22341380678E+03 -0.70981058307E+03  0.81640821501E+03  0.11046570357E+04  0.00000000000E+00 0.  1.
         -4    1    4    4    0  501  0.52310020966E+03  0.41822537335E+03  0.11868051829E+04  0.13627372580E+04  0.00000000000E+00 0. -1.
</event>
<event>
 8    1  0.7446554E-006  0.1383571E+04  0.7818608E-02  0.8479826E-01
         -2   -1    0    0    0  501 -0.00000000000E+00  0.00000000000E+00  0.15529761816E+04  0.15529761816E+04  0.00000000000E+00 0.  1.
          2   -1    0    0  502    0  0.00000000000E+00 -0.00000000000E+00 -0.13563177632E+04  0.13563177632E+04  0.00000000000E+00 0. -1.
    9000010    2    1    2  502    0  0.69681461494E+03 -0.63553805283E+03  0.53690068663E+03  0.14757403975E+04  0.10000440737E+04 0.  0.
   -9000010    2    1    2    0  501 -0.69681461494E+03  0.63553805283E+03 -0.34024226824E+03  0.14335535472E+04  0.10246227342E+04 0.  0.
        -13    1    3    3    0    0  0.31153667034E+03 -0.86831442299E+03  0.32357694727E+03  0.97761295312E+03  0.10566000000E+00 0.  1.
         13    1    4    4    0    0 -0.53655321764E+02  0.72856249873E+03 -0.85364360005E+02  0.73550614765E+03  0.10566000000E+00 0. -1.
          4    1    3    3  502    0  0.38527794460E+03  0.23277637017E+03  0.21332373936E+03  0.49812744441E+03  0.00000000000E+00 0.  1.
         -4    1    4    4    0  501 -0.64315929317E+03 -0.93024445901E+02 -0.25487790823E+03  0.69804739956E+03  0.00000000000E+00 0. -1.
</event>
<event>
 8    1  0.7446554E-006  0.1175491E+04  0.7818608E-02  0.8625251E-01
         -2   -1    0    0    0  501 -0.00000000000E+00  0.00000000000E+00  0.11558310996E+04  0.11558310996E+04  0.00000000000E+00 0. -1.
          2   -1    0    0  502    0  0.00000000000E+00 -0.00000000000E+00 -0.12022024471E+04  0.12022024471E+04  0.00000000000E+00 0.  1.
    9000010    2    1    2  502    0  0.32057576878E+03  0.58962464533E+03  0.49470309113E+02  0.11264741228E+04  0.90336625574E+03 0.  0.
   -9000010    2    1    2    0  501 -0.32057576878E+03 -0.58962464533E+03 -0.95841656577E+02  0.12315594239E+04  0.10281667888E+04 0.  0.
        -13    1    3    3    0    0 -0.19606606020E+03  0.55807804731E+03 -0.68872768773E+02  0.59551362394E+03  0.10566000000E+00 0.  1.
         13    1    4    4    0    0 -0.60003711539E+02 -0.85426554838E+03 -0.72505937908E+02  0.85943422944E+03  0.10566000000E+00 0. -1.
          4    1    3    3  502    0  0.51664182899E+03  0.31546598022E+02  0.11834307789E+03  0.53096049890E+03  0.00000000000E+00 0.  1.
         -4    1    4    4    0  501 -0.26057205725E+03  0.26464090304E+03 -0.23335718668E+02  0.37212519445E+03  0.00000000000E+00 0. -1.
</event>
<event>
 8    1  0.7446554E-006  0.1246638E+04  0.7818608E-02  0.8572247E-01
          1   -1    0    0  502    0  0.00000000000E+00  0.00000000000E+00  0.17205880719E+04  0.17205880719E+04  0.00000000000E+00 0.  1.
         -1   -1    0    0    0  501 -0.00000000000E+00 -0.00000000000E+00 -0.11386907737E+04  0.11386907737E+04  0.00000000000E+00 0. -1.
    9000010    2    1    2  502    0  0.66389345220E+03 -0.37687142791E+03  0.94353335923E+03  0.15751775122E+04  0.10040629491E+04 0.  0.
   -9000010    2    1    2    0  501 -0.66389345220E+03  0.37687142791E+03 -0.36163606103E+03  0.12841013335E+04  0.96713442965E+03 0.  0.
        -13    1    3    3    0    0  0.13023503996E+03 -0.52523920204E+03  0.76794261436E+02  0.54656633151E+03  0.10566000000E+00 0.  1.
         13    1    4    4    0    0 -0.16595244161E+03 -0.32145318800E+03 -0.19293187367E+03  0.40999400482E+03  0.10566000000E+00 0. -1.
          4    1    3    3  502    0  0.53365841224E+03  0.14836777412E+03  0.86673909780E+03  0.10286111807E+04  0.00000000000E+00 0.  1.
         -4    1    4    4    0  501 -0.49794101059E+03  0.69832461591E+03 -0.16870418736E+03  0.87410732868E+03  0.00000000000E+00 0. -1.
</event>
<event>
 8    1  0.7446554E-006  0.1259839E+04  0.7818608E-02  0.8562815E-01
          2   -1    0    0  502    0  0.00000000000E+00  0.00000000000E+00  0.26114265965E+04  0.26114265965E+04  0.00000000000E+00 0. -1.
         -2   -1    0    0    0  501 -0.00000000000E+00 -0.00000000000E+00 -0.68812673700E+03  0.68812673700E+03  0.00000000000E+00 0.  1.
    9000010    2    1    2  502    0  0.45755135068E+03  0.60206270325E+03  0.39994512667E+03  0.13246142267E+04  0.10113426759E+04 0.  0.
   -9000010    2    1    2    0  501 -0.45755135068E+03 -0.60206270325E+03  0.15233547328E+04  0.19749391068E+04  0.10039631947E+04 0.  0.
        -13    1    3    3    0    0 -0.13070934505E+03  0.58660930714E+03  0.42424536721E+03  0.73564907047E+03  0.10566000000E+00 0.  1.
         13    1    4    4    0    0 -0.76242085513E+03 -0.50836560951E+03  0.12778163770E+04  0.15724299214E+04  0.10566000000E+00 0. -1.
          4    1    3    3  502    0  0.58826069573E+03  0.15453396109E+02 -0.24300240545E+02  0.58896515626E+03  0.00000000000E+00 0.  1.
         -4    1    4    4    0  501  0.30486950444E+03 -0.93697093739E+02  0.24553835586E+03  0.40250918537E+03  0.00000000000E+00 0. -1.
</event>
<event>
 8    1  0.7446554E-006  0.1489557E+04  0.7818608E-02  0.8415535E-01
         -1   -1    0    0    0  501 -0.00000000000E+00  0.00000000000E+00  0.16383941772E+04  0.16383941772E+04  0.00000000000E+00 0. -1.
          1   -1    0    0  502    0  0.00000000000E+00 -0.00000000000E+00 -0.21917285588E+04  0.21917285588E+04  0.00000000000E+00 0.  1.
    9000010    2    1    2  502    0  0.90600730452E+03 -0.62414123118E+03  0.90745560275E+03  0.17417804347E+04  0.99996094900E+03 0.  0.
   -9000010    2    1    2    0  501 -0.90600730452E+03  0.62414123118E+03 -0.14607899844E+04  0.20883423014E+04  0.10083970830E+04 0.  0.
        -13    1    3    3    0    0  0.77949972881E+03 -0.57526987716E+03  0.15974800588E+03  0.98187305459E+03  0.10566000000E+00 0.  1.
         13    1    4    4    0    0 -0.88674777145E+03  0.74484575659E+03 -0.77902452831E+03  0.13957062865E+04  0.10566000000E+00 0. -1.
          4    1    3    3  502    0  0.12650757571E+03 -0.48871354021E+02  0.74770759687E+03  0.75990738013E+03  0.00000000000E+00 0.  1.
         -4    1    4    4    0  501 -0.19259533074E+02 -0.12070452541E+03 -0.68176545604E+03  0.69263601488E+03  0.00000000000E+00 0. -1.
</event>
<event>
 8    1  0.7446554E-006  0.1509654E+04  0.7818608E-02  0.8403965E-01
          2   -1    0    0  502    0  0.00000000000E+00  0.00000000000E+00  0.37909455645E+04  0.37909455645E+04  0.00000000000E+00 0. -1.
         -2   -1    0    0    0  501 -0.00000000000E+00 -0.00000000000E+00 -0.65724290153E+03  0.65724290153E+03  0.00000000000E+00 0.  1.
    9000010    2    1    2  502    0 -0.11238308779E+04  0.37289255102E+01  0.22115522427E+04  0.26748423989E+04  0.10004043131E+04 0.  0.
   -9000010    2    1    2    0  501  0.11238308779E+04 -0.37289255102E+01  0.92215042023E+03  0.17733460671E+04  0.10155713314E+04 0.  0.
        -13    1    3    3    0    0 -0.10453973907E+04  0.24105102641E+03  0.11038883878E+04  0.15393280630E+04  0.10566000000E+00 0.  1.
         13    1    4    4    0    0  0.62531071879E+03  0.22540152325E+03 -0.39847345449E+02  0.66588825175E+03  0.10566000000E+00 0. -1.
          4    1    3    3  502    0 -0.78433487255E+02 -0.23732210090E+03  0.11076638549E+04  0.11355143359E+04  0.00000000000E+00 0.  1.
         -4    1    4    4    0  501  0.49852015914E+03 -0.22913044876E+03  0.96199776568E+03  0.11074578154E+04  0.00000000000E+00 0. -1.
</event>
<event>
 8    1  0.7446554E-006  0.1102451E+04  0.7818608E-02  0.8683878E-01
          2   -1    0    0  502    0  0.00000000000E+00  0.00000000000E+00  0.23282961484E+04  0.23282961484E+04  0.00000000000E+00 0.  1.
         -2   -1    0    0    0  501 -0.00000000000E+00 -0.00000000000E+00 -0.13069732275E+04  0.13069732275E+04  0.00000000000E+00 0. -1.
    9000010    2    1    2  502    0 -0.35118845010E+03 -0.34337573747E+03 -0.90015040034E+03  0.14138151763E+04  0.97332542597E+03 0.  0.
   -9000010    2    1    2    0  501  0.35118845010E+03  0.34337573747E+03  0.19214733213E+04  0.22214541996E+04  0.10007791025E+04 0.  0.
        -13    1    3    3    0    0 -0.15634608111E+03  0.30206624276E+03 -0.56842486539E+03  0.66241599531E+03  0.10566000000E+00 0.  1.
         13    1    4    4    0    0 -0.19125652847E+02  0.24306136455E+03 -0.17925554296E+02  0.24447076347E+03  0.10566000000E+00 0. -1.
          4    1    3    3  502    0 -0.19484236899E+03 -0.64544198023E+03 -0.33172553496E+03  0.75139918095E+03  0.00000000000E+00 0.  1.
         -4    1    4    4    0  501  0.37031410295E+03  0.10031437292E+03  0.19393988756E+04  0.19769834362E+04  0.00000000000E+00 0. -1.
</event>
<event>
 8    1  0.7446554E-006  0.1068891E+04  0.7818608E-02  0.8712425E-01
          2   -1    0    0  502    0  0.00000000000E+00  0.00000000000E+00  0.18620181865E+04  0.18620181865E+04  0.00000000000E+00 0. -1.
         -2   -1    0    0    0  501 -0.00000000000E+00 -0.00000000000E+00 -0.90481385833E+03  0.90481385833E+03  0.00000000000E+00 0.  1.
    9000010    2    1    2  502    0 -0.16491492233E+03  0.44930823494E+03  0.12565866121E+04  0.16362084705E+04  0.93225180279E+03 0.  0.
   -9000010    2    1    2    0  501  0.16491492233E+03 -0.44930823494E+03 -0.29938228393E+03  0.11306235743E+04  0.97959435135E+03 0.  0.
        -13    1    3    3    0    0  0.31557899914E+03  0.45989059183E+03  0.78413898424E+03  0.96226993039E+03  0.10566000000E+00 0.  1.
         13    1    4    4    0    0 -0.40481793282E+02  0.21368600549E+03 -0.37390080822E+03  0.43255324537E+03  0.10566000000E+00 0. -1.
          4    1    3    3  502    0 -0.48049392147E+03 -0.10582356893E+02  0.47244762783E+03  0.67393854014E+03  0.00000000000E+00 0.  1.
         -4    1    4    4    0  501  0.20539671562E+03 -0.66299424043E+03  0.74518524292E+02  0.69807032890E+03  0.00000000000E+00 0. -1.
</event>
<event>
 8    1  0.7446554E-006  0.1120602E+04  0.7818608E-02  0.8668876E-01
         -4   -1    0    0    0  501 -0.00000000000E+00  0.00000000000E+00  0.89561856216E+03  0.89561856216E+03  0.00000000000E+00 0.  1.
          4   -1    0    0  502    0  0.00000000000E+00 -0.00000000000E+00 -0.15682246826E+04  0.15682246826E+04  0.00000000000E+00 0. -1.
    9000010    2    1    2  502    0 -0.49153691558E+03  0.12888648700E+03  0.66118743917E+02  0.11169273837E+04  0.99243882745E+03 0.  0.
   -9000010    2    1    2    0  501  0.49153691558E+03 -0.12888648700E+03 -0.73872486439E+03  0.13469158611E+04  0.10051107629E+04 0.  0.
        -13    1    3    3    0    0 -0.12543746352E+03 -0.20837711482E+03 -0.37822781744E+03  0.44967974413E+03  0.10566000000E+00 0.  1.
         13    1    4    4    0    0  0.26584680930E+03  0.66739049626E+02 -0.94499177525E+03  0.98394008619E+03  0.10566000000E+00 0. -1.
          4    1    3    3  502    0 -0.36609945206E+03  0.33726360182E+03  0.44434656135E+03  0.66724763956E+03  0.00000000000E+00 0.  1.
         -4    1    4    4    0  501  0.22569010628E+03 -0.19562553663E+03  0.20626691086E+03  0.36297577491E+03  0.00000000000E+00 0. -1.
</event>
<event>
 8    1  0.7446554E-006  0.1211301E+04  0.7818608E-02  0.8598100E-01
         -2   -1    0    0    0  501 -0.00000000000E+00  0.00000000000E+00  0.75811622836E+03  0.75811622836E+03  0.00000000000E+00 0.  1.
          2   -1    0    0  502    0  0.00000000000E+00 -0.00000000000E+00 -0.20221834136E+04  0.20221834136E+04  0.00000000000E+00 0. -1.
    9000010    2    1    2  502    0  0.65912160926E+03 -0.15727335874E+03 -0.34954942259E+03  0.12709006148E+04  0.10167730173E+04 0.  0.
   -9000010    2    1    2    0  501 -0.65912160926E+03  0.15727335874E+03 -0.91451776269E+03  0.15093990272E+04  0.99134579223E+03 0.  0.
        -13    1    3    3    0    0  0.10825907067E+03  0.41113884612E+03 -0.66785943086E+02  0.43036676281E+03  0.10566000000E+00 0.  1.
         13    1    4    4    0    0 -0.15212423851E+03 -0.27066907075E+03 -0.77019199828E+03  0.83042113122E+03  0.10566000000E+00 0. -1.
          4    1    3    3  502    0  0.55086253859E+03 -0.56841220486E+03 -0.28276347950E+03  0.84053385202E+03  0.00000000000E+00 0.  1.
         -4    1    4    4    0  501 -0.50699737075E+03  0.42794242949E+03 -0.14432576441E+03  0.67897789594E+03  0.00000000000E+00 0. -1.
</event>
<event>
 8    1  0.7446554E-006  0.1200125E+04  0.7818608E-02  0.8606468E-01
          2   -1    0    0  502    0  0.00000000000E+00  0.00000000000E+00  0.20038386170E+04  0.20038386170E+04  0.00000000000E+00 0. -1.
         -2   -1    0    0    0  501 -0.00000000000E+00 -0.00000000000E+00 -0.12010226894E+04  0.12010226894E+04  0.00000000000E+00 0.  1.
    9000010    2    1    2  502    0  0.60328308197E+03 -0.12405483972E+03  0.14210370542E+04  0.18751010395E+04  0.10570324114E+04 0.  0.
   -9000010    2    1    2    0  501 -0.60328308197E+03  0.12405483972E+03 -0.61822112658E+03  0.13297602668E+04  0.10033568287E+04 0.  0.
        -13    1    3    3    0    0 -0.93409629917E+02  0.36188440882E+03  0.45038567447E+03  0.58526314700E+03  0.10566000000E+00 0.  1.
         13    1    4    4    0    0 -0.14593383184E+03 -0.40605364198E+03 -0.41992216419E+03  0.60208876304E+03  0.10566000000E+00 0. -1.
          4    1    3    3  502    0  0.69669271189E+03 -0.48593924853E+03  0.97065137972E+03  0.12898378925E+04  0.00000000000E+00 0.  1.
         -4    1    4    4    0  501 -0.45734925013E+03  0.53010848170E+03 -0.19829896239E+03  0.72767150380E+03  0.00000000000E+00 0. -1.
</event>
<event>
 8    1  0.7446554E-006  0.1063874E+04  0.7818608E-02  0.8716786E-01
         -2   -1    0    0    0  501 -0.00000000000E+00  0.00000000000E+00  0.90678885865E+03  0.90678885865E+03  0.00000000000E+00 0. -1.
          2   -1    0    0  502    0  0.00000000000E+00 -0.00000000000E+00 -0.34303531750E+04  0.34303531750E+04  0.00000000000E+00 0.  1.
    9000010    2    1    2  502    0  0.33885444665E+03 -0.70769289532E+02  0.46632512526E+03  0.11647777469E+04  0.10096620469E+04 0.  0.
   -9000010    2    1    2    0  501 -0.33885444665E+03  0.70769289532E+02 -0.29898894416E+04  0.31723642867E+04  0.10023101648E+04 0.  0.
        -13    1    3    3    0    0 -0.26512908815E+03 -0.25311341595E+03 -0.21632095740E+02  0.36718904320E+03  0.10566000000E+00 0.  1.
         13    1    4    4    0    0 -0.59020844317E+03 -0.19709929711E+03 -0.12770763193E+04  0.14206048275E+04  0.10566000000E+00 0. -1.
          4    1    3    3  502    0  0.60398353480E+03  0.18234412642E+03  0.48795722100E+03  0.79758870370E+03  0.00000000000E+00 0.  1.
         -4    1    4    4    0  501  0.25135399652E+03  0.26786858664E+03 -0.17128131222E+04  0.17517594592E+04  0.00000000000E+00 0. -1.
</event>
<event>
 8    1  0.7446554E-006  0.1725485E+04  0.7818608E-02  0.8290368E-01
         -2   -1    0    0    0  501 -0.00000000000E+00  0.00000000000E+00  0.69368054023E+03  0.69368054023E+03  0.00000000000E+00 0. -1.
          2   -1    0    0  502    0  0.00000000000E+00 -0.00000000000E+00 -0.48631274515E+04  0.48631274515E+04  0.00000000000E+00 0.  1.
    9000010    2    1    2  502    0  0.13803971411E+04  0.15512201736E+03 -0.11417114768E+04  0.20760830199E+04  0.10378133272E+04 0.  0.
   -9000010    2    1    2    0  501 -0.13803971411E+04 -0.15512201736E+03 -0.30277354345E+04  0.34807249718E+04  0.10093093483E+04 0.  0.
        -13    1    3    3    0    0  0.93978427215E+03 -0.29749943083E+03 -0.10458425993E+04  0.14371802752E+04  0.10566000000E+00 0.  1.
         13    1    4    4    0    0 -0.21222771671E+03  0.17520905986E+03 -0.70621726759E+02  0.28412366647E+03  0.10566000000E+00 0. -1.
          4    1    3    3  502    0  0.44061286893E+03  0.45262144819E+03 -0.95868877407E+02  0.63890274477E+03  0.00000000000E+00 0.  1.
         -4    1    4    4    0  501 -0.11681694244E+04 -0.33033107722E+03 -0.29571137077E+04  0.31966013053E+04  0.00000000000E+00 0. -1.
</event>
<event>
 8    1  0.7446554E-006  0.2003313E+04  0.7818608E-02  0.8167045E-01
          4   -1    0    0  502    0  0.00000000000E+00  0.00000000000E+00  0.18224789715E+04  0.18224789715E+04  0.00000000000E+00 0.  1.
         -4   -1    0    0    0  501 -0.00000000000E+00 -0.00000000000E+00 -0.25297679149E+04  0.25297679149E+04  0.00000000000E+00 0. -1.
    9000010    2    1    2  502    0 -0.24789412624E+03  0.17186348312E+04  0.42958500660E+03  0.20485995180E+04  0.99852868075E+03 0.  0.
   -9000010    2    1    2    0  501  0.24789412624E+03 -0.17186348312E+04 -0.11368739500E+04  0.23036473684E+04  0.99957572940E+03 0.  0.
        -13    1    3    3    0    0 -0.48044217654E+03  0.14431814284E+04  0.61804241368E+03  0.16418202571E+04  0.10566000000E+00 0.  1.
         13    1    4    4    0    0 -0.33187967015E+03 -0.59696015588E+03 -0.14557270952E+03  0.69835303972E+03  0.10566000000E+00 0. -1.
          4    1    3    3  502    0  0.23254805030E+03  0.27545340284E+03 -0.18845740708E+03  0.40677926092E+03  0.00000000000E+00 0.  1.
         -4    1    4    4    0  501  0.57977379639E+03 -0.11216746753E+04 -0.99130124049E+03  0.16052943287E+04  0.00000000000E+00 0. -1.
</event>
<event>
 8    1  0.7446554E-006  0.1286575E+04  0.7818608E-02  0.8544073E-01
         -1   -1    0    0    0  501 -0.00000000000E+00  0.00000000000E+00  0.97019084433E+03  0.97019084433E+03  0.00000000000E+00 0.  1.
          1   -1    0    0  502    0  0.00000000000E+00 -0.00000000000E+00 -0.17425939028E+04  0.17425939028E+04  0.00000000000E+00 0. -1.
    9000010    2    1    2  502    0 -0.76709345997E+03 -0.17554353144E+03 -0.58634177202E+03  0.14283793338E+04  0.10378935109E+04 0.  0.
   -9000010    2    1    2    0  501  0.76709345997E+03  0.17554353144E+03 -0.18606128649E+03  0.12844054133E+04  0.99791310030E+03 0.  0.
        -13    1    3    3    0    0  0.18455822779E+03 -0.20855503340E+03 -0.34997472601E+03  0.44725748894E+03  0.10566000000E+00 0.  1.
         13    1    4    4    0    0  0.80632096825E+03  0.49331126875E+03 -0.19018471413E+03  0.96419901907E+03  0.10566000000E+00 0. -1.
          4    1    3    3  502    0 -0.95165168776E+03  0.33011501961E+02 -0.23636704601E+03  0.98112184489E+03  0.00000000000E+00 0.  1.
         -4    1    4    4    0  501 -0.39227508278E+02 -0.31776773731E+03  0.41234276442E+01  0.32020639428E+03  0.00000000000E+00 0. -1.
</event>
<event>
 8    1  0.7446554E-006  0.1612003E+04  0.7818608E-02  0.8347805E-01
          2   -1    0    0  502    0  0.00000000000E+00  0.00000000000E+00  0.31986139635E+04  0.31986139635E+04  0.00000000000E+00 0.  1.
         -2   -1    0    0    0  501 -0.00000000000E+00 -0.00000000000E+00 -0.89251166246E+03  0.89251166246E+03  0.00000000000E+00 0. -1.
    9000010    2    1    2  502    0 -0.12412338004E+04  0.26294710564E+03  0.17603291691E+04  0.23812456406E+04  0.98069847020E+03 0.  0.
   -9000010    2    1    2    0  501  0.12412338004E+04 -0.26294710564E+03  0.54577313193E+03  0.17098799854E+04  0.10079775420E+04 0.  0.
        -13    1    3    3    0    0 -0.74170285186E+03 -0.95146538762E+02  0.31642864062E+03  0.81197480261E+03  0.10566000000E+00 0.  1.
         13    1    4    4    0    0  0.11835768360E+04 -0.28726781909E+03  0.59282756892E+02  0.12193815576E+04  0.10566000000E+00 0. -1.
          4    1    3    3  502    0 -0.49953094858E+03  0.35809364441E+03  0.14439005285E+04  0.15692708380E+04  0.00000000000E+00 0.  1.
         -4    1    4    4    0  501  0.57656964439E+02  0.24320713448E+02  0.48649037504E+03  0.49049842778E+03  0.00000000000E+00 0. -1.
</event>
<event>
 8    1  0.7446554E-006  0.1217749E+04  0.7818608E-02  0.8593316E-01
         -2   -1    0    0    0  501 -0.00000000000E+00  0.00000000000E+00  0.11988403218E+04  0.11988403218E+04  0.00000000000E+00 0. -1.
          2   -1    0    0  502    0  0.00000000000E+00 -0.00000000000E+00 -0.14885835434E+04  0.14885835434E+04  0.00000000000E+00 0.  1.
    9000010    2    1    2  502    0 -0.55576879020E+03  0.20858463606E+03  0.39061727793E+03  0.13657019054E+04  0.11662646947E+04 0.  0.
   -9000010    2    1    2    0  501  0.55576879020E+03 -0.20858463606E+03 -0.68036049949E+03  0.13217219598E+04  0.96523159455E+03 0.  0.
        -13    1    3    3    0    0 -0.56357033571E+03 -0.33374019487E+03  0.48522668252E+03  0.81513126892E+03  0.10566000000E+00 0.  1.
         13    1    4    4    0    0 -0.66553773158E+02  0.30552074239E+03 -0.28417900078E+03  0.42252815812E+03  0.10566000000E+00 0. -1.
          4    1    3    3  502    0  0.78015455173E+01  0.54232483093E+03 -0.94609404597E+02  0.55057063651E+03  0.00000000000E+00 0.  1.
         -4    1    4    4    0  501  0.62232256335E+03 -0.51410537845E+03 -0.39618149871E+03  0.89919380165E+03  0.00000000000E+00 0. -1.
</event>
<event>
 8    1  0.7446554E-006  0.1601744E+04  0.7818608E-02  0.8353237E-01
          2   -1    0    0  502    0  0.00000000000E+00  0.00000000000E+00  0.17358056563E+04  0.17358056563E+04  0.00000000000E+00 0.  1.
         -2   -1    0    0    0  501 -0.00000000000E+00 -0.00000000000E+00 -0.15384638430E+04  0.15384638430E+04  0.00000000000E+00 0. -1.
    9000010    2    1    2  502    0  0.85946349804E+03 -0.91026952843E+03  0.42285940559E+03  0.16526891637E+04  0.99262443865E+03 0.  0.
   -9000010    2    1    2    0  501 -0.85946349804E+03  0.91026952843E+03 -0.22551759226E+03  0.16215803355E+04  0.10056820975E+04 0.  0.
        -13    1    3    3    0    0  0.96905274410E+03 -0.48071423765E+03  0.51787046100E+03  0.11993078106E+04  0.10566000000E+00 0.  1.
         13    1    4    4    0    0 -0.96762358058E+03  0.93317534047E+03  0.28452087482E+02  0.13445895813E+04  0.10566000000E+00 0. -1.
          4    1    3    3  502    0 -0.10958924606E+03 -0.42955529078E+03 -0.95011055411E+02  0.45338135310E+03  0.00000000000E+00 0.  1.
         -4    1    4    4    0  501  0.10816008253E+03 -0.22905812041E+02 -0.25396967974E+03  0.27699075419E+03  0.00000000000E+00 0. -1.
</event>
<event>
 8    1  0.7446554E-006  0.1705486E+04  0.7818608E-02  0.8300154E-01
          2   -1    0    0  502    0  0.00000000000E+00  0.00000000000E+00  0.37292558814E+04  0.37292558814E+04  0.00000000000E+00 0.  1.
         -2   -1    0    0    0  501 -0.00000000000E+00 -0.00000000000E+00 -0.15409800801E+04  0.15409800801E+04  0.00000000000E+00 0. -1.
    9000010    2    1    2  502    0 -0.12057214932E+04  0.67443437160E+03  0.29465843276E+04  0.34055321033E+04  0.10033263008E+04 0.  0.
   -9000010    2    1    2    0  501  0.12057214932E+04 -0.67443437160E+03 -0.75830852637E+03  0.18647038582E+04  0.99672594863E+03 0.  0.
        -13    1    3    3    0    0 -0.40545940076E+03  0.44263905236E+03  0.22210853966E+04  0.23007709592E+04  0.10566000000E+00 0.  1.
         13    1    4    4    0    0  0.13755727715E+04 -0.65967625539E+03 -0.62650772594E+03  0.16492074319E+04  0.10566000000E+00 0. -1.
          4    1    3    3  502    0 -0.80026209248E+03  0.23179531924E+03  0.72549893101E+03  0.11047611441E+04  0.00000000000E+00 0.  1.
         -4    1    4    4    0  501 -0.16985127829E+03 -0.14758116210E+02 -0.13180080044E+03  0.21549642625E+03  0.00000000000E+00 0. -1.
</event>
<event>
 8    1  0.7446554E-006  0.1169756E+04  0.7818608E-02  0.8629691E-01
         -1   -1    0    0    0  501 -0.00000000000E+00  0.00000000000E+00  0.16094703596E+04  0.16094703596E+04  0.00000000000E+00 0. -1.
          1   -1    0    0  502    0  0.00000000000E+00 -0.00000000000E+00 -0.94150037352E+03  0.94150037352E+03  0.00000000000E+00 0.  1.
    9000010    2    1    2  502    0 -0.47909415205E+03  0.37658224572E+03  0.73463043928E+03  0.13935578783E+04  0.10153700230E+04 0.  0.
   -9000010    2    1    2    0  501  0.47909415205E+03 -0.37658224572E+03 -0.66660453236E+02  0.11574128548E+04  0.98174105854E+03 0.  0.
        -13    1    3    3    0    0  0.65517962681E+01  0.96948222150E+02 -0.24577803110E+03  0.26428911357E+03  0.10566000000E+00 0.  1.
         13    1    4    4    0    0 -0.98656574402E+02 -0.69765171194E+02  0.35776881685E+03  0.37762261089E+03  0.10566000000E+00 0. -1.
          4    1    3    3  502    0 -0.48564594832E+03  0.27963402357E+03  0.98040847039E+03  0.11292687648E+04  0.00000000000E+00 0.  1.
         -4    1    4    4    0  501  0.57775072646E+03 -0.30681707452E+03 -0.42442927008E+03  0.77979024388E+03  0.00000000000E+00 0. -1.
</event>
<event>
 8    1  0.7446554E-006  0.1044220E+04  0.7818608E-02  0.8734117E-01
         -1   -1    0    0    0  501 -0.00000000000E+00  0.00000000000E+00  0.17945190664E+04  0.17945190664E+04  0.00000000000E+00 0. -1.
          1   -1    0    0  502    0  0.00000000000E+00 -0.00000000000E+00 -0.60802182216E+03  0.60802182216E+03  0.00000000000E+00 0.  1.
    9000010    2    1    2  502    0  0.10282538372E+03  0.25164414161E+03  0.61041730268E+03  0.11969194768E+04  0.99303026992E+03 0.  0.
   -9000010    2    1    2    0  501 -0.10282538372E+03 -0.25164414161E+03  0.57607994155E+03  0.12056214118E+04  0.10236000468E+04 0.  0.
        -13    1    3    3    0    0 -0.34005478459E+03  0.41750836155E+03  0.21257071105E+03  0.57891001619E+03  0.10566000000E+00 0.  1.
         13    1    4    4    0    0 -0.48417569336E+03 -0.23298283097E+03  0.28495368423E+02  0.53806978985E+03  0.10566000000E+00 0. -1.
          4    1    3    3  502    0  0.44288016831E+03 -0.16586421993E+03  0.39784659163E+03  0.61800946061E+03  0.00000000000E+00 0.  1.
         -4    1    4    4    0  501  0.38135030963E+03 -0.18661310638E+02  0.54758457313E+03  0.66755162190E+03  0.00000000000E+00 0. -1.
</event>
<event>
 8    1  0.7446554E-006  0.1238761E+04  0.7818608E-02  0.8577932E-01
          1   -1    0    0  502    0  0.00000000000E+00  0.00000000000E+00  0.14658312623E+04  0.14658312623E+04  0.00000000000E+00 0.  1.
         -1   -1    0    0    0  501 -0.00000000000E+00 -0.00000000000E+00 -0.13162672878E+04  0.13162672878E+04  0.00000000000E+00 0. -1.
    9000010    2    1    2  502    0 -0.64594551303E+03 -0.36226992546E+03 -0.55187118895E+03  0.13870360266E+04  0.10348053079E+04 0.  0.
   -9000010    2    1    2    0  501  0.64594551303E+03  0.36226992546E+03  0.70143516347E+03  0.13950625234E+04  0.95168432323E+03 0.  0.
        -13    1    3    3    0    0 -0.53708055449E+03 -0.68461343725E+03 -0.19059690827E+03  0.89077397418E+03  0.10566000000E+00 0.  1.
         13    1    4    4    0    0  0.60196029810E+03  0.66507175735E+03  0.56420071798E+03  0.10597165207E+04  0.10566000000E+00 0. -1.
          4    1    3    3  502    0 -0.10886495854E+03  0.32234351179E+03 -0.36127428068E+03  0.49626205242E+03  0.00000000000E+00 0.  1.
         -4    1    4    4    0  501  0.43985214930E+02 -0.30280183189E+03  0.13723444549E+03  0.33534600275E+03  0.00000000000E+00 0. -1.
</event>
<event>
 8    1  0.7446554E-006  0.1281936E+04  0.7818608E-02  0.8547291E-01
         -1   -1    0    0    0  501 -0.00000000000E+00  0.00000000000E+00  0.37846330012E+04  0.37846330012E+04  0.00000000000E+00 0. -1.
          1   -1    0    0  502    0  0.00000000000E+00 -0.00000000000E+00 -0.63870931269E+03  0.63870931269E+03  0.00000000000E+00 0.  1.
    9000010    2    1    2  502    0  0.43845117399E+03  0.67872919165E+03  0.32138574963E+03  0.13214343756E+04  0.99498103573E+03 0.  0.
   -9000010    2    1    2    0  501 -0.43845117399E+03 -0.67872919165E+03  0.28245379389E+04  0.31019079383E+04  0.99544238489E+03 0.  0.
        -13    1    3    3    0    0  0.70265138602E+03  0.22246897164E+03  0.79312734728E+02  0.74128397708E+03  0.10566000000E+00 0.  1.
         13    1    4    4    0    0 -0.57546041068E+03 -0.58383537384E+03  0.11131980865E+04  0.13824718510E+04  0.10566000000E+00 0. -1.
          4    1    3    3  502    0 -0.26420021203E+03  0.45626022001E+03  0.24207301490E+03  0.58015039855E+03  0.00000000000E+00 0.  1.
         -4    1    4    4    0  501  0.13700923668E+03 -0.94893817812E+02  0.17113398524E+04  0.17194360872E+04  0.00000000000E+00 0. -1.
</event>
<event>
 8    1  0.7446554E-006  0.1442162E+04  0.7818608E-02  0.8443583E-01
         -2   -1    0    0    0  501 -0.00000000000E+00  0.00000000000E+00  0.32164875932E+04  0.32164875932E+04  0.00000000000E+00 0. -1.
          2   -1    0    0  502    0  0.00000000000E+00 -0.00000000000E+00 -0.14332263869E+04  0.14332263869E+04  0.00000000000E+00 0.  1.
    9000010    2    1    2  502    0 -0.91476584292E+03  0.49598325534E+03  0.26140879265E+04  0.29857176561E+04  0.99912876934E+03 0.  0.
   -9000010    2    1    2    0  501  0.91476584292E+03 -0.49598325534E+03 -0.83082672016E+03  0.16639963240E+04  0.99790520107E+03 0.  0.
        -13    1    3    3    0    0 -0.65234545558E+03 -0.32661922638E+02  0.59992875425E+03  0.88686860129E+03  0.10566000000E+00 0.  1.
         13    1    4    4    0    0  0.46722028816E+03 -0.71437791862E+03 -0.79211106733E+03  0.11645044278E+04  0.10566000000E+00 0. -1.
          4    1    3    3  502    0 -0.26242038734E+03  0.52864517797E+03  0.20141591722E+04  0.20988490548E+04  0.00000000000E+00 0.  1.
         -4    1    4    4    0  501  0.44754555476E+03  0.21839466329E+03 -0.38715652823E+02  0.49949189614E+03  0.00000000000E+00 0. -1.
</event>
<event>
 8    1  0.7446554E-006  0.1289771E+04  0.7818608E-02  0.8541864E-01
         -2   -1    0    0    0  501 -0.00000000000E+00  0.00000000000E+00  0.61924930816E+03  0.61924930816E+03  0.00000000000E+00 0.  1.
          2   -1    0    0  502    0  0.00000000000E+00 -0.00000000000E+00 -0.26977129083E+04  0.26977129083E+04  0.00000000000E+00 0. -1.
    9000010    2    1    2  502    0  0.78969117114E+03  0.40697503664E+02 -0.92917075749E+03  0.15871819332E+04  0.10151451915E+04 0.  0.
   -9000010    2    1    2    0  501 -0.78969117114E+03 -0.40697503664E+02 -0.11492928426E+04  0.17297802833E+04  0.10227401223E+04 0.  0.
        -13    1    3    3    0    0  0.48298700809E+03 -0.47167668900E+03 -0.37373560323E+03  0.77164348064E+03  0.10566000000E+00 0.  1.
         13    1    4    4    0    0 -0.86083804423E+03 -0.67141515283E+02 -0.13002395427E+04  0.15608244620E+04  0.10566000000E+00 0. -1.
          4    1    3    3  502    0  0.30670416305E+03  0.51237419267E+03 -0.55543515427E+03  0.81553845252E+03  0.00000000000E+00 0.  1.
         -4    1    4    4    0  501  0.71146873089E+02  0.26444011620E+02  0.15094670007E+03  0.16895582133E+03  0.00000000000E+00 0. -1.
</event>
<event>
 8    1  0.7446554E-006  0.1735621E+04  0.7818608E-02  0.8285460E-01
         -4   -1    0    0    0  501 -0.00000000000E+00  0.00000000000E+00  0.11271479349E+04  0.11271479349E+04  0.00000000000E+00 0. -1.
          4   -1    0    0  502    0  0.00000000000E+00 -0.00000000000E+00 -0.32390376576E+04  0.32390376576E+04  0.00000000000E+00 0.  1.
    9000010    2    1    2  502    0 -0.37340526702E+03  0.13615332721E+04 -0.19669204234E+04  0.26206023219E+04  0.10027842406E+04 0.  0.
   -9000010    2    1    2    0  501  0.37340526702E+03 -0.13615332721E+04 -0.14496929929E+03  0.17455832705E+04  0.10162876129E+04 0.  0.
        -13    1    3    3    0    0 -0.67865529559E+03  0.87478293402E+03 -0.97981612284E+03  0.14784646893E+04  0.10566000000E+00 0.  1.
         13    1    4    4    0    0 -0.32204161343E+03 -0.73110718414E+03 -0.24956304893E+02  0.79928176746E+03  0.10566000000E+00 0. -1.
          4    1    3    3  502    0  0.30525002858E+03  0.48675033803E+03 -0.98710430058E+03  0.11421376326E+04  0.00000000000E+00 0.  1.
         -4    1    4    4    0  501  0.69544688044E+03 -0.63042608791E+03 -0.12001299439E+03  0.94630150304E+03  0.00000000000E+00 0. -1.
</event>
<event>
 8    1  0.7446554E-006  0.1524795E+04  0.7818608E-02  0.8395371E-01
          2   -1    0    0  502    0  0.00000000000E+00  0.00000000000E+00  0.14996412250E+04  0.14996412250E+04  0.00000000000E+00 0.  1.
         -2   -1    0    0    0  501 -0.00000000000E+00 -0.00000000000E+00 -0.15961042143E+04  0.15961042143E+04  0.00000000000E+00 0. -1.
    9000010    2    1    2  502    0 -0.61393922372E+03 -0.98075397084E+03 -0.30987955243E+03  0.15482889610E+04  0.98100644649E+03 0.  0.
   -9000010    2    1    2    0  501  0.61393922372E+03  0.98075397084E+03  0.21341656316E+03  0.15474564782E+04  0.10051244703E+04 0.  0.
        -13    1    3    3    0    0 -0.20025716249E+02 -0.42155574465E+03 -0.55433565436E+03  0.69670532079E+03  0.10566000000E+00 0.  1.
         13    1    4    4    0    0  0.38403303738E+03  0.22349957044E+03  0.53305279315E+03  0.69395873310E+03  0.10566000000E+00 0. -1.
          4    1    3    3  502    0 -0.59391350747E+03 -0.55919822619E+03  0.24445610193E+03  0.85158364023E+03  0.00000000000E+00 0.  1.
         -4    1    4    4    0  501  0.22990618634E+03  0.75725440040E+03 -0.31963622999E+03  0.85349774514E+03  0.00000000000E+00 0. -1.
</event>
<event>
 8    1  0.7446554E-006  0.1209877E+04  0.7818608E-02  0.8599161E-01
         -1   -1    0    0    0  501 -0.00000000000E+00  0.00000000000E+00  0.94687239579E+03  0.94687239579E+03  0.00000000000E+00 0. -1.
          1   -1    0    0  502    0  0.00000000000E+00 -0.00000000000E+00 -0.18376882341E+04  0.18376882341E+04  0.00000000000E+00 0.  1.
    9000010    2    1    2  502    0  0.61920995510E+03 -0.35446513063E+03 -0.10011319386E+04  0.15728241021E+04  0.98104230295E+03 0.  0.
   -9000010    2    1    2    0  501 -0.61920995510E+03  0.35446513063E+03  0.11031610035E+03  0.12117365278E+04  0.97317484217E+03 0.  0.
        -13    1    3    3    0    0  0.24800079636E+03 -0.96742548358E+02 -0.10815430893E+04  0.11138217904E+04  0.10566000000E+00 0.  1.
         13    1    4    4    0    0 -0.36500740318E+03  0.69278815865E+03  0.87612290842E+02  0.78794781668E+03  0.10566000000E+00 0. -1.
          4    1    3    3  502    0  0.37120915875E+03 -0.25772258227E+03  0.80411150665E+02  0.45900231165E+03  0.00000000000E+00 0.  1.
         -4    1    4    4    0  501 -0.25420255192E+03 -0.33832302802E+03  0.22703809507E+02  0.42378871110E+03  0.00000000000E+00 0. -1.
</event>
<event>
 7    1  0.7446554E-006  0.1383085E+04  0.7818608E-02  0.8480134E-01
          2   -1    0    0  502    0  0.00000000000E+00  0.00000000000E+00  0.19489707070E+04  0.19489707070E+04  0.00000000000E+00 0. -1.
         -2   -1    0    0    0  501 -0.00000000000E+00 -0.00000000000E+00 -0.12351464474E+04  0.12351464474E+04  0.00000000000E+00 0.  1.
    9000010    2    1    2  502    0 -0.30344486082E+03  0.71232138729E+03 -0.37639433202E+03  0.13144849900E+04  0.99333657606E+03 0.  0.
        -13    1    3    3    0    0 -0.21634640697E+03  0.58174840846E+02  0.29674957020E+03  0.37182038473E+03  0.10566000000E+00 0.  1.
         13    1    1    2    0    0 -0.50106784430E+03 -0.37518987816E+03  0.30649252141E+03  0.69697496807E+03  0.10566000000E+00 0. -1.
          4    1    3    3  502    0 -0.87098453849E+02  0.65414654645E+03 -0.67314390222E+03  0.94266460525E+03  0.00000000000E+00 0.  1.
         -4    1    1    2    0  501  0.80451270512E+03 -0.33713150913E+03  0.78372607012E+03  0.11726571963E+04  0.00000000000E+00 0. -1.
</event>
<event>
 8    1  0.7446554E-006  0.1300887E+04  0.7818608E-02  0.8534233E-01
          4   -1    0    0  502    0  0.00000000000E+00  0.00000000000E+00  0.21082743575E+04  0.21082743575E+04  0.00000000000E+00 0.  1.
         -4   -1    0    0    0  501 -0.00000000000E+00 -0.00000000000E+00 -0.81399110952E+03  0.81399110952E+03  0.00000000000E+00 0. -1.
    9000010    2    1    2  502    0  0.74744594376E+03  0.37436071695E+03  0.47075547386E+03  0.13746600491E+04  0.98450909044E+03 0.  0.
   -9000010    2    1    2    0  501 -0.74744594376E+03 -0.37436071695E+03  0.82352777412E+03  0.15476054179E+04  0.10089911544E+04 0.  0.
        -13    1    3    3    0    0  0.30656071393E+01 -0.14452680881E+03  0.44393580459E+03  0.46687943430E+03  0.10566000000E+00 0.  1.
         13    1    4    4    0    0 -0.88314673421E+03 -0.52771455553E+03  0.45270204226E+03  0.11239973116E+04  0.10566000000E+00 0. -1.
          4    1    3    3  502    0  0.74438033662E+03  0.51888752576E+03  0.26819669271E+02  0.90778061479E+03  0.00000000000E+00 0.  1.
         -4    1    4    4    0  501  0.13570079046E+03  0.15335383858E+03  0.37082573185E+03  0.42360810632E+03  0.00000000000E+00 0. -1.
</event>
<event>
 8    1  0.7446554E-006  0.1152848E+04  0.7818608E-02  0.8642940E-01
          1   -1    0    0  502    0  0.00000000000E+00  0.00000000000E+00  0.29899289066E+04  0.29899289066E+04  0.00000000000E+00 0. -1.
         -1   -1    0    0    0  501 -0.00000000000E+00 -0.00000000000E+00 -0.49600945073E+03  0.49600945073E+03  0.00000000000E+00 0.  1.
    9000010    2    1    2  502    0  0.44710083478E+03 -0.40832570346E+03  0.17941527274E+04  0.21248898030E+04  0.96412842992E+03 0.  0.
   -9000010    2    1    2    0  501 -0.44710083478E+03  0.40832570346E+03  0.69976672855E+03  0.13610485543E+04  0.99807347240E+03 0.  0.
        -13    1    3    3    0    0  0.56740765714E+02 -0.24457818065E+03 -0.29454356734E+02  0.25279551270E+03  0.10566000000E+00 0.  1.
         13    1    4    4    0    0 -0.55985167322E+03 -0.16169311584E+03  0.29709158023E+03  0.65409630630E+03  0.10566000000E+00 0. -1.
          4    1    3    3  502    0  0.39036006907E+03 -0.16374752281E+03  0.18236070841E+04  0.18720942903E+04  0.00000000000E+00 0.  1.
         -4    1    4    4    0  501  0.11275083844E+03  0.57001881930E+03  0.40267514832E+03  0.70695224803E+03  0.00000000000E+00 0. -1.
</event>
<event>
 8    1  0.7446554E-006  0.1366728E+04  0.7818608E-02  0.8490585E-01
         -1   -1    0    0    0  501 -0.00000000000E+00  0.00000000000E+00  0.10184932788E+04  0.10184932788E+04  0.00000000000E+00 0. -1.
          1   -1    0    0  502    0  0.00000000000E+00 -0.00000000000E+00 -0.19496609675E+04  0.19496609675E+04  0.00000000000E+00 0.  1.
    9000010    2    1    2  502    0  0.78151287448E+03 -0.41982730384E+03 -0.81963606978E+03  0.15759925316E+04  0.10123891716E+04 0.  0.
   -9000010    2    1    2    0  501 -0.78151287448E+03  0.41982730384E+03 -0.11153161886E+03  0.13921617147E+04  0.10670790035E+04 0.  0.
        -13    1    3    3    0    0  0.93895719639E+03 -0.45606629801E+02 -0.57724832508E+03  0.11031483224E+04  0.10566000000E+00 0.  1.
         13    1    4    4    0    0 -0.40737926737E+03  0.62457442091E+03  0.29597670000E+03  0.80228005886E+03  0.10566000000E+00 0. -1.
          4    1    3    3  502    0 -0.15744432191E+03 -0.37422067404E+03 -0.24238774469E+03  0.47284420918E+03  0.00000000000E+00 0.  1.
         -4    1    4    4    0  501 -0.37413360711E+03 -0.20474711707E+03 -0.40750831886E+03  0.58988165581E+03  0.00000000000E+00 0. -1.
</event>
<event>
 8    1  0.7446554E-006  0.1638451E+04  0.7818608E-02  0.8333992E-01
          1   -1    0    0  502    0  0.00000000000E+00  0.00000000000E+00  0.13558011091E+04  0.13558011091E+04  0.00000000000E+00 0. -1.
         -1   -1    0    0    0  501 -0.00000000000E+00 -0.00000000000E+00 -0.20401274790E+04  0.20401274790E+04  0.00000000000E+00 0.  1.
    9000010    2    1    2  502    0  0.12766603161E+04  0.23572842545E+03 -0.63401155804E+03  0.17587922194E+04  0.10029705688E+04 0.  0.
   -9000010    2    1    2    0  501 -0.12766603161E+04 -0.23572842545E+03 -0.50314811847E+02  0.16371363687E+04  0.99611969983E+03 0.  0.
        -13    1    3    3    0    0  0.12420167871E+04  0.31020199329E+03 -0.84397285206E+03  0.15333366109E+04  0.10566000000E+00 0.  1.
         13    1    4    4    0    0 -0.30241743062E+02 -0.24602677723E+03  0.25311405118E+03  0.35427457178E+03  0.10566000000E+00 0. -1.
          4    1    3    3  502    0  0.34643528973E+02 -0.74473567838E+02  0.20996129402E+03  0.22545560847E+03  0.00000000000E+00 0.  1.
         -4    1    4    4    0  501 -0.12464185730E+04  0.10298351783E+02 -0.30342886303E+03  0.12828617970E+04  0.00000000000E+00 0. -1.
</event>
<event>
 8    1  0.7446554E-006  0.1169494E+04  0.7818608E-02  0.8629895E-01
          2   -1    0    0  502    0  0.00000000000E+00  0.00000000000E+00  0.14402291214E+04  0.14402291214E+04  0.00000000000E+00 0. -1.
         -2   -1    0    0    0  501 -0.00000000000E+00 -0.00000000000E+00 -0.10550796896E+04  0.10550796896E+04  0.00000000000E+00 0.  1.
    9000010    2    1    2  502    0  0.45076151959E+03  0.40673891914E+03  0.58767227919E+03  0.13133121369E+04  0.10053892606E+04 0.  0.
   -9000010    2    1    2    0  501 -0.45076151959E+03 -0.40673891914E+03 -0.20252284740E+03  0.11819966741E+04  0.99371934573E+03 0.  0.
        -13    1    3    3    0    0  0.92423578262E+02  0.98758720870E+02 -0.28806342122E+03  0.31823882318E+03  0.10566000000E+00 0.  1.
         13    1    4    4    0    0  0.24536015198E+03 -0.37830017138E+03  0.17899656345E+02  0.45125716915E+03  0.10566000000E+00 0. -1.
          4    1    3    3  502    0  0.35833794132E+03  0.30798019827E+03  0.87573570042E+03  0.99507331373E+03  0.00000000000E+00 0.  1.
         -4    1    4    4    0  501 -0.69612167156E+03 -0.28438747755E+02 -0.22042250374E+03  0.73073950499E+03  0.00000000000E+00 0. -1.
</event>
<event>
 8    1  0.7446554E-006  0.1375087E+04  0.7818608E-02  0.8485226E-01
          1   -1    0    0  502    0  0.00000000000E+00  0.00000000000E+00  0.11157472608E+04  0.11157472608E+04  0.00000000000E+00 0. -1.
         -1   -1    0    0    0  501 -0.00000000000E+00 -0.00000000000E+00 -0.33408610812E+04  0.33408610812E+04  0.00000000000E+00 0.  1.
    9000010    2    1    2  502    0  0.15010541145E+03  0.93649632268E+03  0.45291197622E+03  0.14447099349E+04  0.99121165286E+03 0.  0.
   -9000010    2    1    2    0  501 -0.15010541145E+03 -0.93649632268E+03 -0.26780257966E+04  0.30118984072E+04  0.10000764226E+04 0.  0.
        -13    1    3    3    0    0  0.29157503842E+03 -0.11312982040E+03  0.10080690911E+03  0.32859763143E+03  0.10566000000E+00 0.  1.
         13    1    4    4    0    0 -0.11776449716E+03 -0.18198556047E+03  0.12761829916E+02  0.21714072966E+03  0.10566000000E+00 0. -1.
          4    1    3    3  502    0 -0.14146962697E+03  0.10496261431E+04  0.35210506711E+03  0.11161123034E+04  0.00000000000E+00 0.  1.
         -4    1    4    4    0  501 -0.32340914299E+02 -0.75451076221E+03 -0.26907876265E+04  0.27947576775E+04  0.00000000000E+00 0. -1.
</event>
<event>
 8    1  0.7446554E-006  0.1157643E+04  0.7818608E-02  0.8639159E-01
          2   -1    0    0  502    0  0.00000000000E+00  0.00000000000E+00  0.16194415054E+04  0.16194415054E+04  0.00000000000E+00 0.  1.
         -2   -1    0    0    0  501 -0.00000000000E+00 -0.00000000000E+00 -0.14351696669E+04  0.14351696669E+04  0.00000000000E+00 0. -1.
    9000010    2    1    2  502    0  0.44605204120E+03  0.24294654001E+03 -0.90184132354E+03  0.14641335151E+04  0.10355596228E+04 0.  0.
   -9000010    2    1    2    0  501 -0.44605204120E+03 -0.24294654001E+03  0.10861131620E+04  0.15904776572E+04  0.10449841782E+04 0.  0.
        -13    1    3    3    0    0 -0.62461943285E+02  0.35064049988E+03 -0.87378536309E+03  0.94358419149E+03  0.10566000000E+00 0.  1.
         13    1    4    4    0    0 -0.12194674203E+03 -0.62603711052E+03  0.75933451566E+03  0.99165638680E+03  0.10566000000E+00 0. -1.
          4    1    3    3  502    0  0.50851398449E+03 -0.10769395987E+03 -0.28055960454E+02  0.52054932363E+03  0.00000000000E+00 0.  1.
         -4    1    4    4    0  501 -0.32410529917E+03  0.38309057052E+03  0.32677864634E+03  0.59882127039E+03  0.00000000000E+00 0. -1.
</event>
<event>
 8    1  0.7446554E-006  0.1091355E+04  0.7818608E-02  0.8693197E-01
          1   -1    0    0  502    0  0.00000000000E+00  0.00000000000E+00  0.80556045717E+03  0.80556045717E+03  0.00000000000E+00 0.  1.
         -1   -1    0    0    0  501 -0.00000000000E+00 -0.00000000000E+00 -0.18096870585E+04  0.18096870585E+04  0.00000000000E+00 0. -1.
    9000010    2    1    2  502    0  0.13259247486E+03 -0.40467072970E+03 -0.10591967111E+04  0.15166906346E+04  0.99855577939E+03 0.  0.
   -9000010    2    1    2    0  501 -0.13259247486E+03  0.40467072970E+03  0.55070109745E+02  0.10985568810E+04  0.10111653376E+04 0.  0.
        -13    1    3    3    0    0 -0.39151888408E+03 -0.36431342988E+03 -0.69608631185E+03  0.87780833699E+03  0.10566000000E+00 0.  1.
         13    1    4    4    0    0  0.26260315021E+03  0.45335357683E+03  0.32588997099E+03  0.61700418515E+03  0.10566000000E+00 0. -1.
          4    1    3    3  502    0  0.52411135893E+03 -0.40357299820E+02 -0.36311039922E+03  0.63888229763E+03  0.00000000000E+00 0.  1.
         -4    1    4    4    0  501 -0.39519562507E+03 -0.48682847134E+02 -0.27081986125E+03  0.48155269589E+03  0.00000000000E+00 0. -1.
</event>
<event>
 8    1  0.7446554E-006  0.1095045E+04  0.7818608E-02  0.8690085E-01
          4   -1    0    0  502    0  0.00000000000E+00  0.00000000000E+00  0.10700939322E+04  0.10700939322E+04  0.00000000000E+00 0.  1.
         -4   -1    0    0    0  501 -0.00000000000E+00 -0.00000000000E+00 -0.11493002153E+04  0.11493002153E+04  0.00000000000E+00 0. -1.
    9000010    2    1    2  502    0  0.45732312379E+03  0.75406844155E+02  0.13551550620E+03  0.11092285051E+04  0.99859540973E+03 0.  0.
   -9000010    2    1    2    0  501 -0.45732312379E+03 -0.75406844155E+02 -0.21472178930E+03  0.11101656424E+04  0.98566306370E+03 0.  0.
        -13    1    3    3    0    0  0.58176310363E+03 -0.32713051270E+03  0.26253292384E+01  0.66743507894E+03  0.10566000000E+00 0.  1.
         13    1    4    4    0    0 -0.18679708621E+03 -0.49113607265E+03  0.82550519034E+02  0.53190449578E+03  0.10566000000E+00 0. -1.
          4    1    3    3  502    0 -0.12443997984E+03  0.40253735685E+03  0.13289017696E+03  0.44179342613E+03  0.00000000000E+00 0.  1.
         -4    1    4    4    0  501 -0.27052603758E+03  0.41572922849E+03 -0.29727230834E+03  0.57826114666E+03  0.00000000000E+00 0. -1.
</event>
<event>
 8    1  0.7446554E-006  0.1159006E+04  0.7818608E-02  0.8638088E-01
          2   -1    0    0  502    0  0.00000000000E+00  0.00000000000E+00  0.36865482577E+04  0.36865482577E+04  0.00000000000E+00 0. -1.
         -2   -1    0    0    0  501 -0.00000000000E+00 -0.00000000000E+00 -0.39125444637E+03  0.39125444637E+03  0.00000000000E+00 0.  1.
    9000010    2    1    2  502    0  0.66218059737E+02  0.58135994125E+03  0.11218612556E+04  0.16176531510E+04  0.10079011993E+04 0.  0.
   -9000010    2    1    2    0  501 -0.66218059737E+02 -0.58135994125E+03  0.21734325557E+04  0.24601495530E+04  0.99305716665E+03 0.  0.
        -13    1    3    3    0    0 -0.39480612324E+03  0.38586812437E+03  0.23669655039E+03  0.60065909840E+03  0.10566000000E+00 0.  1.
         13    1    4    4    0    0 -0.45085800818E+03 -0.73000489663E+02  0.13067683968E+04  0.13842852557E+04  0.10566000000E+00 0. -1.
          4    1    3    3  502    0  0.46102418298E+03  0.19549181687E+03  0.88516470518E+03  0.10169940526E+04  0.00000000000E+00 0.  1.
         -4    1    4    4    0  501  0.38463994845E+03 -0.50835945159E+03  0.86666415895E+03  0.10758642974E+04  0.00000000000E+00 0. -1.
</event>
<event>
 8    1  0.7446554E-006  0.1271110E+04  0.7818608E-02  0.8554856E-01
          2   -1    0    0  502    0  0.00000000000E+00  0.00000000000E+00  0.13015975128E+04  0.13015975128E+04  0.00000000000E+00 0. -1.
         -2   -1    0    0    0  501 -0.00000000000E+00 -0.00000000000E+00 -0.12976059391E+04  0.12976059391E+04  0.00000000000E+00 0.  1.
    9000010    2    1    2  502    0  0.39017181450E+03  0.70613134932E+03 -0.26854638466E+03  0.12922337298E+04  0.97308546616E+03 0.  0.
   -9000010    2    1    2    0  501 -0.39017181450E+03 -0.70613134932E+03  0.27253795837E+03  0.13069697221E+04  0.99148241956E+03 0.  0.
        -13    1    3    3    0    0 -0.14812064760E+03 -0.11744365161E+03 -0.24319410950E+03  0.30801968056E+03  0.10566000000E+00 0.  1.
         13    1    4    4    0    0 -0.44234965625E+03 -0.82950230863E+03 -0.66501900556E+02  0.94242761651E+03  0.10566000000E+00 0. -1.
          4    1    3    3  502    0  0.53829246210E+03  0.82357500093E+03 -0.25352275156E+02  0.98421404926E+03  0.00000000000E+00 0.  1.
         -4    1    4    4    0  501  0.52177841753E+02  0.12337095932E+03  0.33903985893E+03  0.36454210554E+03  0.00000000000E+00 0. -1.
</event>
<event>
 8    1  0.7446554E-006  0.1389273E+04  0.7818608E-02  0.8476218E-01
         -2   -1    0    0    0  501 -0.00000000000E+00  0.00000000000E+00  0.82211193728E+03  0.82211193728E+03  0.00000000000E+00 0.  1.
          2   -1    0    0  502    0  0.00000000000E+00 -0.00000000000E+00 -0.23719024012E+04  0.23719024012E+04  0.00000000000E+00 0. -1.
    9000010    2    1    2  502    0  0.97065739712E+03  0.19108111176E+03 -0.93726663317E+03  0.16775299512E+04  0.97823832552E+03 0.  0.
   -9000010    2    1    2    0  501 -0.97065739712E+03 -0.19108111176E+03 -0.61252383074E+03  0.15164843873E+04  0.97254906298E+03 0.  0.
        -13    1    3    3    0    0  0.26595333131E+03 -0.29050120876E+03 -0.68040904562E+03  0.78617975506E+03  0.10566000000E+00 0.  1.
         13    1    4    4    0    0 -0.49993078166E+03  0.39126779790E+03 -0.22653728038E+03  0.67404779259E+03  0.10566000000E+00 0. -1.
          4    1    3    3  502    0  0.70470406581E+03  0.48158232052E+03 -0.25685758754E+03  0.89135019610E+03  0.00000000000E+00 0.  1.
         -4    1    4    4    0  501 -0.47072661546E+03 -0.58234890966E+03 -0.38598655037E+03  0.84243659473E+03  0.00000000000E+00 0. -1.
</event>
<event>
 8    1  0.7446554E-006  0.1374430E+04  0.7818608E-02  0.8485645E-01
         -1   -1    0    0    0  501 -0.00000000000E+00  0.00000000000E+00  0.86135795278E+03  0.86135795278E+03  0.00000000000E+00 0. -1.
          1   -1    0    0  502    0  0.00000000000E+00 -0.00000000000E+00 -0.22004736862E+04  0.22004736862E+04  0.00000000000E+00 0.  1.
    9000010    2    1    2  502    0 -0.49237785978E+03 -0.79890085589E+03 -0.75644644802E+03  0.15660348920E+04  0.99978773745E+03 0.  0.
   -9000010    2    1    2    0  501  0.49237785978E+03  0.79890085589E+03 -0.58266928544E+03  0.14957967470E+04  0.10085761636E+04 0.  0.
        -13    1    3    3    0    0 -0.50921002587E+02 -0.90726404490E+03 -0.58229781648E+03  0.10792551848E+04  0.10566000000E+00 0.  1.
         13    1    4    4    0    0  0.14677451719E+03  0.69194143094E+02 -0.66470838601E+03  0.68422791374E+03  0.10566000000E+00 0. -1.
          4    1    3    3  502    0 -0.44145685719E+03  0.10836318901E+03 -0.17414863153E+03  0.48677970722E+03  0.00000000000E+00 0.  1.
         -4    1    4    4    0  501  0.34560334258E+03  0.72970671279E+03  0.82039100573E+02  0.81156883326E+03  0.00000000000E+00 0. -1.
</event>
<event>
 7    1  0.7446554E-006  0.7322611E+03  0.7818608E-02  0.9077448E-01
         -2   -1    0    0    0  501 -0.00000000000E+00  0.00000000000E+00  0.22977178563E+03  0.22977178563E+03  0.00000000000E+00 0.  1.
          2   -1    0    0  502    0  0.00000000000E+00 -0.00000000000E+00 -0.25652813444E+04  0.25652813444E+04  0.00000000000E+00 0. -1.
   -9000010    2    1    2    0  501  0.15913168316E+03 -0.11546808555E+03 -0.16431125101E+04  0.19112780638E+04  0.95629981949E+03 0.  0.
        -13    1    1    2    0    0  0.12638035348E+03 -0.11752720536E+03 -0.29525899387E+03  0.34199783971E+03  0.10566000000E+00 0.  1.
         13    1    3    3    0    0 -0.21095288319E+03 -0.41634555185E+03 -0.56835092573E+03  0.73543696087E+03  0.10566000000E+00 0. -1.
          4    1    1    2  502    0 -0.28551203664E+03  0.23299529091E+03 -0.39713805475E+03  0.54177722653E+03  0.00000000000E+00 0.  1.
         -4    1    3    3    0  501  0.37008456635E+03  0.30087746629E+03 -0.10747615844E+04  0.11758411029E+04  0.00000000000E+00 0. -1.
</event>
<event>
 8    1  0.7446554E-006  0.1371878E+04  0.7818608E-02  0.8487279E-01
          1   -1    0    0  502    0  0.00000000000E+00  0.00000000000E+00  0.27005182451E+04  0.27005182451E+04  0.00000000000E+00 0. -1.
         -1   -1    0    0    0  501 -0.00000000000E+00 -0.00000000000E+00 -0.74510663948E+03  0.74510663948E+03  0.00000000000E+00 0.  1.
    9000010    2    1    2  502    0  0.92515335889E+03  0.16668714565E+03  0.14176617075E+04  0.19747066493E+04  0.10029996470E+04 0.  0.
   -9000010    2    1    2    0  501 -0.92515335889E+03 -0.16668714565E+03  0.53774989817E+03  0.14709182353E+04  0.99535529335E+03 0.  0.
        -13    1    3    3    0    0  0.10184730851E+04  0.39714656198E+03  0.13032160394E+04  0.17009952596E+04  0.10566000000E+00 0.  1.
         13    1    4    4    0    0 -0.16545046196E+03 -0.28099219317E+03  0.61772897121E+03  0.69851239146E+03  0.10566000000E+00 0. -1.
          4    1    3    3  502    0 -0.93319726246E+02 -0.23045941633E+03  0.11444566810E+03  0.27371138966E+03  0.00000000000E+00 0.  1.
         -4    1    4    4    0  501 -0.75970289693E+03  0.11430504752E+03 -0.79979073040E+02  0.77240584385E+03  0.00000000000E+00 0. -1.
</event>
<event>
 8    1  0.7446554E-006  0.1367063E+04  0.7818608E-02  0.8490370E-01
          1   -1    0    0  502    0  0.00000000000E+00  0.00000000000E+00  0.12757621960E+04  0.12757621960E+04  0.00000000000E+00 0.  1.
         -1   -1    0    0    0  501 -0.00000000000E+00 -0.00000000000E+00 -0.14665415112E+04  0.14665415112E+04  0.00000000000E+00 0. -1.
    9000010    2    1    2  502    0 -0.12597933496E+03 -0.94065782099E+03 -0.50584088908E+02  0.13546248637E+04  0.96526775679E+03 0.  0.
   -9000010    2    1    2    0  501  0.12597933496E+03  0.94065782099E+03 -0.14019522638E+03  0.13876788435E+04  0.10026414823E+04 0.  0.
        -13    1    3    3    0    0  0.22033622927E+03 -0.97912231951E+03 -0.84659530281E+01  0.10036434895E+04  0.10566000000E+00 0.  1.
         13    1    4    4    0    0  0.16228949450E+03  0.60080593501E+03 -0.56630428111E+03  0.84143104384E+03  0.10566000000E+00 0. -1.
          4    1    3    3  502    0 -0.34631556423E+03  0.38464498517E+02 -0.42118135880E+02  0.35098137421E+03  0.00000000000E+00 0.  1.
         -4    1    4    4    0  501 -0.36310159535E+02  0.33985188598E+03  0.42610905473E+03  0.54624779965E+03  0.00000000000E+00 0. -1.
</event>
<event>
 8    1  0.7446554E-006  0.1027576E+04  0.7818608E-02  0.8749104E-01
          1   -1    0    0  502    0  0.00000000000E+00  0.00000000000E+00  0.10454700148E+04  0.10454700148E+04  0.00000000000E+00 0.  1.
         -1   -1    0    0    0  501 -0.00000000000E+00 -0.00000000000E+00 -0.10956928984E+04  0.10956928984E+04  0.00000000000E+00 0. -1.
    9000010    2    1    2  502    0 -0.23878518251E+03  0.86583239547E+02 -0.32458126953E+03  0.10806047509E+04  0.99891871863E+03 0.  0.
   -9000010    2    1    2    0  501  0.23878518251E+03 -0.86583239547E+02  0.27435838585E+03  0.10605581623E+04  0.99246968264E+03 0.  0.
        -13    1    3    3    0    0 -0.40518182522E+03  0.45908596846E+03 -0.26921718492E+03  0.66888724143E+03  0.10566000000E+00 0.  1.
         13    1    4    4    0    0  0.32867645995E+02 -0.42019823288E+03  0.46246741906E+03  0.62571795717E+03  0.10566000000E+00 0. -1.
          4    1    3    3  502    0  0.16639664271E+03 -0.37250272891E+03 -0.55364084614E+02  0.41171750949E+03  0.00000000000E+00 0.  1.
         -4    1    4    4    0  501  0.20591753651E+03  0.33361499333E+03 -0.18810903321E+03  0.43484020513E+03  0.00000000000E+00 0. -1.
</event>
<event>
 8    1  0.7446554E-006  0.1218031E+04  0.7818608E-02  0.8593107E-01
         -1   -1    0    0    0  501 -0.00000000000E+00  0.00000000000E+00  0.10238761902E+04  0.10238761902E+04  0.00000000000E+00 0.  1.
          1   -1    0    0  502    0  0.00000000000E+00 -0.00000000000E+00 -0.19350778848E+04  0.19350778848E+04  0.00000000000E+00 0. -1.
    9000010    2    1    2  502    0 -0.38586880901E+03  0.57531398401E+03  0.28567318881E+03  0.12518625099E+04  0.10028308207E+04 0.  0.
   -9000010    2    1    2    0  501  0.38586880901E+03 -0.57531398401E+03 -0.11968748833E+04  0.17070915651E+04  0.10008852118E+04 0.  0.
        -13    1    3    3    0    0 -0.62965996565E+03  0.54981099375E+02  0.23760852601E+03  0.67524248713E+03  0.10566000000E+00 0.  1.
         13    1    4    4    0    0  0.66149976929E+03 -0.11349045896E+03 -0.76212317386E+03  0.10155263524E+04  0.10566000000E+00 0. -1.
          4    1    3    3  502    0  0.24379115664E+03  0.52033288464E+03  0.48064662807E+02  0.57662002280E+03  0.00000000000E+00 0.  1.
         -4    1    4    4    0  501 -0.27563096028E+03 -0.46182352505E+03 -0.43475170949E+03  0.69156521273E+03  0.00000000000E+00 0. -1.
</event>
<event>
 8    1  0.7446554E-006  0.1221582E+04  0.7818608E-02  0.8590486E-01
          2   -1    0    0  502    0  0.00000000000E+00  0.00000000000E+00  0.12253366839E+04  0.12253366839E+04  0.00000000000E+00 0. -1.
         -2   -1    0    0    0  501 -0.00000000000E+00 -0.00000000000E+00 -0.14275698342E+04  0.14275698342E+04  0.00000000000E+00 0.  1.
    9000010    2    1    2  502    0  0.19347909414E+03 -0.67667675723E+03  0.40694608663E+03  0.12920913602E+04  0.10042755459E+04 0.  0.
   -9000010    2    1    2    0  501 -0.19347909414E+03  0.67667675723E+03 -0.60917923698E+03  0.13608151579E+04  0.99266961143E+03 0.  0.
        -13    1    3    3    0    0  0.22759976573E+03  0.31515094948E+02 -0.24001581839E+03  0.33226865457E+03  0.10566000000E+00 0.  1.
         13    1    4    4    0    0  0.31916779531E+03  0.62236076335E+03 -0.38814811020E+03  0.79991247517E+03  0.10566000000E+00 0. -1.
          4    1    3    3  502    0 -0.34120671587E+02 -0.70819185218E+03  0.64696190501E+03  0.95982270564E+03  0.00000000000E+00 0.  1.
         -4    1    4    4    0  501 -0.51264688944E+03  0.54315993883E+02 -0.22103112679E+03  0.56090268270E+03  0.00000000000E+00 0. -1.
</event>
<event>
 8    1  0.7446554E-006  0.1370192E+04  0.7818608E-02  0.8488360E-01
         -2   -1    0    0    0  501 -0.00000000000E+00  0.00000000000E+00  0.21933136859E+04  0.21933136859E+04  0.00000000000E+00 0.  1.
          2   -1    0    0  502    0  0.00000000000E+00 -0.00000000000E+00 -0.91028466202E+03  0.91028466202E+03  0.00000000000E+00 0. -1.
    9000010    2    1    2  502    0 -0.73493944534E+03 -0.57219543208E+03  0.26213168915E+03  0.13942614318E+04  0.10038467597E+04 0.  0.
   -9000010    2    1    2    0  501  0.73493944534E+03  0.57219543208E+03  0.10208973347E+04  0.17093369161E+04  0.10060107971E+04 0.  0.
        -13    1    3    3    0    0 -0.14173069465E+02 -0.41344009437E+03 -0.26143554897E+03  0.48936912955E+03  0.10566000000E+00 0.  1.
         13    1    4    4    0    0  0.30895767359E+03  0.81555744591E+03  0.74167620252E+03  0.11448460124E+04  0.10566000000E+00 0. -1.
          4    1    3    3  502    0 -0.72076637587E+03 -0.15875533770E+03  0.52356723812E+03  0.90489230225E+03  0.00000000000E+00 0.  1.
         -4    1    4    4    0  501  0.42598177175E+03 -0.24336201383E+03  0.27922113218E+03  0.56449090364E+03  0.00000000000E+00 0. -1.
</event>
<event>
 8    1  0.7446554E-006  0.1033805E+04  0.7818608E-02  0.8743461E-01
         -2   -1    0    0    0  501 -0.00000000000E+00  0.00000000000E+00  0.41668888750E+03  0.41668888750E+03  0.00000000000E+00 0. -1.
          2   -1    0    0  502    0  0.00000000000E+00 -0.00000000000E+00 -0.30024685403E+04  0.30024685403E+04  0.00000000000E+00 0.  1.
    9000010    2    1    2  502    0 -0.17994837217E+02  0.30458517865E+03 -0.19368393565E+04  0.21917179199E+04  0.97937980486E+03 0.  0.
   -9000010    2    1    2    0  501  0.17994837217E+02 -0.30458517865E+03 -0.64894029626E+03  0.12274395079E+04  0.99618687614E+03 0.  0.
        -13    1    3    3    0    0  0.42456064717E+03 -0.64729405271E+02 -0.61963974386E+03  0.75391979837E+03  0.10566000000E+00 0.  1.
         13    1    4    4    0    0 -0.16038236525E+03 -0.61579410263E+03 -0.58238791502E+03  0.86261264461E+03  0.10566000000E+00 0. -1.
          4    1    3    3  502    0 -0.44255548439E+03  0.36931458393E+03 -0.13171996127E+04  0.14377981215E+04  0.00000000000E+00 0.  1.
         -4    1    4    4    0  501  0.17837720246E+03  0.31120892398E+03 -0.66552381240E+02  0.36482686328E+03  0.00000000000E+00 0. -1.
</event>
<event>
 8    1  0.7446554E-006  0.1180493E+04  0.7818608E-02  0.8621398E-01
          2   -1    0    0  502    0  0.00000000000E+00  0.00000000000E+00  0.29391613264E+04  0.29391613264E+04  0.00000000000E+00 0.  1.
         -2   -1    0    0    0  501 -0.00000000000E+00 -0.00000000000E+00 -0.47778175168E+03  0.47778175168E+03  0.00000000000E+00 0. -1.
    9000010    2    1    2  502    0  0.42724813678E+03  0.46015883415E+03  0.10859350201E+04  0.16071083720E+04  0.10046170058E+04 0.  0.
   -9000010    2    1    2    0  501 -0.42724813678E+03 -0.46015883415E+03  0.13754445546E+04  0.18098347060E+04  0.99466920002E+03 0.  0.
        -13    1    3    3    0    0  0.59075728142E+02  0.72243726227E+03  0.75688447556E+03  0.10479883874E+04  0.10566000000E+00 0.  1.
         13    1    4    4    0    0 -0.26890130073E+03 -0.39471189881E+03  0.57790495493E+02  0.48108746099E+03  0.10566000000E+00 0. -1.
          4    1    3    3  502    0  0.36817240864E+03 -0.26227842812E+03  0.32905054456E+03  0.55911998463E+03  0.00000000000E+00 0.  1.
         -4    1    4    4    0  501 -0.15834683605E+03 -0.65446935345E+02  0.13176540591E+04  0.13287472450E+04  0.00000000000E+00 0. -1.
</event>
<event>
 8    1  0.7446554E-006  0.1266785E+04  0.7818608E-02  0.8557900E-01
          2   -1    0    0  502    0  0.00000000000E+00  0.00000000000E+00  0.18260153476E+04  0.18260153476E+04  0.00000000000E+00 0.  1.
         -2   -1    0    0    0  501 -0.00000000000E+00 -0.00000000000E+00 -0.95381099056E+03  0.95381099056E+03  0.00000000000E+00 0. -1.
    9000010    2    1    2  502    0  0.51089407737E+03  0.64935776600E+03  0.81656214069E+03  0.14856457535E+04  0.92611625010E+03 0.  0.
   -9000010    2    1    2    0  501 -0.51089407737E+03 -0.64935776600E+03  0.55642216326E+02  0.12941805847E+04  0.99454967845E+03 0.  0.
        -13    1    3    3    0    0  0.56673685930E+03  0.59295096664E+03  0.17436375217E+03  0.83856081816E+03  0.10566000000E+00 0.  1.
         13    1    4    4    0    0  0.10462022299E+03  0.68530053004E+02 -0.26714757084E+03  0.29497388867E+03  0.10566000000E+00 0. -1.
          4    1    3    3  502    0 -0.55842781928E+02  0.56406799355E+02  0.64219838852E+03  0.64708493532E+03  0.00000000000E+00 0.  1.
         -4    1    4    4    0  501 -0.61551430035E+03 -0.71788781900E+03  0.32278978717E+03  0.99920669599E+03  0.00000000000E+00 0. -1.
</event>
<event>
 8    1  0.7446554E-006  0.1119597E+04  0.7818608E-02  0.8669699E-01
         -4   -1    0    0    0  501 -0.00000000000E+00  0.00000000000E+00  0.10358574225E+04  0.10358574225E+04  0.00000000000E+00 0. -1.
          4   -1    0    0  502    0  0.00000000000E+00 -0.00000000000E+00 -0.21439893123E+04  0.21439893123E+04  0.00000000000E+00 0.  1.
    9000010    2    1    2  502    0  0.49606510757E+03 -0.12688710630E+03 -0.16037160641E+04  0.19565255446E+04  0.99694837571E+03 0.  0.
   -9000010    2    1    2    0  501 -0.49606510757E+03  0.12688710630E+03  0.49558417423E+03  0.12233211902E+04  0.99434909966E+03 0.  0.
        -13    1    3    3    0    0  0.47958467633E+03  0.36955346750E+03 -0.10549547543E+04  0.12163473073E+04  0.10566000000E+00 0.  1.
         13    1    4    4    0    0 -0.77169211893E+02  0.35297217757E+03  0.63213782766E+03  0.72810898204E+03  0.10566000000E+00 0. -1.
          4    1    3    3  502    0  0.16480431242E+02 -0.49644057380E+03 -0.54876130977E+03  0.74017823734E+03  0.00000000000E+00 0.  1.
         -4    1    4    4    0  501 -0.41889589568E+03 -0.22608507126E+03 -0.13655365343E+03  0.49521220818E+03  0.00000000000E+00 0. -1.
</event>
<event>
 8    1  0.7446554E-006  0.1087451E+04  0.7818608E-02  0.8696505E-01
         -2   -1    0    0    0  501 -0.00000000000E+00  0.00000000000E+00  0.50246031613E+03  0.50246031613E+03  0.00000000000E+00 0. -1.
          2   -1    0    0  502    0  0.00000000000E+00 -0.00000000000E+00 -0.23585752984E+04  0.23585752984E+04  0.00000000000E+00 0.  1.
    9000010    2    1    2  502    0 -0.33889198361E+03 -0.25159944540E+03 -0.86278902589E+03  0.13890325359E+04  0.10034223562E+04 0.  0.
   -9000010    2    1    2    0  501  0.33889198361E+03  0.25159944540E+03 -0.99332595641E+03  0.14720030787E+04  0.10009728021E+04 0.  0.
        -13    1    3    3    0    0 -0.50307802752E+03 -0.81817118062E+02 -0.16017644921E+02  0.50993932844E+03  0.10566000000E+00 0.  1.
         13    1    4    4    0    0  0.43201621310E+03 -0.27961735676E+03 -0.66405494779E+03  0.84011478943E+03  0.10566000000E+00 0. -1.
          4    1    3    3  502    0  0.16418604391E+03 -0.16978232734E+03 -0.84677138097E+03  0.87909320741E+03  0.00000000000E+00 0.  1.
         -4    1    4    4    0  501 -0.93124229486E+02  0.53121680216E+03 -0.32927100862E+03  0.63188828928E+03  0.00000000000E+00 0. -1.
</event>
<event>
 8    1  0.7446554E-006  0.1145480E+04  0.7818608E-02  0.8648788E-01
          1   -1    0    0  502    0  0.00000000000E+00  0.00000000000E+00  0.12916522929E+04  0.12916522929E+04  0.00000000000E+00 0.  1.
         -1   -1    0    0    0  501 -0.00000000000E+00 -0.00000000000E+00 -0.10171214300E+04  0.10171214300E+04  0.00000000000E+00 0. -1.
    9000010    2    1    2  502    0 -0.30160449033E+03  0.46910349639E+03  0.17769349711E+03  0.11567030190E+04  0.99767907479E+03 0.  0.
   -9000010    2    1    2    0  501  0.30160449033E+03 -0.46910349639E+03  0.96837365756E+02  0.11520707039E+04  0.10034271635E+04 0.  0.
        -13    1    3    3    0    0 -0.66306270001E+03  0.27161504599E+03  0.23583145194E+02  0.71692611422E+03  0.10566000000E+00 0.  1.
         13    1    4    4    0    0  0.64802271950E+03 -0.44151819858E+03 -0.22996884593E+02  0.78447474945E+03  0.10566000000E+00 0. -1.
          4    1    3    3  502    0  0.36145820968E+03  0.19748845040E+03  0.15411035192E+03  0.43977690475E+03  0.00000000000E+00 0.  1.
         -4    1    4    4    0  501 -0.34641822917E+03 -0.27585297808E+02  0.11983425035E+03  0.36759595443E+03  0.00000000000E+00 0. -1.
</event>
<event>
 8    1  0.7446554E-006  0.1273384E+04  0.7818608E-02  0.8553260E-01
          2   -1    0    0  502    0  0.00000000000E+00  0.00000000000E+00  0.15378185046E+04  0.15378185046E+04  0.00000000000E+00 0. -1.
         -2   -1    0    0    0  501 -0.00000000000E+00 -0.00000000000E+00 -0.11475355682E+04  0.11475355682E+04  0.00000000000E+00 0.  1.
    9000010    2    1    2  502    0  0.62980827173E+03 -0.49497506589E+03 -0.18812183108E+03  0.12812872448E+04  0.98216516196E+03 0.  0.
   -9000010    2    1    2    0  501 -0.62980827173E+03  0.49497506589E+03  0.57840476747E+03  0.14040668280E+04  0.99759350817E+03 0.  0.
        -13    1    3    3    0    0  0.19130887845E+03  0.27449465861E+03 -0.21062076906E+03  0.39535746370E+03  0.10566000000E+00 0.  1.
         13    1    4    4    0    0 -0.27795840500E+03  0.33492489405E+03  0.83394636962E+03  0.94069236104E+03  0.10566000000E+00 0. -1.
          4    1    3    3  502    0  0.43849939328E+03 -0.76946972450E+03  0.22498937979E+02  0.88592978110E+03  0.00000000000E+00 0.  1.
         -4    1    4    4    0  501 -0.35184986673E+03  0.16005017184E+03 -0.25554160215E+03  0.46337446698E+03  0.00000000000E+00 0. -1.
</event>
<event>
 8    1  0.7446554E-006  0.1104167E+04  0.7818608E-02  0.8682447E-01
         -2   -1    0    0    0  501 -0.00000000000E+00  0.00000000000E+00  0.81358208672E+03  0.81358208672E+03  0.00000000000E+00 0.  1.
          2   -1    0    0  502    0  0.00000000000E+00 -0.00000000000E+00 -0.18507958492E+04  0.18507958492E+04  0.00000000000E+00 0. -1.
    9000010    2    1    2  502    0 -0.47757762871E+03 -0.17225488028E+03  0.68961308940E+02  0.10887170258E+04  0.96062321691E+03 0.  0.
   -9000010    2    1    2    0  501  0.47757762871E+03  0.17225488028E+03 -0.11061750714E+04  0.15756609101E+04  0.10006657184E+04 0.  0.
        -13    1    3    3    0    0  0.24459134030E+03  0.13044392952E+03 -0.86516511134E+02  0.29038880895E+03  0.10566000000E+00 0.  1.
         13    1    4    4    0    0  0.58297836202E+03  0.45501995759E+03 -0.10235938236E+04  0.12627950187E+04  0.10566000000E+00 0. -1.
          4    1    3    3  502    0 -0.72216896901E+03 -0.30269880980E+03  0.15547782007E+03  0.79832821683E+03  0.00000000000E+00 0.  1.
         -4    1    4    4    0  501 -0.10540073331E+03 -0.28276507731E+03 -0.82581247784E+02  0.31286589142E+03  0.00000000000E+00 0. -1.
</event>
<event>
 8    1  0.7446554E-006  0.1271696E+04  0.7818608E-02  0.8554445E-01
          1   -1    0    0  502    0  0.00000000000E+00  0.00000000000E+00  0.19821749853E+04  0.19821749853E+04  0.00000000000E+00 0. -1.
         -1   -1    0    0    0  501 -0.00000000000E+00 -0.00000000000E+00 -0.13696987379E+04  0.13696987379E+04  0.00000000000E+00 0.  1.
    9000010    2    1    2  502    0 -0.26368241865E+03  0.74596689274E+03  0.13728789349E+04  0.18760467990E+04  0.10043704492E+04 0.  0.
   -9000010    2    1    2    0  501  0.26368241865E+03 -0.74596689274E+03 -0.76040268756E+03  0.14758269241E+04  0.98684235808E+03 0.  0.
        -13    1    3    3    0    0 -0.32881995214E+03 -0.16145293704E+03  0.44833996060E+03  0.57896316224E+03  0.10566000000E+00 0.  1.
         13    1    4    4    0    0 -0.18994000273E+03 -0.52330097114E+03  0.72841016680E+01  0.55675324905E+03  0.10566000000E+00 0. -1.
          4    1    3    3  502    0  0.65137533490E+02  0.90741982978E+03  0.92453897435E+03  0.12970836368E+04  0.00000000000E+00 0.  1.
         -4    1    4    4    0  501  0.45362242137E+03 -0.22266592160E+03 -0.76768678923E+03  0.91907367505E+03  0.00000000000E+00 0. -1.
</event>
<event>
 8    1  0.7446554E-006  0.1202386E+04  0.7818608E-02  0.8604768E-01
         -2   -1    0    0    0  501 -0.00000000000E+00  0.00000000000E+00  0.90033470636E+03  0.90033470636E+03  0.00000000000E+00 0. -1.
          2   -1    0    0  502    0  0.00000000000E+00 -0.00000000000E+00 -0.16952138139E+04  0.16952138139E+04  0.00000000000E+00 0.  1.
    9000010    2    1    2  502    0 -0.50520597027E+03  0.44060465549E+03 -0.96461926618E+02  0.11965232640E+04  0.98640634785E+03 0.  0.
   -9000010    2    1    2    0  501  0.50520597027E+03 -0.44060465549E+03 -0.69841718094E+03  0.13990252563E+04  0.10100096902E+04 0.  0.
        -13    1    3    3    0    0 -0.18962999353E+03 -0.31743648396E+03  0.58496508631E-01  0.36976407395E+03  0.10566000000E+00 0.  1.
         13    1    4    4    0    0  0.58196556047E+03 -0.28008704626E+03  0.32586243555E+02  0.64667962817E+03  0.10566000000E+00 0. -1.
          4    1    3    3  502    0 -0.31557597674E+03  0.75804113945E+03 -0.96520423127E+02  0.82675919002E+03  0.00000000000E+00 0.  1.
         -4    1    4    4    0  501 -0.76759590204E+02 -0.16051760923E+03 -0.73100342449E+03  0.75234562814E+03  0.00000000000E+00 0. -1.
</event>
<event>
 8    1  0.7446554E-006  0.1278013E+04  0.7818608E-02  0.8550024E-01
         -2   -1    0    0    0  501 -0.00000000000E+00  0.00000000000E+00  0.22786844828E+04  0.22786844828E+04  0.00000000000E+00 0. -1.
          2   -1    0    0  502    0  0.00000000000E+00 -0.00000000000E+00 -0.72306931162E+03  0.72306931162E+03  0.00000000000E+00 0.  1.
    9000010    2    1    2  502    0  0.66023167324E+03  0.40977558505E+03  0.90913608340E+03  0.15579035901E+04  0.99835529026E+03 0.  0.
   -9000010    2    1    2    0  501 -0.66023167324E+03 -0.40977558505E+03  0.64647908774E+03  0.14438502042E+04  0.10309928753E+04 0.  0.
        -13    1    3    3    0    0 -0.13154208001E+03 -0.91427907751E+02  0.51847069646E+03  0.54265482158E+03  0.10566000000E+00 0.  1.
         13    1    4    4    0    0 -0.58878767484E+03 -0.57610705646E+03  0.84162553123E+03  0.11776688043E+04  0.10566000000E+00 0. -1.
          4    1    3    3  502    0  0.79177375324E+03  0.50120349280E+03  0.39066538693E+03  0.10152487686E+04  0.00000000000E+00 0.  1.
         -4    1    4    4    0  501 -0.71443998394E+02  0.16633147141E+03 -0.19514644348E+03  0.26618139997E+03  0.00000000000E+00 0. -1.
</event>
<event>
 8    1  0.7446554E-006  0.1314441E+04  0.7818608E-02  0.8525033E-01
          2   -1    0    0  502    0  0.00000000000E+00  0.00000000000E+00  0.13387257583E+04  0.13387257583E+04  0.00000000000E+00 0.  1.
         -2   -1    0    0    0  501 -0.00000000000E+00 -0.00000000000E+00 -0.16721893550E+04  0.16721893550E+04  0.00000000000E+00 0. -1.
    9000010    2    1    2  502    0  0.73530211453E+03 -0.42573340476E+03  0.55236650054E+03  0.14263681269E+04  0.10037425720E+04 0.  0.
   -9000010    2    1    2    0  501 -0.73530211453E+03  0.42573340476E+03 -0.88583009725E+03  0.15845469864E+04  0.10020858543E+04 0.  0.
        -13    1    3    3    0    0  0.57656139566E+03 -0.23928988029E+03  0.84131852249E+03  0.10476161307E+04  0.10566000000E+00 0.  1.
         13    1    4    4    0    0  0.12468877958E+03  0.31504909855E+03 -0.56734786160E+03  0.66082284576E+03  0.10566000000E+00 0. -1.
          4    1    3    3  502    0  0.15874071887E+03 -0.18644352447E+03 -0.28895202194E+03  0.37875199620E+03  0.00000000000E+00 0.  1.
         -4    1    4    4    0  501 -0.85999089411E+03  0.11068430622E+03 -0.31848223565E+03  0.92372414065E+03  0.00000000000E+00 0. -1.
</event>
<event>
 8    1  0.7446554E-006  0.1122499E+04  0.7818608E-02  0.8667325E-01
          2   -1    0    0  502    0  0.00000000000E+00  0.00000000000E+00  0.10946315847E+04  0.10946315847E+04  0.00000000000E+00 0.  1.
         -2   -1    0    0    0  501 -0.00000000000E+00 -0.00000000000E+00 -0.12559049420E+04  0.12559049420E+04  0.00000000000E+00 0. -1.
    9000010    2    1    2  502    0  0.86422158283E+02  0.46964706739E+03 -0.41741986827E+03  0.11737519680E+04  0.98763210695E+03 0.  0.
   -9000010    2    1    2    0  501 -0.86422158283E+02 -0.46964706739E+03  0.25614651100E+03  0.11767845586E+04  0.10445926024E+04 0.  0.
        -13    1    3    3    0    0  0.42853790924E+03  0.26493491404E+03  0.10693338594E+03  0.51504369574E+03  0.10566000000E+00 0.  1.
         13    1    4    4    0    0  0.25392626203E+03  0.22158103337E+03 -0.62957672760E+02  0.34284162616E+03  0.10566000000E+00 0. -1.
          4    1    3    3  502    0 -0.34211575095E+03  0.20471215335E+03 -0.52435325421E+03  0.65870827229E+03  0.00000000000E+00 0.  1.
         -4    1    4    4    0  501 -0.34034842032E+03 -0.69122810076E+03  0.31910418376E+03  0.83394293245E+03  0.00000000000E+00 0. -1.
</event>
<event>
 8    1  0.7446554E-006  0.1403419E+04  0.7818608E-02  0.8467345E-01
          2   -1    0    0  502    0  0.00000000000E+00  0.00000000000E+00  0.27260984697E+04  0.27260984697E+04  0.00000000000E+00 0.  1.
         -2   -1    0    0    0  501 -0.00000000000E+00 -0.00000000000E+00 -0.81462380187E+03  0.81462380187E+03  0.00000000000E+00 0. -1.
    9000010    2    1    2  502    0 -0.77965281870E+03 -0.59286576500E+03  0.35644198123E+03  0.14416038336E+04  0.99590280345E+03 0.  0.
   -9000010    2    1    2    0  501  0.77965281870E+03  0.59286576500E+03  0.15550326866E+04  0.20991184380E+04  0.10143092366E+04 0.  0.
        -13    1    3    3    0    0 -0.48208173398E+03 -0.83499738765E+03  0.42187745413E+03  0.10524276854E+04  0.10566000000E+00 0.  1.
         13    1    4    4    0    0  0.99886102990E+03  0.38923305013E+03  0.13964834627E+04  0.17605089597E+04  0.10566000000E+00 0. -1.
          4    1    3    3  502    0 -0.29757108473E+03  0.24213162265E+03 -0.65435472898E+02  0.38917614812E+03  0.00000000000E+00 0.  1.
         -4    1    4    4    0  501 -0.21920821120E+03  0.20363271487E+03  0.15854922391E+03  0.33860947834E+03  0.00000000000E+00 0. -1.
</event>
<event>
 8    1  0.7446554E-006  0.1229903E+04  0.7818608E-02  0.8584378E-01
          1   -1    0    0  502    0  0.00000000000E+00  0.00000000000E+00  0.70956900573E+03  0.70956900573E+03  0.00000000000E+00 0.  1.
         -1   -1    0    0    0  501 -0.00000000000E+00 -0.00000000000E+00 -0.25686080054E+04  0.25686080054E+04  0.00000000000E+00 0. -1.
    9000010    2    1    2  502    0 -0.25325228206E+03  0.70930394473E+03 -0.16143378031E+04  0.20384144143E+04  0.99085719326E+03 0.  0.
   -9000010    2    1    2    0  501  0.25325228206E+03 -0.70930394473E+03 -0.24470119660E+03  0.12397625969E+04  0.95387830285E+03 0.  0.
        -13    1    3    3    0    0  0.27694666075E+03  0.24923378716E+03 -0.12681149223E+03  0.39357095839E+03  0.10566000000E+00 0.  1.
         13    1    4    4    0    0  0.49493041154E+03 -0.48619824650E+03  0.16621204607E+03  0.71342224706E+03  0.10566000000E+00 0. -1.
          4    1    3    3  502    0 -0.53019894281E+03  0.46007015757E+03 -0.14875263109E+04  0.16448434559E+04  0.00000000000E+00 0.  1.
         -4    1    4    4    0  501 -0.24167812948E+03 -0.22310569823E+03 -0.41091324267E+03  0.52634034983E+03  0.00000000000E+00 0. -1.
</event>
<event>
 8    1  0.7446554E-006  0.1153055E+04  0.7818608E-02  0.8642777E-01
         -2   -1    0    0    0  501 -0.00000000000E+00  0.00000000000E+00  0.14150724499E+04  0.14150724499E+04  0.00000000000E+00 0.  1.
          2   -1    0    0  502    0  0.00000000000E+00 -0.00000000000E+00 -0.94645510940E+03  0.94645510940E+03  0.00000000000E+00 0. -1.
    9000010    2    1    2  502    0 -0.16133893759E+03 -0.63368145578E+03  0.30930829387E+03  0.11446298916E+04  0.88708710282E+03 0.  0.
   -9000010    2    1    2    0  501  0.16133893759E+03  0.63368145578E+03  0.15930904663E+03  0.12168976677E+04  0.10138432428E+04 0.  0.
        -13    1    3    3    0    0 -0.15786439848E+03 -0.69068774482E+03 -0.11389076971E+03  0.71759448698E+03  0.10566000000E+00 0.  1.
         13    1    4    4    0    0 -0.29847732155E+02  0.26911543280E+03 -0.42392604472E+03  0.50301819633E+03  0.10566000000E+00 0. -1.
          4    1    3    3  502    0 -0.34745391154E+01  0.57006289040E+02  0.42319906358E+03  0.42703540466E+03  0.00000000000E+00 0.  1.
         -4    1    4    4    0  501  0.19118666975E+03  0.36456602298E+03  0.58323509134E+03  0.71387947132E+03  0.00000000000E+00 0. -1.
</event>
<event>
 8    1  0.7446554E-006  0.1102100E+04  0.7818608E-02  0.8684171E-01
          2   -1    0    0  502    0  0.00000000000E+00  0.00000000000E+00  0.10608142558E+04  0.10608142558E+04  0.00000000000E+00 0.  1.
         -2   -1    0    0    0  501 -0.00000000000E+00 -0.00000000000E+00 -0.13007597422E+04  0.13007597422E+04  0.00000000000E+00 0. -1.
    9000010    2    1    2  502    0  0.19894404435E+03  0.42853162557E+03 -0.52921528366E+03  0.12292279385E+04  0.10038498003E+04 0.  0.
   -9000010    2    1    2    0  501 -0.19894404435E+03 -0.42853162557E+03  0.28926979729E+03  0.11323460595E+04  0.98757910865E+03 0.  0.
        -13    1    3    3    0    0 -0.38404865644E+03  0.34000828518E+03 -0.31453025887E+03  0.60168787541E+03  0.10566000000E+00 0.  1.
         13    1    4    4    0    0 -0.26991358137E+03  0.18312011556E+03  0.38998984272E+03  0.50840771701E+03  0.10566000000E+00 0. -1.
          4    1    3    3  502    0  0.58299270079E+03  0.88523340392E+02 -0.21468502479E+03  0.62754006313E+03  0.00000000000E+00 0.  1.
         -4    1    4    4    0  501  0.70969537016E+02 -0.61165174113E+03 -0.10072004543E+03  0.62393834244E+03  0.00000000000E+00 0. -1.
</event>
<event>
 8    1  0.7446554E-006  0.1441809E+04  0.7818608E-02  0.8443796E-01
          2   -1    0    0  502    0  0.00000000000E+00  0.00000000000E+00  0.82576418478E+03  0.82576418478E+03  0.00000000000E+00 0. -1.
         -2   -1    0    0    0  501 -0.00000000000E+00 -0.00000000000E+00 -0.41152005404E+04  0.41152005404E+04  0.00000000000E+00 0.  1.
    9000010    2    1    2  502    0 -0.85214802953E+03 -0.56008235029E+03 -0.93101929766E+02  0.14270344857E+04  0.99393709591E+03 0.  0.
   -9000010    2    1    2    0  501  0.85214802953E+03  0.56008235029E+03 -0.31963344258E+04  0.35139302395E+04  0.10446547099E+04 0.  0.
        -13    1    3    3    0    0  0.85730697932E+02  0.82089903379E+02 -0.25273289292E+03  0.27921753371E+03  0.10566000000E+00 0.  1.
         13    1    4    4    0    0  0.89611274341E+03  0.79805379480E+02 -0.14880679676E+04  0.17388885056E+04  0.10566000000E+00 0. -1.
          4    1    3    3  502    0 -0.93787872747E+03 -0.64217225367E+03  0.15963096315E+03  0.11478169520E+04  0.00000000000E+00 0.  1.
         -4    1    4    4    0  501 -0.43964713872E+02  0.48027697081E+03 -0.17082664582E+04  0.17750417339E+04  0.00000000000E+00 0. -1.
</event>
<event>
 8    1  0.7446554E-006  0.1081015E+04  0.7818608E-02  0.8701987E-01
          1   -1    0    0  502    0  0.00000000000E+00  0.00000000000E+00  0.11328821534E+04  0.11328821534E+04  0.00000000000E+00 0.  1.
         -1   -1    0    0    0  501 -0.00000000000E+00 -0.00000000000E+00 -0.11571056458E+04  0.11571056458E+04  0.00000000000E+00 0. -1.
    9000010    2    1    2  502    0 -0.14326455149E+03 -0.36266325551E+03 -0.38932911551E+03  0.11544931439E+04  0.10145086941E+04 0.  0.
   -9000010    2    1    2    0  501  0.14326455149E+03  0.36266325551E+03  0.36510562306E+03  0.11354946554E+04  0.10019963213E+04 0.  0.
        -13    1    3    3    0    0 -0.13997385802E+03  0.21167858012E+03  0.20630560723E+03  0.32705124514E+03  0.10566000000E+00 0.  1.
         13    1    4    4    0    0  0.34025469236E+03  0.58259932965E+03  0.46989841736E+03  0.82219205079E+03  0.10566000000E+00 0. -1.
          4    1    3    3  502    0 -0.32906934737E+01 -0.57434183563E+03 -0.59563472274E+03  0.82744189872E+03  0.00000000000E+00 0.  1.
         -4    1    4    4    0  501 -0.19699014087E+03 -0.21993607414E+03 -0.10479279431E+03  0.31330260460E+03  0.00000000000E+00 0. -1.
</event>
<event>
 8    1  0.7446554E-006  0.1383905E+04  0.7818608E-02  0.8479613E-01
         -2   -1    0    0    0  501 -0.00000000000E+00  0.00000000000E+00  0.73368960377E+03  0.73368960377E+03  0.00000000000E+00 0.  1.
          2   -1    0    0  502    0  0.00000000000E+00 -0.00000000000E+00 -0.40066608551E+04  0.40066608551E+04  0.00000000000E+00 0. -1.
    9000010    2    1    2  502    0 -0.58633635256E+03  0.71711072026E+03 -0.30212910544E+04  0.33156394705E+04  0.10036071739E+04 0.  0.
   -9000010    2    1    2    0  501  0.58633635256E+03 -0.71711072026E+03 -0.25168019693E+03  0.14247109884E+04  0.10528154517E+04 0.  0.
        -13    1    3    3    0    0 -0.45716338524E+03  0.97369558112E+02 -0.38845403614E+03  0.60776289868E+03  0.10566000000E+00 0.  1.
         13    1    4    4    0    0 -0.25507489312E+03 -0.35101839961E+03  0.94318962472E+02  0.44404188520E+03  0.10566000000E+00 0. -1.
          4    1    3    3  502    0 -0.12917296732E+03  0.61974116215E+03 -0.26328370183E+04  0.27078765719E+04  0.00000000000E+00 0.  1.
         -4    1    4    4    0  501  0.84141124568E+03 -0.36609232065E+03 -0.34599915940E+03  0.98066910317E+03  0.00000000000E+00 0. -1.
</event>
<event>
 8    1  0.7446554E-006  0.1271598E+04  0.7818608E-02  0.8554513E-01
         -2   -1    0    0    0  501 -0.00000000000E+00  0.00000000000E+00  0.19187474213E+04  0.19187474213E+04  0.00000000000E+00 0. -1.
          2   -1    0    0  502    0  0.00000000000E+00 -0.00000000000E+00 -0.16257976655E+04  0.16257976655E+04  0.00000000000E+00 0.  1.
    9000010    2    1    2  502    0  0.46350512998E+03 -0.61102752152E+03  0.13757154316E+04  0.18658139603E+04  0.10002385455E+04 0.  0.
   -9000010    2    1    2    0  501 -0.46350512998E+03  0.61102752152E+03 -0.10827656758E+04  0.16787311265E+04  0.10283798174E+04 0.  0.
        -13    1    3    3    0    0  0.62543704450E+03 -0.78589837319E+03  0.97634271859E+03  0.14007329742E+04  0.10566000000E+00 0.  1.
         13    1    4    4    0    0  0.19678242749E+03 -0.29727228528E+02 -0.61534791966E+03  0.64673031882E+03  0.10566000000E+00 0. -1.
          4    1    3    3  502    0 -0.16193191451E+03  0.17487085167E+03  0.39937271305E+03  0.46508098610E+03  0.00000000000E+00 0.  1.
         -4    1    4    4    0  501 -0.66028755748E+03  0.64075475005E+03 -0.46741775618E+03  0.10320008077E+04  0.00000000000E+00 0. -1.
</event>
<event>
 8    1  0.7446554E-006  0.1240949E+04  0.7818608E-02  0.8576349E-01
         -2   -1    0    0    0  501 -0.00000000000E+00  0.00000000000E+00  0.82715599198E+03  0.82715599198E+03  0.00000000000E+00 0.  1.
          2   -1    0    0  502    0  0.00000000000E+00 -0.00000000000E+00 -0.18761681689E+04  0.18761681689E+04  0.00000000000E+00 0. -1.
    9000010    2    1    2  502    0 -0.27630014314E+03 -0.64759355160E+03 -0.41417060741E+03  0.13238086514E+04  0.10417355117E+04 0.  0.
   -9000010    2    1    2    0  501  0.27630014314E+03  0.64759355160E+03 -0.63484156953E+03  0.13795155095E+04  0.10021576948E+04 0.  0.
        -13    1    3    3    0    0  0.29391987055E+03 -0.58064189685E+03 -0.36844399338E+03  0.74785352182E+03  0.10566000000E+00 0.  1.
         13    1    4    4    0    0  0.12300129334E+03  0.11239226114E+03  0.26991226763E+03  0.31719707109E+03  0.10566000000E+00 0. -1.
          4    1    3    3  502    0 -0.57022001370E+03 -0.66951654758E+02 -0.45726614028E+02  0.57595512961E+03  0.00000000000E+00 0.  1.
         -4    1    4    4    0  501  0.15329884980E+03  0.53520129046E+03 -0.90475383716E+03  0.10623184384E+04  0.00000000000E+00 0. -1.
</event>
<event>
 8    1  0.7446554E-006  0.1399722E+04  0.7818608E-02  0.8469653E-01
          1   -1    0    0  502    0  0.00000000000E+00  0.00000000000E+00  0.13427212861E+04  0.13427212861E+04  0.00000000000E+00 0. -1.
         -1   -1    0    0    0  501 -0.00000000000E+00 -0.00000000000E+00 -0.14591982429E+04  0.14591982429E+04  0.00000000000E+00 0.  1.
    9000010    2    1    2  502    0  0.86447595422E+03 -0.45298423823E+03 -0.51133059626E+02  0.14052040670E+04  0.10096883107E+04 0.  0.
   -9000010    2    1    2    0  501 -0.86447595422E+03  0.45298423823E+03 -0.65343897167E+02  0.13967154619E+04  0.99701096339E+03 0.  0.
        -13    1    3    3    0    0 -0.11599395498E+02  0.75935365253E+02 -0.33460511029E+03  0.34330936000E+03  0.10566000000E+00 0.  1.
         13    1    4    4    0    0 -0.55939037957E+03  0.70748429647E+03  0.19362613508E+03  0.92246556459E+03  0.10566000000E+00 0. -1.
          4    1    3    3  502    0  0.87607534972E+03 -0.52891960348E+03  0.28347205066E+03  0.10618947070E+04  0.00000000000E+00 0.  1.
         -4    1    4    4    0  501 -0.30508557465E+03 -0.25450005824E+03 -0.25897003225E+03  0.47424989732E+03  0.00000000000E+00 0. -1.
</event>
<event>
 8    1  0.7446554E-006  0.1091803E+04  0.7818608E-02  0.8692819E-01
          1   -1    0    0  502    0  0.00000000000E+00  0.00000000000E+00  0.23667959915E+04  0.23667959915E+04  0.00000000000E+00 0.  1.
         -1   -1    0    0    0  501 -0.00000000000E+00 -0.00000000000E+00 -0.56989056503E+03  0.56989056503E+03  0.00000000000E+00 0. -1.
    9000010    2    1    2  502    0 -0.40585342981E+03  0.54594007599E+02  0.14027609873E+04  0.17807528655E+04  0.10176663837E+04 0.  0.
   -9000010    2    1    2    0  501  0.40585342981E+03 -0.54594007599E+02  0.39414443917E+03  0.11559336910E+04  0.10065462468E+04 0.  0.
        -13    1    3    3    0    0 -0.14538663133E+03 -0.25551334859E+03 -0.26549121510E+02  0.29517657579E+03  0.10566000000E+00 0.  1.
         13    1    4    4    0    0  0.48056861038E+01 -0.30825795886E+03  0.57148803256E+03  0.64934170230E+03  0.10566000000E+00 0. -1.
          4    1    3    3  502    0 -0.26046679848E+03  0.31010735619E+03  0.14293101088E+04  0.14855762897E+04  0.00000000000E+00 0.  1.
         -4    1    4    4    0  501  0.40104774370E+03  0.25366395126E+03 -0.17734359340E+03  0.50659198870E+03  0.00000000000E+00 0. -1.
</event>
<event>
 8    1  0.7446554E-006  0.1074417E+04  0.7818608E-02  0.8707649E-01
         -2   -1    0    0    0  501 -0.00000000000E+00  0.00000000000E+00  0.21661847739E+04  0.21661847739E+04  0.00000000000E+00 0. -1.
          2   -1    0    0  502    0  0.00000000000E+00 -0.00000000000E+00 -0.64946324311E+03  0.64946324311E+03  0.00000000000E+00 0.  1.
    9000010    2    1    2  502    0  0.29320212028E+03  0.19606752364E+03  0.13433033872E+04  0.17084721934E+04  0.99498908951E+03 0.  0.
   -9000010    2    1    2    0  501 -0.29320212028E+03 -0.19606752364E+03  0.17341814361E+03  0.11071758237E+04  0.10350625560E+04 0.  0.
        -13    1    3    3    0    0 -0.21088485602E+03  0.15046720796E+03  0.11298314818E+04  0.11591514102E+04  0.10566000000E+00 0.  1.
         13    1    4    4    0    0 -0.30711265404E+03 -0.14842609587E+03 -0.40336940952E+03  0.52825692604E+03  0.10566000000E+00 0. -1.
          4    1    3    3  502    0  0.50408697631E+03  0.45600315684E+02  0.21347190537E+03  0.54932078320E+03  0.00000000000E+00 0.  1.
         -4    1    4    4    0  501  0.13910533753E+02 -0.47641427774E+02  0.57678755313E+03  0.57891889763E+03  0.00000000000E+00 0. -1.
</event>
<event>
 8    1  0.7446554E-006  0.1519563E+04  0.7818608E-02  0.8398329E-01
          2   -1    0    0  502    0  0.00000000000E+00  0.00000000000E+00  0.18940639152E+04  0.18940639152E+04  0.00000000000E+00 0. -1.
         -2   -1    0    0    0  501 -0.00000000000E+00 -0.00000000000E+00 -0.12369810027E+04  0.12369810027E+04  0.00000000000E+00 0.  1.
    9000010    2    1    2  502    0 -0.10808154361E+04 -0.22560528991E+03  0.52045613126E+03  0.16328850918E+04  0.10846102455E+04 0.  0.
   -9000010    2    1    2    0  501  0.10808154361E+04  0.22560528991E+03  0.13662678123E+03  0.14981598261E+04  0.10033724300E+04 0.  0.
        -13    1    3    3    0    0 -0.91370250899E+02  0.89844715626E+02  0.57872110722E+03  0.59273832910E+03  0.10566000000E+00 0.  1.
         13    1    4    4    0    0  0.53953548805E+03 -0.39383823633E+03  0.92516933627E+02  0.67436376937E+03  0.10566000000E+00 0. -1.
          4    1    3    3  502    0 -0.98944518520E+03 -0.31545000553E+03 -0.58264975962E+02  0.10401467627E+04  0.00000000000E+00 0.  1.
         -4    1    4    4    0  501  0.54127994804E+03  0.61944352624E+03  0.44109847600E+02  0.82379605668E+03  0.00000000000E+00 0. -1.
</event>
<event>
 8    1  0.7446554E-006  0.1157634E+04  0.7818608E-02  0.8639167E-01
          2   -1    0    0  502    0  0.00000000000E+00  0.00000000000E+00  0.16199318318E+04  0.16199318318E+04  0.00000000000E+00 0. -1.
         -2   -1    0    0    0  501 -0.00000000000E+00 -0.00000000000E+00 -0.82871086004E+03  0.82871086004E+03  0.00000000000E+00 0.  1.
    9000010    2    1    2  502    0  0.24799825760E+03 -0.52608666552E+03  0.34595715246E+03  0.12118686120E+04  0.10053202803E+04 0.  0.
   -9000010    2    1    2    0  501 -0.24799825760E+03  0.52608666552E+03  0.44526381928E+03  0.12367740798E+04  0.99653396344E+03 0.  0.
        -13    1    3    3    0    0  0.38607014764E+03 -0.73439813183E+03  0.59656751365E+02  0.83183514838E+03  0.10566000000E+00 0.  1.
         13    1    4    4    0    0 -0.31926932019E+03 -0.88858198372E+02  0.51644722181E+03  0.61363378518E+03  0.10566000000E+00 0. -1.
          4    1    3    3  502    0 -0.13807189005E+03  0.20831146631E+03  0.28630040109E+03  0.38003346364E+03  0.00000000000E+00 0.  1.
         -4    1    4    4    0  501  0.71271062597E+02  0.61494486389E+03 -0.71183402522E+02  0.62314029462E+03  0.00000000000E+00 0. -1.
</event>
<event>
 8    1  0.7446554E-006  0.1089835E+04  0.7818608E-02  0.8694484E-01
          2   -1    0    0  502    0  0.00000000000E+00  0.00000000000E+00  0.16175085883E+04  0.16175085883E+04  0.00000000000E+00 0.  1.
         -2   -1    0    0    0  501 -0.00000000000E+00 -0.00000000000E+00 -0.73463829698E+03  0.73463829698E+03  0.00000000000E+00 0. -1.
    9000010    2    1    2  502    0  0.12626018672E+03  0.43589915807E+03  0.41477143489E+03  0.11610751105E+04  0.98494180446E+03 0.  0.
   -9000010    2    1    2    0  501 -0.12626018672E+03 -0.43589915807E+03  0.46809885647E+03  0.11910717748E+04  0.99678770189E+03 0.  0.
        -13    1    3    3    0    0  0.19355866697E+03  0.33919759684E+03  0.72815652735E+03  0.82627592652E+03  0.10566000000E+00 0.  1.
         13    1    4    4    0    0 -0.32273103850E+03  0.93882905932E+02 -0.13719519998E+03  0.36303148252E+03  0.10566000000E+00 0. -1.
          4    1    3    3  502    0 -0.67298480253E+02  0.96701561236E+02 -0.31338509246E+03  0.33479918394E+03  0.00000000000E+00 0.  1.
         -4    1    4    4    0  501  0.19647085178E+03 -0.52978206401E+03  0.60529405645E+03  0.82804029233E+03  0.00000000000E+00 0. -1.
</event>
<event>
 8    1  0.7446554E-006  0.2064297E+04  0.7818608E-02  0.8142704E-01
         -2   -1    0    0    0  501 -0.00000000000E+00  0.00000000000E+00  0.17664888128E+04  0.17664888128E+04  0.00000000000E+00 0.  1.
          2   -1    0    0  502    0  0.00000000000E+00 -0.00000000000E+00 -0.24155185706E+04  0.24155185706E+04  0.00000000000E+00 0. -1.
    9000010    2    1    2  502    0  0.17656786103E+04  0.36039649533E+03 -0.39953414861E+03  0.20967961709E+04  0.99469596240E+03 0.  0.
   -9000010    2    1    2    0  501 -0.17656786103E+04 -0.36039649533E+03 -0.24949560924E+03  0.20852112125E+04  0.10189951683E+04 0.  0.
        -13    1    3    3    0    0  0.15496196517E+04  0.14187553808E+03  0.44570435281E+02  0.15567389852E+04  0.10566000000E+00 0.  1.
         13    1    4    4    0    0 -0.67595540720E+03 -0.73252675383E+02  0.39568705121E+03  0.78667014728E+03  0.10566000000E+00 0. -1.
          4    1    3    3  502    0  0.21605895860E+03  0.21852095726E+03 -0.44410458389E+03  0.54005718566E+03  0.00000000000E+00 0.  1.
         -4    1    4    4    0  501 -0.10897232031E+04 -0.28714381995E+03 -0.64518266044E+03  0.12985410652E+04  0.00000000000E+00 0. -1.
</event>
<event>
 8    1  0.7446554E-006  0.1326794E+04  0.7818608E-02  0.8516748E-01
          1   -1    0    0  502    0  0.00000000000E+00  0.00000000000E+00  0.16671500319E+04  0.16671500319E+04  0.00000000000E+00 0. -1.
         -1   -1    0    0    0  501 -0.00000000000E+00 -0.00000000000E+00 -0.11799236939E+04  0.11799236939E+04  0.00000000000E+00 0.  1.
    9000010    2    1    2  502    0  0.86307308480E+03  0.98675067233E+02  0.70511960098E+03  0.15026579187E+04  0.10030729039E+04 0.  0.
   -9000010    2    1    2    0  501 -0.86307308480E+03 -0.98675067233E+02 -0.21789326293E+03  0.13444158070E+04  0.10026686738E+04 0.  0.
        -13    1    3    3    0    0  0.88637156702E+03 -0.28662441830E+03  0.57778174786E+03  0.10961933549E+04  0.10566000000E+00 0.  1.
         13    1    4    4    0    0 -0.10068024740E+04 -0.32431225101E+03 -0.14926600696E+03  0.10682275084E+04  0.10566000000E+00 0. -1.
          4    1    3    3  502    0 -0.23298482216E+02  0.38529948553E+03  0.12733785311E+03  0.40646456384E+03  0.00000000000E+00 0.  1.
         -4    1    4    4    0  501  0.14372938917E+03  0.22563718378E+03 -0.68627255968E+02  0.27618829859E+03  0.00000000000E+00 0. -1.
</event>
<event>
 8    1  0.7446554E-006  0.1060954E+04  0.7818608E-02  0.8719336E-01
         -2   -1    0    0    0  501 -0.00000000000E+00  0.00000000000E+00  0.72227229302E+03  0.72227229302E+03  0.00000000000E+00 0.  1.
          2   -1    0    0  502    0  0.00000000000E+00 -0.00000000000E+00 -0.16784292487E+04  0.16784292487E+04  0.00000000000E+00 0. -1.
    9000010    2    1    2  502    0 -0.22886479043E+03 -0.13388983670E+03 -0.14745389856E+03  0.10452525008E+04  0.10002522470E+04 0.  0.
   -9000010    2    1    2    0  501  0.22886479043E+03  0.13388983670E+03 -0.80870305708E+03  0.13554490409E+04  0.10549577656E+04 0.  0.
        -13    1    3    3    0    0 -0.40562701160E+03  0.33981489139E+03 -0.79557262187E+02  0.53510447773E+03  0.10566000000E+00 0.  1.
         13    1    4    4    0    0  0.44922429248E+03  0.48304519537E+03 -0.38468168193E+03  0.76361975701E+03  0.10566000000E+00 0. -1.
          4    1    3    3  502    0  0.17676222116E+03 -0.47370472810E+03 -0.67896636374E+02  0.51014802311E+03  0.00000000000E+00 0.  1.
         -4    1    4    4    0  501 -0.22035950204E+03 -0.34915535867E+03 -0.42402137515E+03  0.59182928384E+03  0.00000000000E+00 0. -1.
</event>
<event>
 8    1  0.7446554E-006  0.1879659E+04  0.7818608E-02  0.8219229E-01
          1   -1    0    0  502    0  0.00000000000E+00  0.00000000000E+00  0.13550624599E+04  0.13550624599E+04  0.00000000000E+00 0.  1.
         -1   -1    0    0    0  501 -0.00000000000E+00 -0.00000000000E+00 -0.26089730029E+04  0.26089730029E+04  0.00000000000E+00 0. -1.
    9000010    2    1    2  502    0 -0.99210975356E+03 -0.12492098318E+04 -0.57679654790E+03  0.19640400653E+04  0.98992532720E+03 0.  0.
   -9000010    2    1    2    0  501  0.99210975356E+03  0.12492098318E+04 -0.67711399514E+03  0.19999953974E+04  0.99834425938E+03 0.  0.
        -13    1    3    3    0    0 -0.10954737362E+04 -0.95365572548E+03 -0.71842832790E+03  0.16203892196E+04  0.10566000000E+00 0.  1.
         13    1    4    4    0    0  0.10017671371E+04  0.91432943293E+03 -0.13537464732E+03  0.13630341210E+04  0.10566000000E+00 0. -1.
          4    1    3    3  502    0  0.10336398260E+03 -0.29555410636E+03  0.14163178000E+03  0.34365084576E+03  0.00000000000E+00 0.  1.
         -4    1    4    4    0  501 -0.96573835120E+01  0.33488039891E+03 -0.54173934782E+03  0.63696127638E+03  0.00000000000E+00 0. -1.
</event>
<event>
 8    1  0.7446554E-006  0.1293405E+04  0.7818608E-02  0.8539361E-01
          2   -1    0    0  502    0  0.00000000000E+00  0.00000000000E+00  0.11868603703E+04  0.11868603703E+04  0.00000000000E+00 0.  1.
         -2   -1    0    0    0  501 -0.00000000000E+00 -0.00000000000E+00 -0.14629083001E+04  0.14629083001E+04  0.00000000000E+00 0. -1.
    9000010    2    1    2  502    0 -0.38370609049E+03 -0.70062640890E+03  0.11331798679E+03  0.13119125126E+04  0.10344881564E+04 0.  0.
   -9000010    2    1    2    0  501  0.38370609049E+03  0.70062640890E+03 -0.38936591660E+03  0.13378561578E+04  0.10000727740E+04 0.  0.
        -13    1    3    3    0    0 -0.41755367651E+03 -0.91421972627E+02 -0.34459541203E+03  0.54904923186E+03  0.10566000000E+00 0.  1.
         13    1    4    4    0    0  0.41099416686E+03  0.90375523514E+03 -0.12098054586E+03  0.10001630037E+04  0.10566000000E+00 0. -1.
          4    1    3    3  502    0  0.33847586020E+02 -0.60920443628E+03  0.45791339882E+03  0.76286328073E+03  0.00000000000E+00 0.  1.
         -4    1    4    4    0  501 -0.27288076372E+02 -0.20312882623E+03 -0.26838537075E+03  0.33769315419E+03  0.00000000000E+00 0. -1.
</event>
<event>
 8    1  0.7446554E-006  0.9819001E+03  0.7818608E-02  0.8791786E-01
          2   -1    0    0  502    0  0.00000000000E+00  0.00000000000E+00  0.63544806424E+03  0.63544806424E+03  0.00000000000E+00 0.  1.
         -2   -1    0    0    0  501 -0.00000000000E+00 -0.00000000000E+00 -0.17216272198E+04  0.17216272198E+04  0.00000000000E+00 0. -1.
    9000010    2    1    2  502    0 -0.92536870972E+02 -0.25335386647E+03 -0.91951147850E+03  0.13092144445E+04  0.89207054009E+03 0.  0.
   -9000010    2    1    2    0  501  0.92536870972E+02  0.25335386647E+03 -0.16666767705E+03  0.10478608395E+04  0.99874069221E+03 0.  0.
        -13    1    3    3    0    0 -0.19763690923E+03 -0.20276159699E+03 -0.10767942795E+04  0.11133995440E+04  0.10566000000E+00 0.  1.
         13    1    4    4    0    0  0.52585975830E+03  0.23200648082E+02 -0.18206080278E+03  0.55696759559E+03  0.10566000000E+00 0. -1.
          4    1    3    3  502    0  0.10510003826E+03 -0.50592269475E+02  0.15728280099E+03  0.19581490050E+03  0.00000000000E+00 0.  1.
         -4    1    4    4    0  501 -0.43332288733E+03  0.23015321839E+03  0.15393125731E+02  0.49089324393E+03  0.00000000000E+00 0. -1.
</event>
<event>
 8    1  0.7446554E-006  0.1436954E+04  0.7818608E-02  0.8446733E-01
         -2   -1    0    0    0  501 -0.00000000000E+00  0.00000000000E+00  0.21874934421E+04  0.21874934421E+04  0.00000000000E+00 0.  1.
          2   -1    0    0  502    0  0.00000000000E+00 -0.00000000000E+00 -0.95081646814E+03  0.95081646814E+03  0.00000000000E+00 0. -1.
    9000010    2    1    2  502    0  0.83699560384E+03 -0.60796638615E+03  0.48497990258E+03  0.15170356698E+04  0.99800147802E+03 0.  0.
   -9000010    2    1    2    0  501 -0.83699560384E+03  0.60796638615E+03  0.75169707138E+03  0.16212742404E+04  0.99664281861E+03 0.  0.
        -13    1    3    3    0    0  0.18307655643E+03 -0.48354568362E+03 -0.20693151727E+03  0.55691482083E+03  0.10566000000E+00 0.  1.
         13    1    4    4    0    0 -0.55382631466E+02  0.21601868700E+03  0.71187453480E+03  0.74598704645E+03  0.10566000000E+00 0. -1.
          4    1    3    3  502    0  0.65391904741E+03 -0.12442070254E+03  0.69191141985E+03  0.96012084901E+03  0.00000000000E+00 0.  1.
         -4    1    4    4    0  501 -0.78161297238E+03  0.39194769915E+03  0.39822536574E+02  0.87528719394E+03  0.00000000000E+00 0. -1.
</event>
<event>
 8    1  0.7446554E-006  0.1333570E+04  0.7818608E-02  0.8512242E-01
         -2   -1    0    0    0  501 -0.00000000000E+00  0.00000000000E+00  0.95772236014E+03  0.95772236014E+03  0.00000000000E+00 0.  1.
          2   -1    0    0  502    0  0.00000000000E+00 -0.00000000000E+00 -0.18753829648E+04  0.18753829648E+04  0.00000000000E+00 0. -1.
    9000010    2    1    2  502    0  0.85853771361E+03 -0.93564893934E+02 -0.60111410261E+03  0.14677041189E+04  0.10232183644E+04 0.  0.
   -9000010    2    1    2    0  501 -0.85853771361E+03  0.93564893934E+02 -0.31654650202E+03  0.13654012060E+04  0.10090973047E+04 0.  0.
        -13    1    3    3    0    0  0.29244086432E+03  0.37787625808E+03 -0.55097216841E+03  0.72930272663E+03  0.10566000000E+00 0.  1.
         13    1    4    4    0    0 -0.39217780149E+03  0.14343109423E+03  0.35376973364E+03  0.54729237375E+03  0.10566000000E+00 0. -1.
          4    1    3    3  502    0  0.56609684929E+03 -0.47144115201E+03 -0.50141934206E+02  0.73840139230E+03  0.00000000000E+00 0.  1.
         -4    1    4    4    0  501 -0.46635991213E+03 -0.49866200293E+02 -0.67031623565E+03  0.81810883222E+03  0.00000000000E+00 0. -1.
</event>
<event>
 8    1  0.7446554E-006  0.1652843E+04  0.7818608E-02  0.8326588E-01
         -2   -1    0    0    0  501 -0.00000000000E+00  0.00000000000E+00  0.22019385269E+04  0.22019385269E+04  0.00000000000E+00 0. -1.
          2   -1    0    0  502    0  0.00000000000E+00 -0.00000000000E+00 -0.12452000848E+04  0.12452000848E+04  0.00000000000E+00 0.  1.
    9000010    2    1    2  502    0 -0.12901159560E+04 -0.23559826544E+03  0.37678265827E+03  0.17021808503E+04  0.10176191590E+04 0.  0.
   -9000010    2    1    2    0  501  0.12901159560E+04  0.23559826544E+03  0.57995578389E+03  0.17449577615E+04  0.99429530590E+03 0.  0.
        -13    1    3    3    0    0 -0.99645455767E+03  0.29952698522E+03  0.32266095237E+03  0.10893797326E+04  0.10566000000E+00 0.  1.
         13    1    4    4    0    0  0.71370072260E+03  0.62574351186E+03  0.31220419822E+03  0.99919724611E+03  0.10566000000E+00 0. -1.
          4    1    3    3  502    0 -0.29366139837E+03 -0.53512525066E+03  0.54121705896E+02  0.61280111768E+03  0.00000000000E+00 0.  1.
         -4    1    4    4    0  501  0.57641523343E+03 -0.39014524642E+03  0.26775158568E+03  0.74576051536E+03  0.00000000000E+00 0. -1.
</event>
<event>
 8    1  0.7446554E-006  0.1109887E+04  0.7818608E-02  0.8677696E-01
          2   -1    0    0  502    0  0.00000000000E+00  0.00000000000E+00  0.12084052784E+04  0.12084052784E+04  0.00000000000E+00 0. -1.
         -2   -1    0    0    0  501 -0.00000000000E+00 -0.00000000000E+00 -0.10295730533E+04  0.10295730533E+04  0.00000000000E+00 0.  1.
    9000010    2    1    2  502    0 -0.26758354916E+03 -0.39706973434E+03  0.20077178678E+03  0.11297140854E+04  0.10033340793E+04 0.  0.
   -9000010    2    1    2    0  501  0.26758354916E+03  0.39706973434E+03 -0.21939561703E+02  0.11082642463E+04  0.99925120246E+03 0.  0.
        -13    1    3    3    0    0 -0.36909187610E+03 -0.31284194668E+03  0.56410572703E+03  0.74317843015E+03  0.10566000000E+00 0.  1.
         13    1    4    4    0    0  0.47680802720E+03  0.43196707958E+03 -0.33866388676E+03  0.72707268687E+03  0.10566000000E+00 0. -1.
          4    1    3    3  502    0  0.10150832694E+03 -0.84227787667E+02 -0.36333394026E+03  0.38653565527E+03  0.00000000000E+00 0.  1.
         -4    1    4    4    0  501 -0.20922447804E+03 -0.34897345233E+02  0.31672432505E+03  0.38119155945E+03  0.00000000000E+00 0. -1.
</event>
<event>
 8    1  0.7446554E-006  0.1188676E+04  0.7818608E-02  0.8615139E-01
         -2   -1    0    0    0  501 -0.00000000000E+00  0.00000000000E+00  0.44860508478E+03  0.44860508478E+03  0.00000000000E+00 0. -1.
          2   -1    0    0  502    0  0.00000000000E+00 -0.00000000000E+00 -0.36209468983E+04  0.36209468983E+04  0.00000000000E+00 0.  1.
    9000010    2    1    2  502    0  0.76534722852E+02 -0.61463180872E+03 -0.83254839100E+03  0.14371785265E+04  0.99434172682E+03 0.  0.
   -9000010    2    1    2    0  501 -0.76534722852E+02  0.61463180872E+03 -0.23397934225E+04  0.26323734566E+04  0.10349526224E+04 0.  0.
        -13    1    3    3    0    0 -0.21798508153E+03 -0.75072280904E+03 -0.78750528228E+03  0.11096246269E+04  0.10566000000E+00 0.  1.
         13    1    4    4    0    0 -0.52761927536E+03  0.30458796939E+03 -0.85456495831E+03  0.10494937875E+04  0.10566000000E+00 0. -1.
          4    1    3    3  502    0  0.29451980439E+03  0.13609100032E+03 -0.45043108717E+02  0.32755389966E+03  0.00000000000E+00 0.  1.
         -4    1    4    4    0  501  0.45108455251E+03  0.31004383933E+03 -0.14852284642E+04  0.15828796691E+04  0.00000000000E+00 0. -1.
</event>
<event>
 8    1  0.7446554E-006  0.1067090E+04  0.7818608E-02  0.8713988E-01
         -2   -1    0    0    0  501 -0.00000000000E+00  0.00000000000E+00  0.40880073678E+03  0.40880073678E+03  0.00000000000E+00 0. -1.
          2   -1    0    0  502    0  0.00000000000E+00 -0.00000000000E+00 -0.28416023059E+04  0.28416023059E+04  0.00000000000E+00 0.  1.
    9000010    2    1    2  502    0  0.30535023887E+03  0.20882222360E+03 -0.99258842217E+03  0.14604058598E+04  0.10053397486E+04 0.  0.
   -9000010    2    1    2    0  501 -0.30535023887E+03 -0.20882222360E+03 -0.14402131470E+04  0.17899971829E+04  0.99650916532E+03 0.  0.
        -13    1    3    3    0    0 -0.12313480499E+03 -0.22369439755E+03 -0.77153384606E+03  0.81269050104E+03  0.10566000000E+00 0.  1.
         13    1    4    4    0    0  0.28302077362E+03 -0.31048973484E+03 -0.34928002252E+03  0.54635261419E+03  0.10566000000E+00 0. -1.
          4    1    3    3  502    0  0.42848504386E+03  0.43251662115E+03 -0.22105457610E+03  0.64771535878E+03  0.00000000000E+00 0.  1.
         -4    1    4    4    0  501 -0.58837101250E+03  0.10166751124E+03 -0.10909331245E+04  0.12436445687E+04  0.00000000000E+00 0. -1.
</event>
<event>
 8    1  0.7446554E-006  0.1406623E+04  0.7818608E-02  0.8465350E-01
          2   -1    0    0  502    0  0.00000000000E+00  0.00000000000E+00  0.16255443894E+04  0.16255443894E+04  0.00000000000E+00 0. -1.
         -2   -1    0    0    0  501 -0.00000000000E+00 -0.00000000000E+00 -0.14535254698E+04  0.14535254698E+04  0.00000000000E+00 0.  1.
    9000010    2    1    2  502    0 -0.99168561673E+03 -0.30600874337E+02 -0.53492165325E+03  0.15022589124E+04  0.99310819597E+03 0.  0.
   -9000010    2    1    2    0  501  0.99168561673E+03  0.30600874337E+02  0.70694057291E+03  0.15768109467E+04  0.10010949067E+04 0.  0.
        -13    1    3    3    0    0 -0.26935420037E+03  0.19959153065E+03  0.24451058375E+03  0.41493843048E+03  0.10566000000E+00 0.  1.
         13    1    4    4    0    0  0.11926443712E+04  0.31984716085E+02  0.68216418334E+03  0.13743258720E+04  0.10566000000E+00 0. -1.
          4    1    3    3  502    0 -0.72233141636E+03 -0.23019240499E+03 -0.77943223700E+03  0.10873204819E+04  0.00000000000E+00 0.  1.
         -4    1    4    4    0  501 -0.20095875447E+03 -0.13838417482E+01  0.24776389572E+02  0.20248507475E+03  0.00000000000E+00 0. -1.
</event>
<event>
 8    1  0.7446554E-006  0.1374657E+04  0.7818608E-02  0.8485500E-01
         -2   -1    0    0    0  501 -0.00000000000E+00  0.00000000000E+00  0.83305842605E+03  0.83305842605E+03  0.00000000000E+00 0. -1.
          2   -1    0    0  502    0  0.00000000000E+00 -0.00000000000E+00 -0.24795619265E+04  0.24795619265E+04  0.00000000000E+00 0.  1.
    9000010    2    1    2  502    0 -0.83733474133E+03 -0.43125185943E+03 -0.33928136090E+03  0.14148753355E+04  0.99982635385E+03 0.  0.
   -9000010    2    1    2    0  501  0.83733474133E+03  0.43125185943E+03 -0.13072221395E+04  0.18977450170E+04  0.10027456269E+04 0.  0.
        -13    1    3    3    0    0 -0.36117118550E+03 -0.68148781568E+03 -0.40807830523E+03  0.87258133290E+03  0.10566000000E+00 0.  1.
         13    1    4    4    0    0  0.98068730952E+03  0.58202961540E+03 -0.94954523448E+03  0.14839616692E+04  0.10566000000E+00 0. -1.
          4    1    3    3  502    0 -0.47616355584E+03  0.25023595625E+03  0.68796944330E+02  0.54229400260E+03  0.00000000000E+00 0.  1.
         -4    1    4    4    0  501 -0.14335256818E+03 -0.15077775597E+03 -0.35767690504E+03  0.41378334778E+03  0.00000000000E+00 0. -1.
</event>
<event>
 8    1  0.7446554E-006  0.1283176E+04  0.7818608E-02  0.8546430E-01
         -1   -1    0    0    0  501 -0.00000000000E+00  0.00000000000E+00  0.19552213479E+04  0.19552213479E+04  0.00000000000E+00 0. -1.
          1   -1    0    0  502    0  0.00000000000E+00 -0.00000000000E+00 -0.12283904842E+04  0.12283904842E+04  0.00000000000E+00 0.  1.
    9000010    2    1    2  502    0  0.79279957038E+03 -0.23178392195E+02  0.12540202143E+04  0.17870998176E+04  0.99603748098E+03 0.  0.
   -9000010    2    1    2    0  501 -0.79279957038E+03  0.23178392195E+02 -0.52718935055E+03  0.13965120145E+04  0.10213955152E+04 0.  0.
        -13    1    3    3    0    0  0.60914548694E+02 -0.37440627965E+03  0.72471381575E+03  0.81798580085E+03  0.10566000000E+00 0.  1.
         13    1    4    4    0    0 -0.17833656272E+03  0.24394103261E+03 -0.66390131910E+03  0.72943548698E+03  0.10566000000E+00 0. -1.
          4    1    3    3  502    0  0.73188502169E+03  0.35122788746E+03  0.52930639852E+03  0.96911401672E+03  0.00000000000E+00 0.  1.
         -4    1    4    4    0  501 -0.61446300766E+03 -0.22076264041E+03  0.13671196855E+03  0.66707652749E+03  0.00000000000E+00 0. -1.
</event>
<event>
 8    1  0.7446554E-006  0.1669843E+04  0.7818608E-02  0.8317942E-01
          2   -1    0    0  502    0  0.00000000000E+00  0.00000000000E+00  0.10147484896E+04  0.10147484896E+04  0.00000000000E+00 0.  1.
         -2   -1    0    0    0  501 -0.00000000000E+00 -0.00000000000E+00 -0.32747793521E+04  0.32747793521E+04  0.00000000000E+00 0. -1.
    9000010    2    1    2  502    0 -0.10669090809E+04  0.80993783760E+03 -0.26705472335E+03  0.16864605558E+04  0.98921013609E+03 0.  0.
   -9000010    2    1    2    0  501  0.10669090809E+04 -0.80993783760E+03 -0.19929761392E+04  0.26030672859E+04  0.10048438268E+04 0.  0.
        -13    1    3    3    0    0 -0.11069866561E+04  0.96894848784E+03 -0.33524550472E+03  0.15088638734E+04  0.10566000000E+00 0.  1.
         13    1    4    4    0    0  0.30217770254E+03 -0.56633461909E+01 -0.12041020376E+04  0.12414528447E+04  0.10566000000E+00 0. -1.
          4    1    3    3  502    0  0.40077575231E+02 -0.15901065024E+03  0.68190781372E+02  0.17759668238E+03  0.00000000000E+00 0.  1.
         -4    1    4    4    0  501  0.76473137837E+03 -0.80427449141E+03 -0.78887410157E+03  0.13616144413E+04  0.00000000000E+00 0. -1.
</event>
<event>
 8    1  0.7446554E-006  0.1577788E+04  0.7818608E-02  0.8366087E-01
          1   -1    0    0  502    0  0.00000000000E+00  0.00000000000E+00  0.25186993504E+04  0.25186993504E+04  0.00000000000E+00 0. -1.
         -1   -1    0    0    0  501 -0.00000000000E+00 -0.00000000000E+00 -0.11455401628E+04  0.11455401628E+04  0.00000000000E+00 0.  1.
    9000010    2    1    2  502    0  0.26429434621E+03  0.11883875430E+04  0.91402307788E+01  0.15809502176E+04  0.10085651159E+04 0.  0.
   -9000010    2    1    2    0  501 -0.26429434621E+03 -0.11883875430E+04  0.13640189568E+04  0.20832892956E+04  0.99871423400E+03 0.  0.
        -13    1    3    3    0    0 -0.35893192205E+03  0.20975587976E+03  0.57659260036E+02  0.41970734469E+03  0.10566000000E+00 0.  1.
         13    1    4    4    0    0  0.22996184804E+03  0.54679837445E+02  0.18530979182E+03  0.30035323584E+03  0.10566000000E+00 0. -1.
          4    1    3    3  502    0  0.62322626826E+03  0.97863166320E+03 -0.48519029257E+02  0.11612428729E+04  0.00000000000E+00 0.  1.
         -4    1    4    4    0  501 -0.49425619424E+03 -0.12430673804E+04  0.11787091649E+04  0.17829360598E+04  0.00000000000E+00 0. -1.
</event>
<event>
 8    1  0.7446554E-006  0.1243136E+04  0.7818608E-02  0.8574769E-01
          2   -1    0    0  502    0  0.00000000000E+00  0.00000000000E+00  0.19237951959E+04  0.19237951959E+04  0.00000000000E+00 0.  1.
         -2   -1    0    0    0  501 -0.00000000000E+00 -0.00000000000E+00 -0.90802807626E+03  0.90802807626E+03  0.00000000000E+00 0. -1.
    9000010    2    1    2  502    0 -0.62048861694E+03  0.39081762185E+03  0.25582685336E+02  0.12393503516E+04  0.99879441478E+03 0.  0.
   -9000010    2    1    2    0  501  0.62048861694E+03 -0.39081762185E+03  0.99018443429E+03  0.15924729205E+04  0.10088410436E+04 0.  0.
        -13    1    3    3    0    0 -0.18958831387E+03  0.26251174943E+03  0.49362046920E+03  0.59035356026E+03  0.10566000000E+00 0.  1.
         13    1    4    4    0    0  0.69650202860E+03 -0.36805551576E+03  0.11616308751E+04  0.14035548581E+04  0.10566000000E+00 0. -1.
          4    1    3    3  502    0 -0.43090030307E+03  0.12830587243E+03 -0.46803778386E+03  0.64899679137E+03  0.00000000000E+00 0.  1.
         -4    1    4    4    0  501 -0.76013411658E+02 -0.22762106090E+02 -0.17144644083E+03  0.18891806240E+03  0.00000000000E+00 0. -1.
</event>
<event>
 8    1  0.7446554E-006  0.1330410E+04  0.7818608E-02  0.8514340E-01
          2   -1    0    0  502    0  0.00000000000E+00  0.00000000000E+00  0.68751677450E+03  0.68751677450E+03  0.00000000000E+00 0. -1.
         -2   -1    0    0    0  501 -0.00000000000E+00 -0.00000000000E+00 -0.32249345882E+04  0.32249345882E+04  0.00000000000E+00 0.  1.
    9000010    2    1    2  502    0 -0.93493213575E+03 -0.15039593936E+03 -0.21092207771E+04  0.24696402136E+04  0.86809761019E+03 0.  0.
   -9000010    2    1    2    0  501  0.93493213575E+03  0.15039593936E+03 -0.42819703659E+03  0.14428111491E+04  0.10008168029E+04 0.  0.
        -13    1    3    3    0    0  0.16593579921E+03 -0.72305847352E+02 -0.29481595928E+03  0.34594694106E+03  0.10566000000E+00 0.  1.
         13    1    4    4    0    0  0.98402203312E+02 -0.98206379754E+02 -0.54489868096E+03  0.56235404357E+03  0.10566000000E+00 0. -1.
          4    1    3    3  502    0 -0.11008679350E+04 -0.78090092004E+02 -0.18144048178E+04  0.21236932725E+04  0.00000000000E+00 0.  1.
         -4    1    4    4    0  501  0.83652993244E+03  0.24860231911E+03  0.11670164437E+03  0.88045710556E+03  0.00000000000E+00 0. -1.
</event>
<event>
 8    1  0.7446554E-006  0.1006566E+04  0.7818608E-02  0.8768447E-01
         -1   -1    0    0    0  501 -0.00000000000E+00  0.00000000000E+00  0.69598719191E+03  0.69598719191E+03  0.00000000000E+00 0.  1.
          1   -1    0    0  502    0  0.00000000000E+00 -0.00000000000E+00 -0.14643038350E+04  0.14643038350E+04  0.00000000000E+00 0. -1.
    9000010    2    1    2  502    0  0.61770414714E+02 -0.55615963452E+02 -0.30152817561E+03  0.10507317720E+04  0.10030998437E+04 0.  0.
   -9000010    2    1    2    0  501 -0.61770414714E+02  0.55615963452E+02 -0.46678846750E+03  0.11095592549E+04  0.10031557941E+04 0.  0.
        -13    1    3    3    0    0  0.26624616634E+03  0.11963637023E+03 -0.58867052822E+03  0.65706383566E+03  0.10566000000E+00 0.  1.
         13    1    4    4    0    0 -0.42067635866E+03  0.13504554252E+03 -0.57614230341E+03  0.72604811289E+03  0.10566000000E+00 0. -1.
          4    1    3    3  502    0 -0.20447575163E+03 -0.17525233368E+03  0.28714235260E+03  0.39366793637E+03  0.00000000000E+00 0.  1.
         -4    1    4    4    0  501  0.35890594394E+03 -0.79429579070E+02  0.10935383590E+03  0.38351114202E+03  0.00000000000E+00 0. -1.
</event>
<event>
 8    1  0.7446554E-006  0.1610787E+04  0.7818608E-02  0.8348447E-01
         -2   -1    0    0    0  501 -0.00000000000E+00  0.00000000000E+00  0.85387304112E+03  0.85387304112E+03  0.00000000000E+00 0. -1.
          2   -1    0    0  502    0  0.00000000000E+00 -0.00000000000E+00 -0.30496618917E+04  0.30496618917E+04  0.00000000000E+00 0.  1.
    9000010    2    1    2  502    0  0.58555745044E+02  0.12539912185E+04 -0.97960534478E+03  0.18838907701E+04  0.10067249131E+04 0.  0.
   -9000010    2    1    2    0  501 -0.58555745044E+02 -0.12539912185E+04 -0.12161835058E+04  0.20196441627E+04  0.10118979558E+04 0.  0.
        -13    1    3    3    0    0  0.35382398240E+02  0.94643406292E+03 -0.10069400311E+03  0.95243301234E+03  0.10566000000E+00 0.  1.
         13    1    4    4    0    0  0.19821421328E+03 -0.10336923325E+04 -0.12984521034E+04  0.16714624101E+04  0.10566000000E+00 0. -1.
          4    1    3    3  502    0  0.23173346804E+02  0.30755715559E+03 -0.87891134166E+03  0.93145775775E+03  0.00000000000E+00 0.  1.
         -4    1    4    4    0  501 -0.25676995832E+03 -0.22029888605E+03  0.82268597585E+02  0.34818175260E+03  0.00000000000E+00 0. -1.
</event>
<event>
 8    1  0.7446554E-006  0.1621055E+04  0.7818608E-02  0.8343047E-01
         -2   -1    0    0    0  501 -0.00000000000E+00  0.00000000000E+00  0.38247985249E+04  0.38247985249E+04  0.00000000000E+00 0.  1.
          2   -1    0    0  502    0  0.00000000000E+00 -0.00000000000E+00 -0.83383795442E+03  0.83383795442E+03  0.00000000000E+00 0. -1.
    9000010    2    1    2  502    0 -0.77653655635E+03 -0.99425297778E+03  0.51999552924E+03  0.17047080600E+04  0.10218053691E+04 0.  0.
   -9000010    2    1    2    0  501  0.77653655635E+03  0.99425297778E+03  0.24709650412E+04  0.29539284193E+04  0.10141384837E+04 0.  0.
        -13    1    3    3    0    0 -0.26334588954E+03 -0.81080161457E+03  0.72832492992E+03  0.11212526613E+04  0.10566000000E+00 0.  1.
         13    1    4    4    0    0 -0.15414392744E+02 -0.18135407580E+03  0.45004608985E+03  0.48545689660E+03  0.10566000000E+00 0. -1.
          4    1    3    3  502    0 -0.51319066681E+03 -0.18345136321E+03 -0.20832940067E+03  0.58345539877E+03  0.00000000000E+00 0.  1.
         -4    1    4    4    0  501  0.79195094909E+03  0.11756070536E+04  0.20209189514E+04  0.24684715227E+04  0.00000000000E+00 0. -1.
</event>
<event>
 8    1  0.7446554E-006  0.1209408E+04  0.7818608E-02  0.8599512E-01
         -2   -1    0    0    0  501 -0.00000000000E+00  0.00000000000E+00  0.53286821963E+03  0.53286821963E+03  0.00000000000E+00 0.  1.
          2   -1    0    0  502    0  0.00000000000E+00 -0.00000000000E+00 -0.27846199473E+04  0.27846199473E+04  0.00000000000E+00 0. -1.
    9000010    2    1    2  502    0 -0.61712063731E+03  0.29953554693E+03 -0.92994855990E+03  0.15274807693E+04  0.99891628865E+03 0.  0.
   -9000010    2    1    2    0  501  0.61712063731E+03 -0.29953554693E+03 -0.13218031678E+04  0.17900073976E+04  0.99317845539E+03 0.  0.
        -13    1    3    3    0    0 -0.48896959434E+03  0.41506440339E+03 -0.11075565224E+04  0.12798637367E+04  0.10566000000E+00 0.  1.
         13    1    4    4    0    0  0.58126954116E+03  0.24835728988E+03 -0.88929185657E+03  0.10910525378E+04  0.10566000000E+00 0. -1.
          4    1    3    3  502    0 -0.12815104297E+03 -0.11552885646E+03  0.17760796249E+03  0.24761703259E+03  0.00000000000E+00 0.  1.
         -4    1    4    4    0  501  0.35851096155E+02 -0.54789283681E+03 -0.43251131121E+03  0.69895485980E+03  0.00000000000E+00 0. -1.
</event>
<event>
 8    1  0.7446554E-006  0.1166705E+04  0.7818608E-02  0.8632065E-01
          2   -1    0    0  502    0  0.00000000000E+00  0.00000000000E+00  0.13565057471E+04  0.13565057471E+04  0.00000000000E+00 0.  1.
         -2   -1    0    0    0  501 -0.00000000000E+00 -0.00000000000E+00 -0.11092809262E+04  0.11092809262E+04  0.00000000000E+00 0. -1.
    9000010    2    1    2  502    0  0.47141758548E+03  0.37323486305E+03  0.50460906443E+03  0.12731850464E+04  0.10024126155E+04 0.  0.
   -9000010    2    1    2    0  501 -0.47141758548E+03 -0.37323486305E+03 -0.25738424355E+03  0.11926016269E+04  0.99725282083E+03 0.  0.
        -13    1    3    3    0    0  0.28388128387E+03 -0.29870771787E+03  0.38777271506E+03  0.56584677587E+03  0.10566000000E+00 0.  1.
         13    1    4    4    0    0 -0.68711133794E+03 -0.38201218159E+03 -0.44779571771E+03  0.90475207299E+03  0.10566000000E+00 0. -1.
          4    1    3    3  502    0  0.18753630161E+03  0.67194258092E+03  0.11683634937E+03  0.70733827057E+03  0.00000000000E+00 0.  1.
         -4    1    4    4    0  501  0.21569375246E+03  0.87773185476E+01  0.19041147416E+03  0.28784955387E+03  0.00000000000E+00 0. -1.
</event>
<event>
 8    1  0.7446554E-006  0.1040835E+04  0.7818608E-02  0.8737141E-01
         -2   -1    0    0    0  501 -0.00000000000E+00  0.00000000000E+00  0.94041387206E+03  0.94041387206E+03  0.00000000000E+00 0. -1.
          2   -1    0    0  502    0  0.00000000000E+00 -0.00000000000E+00 -0.11724677840E+04  0.11724677840E+04  0.00000000000E+00 0.  1.
    9000010    2    1    2  502    0 -0.27981461183E+03  0.67779166342E+02 -0.25526442404E+03  0.10684067922E+04  0.99671606545E+03 0.  0.
   -9000010    2    1    2    0  501  0.27981461183E+03 -0.67779166342E+02  0.23210512065E+02  0.10444748639E+04  0.10037423878E+04 0.  0.
        -13    1    3    3    0    0 -0.12178118913E+03 -0.38446253551E+03 -0.39994517710E+03  0.56797733677E+03  0.10566000000E+00 0.  1.
         13    1    4    4    0    0  0.44187420137E+03 -0.43264175961E+03  0.12843433711E+03  0.63160675432E+03  0.10566000000E+00 0. -1.
          4    1    3    3  502    0 -0.15803342270E+03  0.45224170185E+03  0.14468075306E+03  0.50042945546E+03  0.00000000000E+00 0.  1.
         -4    1    4    4    0  501 -0.16205958954E+03  0.36486259327E+03 -0.10522382504E+03  0.41286810955E+03  0.00000000000E+00 0. -1.
</event>
<event>
 8    1  0.7446554E-006  0.1554831E+04  0.7818608E-02  0.8378625E-01
          2   -1    0    0  502    0  0.00000000000E+00  0.00000000000E+00  0.10059120697E+04  0.10059120697E+04  0.00000000000E+00 0.  1.
         -2   -1    0    0    0  501 -0.00000000000E+00 -0.00000000000E+00 -0.29623300601E+04  0.29623300601E+04  0.00000000000E+00 0. -1.
    9000010    2    1    2  502    0 -0.10932059523E+04 -0.33246693433E+03 -0.13442246962E+03  0.15944033183E+04  0.11038201957E+04 0.  0.
   -9000010    2    1    2    0  501  0.10932059523E+04  0.33246693433E+03 -0.18219955208E+04  0.23738388115E+04  0.10048927847E+04 0.  0.
        -13    1    3    3    0    0 -0.12060340788E+04 -0.32947900057E+03 -0.39441528207E+03  0.13109683585E+04  0.10566000000E+00 0.  1.
         13    1    4    4    0    0  0.59122118588E+03  0.26817555944E+03 -0.20699664338E+03  0.68140167512E+03  0.10566000000E+00 0. -1.
          4    1    3    3  502    0  0.11282812653E+03 -0.29879337534E+01  0.25999281245E+03  0.28343495975E+03  0.00000000000E+00 0.  1.
         -4    1    4    4    0  501  0.50198476642E+03  0.64291374885E+02 -0.16149988774E+04  0.16924371364E+04  0.00000000000E+00 0. -1.
</event>
<event>
 8    1  0.7446554E-006  0.1035126E+04  0.7818608E-02  0.8742270E-01
         -2   -1    0    0    0  501 -0.00000000000E+00  0.00000000000E+00  0.76272311172E+03  0.76272311172E+03  0.00000000000E+00 0. -1.
          2   -1    0    0  502    0  0.00000000000E+00 -0.00000000000E+00 -0.15172429555E+04  0.15172429555E+04  0.00000000000E+00 0.  1.
    9000010    2    1    2  502    0  0.40378732843E+02  0.23508178645E+03 -0.68787854079E+03  0.12435938479E+04  0.10081938719E+04 0.  0.
   -9000010    2    1    2    0  501 -0.40378732843E+02 -0.23508178645E+03 -0.66641302997E+02  0.10363722193E+04  0.10063460763E+04 0.  0.
        -13    1    3    3    0    0  0.38544089409E+03 -0.22810527109E+03 -0.21348080566E+03  0.49615598665E+03  0.10566000000E+00 0.  1.
         13    1    4    4    0    0 -0.17117748456E+03 -0.51978034575E+03 -0.31956563401E+03  0.63371566546E+03  0.10566000000E+00 0. -1.
          4    1    3    3  502    0 -0.34506216125E+03  0.46318705754E+03 -0.47439773513E+03  0.74743786129E+03  0.00000000000E+00 0.  1.
         -4    1    4    4    0  501  0.13079875171E+03  0.28469855931E+03  0.25292433101E+03  0.40265655382E+03  0.00000000000E+00 0. -1.
</event>
<event>
 8    1  0.7446554E-006  0.9739570E+03  0.7818608E-02  0.8799453E-01
         -2   -1    0    0    0  501 -0.00000000000E+00  0.00000000000E+00  0.37724279177E+03  0.37724279177E+03  0.00000000000E+00 0. -1.
          2   -1    0    0  502    0  0.00000000000E+00 -0.00000000000E+00 -0.28702151218E+04  0.28702151218E+04  0.00000000000E+00 0.  1.
    9000010    2    1    2  502    0  0.31850856890E+03  0.34812027040E+03 -0.57484049380E+03  0.10360059042E+04  0.72127055195E+03 0.  0.
   -9000010    2    1    2    0  501 -0.31850856890E+03 -0.34812027040E+03 -0.19181318363E+04  0.22114520094E+04  0.99431122764E+03 0.  0.
        -13    1    3    3    0    0 -0.35363422264E+02  0.10490268227E+03 -0.59589901099E+03  0.60609470121E+03  0.10566000000E+00 0.  1.
         13    1    4    4    0    0 -0.47112171681E+03  0.19745260491E+03 -0.68580246418E+03  0.85514223043E+03  0.10566000000E+00 0. -1.
          4    1    3    3  502    0  0.35387199117E+03  0.24321758813E+03  0.21058517191E+02  0.42991120299E+03  0.00000000000E+00 0.  1.
         -4    1    4    4    0  501  0.15261314791E+03 -0.54557287531E+03 -0.12323293721E+04  0.13563097790E+04  0.00000000000E+00 0. -1.
</event>
<event>
 8    1  0.7446554E-006  0.1648204E+04  0.7818608E-02  0.8328966E-01
         -2   -1    0    0    0  501 -0.00000000000E+00  0.00000000000E+00  0.10908548046E+04  0.10908548046E+04  0.00000000000E+00 0. -1.
          2   -1    0    0  502    0  0.00000000000E+00 -0.00000000000E+00 -0.29955284373E+04  0.29955284373E+04  0.00000000000E+00 0.  1.
    9000010    2    1    2  502    0 -0.12493118780E+04 -0.37222579122E+03 -0.17895270884E+04  0.24302414935E+04  0.10021648110E+04 0.  0.
   -9000010    2    1    2    0  501  0.12493118780E+04  0.37222579122E+03 -0.11514654434E+03  0.16561417484E+04  0.10149948551E+04 0.  0.
        -13    1    3    3    0    0 -0.41093499854E+03 -0.46178853383E+03 -0.23411615352E+03  0.66100424167E+03  0.10566000000E+00 0.  1.
         13    1    4    4    0    0 -0.41693338842E+02  0.22601897291E+03 -0.26210400866E+03  0.34859924432E+03  0.10566000000E+00 0. -1.
          4    1    3    3  502    0 -0.83837687944E+03  0.89562742610E+02 -0.15554109349E+04  0.17692372518E+04  0.00000000000E+00 0.  1.
         -4    1    4    4    0  501  0.12910052168E+04  0.14620681831E+03  0.14695746433E+03  0.13075425041E+04  0.00000000000E+00 0. -1.
</event>
<event>
 8    1  0.7446554E-006  0.1367919E+04  0.7818608E-02  0.8489819E-01
          1   -1    0    0  502    0  0.00000000000E+00  0.00000000000E+00  0.24357611086E+04  0.24357611086E+04  0.00000000000E+00 0. -1.
         -1   -1    0    0    0  501 -0.00000000000E+00 -0.00000000000E+00 -0.77499191568E+03  0.77499191568E+03  0.00000000000E+00 0.  1.
    9000010    2    1    2  502    0  0.26524800406E+03  0.92358113671E+03  0.71252182886E+03  0.15790123904E+04  0.10306474434E+04 0.  0.
   -9000010    2    1    2    0  501 -0.26524800406E+03 -0.92358113671E+03  0.94824736405E+03  0.16317406339E+04  0.91654013179E+03 0.  0.
        -13    1    3    3    0    0  0.64444490191E+03  0.63671652432E+03  0.61126826263E+03  0.10928705614E+04  0.10566000000E+00 0.  1.
         13    1    4    4    0    0 -0.34600419772E+03 -0.10586224547E+04  0.63712483643E+03  0.12830933227E+04  0.10566000000E+00 0. -1.
          4    1    3    3  502    0 -0.37919689785E+03  0.28686461239E+03  0.10125356623E+03  0.48614182895E+03  0.00000000000E+00 0.  1.
         -4    1    4    4    0  501  0.80756193660E+02  0.13504131803E+03  0.31112252761E+03  0.34864731116E+03  0.00000000000E+00 0. -1.
</event>
<event>
 8    1  0.7446554E-006  0.1216576E+04  0.7818608E-02  0.8594184E-01
          2   -1    0    0  502    0  0.00000000000E+00  0.00000000000E+00  0.32666060092E+04  0.32666060092E+04  0.00000000000E+00 0.  1.
         -2   -1    0    0    0  501 -0.00000000000E+00 -0.00000000000E+00 -0.46404644821E+03  0.46404644821E+03  0.00000000000E+00 0. -1.
    9000010    2    1    2  502    0  0.58930028400E+03  0.36653176498E+03  0.16890928201E+04  0.20822104951E+04  0.10004727041E+04 0.  0.
   -9000010    2    1    2    0  501 -0.58930028400E+03 -0.36653176498E+03  0.11134667409E+04  0.16484419623E+04  0.99796410784E+03 0.  0.
        -13    1    3    3    0    0  0.37986404003E+03  0.27769115949E+03  0.17770558658E+04  0.18382972095E+04  0.10566000000E+00 0.  1.
         13    1    4    4    0    0 -0.26953042229E+03  0.28043991500E+03  0.73965587218E+03  0.83569373270E+03  0.10566000000E+00 0. -1.
          4    1    3    3  502    0  0.20943624397E+03  0.88840605489E+02 -0.87963045762E+02  0.24391328560E+03  0.00000000000E+00 0.  1.
         -4    1    4    4    0  501 -0.31976986171E+03 -0.64697167998E+03  0.37381086872E+03  0.81274822961E+03  0.00000000000E+00 0. -1.
</event>
<event>
 8    1  0.7446554E-006  0.1107424E+04  0.7818608E-02  0.8679738E-01
         -2   -1    0    0    0  501 -0.00000000000E+00  0.00000000000E+00  0.44323901119E+03  0.44323901119E+03  0.00000000000E+00 0. -1.
          2   -1    0    0  502    0  0.00000000000E+00 -0.00000000000E+00 -0.40164611182E+04  0.40164611182E+04  0.00000000000E+00 0.  1.
    9000010    2    1    2  502    0 -0.31371629993E+03  0.40851014799E+03 -0.55522868588E+03  0.12486882972E+04  0.99279661162E+03 0.  0.
   -9000010    2    1    2    0  501  0.31371629993E+03 -0.40851014799E+03 -0.30179934211E+04  0.32110118322E+04  0.96799495802E+03 0.  0.
        -13    1    3    3    0    0  0.33596044975E+03  0.30966195147E+03 -0.28253531665E+03  0.53720216334E+03  0.10566000000E+00 0.  1.
         13    1    4    4    0    0  0.10178759287E+03 -0.67905417157E+03 -0.24743087036E+04  0.25678159696E+04  0.10566000000E+00 0. -1.
          4    1    3    3  502    0 -0.64967674967E+03  0.98848196525E+02 -0.27269336923E+03  0.71148613384E+03  0.00000000000E+00 0.  1.
         -4    1    4    4    0  501  0.21192870706E+03  0.27054402358E+03 -0.54368471752E+03  0.64319586258E+03  0.00000000000E+00 0. -1.
</event>
<event>
 8    1  0.7446554E-006  0.1373012E+04  0.7818608E-02  0.8486552E-01
         -2   -1    0    0    0  501 -0.00000000000E+00  0.00000000000E+00  0.15313160668E+04  0.15313160668E+04  0.00000000000E+00 0.  1.
          2   -1    0    0  502    0  0.00000000000E+00 -0.00000000000E+00 -0.12793662810E+04  0.12793662810E+04  0.00000000000E+00 0. -1.
    9000010    2    1    2  502    0  0.95342192296E+03 -0.69360375153E+01  0.39831222827E+03  0.14229838441E+04  0.97835009977E+03 0.  0.
   -9000010    2    1    2    0  501 -0.95342192296E+03  0.69360375153E+01 -0.14636244247E+03  0.13876985037E+04  0.99760899195E+03 0.  0.
        -13    1    3    3    0    0  0.91759675951E+03 -0.35205866216E+03  0.14517239579E+03  0.99348082534E+03  0.10566000000E+00 0.  1.
         13    1    4    4    0    0  0.12508069465E+03 -0.23902399977E+03  0.12991058997E+02  0.27008597042E+03  0.10566000000E+00 0. -1.
          4    1    3    3  502    0  0.35825163444E+02  0.34512262464E+03  0.25313983248E+03  0.42950301880E+03  0.00000000000E+00 0.  1.
         -4    1    4    4    0  501 -0.10785026176E+04  0.24596003729E+03 -0.15935350146E+03  0.11176125333E+04  0.00000000000E+00 0. -1.
</event>
<event>
 8    1  0.7446554E-006  0.1139590E+04  0.7818608E-02  0.8653496E-01
          2   -1    0    0  502    0  0.00000000000E+00  0.00000000000E+00  0.23622441413E+04  0.23622441413E+04  0.00000000000E+00 0. -1.
         -2   -1    0    0    0  501 -0.00000000000E+00 -0.00000000000E+00 -0.80369507045E+03  0.80369507045E+03  0.00000000000E+00 0.  1.
    9000010    2    1    2  502    0 -0.10663245469E+03  0.52848319479E+03 -0.10253503127E+03  0.11607448829E+04  0.10228148820E+04 0.  0.
   -9000010    2    1    2    0  501  0.10663245469E+03 -0.52848319479E+03  0.16610841022E+04  0.20051943289E+04  0.98536233671E+03 0.  0.
        -13    1    3    3    0    0  0.18377627790E+03  0.61869762890E+02 -0.46402673423E+03  0.50291391820E+03  0.10566000000E+00 0.  1.
         13    1    4    4    0    0 -0.41888887086E+03 -0.67774056744E+02  0.62863024142E+03  0.75844393365E+03  0.10566000000E+00 0. -1.
          4    1    3    3  502    0 -0.29040873259E+03  0.46661343190E+03  0.36149170295E+03  0.65783096469E+03  0.00000000000E+00 0.  1.
         -4    1    4    4    0  501  0.52552132555E+03 -0.46070913805E+03  0.10324538607E+04  0.12467503952E+04  0.00000000000E+00 0. -1.
</event>
<event>
 8    1  0.7446554E-006  0.1400701E+04  0.7818608E-02  0.8469042E-01
         -2   -1    0    0    0  501 -0.00000000000E+00  0.00000000000E+00  0.83753511400E+03  0.83753511400E+03  0.00000000000E+00 0.  1.
          2   -1    0    0  502    0  0.00000000000E+00 -0.00000000000E+00 -0.27661446603E+04  0.27661446603E+04  0.00000000000E+00 0. -1.
    9000010    2    1    2  502    0 -0.94287581126E+03  0.24438886397E+03 -0.26249992497E+03  0.14306096272E+04  0.10143948850E+04 0.  0.
   -9000010    2    1    2    0  501  0.94287581126E+03 -0.24438886397E+03 -0.16661096214E+04  0.21730701471E+04  0.99878520291E+03 0.  0.
        -13    1    3    3    0    0 -0.14893088681E+03  0.30231892402E+03 -0.49722067269E+03  0.60067091605E+03  0.10566000000E+00 0.  1.
         13    1    4    4    0    0  0.20686476912E+03 -0.55293281161E+03 -0.60465829451E+03  0.84506768436E+03  0.10566000000E+00 0. -1.
          4    1    3    3  502    0 -0.79394492444E+03 -0.57930060048E+02  0.23472074773E+03  0.82993871118E+03  0.00000000000E+00 0.  1.
         -4    1    4    4    0  501  0.73601104214E+03  0.30854394764E+03 -0.10614513269E+04  0.13280024628E+04  0.00000000000E+00 0. -1.
</event>
<event>
 8    1  0.7446554E-006  0.1152161E+04  0.7818608E-02  0.8643484E-01
          1   -1    0    0  502    0  0.00000000000E+00  0.00000000000E+00  0.15941970448E+04  0.15941970448E+04  0.00000000000E+00 0.  1.
         -1   -1    0    0    0  501 -0.00000000000E+00 -0.00000000000E+00 -0.83322414812E+03  0.83322414812E+03  0.00000000000E+00 0. -1.
    9000010    2    1    2  502    0 -0.38910438048E+03  0.47531132157E+03  0.35496332410E+03  0.11830891955E+04  0.94677241813E+03 0.  0.
   -9000010    2    1    2    0  501  0.38910438048E+03 -0.47531132157E+03  0.40600957256E+03  0.12443319974E+04  0.10030928548E+04 0.  0.
        -13    1    3    3    0    0 -0.90932693965E+02 -0.25914273496E+03  0.27125556197E+03  0.38600945969E+03  0.10566000000E+00 0.  1.
         13    1    4    4    0    0  0.67332542140E+03 -0.89213738532E+02  0.13132842179E+03  0.69178998242E+03  0.10566000000E+00 0. -1.
          4    1    3    3  502    0 -0.29817168652E+03  0.73445405653E+03  0.83707762132E+02  0.79707973581E+03  0.00000000000E+00 0.  1.
         -4    1    4    4    0  501 -0.28422104091E+03 -0.38609758304E+03  0.27468115078E+03  0.55254201498E+03  0.00000000000E+00 0. -1.
</event>
<event>
 8    1  0.7446554E-006  0.1151688E+04  0.7818608E-02  0.8643858E-01
          2   -1    0    0  502    0  0.00000000000E+00  0.00000000000E+00  0.29606614440E+04  0.29606614440E+04  0.00000000000E+00 0.  1.
         -2   -1    0    0    0  501 -0.00000000000E+00 -0.00000000000E+00 -0.47293666974E+03  0.47293666974E+03  0.00000000000E+00 0. -1.
    9000010    2    1    2  502    0 -0.53225337332E+03  0.34397128423E+03  0.87825726020E+03  0.14694015050E+04  0.99307354717E+03 0.  0.
   -9000010    2    1    2    0  501  0.53225337332E+03 -0.34397128423E+03  0.16094675141E+04  0.19641966087E+04  0.93063029238E+03 0.  0.
        -13    1    3    3    0    0 -0.13048059874E+02  0.59437635335E+03  0.52634488941E+03  0.79403555025E+03  0.10566000000E+00 0.  1.
         13    1    4    4    0    0  0.69139946693E+03 -0.41074776857E+03  0.16007254846E+04  0.17913874624E+04  0.10566000000E+00 0. -1.
          4    1    3    3  502    0 -0.51920531345E+03 -0.25040506912E+03  0.35191237079E+03  0.67536595477E+03  0.00000000000E+00 0.  1.
         -4    1    4    4    0  501 -0.15914609361E+03  0.66776484338E+02  0.87420294692E+01  0.17280914632E+03  0.00000000000E+00 0. -1.
</event>
<event>
 8    1  0.7446554E-006  0.1538089E+04  0.7818608E-02  0.8387910E-01
          2   -1    0    0  502    0  0.00000000000E+00  0.00000000000E+00  0.12570613679E+04  0.12570613679E+04  0.00000000000E+00 0. -1.
         -2   -1    0    0    0  501 -0.00000000000E+00 -0.00000000000E+00 -0.21483527160E+04  0.21483527160E+04  0.00000000000E+00 0.  1.
    9000010    2    1    2  502    0  0.29906943670E+03 -0.11230174061E+04  0.15525026212E+03  0.15407315683E+04  0.99957015732E+03 0.  0.
   -9000010    2    1    2    0  501 -0.29906943670E+03  0.11230174061E+04 -0.10465416102E+04  0.18646825156E+04  0.10154707872E+04 0.  0.
        -13    1    3    3    0    0  0.86854549914E+02 -0.31605120743E+03  0.53227747911E+03  0.62510111541E+03  0.10566000000E+00 0.  1.
         13    1    4    4    0    0  0.21393816204E+03  0.98988652505E+03 -0.66295933938E+03  0.12104379234E+04  0.10566000000E+00 0. -1.
          4    1    3    3  502    0  0.21221488679E+03 -0.80696619864E+03 -0.37702721699E+03  0.91563045290E+03  0.00000000000E+00 0.  1.
         -4    1    4    4    0  501 -0.51300759874E+03  0.13313088102E+03 -0.38358227083E+03  0.65424459214E+03  0.00000000000E+00 0. -1.
</event>
<event>
 8    1  0.7446554E-006  0.1411226E+04  0.7818608E-02  0.8462494E-01
          2   -1    0    0  502    0  0.00000000000E+00  0.00000000000E+00  0.11944643765E+04  0.11944643765E+04  0.00000000000E+00 0. -1.
         -2   -1    0    0    0  501 -0.00000000000E+00 -0.00000000000E+00 -0.16707756447E+04  0.16707756447E+04  0.00000000000E+00 0.  1.
    9000010    2    1    2  502    0 -0.64945674346E+03 -0.75776559894E+03 -0.17221778557E+03  0.14143677570E+04  0.98730665037E+03 0.  0.
   -9000010    2    1    2    0  501  0.64945674346E+03  0.75776559894E+03 -0.30409348264E+03  0.14508722641E+04  0.10082433814E+04 0.  0.
        -13    1    3    3    0    0  0.69868996676E+02 -0.65635097956E+03 -0.19278599263E+03  0.68763706647E+03  0.10566000000E+00 0.  1.
         13    1    4    4    0    0  0.88166669701E+03  0.34851518291E+03 -0.19710998371E+03  0.96832399236E+03  0.10566000000E+00 0. -1.
          4    1    3    3  502    0 -0.71932574014E+03 -0.10141461938E+03  0.20568207064E+02  0.72673069055E+03  0.00000000000E+00 0.  1.
         -4    1    4    4    0  501 -0.23220995355E+03  0.40925041603E+03 -0.10698349893E+03  0.48254827177E+03  0.00000000000E+00 0. -1.
</event>
<event>
 8    1  0.7446554E-006  0.1215008E+04  0.7818608E-02  0.8595346E-01
          2   -1    0    0  502    0  0.00000000000E+00  0.00000000000E+00  0.21241621082E+04  0.21241621082E+04  0.00000000000E+00 0. -1.
         -2   -1    0    0    0  501 -0.00000000000E+00 -0.00000000000E+00 -0.69519426979E+03  0.69519426979E+03  0.00000000000E+00 0.  1.
    9000010    2    1    2  502    0  0.71168918095E+03 -0.19129089495E+03  0.69643032913E+03  0.13825108584E+04  0.93980177353E+03 0.  0.
   -9000010    2    1    2    0  501 -0.71168918095E+03  0.19129089495E+03  0.73253750931E+03  0.14368455196E+04  0.99238104975E+03 0.  0.
        -13    1    3    3    0    0 -0.20693137186E+03 -0.85538038045E+02  0.30504514891E+03  0.37840441680E+03  0.10566000000E+00 0.  1.
         13    1    4    4    0    0 -0.77560370715E+03  0.30425649216E+03  0.89904274506E+03  0.12257287596E+04  0.10566000000E+00 0. -1.
          4    1    3    3  502    0  0.91862055282E+03 -0.10575285690E+03  0.39138518021E+03  0.10041064416E+04  0.00000000000E+00 0.  1.
         -4    1    4    4    0  501  0.63914526204E+02 -0.11296559721E+03 -0.16650523575E+03  0.21111675998E+03  0.00000000000E+00 0. -1.
</event>
<event>
 8    1  0.7446554E-006  0.1035655E+04  0.7818608E-02  0.8741793E-01
          1   -1    0    0  502    0  0.00000000000E+00  0.00000000000E+00  0.70209885704E+03  0.70209885704E+03  0.00000000000E+00 0.  1.
         -1   -1    0    0    0  501 -0.00000000000E+00 -0.00000000000E+00 -0.25602421760E+04  0.25602421760E+04  0.00000000000E+00 0. -1.
    9000010    2    1    2  502    0  0.26459846567E+03 -0.13289301629E+01  0.10483945498E+03  0.10446227890E+04  0.10051026545E+04 0.  0.
   -9000010    2    1    2    0  501 -0.26459846567E+03  0.13289301629E+01 -0.19629827739E+04  0.22177182440E+04  0.99747617760E+03 0.  0.
        -13    1    3    3    0    0  0.65048364236E+02  0.19130732615E+03  0.51287506085E+03  0.55124461170E+03  0.10566000000E+00 0.  1.
         13    1    4    4    0    0  0.11501203921E+03 -0.34148208061E+03 -0.14469522349E+04  0.14911433739E+04  0.10566000000E+00 0. -1.
          4    1    3    3  502    0  0.19955010143E+03 -0.19263625631E+03 -0.40803560586E+03  0.49337817734E+03  0.00000000000E+00 0.  1.
         -4    1    4    4    0  501 -0.37961050487E+03  0.34281101078E+03 -0.51603053908E+03  0.72657487005E+03  0.00000000000E+00 0. -1.
</event>
<event>
 8    1  0.7446554E-006  0.1297141E+04  0.7818608E-02  0.8536795E-01
          2   -1    0    0  502    0  0.00000000000E+00  0.00000000000E+00  0.23009888294E+04  0.23009888294E+04  0.00000000000E+00 0.  1.
         -2   -1    0    0    0  501 -0.00000000000E+00 -0.00000000000E+00 -0.96103932454E+03  0.96103932454E+03  0.00000000000E+00 0. -1.
    9000010    2    1    2  502    0 -0.54915116030E+03  0.60989213682E+03 -0.12899082229E+03  0.12999439196E+04  0.99984006046E+03 0.  0.
   -9000010    2    1    2    0  501  0.54915116030E+03 -0.60989213682E+03  0.14689403271E+04  0.19620842343E+04  0.10091845433E+04 0.  0.
        -13    1    3    3    0    0  0.28009549326E+03  0.36153262811E+02 -0.63315287871E+02  0.28942940521E+03  0.10566000000E+00 0.  1.
         13    1    4    4    0    0  0.55323110900E+03 -0.70538168026E+03  0.57933598435E+03  0.10673603743E+04  0.10566000000E+00 0. -1.
          4    1    3    3  502    0 -0.82924665357E+03  0.57373887401E+03 -0.65675534416E+02  0.10105145144E+04  0.00000000000E+00 0.  1.
         -4    1    4    4    0  501 -0.40799486960E+01  0.95489543436E+02  0.88960434279E+03  0.89472385997E+03  0.00000000000E+00 0. -1.
</event>
<event>
 8    1  0.7446554E-006  0.1019464E+04  0.7818608E-02  0.8756516E-01
          2   -1    0    0  502    0  0.00000000000E+00  0.00000000000E+00  0.16312066787E+04  0.16312066787E+04  0.00000000000E+00 0. -1.
         -2   -1    0    0    0  501 -0.00000000000E+00 -0.00000000000E+00 -0.64278920635E+03  0.64278920635E+03  0.00000000000E+00 0.  1.
    9000010    2    1    2  502    0 -0.25579456514E+03  0.33082124771E+02  0.39435548056E+03  0.11045475578E+04  0.99899137927E+03 0.  0.
   -9000010    2    1    2    0  501  0.25579456514E+03 -0.33082124771E+02  0.59406199183E+03  0.11694483273E+04  0.97374249858E+03 0.  0.
        -13    1    3    3    0    0  0.38324416886E+03 -0.28842275570E+02  0.93591867814E+02  0.39555962725E+03  0.10566000000E+00 0.  1.
         13    1    4    4    0    0  0.17362442789E+03  0.46004860504E+03  0.39738549457E+03  0.63222259009E+03  0.10566000000E+00 0. -1.
          4    1    3    3  502    0 -0.63903873400E+03  0.61924400341E+02  0.30076361275E+03  0.70898793055E+03  0.00000000000E+00 0.  1.
         -4    1    4    4    0  501  0.82170137250E+02 -0.49313072981E+03  0.19667649726E+03  0.53722573720E+03  0.00000000000E+00 0. -1.
</event>
<event>
 8    1  0.7446554E-006  0.1255273E+04  0.7818608E-02  0.8566063E-01
          1   -1    0    0  502    0  0.00000000000E+00  0.00000000000E+00  0.14843120028E+04  0.14843120028E+04  0.00000000000E+00 0.  1.
         -1   -1    0    0    0  501 -0.00000000000E+00 -0.00000000000E+00 -0.11614560545E+04  0.11614560545E+04  0.00000000000E+00 0. -1.
    9000010    2    1    2  502    0 -0.22562144777E+03 -0.72830547816E+03  0.54997210847E+03  0.13755703896E+04  0.10041865710E+04 0.  0.
   -9000010    2    1    2    0  501  0.22562144777E+03  0.72830547816E+03 -0.22711616017E+03  0.12701976677E+04  0.99019516133E+03 0.  0.
        -13    1    3    3    0    0  0.23118390729E+03 -0.66368489280E+03  0.58286313004E+03  0.91304604235E+03  0.10566000000E+00 0.  1.
         13    1    4    4    0    0 -0.36823698120E+03  0.10347009552E+03 -0.16693455612E+02  0.38286187798E+03  0.10566000000E+00 0. -1.
          4    1    3    3  502    0 -0.45680535507E+03 -0.64620585363E+02 -0.32891021578E+02  0.46252434722E+03  0.00000000000E+00 0.  1.
         -4    1    4    4    0  501  0.59385842897E+03  0.62483538264E+03 -0.21042270456E+03  0.88733578968E+03  0.00000000000E+00 0. -1.
</event>
<event>
 8    1  0.7446554E-006  0.1439896E+04  0.7818608E-02  0.8444952E-01
          2   -1    0    0  502    0  0.00000000000E+00  0.00000000000E+00  0.23125351744E+04  0.23125351744E+04  0.00000000000E+00 0.  1.
         -2   -1    0    0    0  501 -0.00000000000E+00 -0.00000000000E+00 -0.89797915604E+03  0.89797915604E+03  0.00000000000E+00 0. -1.
    9000010    2    1    2  502    0 -0.10129617534E+04  0.32911714170E+03  0.65297746696E+03  0.15950176329E+04  0.99161084618E+03 0.  0.
   -9000010    2    1    2    0  501  0.10129617534E+04 -0.32911714170E+03  0.76157855136E+03  0.16154966975E+04  0.94626533433E+03 0.  0.
        -13    1    3    3    0    0 -0.13617618970E+03  0.39135105280E+03 -0.11257473750E+03  0.42938640390E+03  0.10566000000E+00 0.  1.
         13    1    4    4    0    0 -0.11484584829E+03 -0.26625718715E+03  0.21287246671E+03  0.35971816305E+03  0.10566000000E+00 0. -1.
          4    1    3    3  502    0 -0.87678556366E+03 -0.62233911097E+02  0.76555220446E+03  0.11656312290E+04  0.00000000000E+00 0.  1.
         -4    1    4    4    0  501  0.11278076016E+04 -0.62859954557E+02  0.54870608465E+03  0.12557785344E+04  0.00000000000E+00 0. -1.
</event>
<event>
 8    1  0.7446554E-006  0.1170010E+04  0.7818608E-02  0.8629494E-01
          2   -1    0    0  502    0  0.00000000000E+00  0.00000000000E+00  0.30434484278E+04  0.30434484278E+04  0.00000000000E+00 0. -1.
         -2   -1    0    0    0  501 -0.00000000000E+00 -0.00000000000E+00 -0.50856839261E+03  0.50856839261E+03  0.00000000000E+00 0.  1.
    9000010    2    1    2  502    0  0.21759232820E+03  0.56653180925E+03  0.18733201283E+04  0.22098534120E+04  0.10029053231E+04 0.  0.
   -9000010    2    1    2    0  501 -0.21759232820E+03 -0.56653180925E+03  0.66155990685E+03  0.13421634084E+04  0.99771558688E+03 0.  0.
        -13    1    3    3    0    0 -0.93939884015E+02 -0.23478933436E+03  0.17881737458E+03  0.30971987013E+03  0.10566000000E+00 0.  1.
         13    1    4    4    0    0  0.37828928799E+03 -0.63577461783E+02  0.27392760594E+03  0.47136103308E+03  0.10566000000E+00 0. -1.
          4    1    3    3  502    0  0.31153221222E+03  0.80132114361E+03  0.16945027538E+04  0.19001335419E+04  0.00000000000E+00 0.  1.
         -4    1    4    4    0  501 -0.59588161619E+03 -0.50295434746E+03  0.38763230091E+03  0.87080237532E+03  0.00000000000E+00 0. -1.
</event>
<event>
 8    1  0.7446554E-006  0.1906095E+04  0.7818608E-02  0.8207734E-01
          2   -1    0    0  502    0  0.00000000000E+00  0.00000000000E+00  0.18591200908E+04  0.18591200908E+04  0.00000000000E+00 0.  1.
         -2   -1    0    0    0  501 -0.00000000000E+00 -0.00000000000E+00 -0.19548487484E+04  0.19548487484E+04  0.00000000000E+00 0. -1.
    9000010    2    1    2  502    0 -0.13848144668E+04 -0.84565849184E+03 -0.15049978244E+02  0.19004251621E+04  0.98921175830E+03 0.  0.
   -9000010    2    1    2    0  501  0.13848144668E+04  0.84565849184E+03 -0.80678679404E+02  0.19135436771E+04  0.10110840532E+04 0.  0.
        -13    1    3    3    0    0 -0.93364062996E+03 -0.21210054053E+03 -0.39388251511E+03  0.10352849425E+04  0.10566000000E+00 0.  1.
         13    1    4    4    0    0  0.14842845404E+04  0.81648382978E+03  0.10884269265E+03  0.16975256063E+04  0.10566000000E+00 0. -1.
          4    1    3    3  502    0 -0.45117383685E+03 -0.63355795131E+03  0.37883253687E+03  0.86514021968E+03  0.00000000000E+00 0.  1.
         -4    1    4    4    0  501 -0.99470073591E+02  0.29174662058E+02 -0.18952137206E+03  0.21601807080E+03  0.00000000000E+00 0. -1.
</event>
<event>
 8    1  0.7446554E-006  0.1216223E+04  0.7818608E-02  0.8594445E-01
         -1   -1    0    0    0  501 -0.00000000000E+00  0.00000000000E+00  0.12256871406E+04  0.12256871406E+04  0.00000000000E+00 0. -1.
          1   -1    0    0  502    0  0.00000000000E+00 -0.00000000000E+00 -0.13913438329E+04  0.13913438329E+04  0.00000000000E+00 0.  1.
    9000010    2    1    2  502    0 -0.62547562411E+03 -0.31718874380E+03 -0.55950205796E+03  0.13413771046E+04  0.99720686330E+03 0.  0.
   -9000010    2    1    2    0  501  0.62547562411E+03  0.31718874380E+03  0.39384536565E+03  0.12756538690E+04  0.99012633839E+03 0.  0.
        -13    1    3    3    0    0 -0.23911110756E+03 -0.35047777165E+03 -0.78533665282E+03  0.89261551611E+03  0.10566000000E+00 0.  1.
         13    1    4    4    0    0  0.11725887116E+03  0.59445419438E+03  0.33858239581E+03  0.69409183974E+03  0.10566000000E+00 0. -1.
          4    1    3    3  502    0 -0.38636451656E+03  0.33289027852E+02  0.22583459486E+03  0.44876158845E+03  0.00000000000E+00 0.  1.
         -4    1    4    4    0  501  0.50821675296E+03 -0.27726545058E+03  0.55262969839E+02  0.58156202929E+03  0.00000000000E+00 0. -1.
</event>
<event>
 8    1  0.7446554E-006  0.1452594E+04  0.7818608E-02  0.8437316E-01
          2   -1    0    0  502    0  0.00000000000E+00  0.00000000000E+00  0.14481446410E+04  0.14481446410E+04  0.00000000000E+00 0.  1.
         -2   -1    0    0    0  501 -0.00000000000E+00 -0.00000000000E+00 -0.14578179755E+04  0.14578179755E+04  0.00000000000E+00 0. -1.
    9000010    2    1    2  502    0 -0.76801492887E+03 -0.70563368921E+03 -0.37650452106E+02  0.14583171052E+04  0.10185800845E+04 0.  0.
   -9000010    2    1    2    0  501  0.76801492887E+03  0.70563368921E+03  0.27977117691E+02  0.14476455113E+04  0.10035581562E+04 0.  0.
        -13    1    3    3    0    0 -0.69919057721E+03 -0.38131674394E+03  0.41435865507E+03  0.89775443673E+03  0.10566000000E+00 0.  1.
         13    1    4    4    0    0  0.30090202207E+03  0.38400448670E+03 -0.48137222334E+03  0.68536173022E+03  0.10566000000E+00 0. -1.
          4    1    3    3  502    0 -0.68824351661E+02 -0.32431694527E+03 -0.45200910717E+03  0.56056266852E+03  0.00000000000E+00 0.  1.
         -4    1    4    4    0  501  0.46711290680E+03  0.32162920251E+03  0.50934934103E+03  0.76228378103E+03  0.00000000000E+00 0. -1.
</event>
<event>
 8    1  0.7446554E-006  0.1385634E+04  0.7818608E-02  0.8478518E-01
         -2   -1    0    0    0  501 -0.00000000000E+00  0.00000000000E+00  0.96266439319E+03  0.96266439319E+03  0.00000000000E+00 0. -1.
          2   -1    0    0  502    0  0.00000000000E+00 -0.00000000000E+00 -0.21863302801E+04  0.21863302801E+04  0.00000000000E+00 0.  1.
    9000010    2    1    2  502    0  0.83037435499E+03  0.51064562328E+03 -0.14332195384E+03  0.13878556355E+04  0.97740552509E+03 0.  0.
   -9000010    2    1    2    0  501 -0.83037435499E+03 -0.51064562328E+03 -0.10803439331E+04  0.17611390379E+04  0.99206208215E+03 0.  0.
        -13    1    3    3    0    0 -0.38273433349E+02  0.33673873771E+03  0.24743209077E+03  0.41961945127E+03  0.10566000000E+00 0.  1.
         13    1    4    4    0    0 -0.25627022121E+03 -0.47072209877E+03  0.12609859888E+01  0.53596205258E+03  0.10566000000E+00 0. -1.
          4    1    3    3  502    0  0.86864778834E+03  0.17390688557E+03 -0.39075404461E+03  0.96823618421E+03  0.00000000000E+00 0.  1.
         -4    1    4    4    0  501 -0.57410413378E+03 -0.39923524510E+02 -0.10816049191E+04  0.12251769853E+04  0.00000000000E+00 0. -1.
</event>
<event>
 8    1  0.7446554E-006  0.1302348E+04  0.7818608E-02  0.8533236E-01
          1   -1    0    0  502    0  0.00000000000E+00  0.00000000000E+00  0.23504239669E+04  0.23504239669E+04  0.00000000000E+00 0. -1.
         -1   -1    0    0    0  501 -0.00000000000E+00 -0.00000000000E+00 -0.75887206992E+03  0.75887206992E+03  0.00000000000E+00 0.  1.
    9000010    2    1    2  502    0 -0.45760219294E+03 -0.65690397854E+03  0.11351036839E+04  0.17211677071E+04  0.10163834408E+04 0.  0.
   -9000010    2    1    2    0  501  0.45760219294E+03  0.65690397854E+03  0.45644821307E+03  0.13881283297E+04  0.10380908846E+04 0.  0.
        -13    1    3    3    0    0 -0.77909776916E+03 -0.48912373867E+03  0.70762482098E+03  0.11605896191E+04  0.10566000000E+00 0.  1.
         13    1    4    4    0    0  0.24739989352E+03 -0.23147010688E+03 -0.52648992003E+02  0.34286592893E+03  0.10566000000E+00 0. -1.
          4    1    3    3  502    0  0.32149557622E+03 -0.16778023987E+03  0.42747886293E+03  0.56057808793E+03  0.00000000000E+00 0.  1.
         -4    1    4    4    0  501  0.21020229941E+03  0.88837408543E+03  0.50909720508E+03  0.10452624008E+04  0.00000000000E+00 0. -1.
</event>
<event>
 8    1  0.7446554E-006  0.1301087E+04  0.7818608E-02  0.8534096E-01
         -2   -1    0    0    0  501 -0.00000000000E+00  0.00000000000E+00  0.95833902446E+03  0.95833902446E+03  0.00000000000E+00 0.  1.
          2   -1    0    0  502    0  0.00000000000E+00 -0.00000000000E+00 -0.18157154578E+04  0.18157154578E+04  0.00000000000E+00 0. -1.
    9000010    2    1    2  502    0 -0.75181504527E+03  0.45376668554E+03 -0.66569086084E+03  0.14951024043E+04  0.10104735573E+04 0.  0.
   -9000010    2    1    2    0  501  0.75181504527E+03 -0.45376668554E+03 -0.19168557252E+03  0.12789520779E+04  0.90985987479E+03 0.  0.
        -13    1    3    3    0    0 -0.26179315766E+03  0.72684990329E+03 -0.32031242052E+03  0.83632917994E+03  0.10566000000E+00 0.  1.
         13    1    4    4    0    0 -0.11452919674E+03 -0.20857969778E+03 -0.28783782090E+03  0.37346090764E+03  0.10566000000E+00 0. -1.
          4    1    3    3  502    0 -0.49002188761E+03 -0.27308321776E+03 -0.34537844032E+03  0.65877322441E+03  0.00000000000E+00 0.  1.
         -4    1    4    4    0  501  0.86634424200E+03 -0.24518698775E+03  0.96152248381E+02  0.90549117029E+03  0.00000000000E+00 0. -1.
</event>
<event>
 8    1  0.7446554E-006  0.1496292E+04  0.7818608E-02  0.8411636E-01
          2   -1    0    0  502    0  0.00000000000E+00  0.00000000000E+00  0.30975376868E+04  0.30975376868E+04  0.00000000000E+00 0. -1.
         -2   -1    0    0    0  501 -0.00000000000E+00 -0.00000000000E+00 -0.82385459093E+03  0.82385459093E+03  0.00000000000E+00 0.  1.
    9000010    2    1    2  502    0  0.10108070138E+04 -0.43861437946E+03  0.18364064797E+04  0.23816021918E+04  0.10418861974E+04 0.  0.
   -9000010    2    1    2    0  501 -0.10108070138E+04  0.43861437946E+03  0.43727661621E+03  0.15397900859E+04  0.98266437637E+03 0.  0.
        -13    1    3    3    0    0  0.18283517799E+03 -0.57824848622E+03  0.11377209617E+04  0.12892668506E+04  0.10566000000E+00 0.  1.
         13    1    4    4    0    0 -0.99105158413E+03 -0.19586266053E+02  0.16060043705E+03  0.10041709893E+04  0.10566000000E+00 0. -1.
          4    1    3    3  502    0  0.82797183583E+03  0.13963410676E+03  0.69868551799E+03  0.10923353413E+04  0.00000000000E+00 0.  1.
         -4    1    4    4    0  501 -0.19755429694E+02  0.45820064552E+03  0.27667617915E+03  0.53561909662E+03  0.00000000000E+00 0. -1.
</event>
<event>
 8    1  0.7446554E-006  0.1098275E+04  0.7818608E-02  0.8687372E-01
         -2   -1    0    0    0  501 -0.00000000000E+00  0.00000000000E+00  0.67004590026E+03  0.67004590026E+03  0.00000000000E+00 0. -1.
          2   -1    0    0  502    0  0.00000000000E+00 -0.00000000000E+00 -0.19117393030E+04  0.19117393030E+04  0.00000000000E+00 0.  1.
    9000010    2    1    2  502    0  0.94128953854E+02 -0.44997966537E+03 -0.30380193187E+03  0.11297058700E+04  0.98620372118E+03 0.  0.
   -9000010    2    1    2    0  501 -0.94128953854E+02  0.44997966537E+03 -0.93789147087E+03  0.14520793333E+04  0.10087378350E+04 0.  0.
        -13    1    3    3    0    0 -0.33614613306E+03 -0.52829958207E+03 -0.60118410853E+02  0.62905397676E+03  0.10566000000E+00 0.  1.
         13    1    4    4    0    0 -0.48272183976E+03  0.73083034071E+00 -0.59510996468E+03  0.76627461782E+03  0.10566000000E+00 0. -1.
          4    1    3    3  502    0  0.43027508692E+03  0.78319916703E+02 -0.24368352101E+03  0.50065189322E+03  0.00000000000E+00 0.  1.
         -4    1    4    4    0  501  0.38859288591E+03  0.44924883503E+03 -0.34278150619E+03  0.68580471545E+03  0.00000000000E+00 0. -1.
</event>
<event>
 8    1  0.7446554E-006  0.1144434E+04  0.7818608E-02  0.8649622E-01
         -2   -1    0    0    0  501 -0.00000000000E+00  0.00000000000E+00  0.38718730522E+04  0.38718730522E+04  0.00000000000E+00 0. -1.
          2   -1    0    0  502    0  0.00000000000E+00 -0.00000000000E+00 -0.43747492144E+03  0.43747492144E+03  0.00000000000E+00 0.  1.
    9000010    2    1    2  502    0 -0.53684698495E+03  0.19093398793E+03  0.27454835478E+04  0.29751974833E+04  0.99471587900E+03 0.  0.
   -9000010    2    1    2    0  501  0.53684698495E+03 -0.19093398793E+03  0.68891458295E+03  0.13341504904E+04  0.99029983109E+03 0.  0.
        -13    1    3    3    0    0 -0.26176372290E+03 -0.27061055694E+03  0.32991666495E+03  0.50059498312E+03  0.10566000000E+00 0.  1.
         13    1    4    4    0    0 -0.16411738405E+03 -0.25829390025E+03 -0.53747761208E+02  0.31070739877E+03  0.10566000000E+00 0. -1.
          4    1    3    3  502    0 -0.27508326204E+03  0.46154454487E+03  0.24155668829E+04  0.24746025001E+04  0.00000000000E+00 0.  1.
         -4    1    4    4    0  501  0.70096436899E+03  0.67359912314E+02  0.74266234416E+03  0.10234430916E+04  0.00000000000E+00 0. -1.
</event>
<event>
 8    1  0.7446554E-006  0.1351535E+04  0.7818608E-02  0.8500429E-01
          1   -1    0    0  502    0  0.00000000000E+00  0.00000000000E+00  0.19596450914E+04  0.19596450914E+04  0.00000000000E+00 0.  1.
         -1   -1    0    0    0  501 -0.00000000000E+00 -0.00000000000E+00 -0.13172728045E+04  0.13172728045E+04  0.00000000000E+00 0. -1.
    9000010    2    1    2  502    0 -0.79492321683E+03 -0.42979157580E+03  0.12070112709E+04  0.18115143791E+04  0.10040340724E+04 0.  0.
   -9000010    2    1    2    0  501  0.79492321683E+03  0.42979157580E+03 -0.56463898389E+03  0.14654035168E+04  0.10059654892E+04 0.  0.
        -13    1    3    3    0    0 -0.10059166557E+04 -0.50579035669E+03  0.10268404570E+04  0.15238417038E+04  0.10566000000E+00 0.  1.
         13    1    4    4    0    0  0.78953875537E+03  0.51254987950E+03 -0.78770518192E+03  0.12274193619E+04  0.10566000000E+00 0. -1.
          4    1    3    3  502    0  0.21099343885E+03  0.75998780890E+02  0.18017081391E+03  0.28767267531E+03  0.00000000000E+00 0.  1.
         -4    1    4    4    0  501  0.53844614528E+01 -0.82758303698E+02  0.22306619803E+03  0.23798415485E+03  0.00000000000E+00 0. -1.
</event>
<event>
 8    1  0.7446554E-006  0.1269437E+04  0.7818608E-02  0.8556032E-01
          2   -1    0    0  502    0  0.00000000000E+00  0.00000000000E+00  0.17320896286E+04  0.17320896286E+04  0.00000000000E+00 0.  1.
         -2   -1    0    0    0  501 -0.00000000000E+00 -0.00000000000E+00 -0.10637391148E+04  0.10637391148E+04  0.00000000000E+00 0. -1.
    9000010    2    1    2  502    0  0.63917617674E+03 -0.43563937471E+03  0.82616722998E+03  0.15043893043E+04  0.99111403850E+03 0.  0.
   -9000010    2    1    2    0  501 -0.63917617674E+03  0.43563937471E+03 -0.15781671610E+03  0.12914394391E+04  0.10220478752E+04 0.  0.
        -13    1    3    3    0    0  0.31201071819E+02 -0.38642921095E+03  0.80565497302E+03  0.89408108618E+03  0.10566000000E+00 0.  1.
         13    1    4    4    0    0 -0.38973467841E+03 -0.10457805351E+02 -0.53088390407E+03  0.65866548112E+03  0.10566000000E+00 0. -1.
          4    1    3    3  502    0  0.60797510492E+03 -0.49210163761E+02  0.20512256964E+02  0.61030821812E+03  0.00000000000E+00 0.  1.
         -4    1    4    4    0  501 -0.24944149833E+03  0.44609718007E+03  0.37306718797E+03  0.63277395797E+03  0.00000000000E+00 0. -1.
</event>
<event>
 8    1  0.7446554E-006  0.1497153E+04  0.7818608E-02  0.8411139E-01
         -2   -1    0    0    0  501 -0.00000000000E+00  0.00000000000E+00  0.11529291942E+04  0.11529291942E+04  0.00000000000E+00 0.  1.
          2   -1    0    0  502    0  0.00000000000E+00 -0.00000000000E+00 -0.21572625248E+04  0.21572625248E+04  0.00000000000E+00 0. -1.
    9000010    2    1    2  502    0  0.71949079759E+03 -0.83592776939E+03 -0.10219966084E+04  0.18116947829E+04  0.10106031246E+04 0.  0.
   -9000010    2    1    2    0  501 -0.71949079759E+03  0.83592776939E+03  0.17663277877E+02  0.14984969361E+04  0.10142676337E+04 0.  0.
        -13    1    3    3    0    0  0.13387611373E+03  0.38370141482E+02  0.17124807148E+03  0.22072832789E+03  0.10566000000E+00 0.  1.
         13    1    4    4    0    0 -0.80836773216E+02  0.34150879240E+03  0.45925151298E+03  0.57799204365E+03  0.10566000000E+00 0. -1.
          4    1    3    3  502    0  0.58561468386E+03 -0.87429791087E+03 -0.11932446799E+04  0.15909664550E+04  0.00000000000E+00 0.  1.
         -4    1    4    4    0  501 -0.63865402437E+03  0.49441897700E+03 -0.44158823510E+03  0.92050489246E+03  0.00000000000E+00 0. -1.
</event>
<event>
 7    1  0.7446554E-006  0.1479305E+04  0.7818608E-02  0.8421510E-01
         -1   -1    0    0    0  501 -0.00000000000E+00  0.00000000000E+00  0.63391389249E+03  0.63391389249E+03  0.00000000000E+00 0.  1.
          1   -1    0    0  502    0  0.00000000000E+00 -0.00000000000E+00 -0.34754644736E+04  0.34754644736E+04  0.00000000000E+00 0. -1.
   -9000010    2    1    2    0  501  0.88763440910E+03  0.83783418806E+03 -0.16241963383E+04  0.22521635870E+04  0.97178501043E+03 0.  0.
        -13    1    1    2    0    0 -0.65671337094E+03 -0.55052515140E+03 -0.12172111915E+04  0.14886079033E+04  0.10566000000E+00 0.  1.
         13    1    3    3    0    0  0.46279153430E+03  0.23403884031E+03 -0.59459871360E+02  0.52200160005E+03  0.10566000000E+00 0. -1.
          4    1    1    2  502    0 -0.23092103815E+03 -0.28730903666E+03 -0.14305135528E+00  0.36860687578E+03  0.00000000000E+00 0.  1.
         -4    1    3    3    0  501  0.42484287480E+03  0.60379534775E+03 -0.15647364669E+04  0.17301619869E+04  0.00000000000E+00 0. -1.
</event>
<event>
 8    1  0.7446554E-006  0.1172213E+04  0.7818608E-02  0.8627785E-01
          1   -1    0    0  502    0  0.00000000000E+00  0.00000000000E+00  0.17118734969E+04  0.17118734969E+04  0.00000000000E+00 0.  1.
         -1   -1    0    0    0  501 -0.00000000000E+00 -0.00000000000E+00 -0.87635099962E+03  0.87635099962E+03  0.00000000000E+00 0. -1.
    9000010    2    1    2  502    0  0.50387316483E+03 -0.36265100945E+03  0.39210285214E+02  0.11621471057E+04  0.98165397569E+03 0.  0.
   -9000010    2    1    2    0  501 -0.50387316483E+03  0.36265100945E+03  0.79631221206E+03  0.14260773908E+04  0.10070648760E+04 0.  0.
        -13    1    3    3    0    0 -0.17097554844E+03 -0.98480524804E+02  0.32738199010E+03  0.38224341791E+03  0.10566000000E+00 0.  1.
         13    1    4    4    0    0  0.68318089212E+02  0.53757531710E+03  0.56971145383E+03  0.78627332058E+03  0.10566000000E+00 0. -1.
          4    1    3    3  502    0  0.67484871328E+03 -0.26417048464E+03 -0.28817170488E+03  0.77990368781E+03  0.00000000000E+00 0.  1.
         -4    1    4    4    0  501 -0.57219125405E+03 -0.17492430765E+03  0.22660075822E+03  0.63980407020E+03  0.00000000000E+00 0. -1.
</event>
<event>
 8    1  0.7446554E-006  0.1034237E+04  0.7818608E-02  0.8743071E-01
         -2   -1    0    0    0  501 -0.00000000000E+00  0.00000000000E+00  0.58712265692E+03  0.58712265692E+03  0.00000000000E+00 0. -1.
          2   -1    0    0  502    0  0.00000000000E+00 -0.00000000000E+00 -0.18343018822E+04  0.18343018822E+04  0.00000000000E+00 0.  1.
    9000010    2    1    2  502    0 -0.17003044784E+02  0.33957051517E+03 -0.54114744839E+03  0.11877654803E+04  0.10011738295E+04 0.  0.
   -9000010    2    1    2    0  501  0.17003044784E+02 -0.33957051517E+03 -0.70603177689E+03  0.12336590588E+04  0.95280457870E+03 0.  0.
        -13    1    3    3    0    0 -0.95059351422E+01  0.33241783640E+03 -0.83237781657E+03  0.89635083614E+03  0.10566000000E+00 0.  1.
         13    1    4    4    0    0  0.14358826722E+03  0.74685813533E+02 -0.77791166686E+03  0.79457040835E+03  0.10566000000E+00 0. -1.
          4    1    3    3  502    0 -0.74971096421E+01  0.71526787683E+01  0.29123036818E+03  0.29141464414E+03  0.00000000000E+00 0.  1.
         -4    1    4    4    0  501 -0.12658522244E+03 -0.41425632870E+03  0.71879889974E+02  0.43908865049E+03  0.00000000000E+00 0. -1.
</event>
<event>
 8    1  0.7446554E-006  0.1919268E+04  0.7818608E-02  0.8202077E-01
         -2   -1    0    0    0  501 -0.00000000000E+00  0.00000000000E+00  0.41529589949E+04  0.41529589949E+04  0.00000000000E+00 0.  1.
          2   -1    0    0  502    0  0.00000000000E+00 -0.00000000000E+00 -0.93524943516E+03  0.93524943516E+03  0.00000000000E+00 0. -1.
    9000010    2    1    2  502    0  0.10134958325E+04 -0.12810819120E+04  0.21882954864E+04  0.29119302822E+04  0.10111162963E+04 0.  0.
   -9000010    2    1    2    0  501 -0.10134958325E+04  0.12810819120E+04  0.10294140733E+04  0.21762781478E+04  0.10040660209E+04 0.  0.
        -13    1    3    3    0    0  0.80069957390E+03 -0.50538979520E+03  0.57112352487E+03  0.11057670390E+04  0.10566000000E+00 0.  1.
         13    1    4    4    0    0 -0.12178979362E+04  0.11294429802E+04  0.92489684792E+03  0.19011446602E+04  0.10566000000E+00 0. -1.
          4    1    3    3  502    0  0.21279625865E+03 -0.77569211685E+03  0.16171719616E+04  0.18061632432E+04  0.00000000000E+00 0.  1.
         -4    1    4    4    0  501  0.20440210363E+03  0.15163893189E+03  0.10451722534E+03  0.27513348765E+03  0.00000000000E+00 0. -1.
</event>
<event>
 8    1  0.7446554E-006  0.1295732E+04  0.7818608E-02  0.8537762E-01
          2   -1    0    0  502    0  0.00000000000E+00  0.00000000000E+00  0.24353537959E+04  0.24353537959E+04  0.00000000000E+00 0. -1.
         -2   -1    0    0    0  501 -0.00000000000E+00 -0.00000000000E+00 -0.72831957815E+03  0.72831957815E+03  0.00000000000E+00 0.  1.
    9000010    2    1    2  502    0  0.27299972729E+03  0.79011392082E+03  0.12288223863E+04  0.17976819104E+04  0.10113589544E+04 0.  0.
   -9000010    2    1    2    0  501 -0.27299972729E+03 -0.79011392082E+03  0.47821183143E+03  0.13659914637E+04  0.96872971680E+03 0.  0.
        -13    1    3    3    0    0 -0.23278312313E+03  0.42320341176E+03  0.10371361075E+04  0.11440893439E+04  0.10566000000E+00 0.  1.
         13    1    4    4    0    0 -0.16666005689E+03 -0.15746184174E+03  0.66042202482E+03  0.69909017172E+03  0.10566000000E+00 0. -1.
          4    1    3    3  502    0  0.50578285042E+03  0.36691050906E+03  0.19168627880E+03  0.65359256645E+03  0.00000000000E+00 0.  1.
         -4    1    4    4    0  501 -0.10633967040E+03 -0.63265207908E+03 -0.18221019339E+03  0.66690129198E+03  0.00000000000E+00 0. -1.
</event>
<event>
 8    1  0.7446554E-006  0.1169513E+04  0.7818608E-02  0.8629880E-01
         -2   -1    0    0    0  501 -0.00000000000E+00  0.00000000000E+00  0.51827038142E+03  0.51827038142E+03  0.00000000000E+00 0.  1.
          2   -1    0    0  502    0  0.00000000000E+00 -0.00000000000E+00 -0.27891071871E+04  0.27891071871E+04  0.00000000000E+00 0. -1.
    9000010    2    1    2  502    0 -0.40870565915E+03  0.47989888956E+03 -0.76303367011E+03  0.14063121681E+04  0.99907470806E+03 0.  0.
   -9000010    2    1    2    0  501  0.40870565915E+03 -0.47989888956E+03 -0.15078031355E+04  0.19010654004E+04  0.97120342932E+03 0.  0.
        -13    1    3    3    0    0  0.69252095610E+02 -0.25745232694E+03 -0.33718535153E+03  0.42985058548E+03  0.10566000000E+00 0.  1.
         13    1    4    4    0    0  0.38263729921E+03 -0.47153778760E+03 -0.16489894557E+04  0.17572493915E+04  0.10566000000E+00 0. -1.
          4    1    3    3  502    0 -0.47795775476E+03  0.73735121650E+03 -0.42584831858E+03  0.97646158258E+03  0.00000000000E+00 0.  1.
         -4    1    4    4    0  501  0.26068359936E+02 -0.83611019608E+01  0.14118632015E+03  0.14381600889E+03  0.00000000000E+00 0. -1.
</event>
<event>
 8    1  0.7446554E-006  0.1090080E+04  0.7818608E-02  0.8694276E-01
         -2   -1    0    0    0  501 -0.00000000000E+00  0.00000000000E+00  0.64177652681E+03  0.64177652681E+03  0.00000000000E+00 0. -1.
          2   -1    0    0  502    0  0.00000000000E+00 -0.00000000000E+00 -0.20431597223E+04  0.20431597223E+04  0.00000000000E+00 0.  1.
    9000010    2    1    2  502    0  0.15045878711E+03  0.40966696827E+03 -0.29740809620E+03  0.11424802539E+04  0.10130867106E+04 0.  0.
   -9000010    2    1    2    0  501 -0.15045878711E+03 -0.40966696827E+03 -0.11039750993E+04  0.15424559952E+04  0.98485765770E+03 0.  0.
        -13    1    3    3    0    0 -0.19475392419E+02 -0.29283350110E+03  0.10926747085E+03  0.31316152642E+03  0.10566000000E+00 0.  1.
         13    1    4    4    0    0 -0.38571146593E+03  0.19215854825E+03 -0.45318049414E+03  0.62535654954E+03  0.10566000000E+00 0. -1.
          4    1    3    3  502    0  0.16993417953E+03  0.70250046938E+03 -0.40667556705E+03  0.82931872744E+03  0.00000000000E+00 0.  1.
         -4    1    4    4    0  501  0.23525267882E+03 -0.60182551653E+03 -0.65079460514E+03  0.91709944571E+03  0.00000000000E+00 0. -1.
</event>
<event>
 8    1  0.7446554E-006  0.1933220E+04  0.7818608E-02  0.8196136E-01
          1   -1    0    0  502    0  0.00000000000E+00  0.00000000000E+00  0.17441507471E+04  0.17441507471E+04  0.00000000000E+00 0.  1.
         -1   -1    0    0    0  501 -0.00000000000E+00 -0.00000000000E+00 -0.21794709465E+04  0.21794709465E+04  0.00000000000E+00 0. -1.
    9000010    2    1    2  502    0 -0.16483576657E+04 -0.50208534978E+02 -0.47251938339E+03  0.19932347588E+04  0.10149415476E+04 0.  0.
   -9000010    2    1    2    0  501  0.16483576657E+04  0.50208534978E+02  0.37199183940E+02  0.19303869348E+04  0.10026993805E+04 0.  0.
        -13    1    3    3    0    0 -0.17663701444E+04  0.69359576184E+02 -0.41641393762E+03  0.18161153093E+04  0.10566000000E+00 0.  1.
         13    1    4    4    0    0  0.82196069116E+03  0.51370139701E+03 -0.94068647979E+02  0.97383644664E+03  0.10566000000E+00 0. -1.
          4    1    3    3  502    0  0.11801247877E+03 -0.11956811116E+03 -0.56105445769E+02  0.17711944952E+03  0.00000000000E+00 0.  1.
         -4    1    4    4    0  501  0.82639697451E+03 -0.46349286203E+03  0.13126783192E+03  0.95655048813E+03  0.00000000000E+00 0. -1.
</event>
<event>
 8    1  0.7446554E-006  0.1202218E+04  0.7818608E-02  0.8604894E-01
          2   -1    0    0  502    0  0.00000000000E+00  0.00000000000E+00  0.21389235094E+04  0.21389235094E+04  0.00000000000E+00 0. -1.
         -2   -1    0    0    0  501 -0.00000000000E+00 -0.00000000000E+00 -0.69395635617E+03  0.69395635617E+03  0.00000000000E+00 0.  1.
    9000010    2    1    2  502    0 -0.12970809710E+03  0.66432175079E+03  0.94851277779E+03  0.15267469070E+04  0.98647455589E+03 0.  0.
   -9000010    2    1    2    0  501  0.12970809710E+03 -0.66432175079E+03  0.49645437539E+03  0.13061329585E+04  0.10006841557E+04 0.  0.
        -13    1    3    3    0    0 -0.12848612792E+03  0.65268816522E+03  0.11480594971E+04  0.13268576209E+04  0.10566000000E+00 0.  1.
         13    1    4    4    0    0  0.10152356471E+03  0.16112904017E+03 -0.16186360859E+03  0.24993887399E+03  0.10566000000E+00 0. -1.
          4    1    3    3  502    0 -0.12219691857E+01  0.11633585562E+02 -0.19954671930E+03  0.19988928612E+03  0.00000000000E+00 0.  1.
         -4    1    4    4    0  501  0.28184532396E+02 -0.82545079096E+03  0.65831798399E+03  0.10561940845E+04  0.00000000000E+00 0. -1.
</event>
<event>
 8    1  0.7446554E-006  0.1483976E+04  0.7818608E-02  0.8418781E-01
         -4   -1    0    0    0  501 -0.00000000000E+00  0.00000000000E+00  0.15023099653E+04  0.15023099653E+04  0.00000000000E+00 0. -1.
          4   -1    0    0  502    0  0.00000000000E+00 -0.00000000000E+00 -0.15175242658E+04  0.15175242658E+04  0.00000000000E+00 0.  1.
    9000010    2    1    2  502    0 -0.33083385346E+03  0.10576698077E+04 -0.28592053104E+03  0.15245872907E+04  0.10072236078E+04 0.  0.
   -9000010    2    1    2    0  501  0.33083385346E+03 -0.10576698077E+04  0.27070623059E+03  0.14952469404E+04  0.96662561983E+03 0.  0.
        -13    1    3    3    0    0 -0.47413801842E+03  0.66771646059E+02  0.15264468429E+02  0.47905983801E+03  0.10566000000E+00 0.  1.
         13    1    4    4    0    0  0.12459591681E+03 -0.82045809514E+03  0.61210040553E+03  0.10311850202E+04  0.10566000000E+00 0. -1.
          4    1    3    3  502    0  0.14330416496E+03  0.99089816159E+03 -0.30118499947E+03  0.10455274527E+04  0.00000000000E+00 0.  1.
         -4    1    4    4    0  501  0.20623793665E+03 -0.23721171251E+03 -0.34139417494E+03  0.46406192017E+03  0.00000000000E+00 0. -1.
</event>
<event>
 8    1  0.7446554E-006  0.1166693E+04  0.7818608E-02  0.8632075E-01
         -2   -1    0    0    0  501 -0.00000000000E+00  0.00000000000E+00  0.96303087944E+03  0.96303087944E+03  0.00000000000E+00 0. -1.
          2   -1    0    0  502    0  0.00000000000E+00 -0.00000000000E+00 -0.16910865969E+04  0.16910865969E+04  0.00000000000E+00 0.  1.
    9000010    2    1    2  502    0  0.60895921255E+03 -0.50118449195E+02  0.17567741392E+03  0.11721138733E+04  0.98470563965E+03 0.  0.
   -9000010    2    1    2    0  501 -0.60895921255E+03  0.50118449195E+02 -0.90373313137E+03  0.14820036030E+04  0.10031240826E+04 0.  0.
        -13    1    3    3    0    0  0.80795620525E+03 -0.26301139159E+03  0.21909895228E+03  0.87748081675E+03  0.10566000000E+00 0.  1.
         13    1    4    4    0    0 -0.86350800432E+03 -0.97950360941E+02 -0.58243941138E+03  0.10461720823E+04  0.10566000000E+00 0. -1.
          4    1    3    3  502    0 -0.19899699270E+03  0.21289294240E+03 -0.43421538360E+02  0.29463305656E+03  0.00000000000E+00 0.  1.
         -4    1    4    4    0  501  0.25454879177E+03  0.14806881014E+03 -0.32129371999E+03  0.43583152069E+03  0.00000000000E+00 0. -1.
</event>
<event>
 8    1  0.7446554E-006  0.1779622E+04  0.7818608E-02  0.8264548E-01
          1   -1    0    0  502    0  0.00000000000E+00  0.00000000000E+00  0.11694375072E+04  0.11694375072E+04  0.00000000000E+00 0.  1.
         -1   -1    0    0    0  501 -0.00000000000E+00 -0.00000000000E+00 -0.31826191142E+04  0.31826191142E+04  0.00000000000E+00 0. -1.
    9000010    2    1    2  502    0  0.13309679689E+04  0.64283132986E+03 -0.18470574344E+04  0.25653411624E+04  0.99229343480E+03 0.  0.
   -9000010    2    1    2    0  501 -0.13309679689E+04 -0.64283132986E+03 -0.16612417261E+03  0.17867154590E+04  0.98997325107E+03 0.  0.
        -13    1    3    3    0    0  0.82857143933E+03  0.42886068487E+02 -0.40183605187E+03  0.92186879147E+03  0.10566000000E+00 0.  1.
         13    1    4    4    0    0 -0.47155936702E+03 -0.28637103554E+03 -0.55111164588E+03  0.77980809435E+03  0.10566000000E+00 0. -1.
          4    1    3    3  502    0  0.50239652958E+03  0.59994526137E+03 -0.14452213825E+04  0.16434723709E+04  0.00000000000E+00 0.  1.
         -4    1    4    4    0  501 -0.85940860190E+03 -0.35646029432E+03  0.38498747328E+03  0.10069073647E+04  0.00000000000E+00 0. -1.
</event>
<event>
 8    1  0.7446554E-006  0.1149433E+04  0.7818608E-02  0.8645645E-01
         -2   -1    0    0    0  501 -0.00000000000E+00  0.00000000000E+00  0.89384717129E+03  0.89384717129E+03  0.00000000000E+00 0. -1.
          2   -1    0    0  502    0  0.00000000000E+00 -0.00000000000E+00 -0.16509678278E+04  0.16509678278E+04  0.00000000000E+00 0.  1.
    9000010    2    1    2  502    0  0.42563136589E+03  0.33582069508E+03 -0.79276093611E+03  0.14035569315E+04  0.10235060133E+04 0.  0.
   -9000010    2    1    2    0  501 -0.42563136589E+03 -0.33582069508E+03  0.35640279566E+02  0.11412580676E+04  0.10036245058E+04 0.  0.
        -13    1    3    3    0    0 -0.39860930551E+02  0.34387972947E+03  0.13017303279E+03  0.36984752501E+03  0.10566000000E+00 0.  1.
         13    1    4    4    0    0 -0.48148204965E+03 -0.59518920753E+02 -0.39564509910E+03  0.62602118308E+03  0.10566000000E+00 0. -1.
          4    1    3    3  502    0  0.46549229644E+03 -0.80590343927E+01 -0.92293396890E+03  0.10337094065E+04  0.00000000000E+00 0.  1.
         -4    1    4    4    0  501  0.55850683759E+02 -0.27630177433E+03  0.43128537866E+03  0.51523688457E+03  0.00000000000E+00 0. -1.
</event>
<event>
 8    1  0.7446554E-006  0.1276083E+04  0.7818608E-02  0.8551371E-01
          2   -1    0    0  502    0  0.00000000000E+00  0.00000000000E+00  0.70070346106E+03  0.70070346106E+03  0.00000000000E+00 0.  1.
         -2   -1    0    0    0  501 -0.00000000000E+00 -0.00000000000E+00 -0.23968393106E+04  0.23968393106E+04  0.00000000000E+00 0. -1.
    9000010    2    1    2  502    0 -0.62586858999E+03 -0.47410595198E+03 -0.11335983034E+04  0.17273829224E+04  0.10403454722E+04 0.  0.
   -9000010    2    1    2    0  501  0.62586858999E+03  0.47410595198E+03 -0.56253754619E+03  0.13701598493E+04  0.97180325995E+03 0.  0.
        -13    1    3    3    0    0 -0.88122489476E+03 -0.34355744689E+03 -0.59564606820E+03  0.11177581510E+04  0.10566000000E+00 0.  1.
         13    1    4    4    0    0  0.21747195709E+03  0.71805913928E+03 -0.21324436606E+03  0.77998471167E+03  0.10566000000E+00 0. -1.
          4    1    3    3  502    0  0.25535630476E+03 -0.13054850509E+03 -0.53795223518E+03  0.60962477139E+03  0.00000000000E+00 0.  1.
         -4    1    4    4    0  501  0.40839663290E+03 -0.24395318730E+03 -0.34929318013E+03  0.59017513760E+03  0.00000000000E+00 0. -1.
</event>
<event>
 8    1  0.7446554E-006  0.1037585E+04  0.7818608E-02  0.8740057E-01
          1   -1    0    0  502    0  0.00000000000E+00  0.00000000000E+00  0.91801151223E+03  0.91801151223E+03  0.00000000000E+00 0.  1.
         -1   -1    0    0    0  501 -0.00000000000E+00 -0.00000000000E+00 -0.11734587275E+04  0.11734587275E+04  0.00000000000E+00 0. -1.
    9000010    2    1    2  502    0  0.12534289831E+03  0.24456908729E+03 -0.10224742033E+03  0.10337526120E+04  0.99129463192E+03 0.  0.
   -9000010    2    1    2    0  501 -0.12534289831E+03 -0.24456908729E+03 -0.15319979494E+03  0.10577176277E+04  0.10098373741E+04 0.  0.
        -13    1    3    3    0    0 -0.24434077789E+03  0.86030996888E+02  0.34551996453E+03  0.43184233838E+03  0.10566000000E+00 0.  1.
         13    1    4    4    0    0 -0.21713063900E+03 -0.42891991036E+03 -0.47489356082E+03  0.67575284621E+03  0.10566000000E+00 0. -1.
          4    1    3    3  502    0  0.36968367621E+03  0.15853809040E+03 -0.44776738486E+03  0.60191027363E+03  0.00000000000E+00 0.  1.
         -4    1    4    4    0  501  0.91787740684E+02  0.18435082308E+03  0.32169376587E+03  0.38196478151E+03  0.00000000000E+00 0. -1.
</event>
<event>
 8    1  0.7446554E-006  0.1103049E+04  0.7818608E-02  0.8683378E-01
          2   -1    0    0  502    0  0.00000000000E+00  0.00000000000E+00  0.29331794340E+04  0.29331794340E+04  0.00000000000E+00 0.  1.
         -2   -1    0    0    0  501 -0.00000000000E+00 -0.00000000000E+00 -0.47311330069E+03  0.47311330069E+03  0.00000000000E+00 0. -1.
    9000010    2    1    2  502    0 -0.30684543360E+03  0.33980646140E+03  0.18356261042E+04  0.21457113133E+04  0.10123889046E+04 0.  0.
   -9000010    2    1    2    0  501  0.30684543360E+03 -0.33980646140E+03  0.62444002908E+03  0.12605814214E+04  0.99474500183E+03 0.  0.
        -13    1    3    3    0    0 -0.36175818343E+03  0.55883305005E+03  0.62137433431E+03  0.91064232035E+03  0.10566000000E+00 0.  1.
         13    1    4    4    0    0 -0.14578832501E+03 -0.48242568917E+03  0.60251843384E+03  0.78550445929E+03  0.10566000000E+00 0. -1.
          4    1    3    3  502    0  0.54912749833E+02 -0.21902658865E+03  0.12142517699E+04  0.12350689929E+04  0.00000000000E+00 0.  1.
         -4    1    4    4    0  501  0.45263375861E+03  0.14261922777E+03  0.21921595240E+02  0.47507696208E+03  0.00000000000E+00 0. -1.
</event>
<event>
 8    1  0.7446554E-006  0.1344642E+04  0.7818608E-02  0.8504939E-01
          1   -1    0    0  502    0  0.00000000000E+00  0.00000000000E+00  0.13135125212E+04  0.13135125212E+04  0.00000000000E+00 0. -1.
         -1   -1    0    0    0  501 -0.00000000000E+00 -0.00000000000E+00 -0.13772557012E+04  0.13772557012E+04  0.00000000000E+00 0.  1.
    9000010    2    1    2  502    0  0.85211032049E+03  0.23715082515E+03 -0.12833291909E+01  0.13506753723E+04  0.10207790173E+04 0.  0.
   -9000010    2    1    2    0  501 -0.85211032049E+03 -0.23715082515E+03 -0.62459850856E+02  0.13400928501E+04  0.10047960499E+04 0.  0.
        -13    1    3    3    0    0 -0.17335843787E+03  0.27072800325E+03  0.39209615191E+02  0.32385830978E+03  0.10566000000E+00 0.  1.
         13    1    4    4    0    0 -0.78329326078E+03 -0.30296223960E+03 -0.44181818567E+03  0.94896668612E+03  0.10566000000E+00 0. -1.
          4    1    3    3  502    0  0.10254687584E+04 -0.33577178104E+02 -0.40492944382E+02  0.10268170625E+04  0.00000000000E+00 0.  1.
         -4    1    4    4    0  501 -0.68817059712E+02  0.65811414452E+02  0.37935833482E+03  0.39112616401E+03  0.00000000000E+00 0. -1.
</event>
<event>
 8    1  0.7446554E-006  0.1053815E+04  0.7818608E-02  0.8725607E-01
          1   -1    0    0  502    0  0.00000000000E+00  0.00000000000E+00  0.19662233638E+04  0.19662233638E+04  0.00000000000E+00 0.  1.
         -1   -1    0    0    0  501 -0.00000000000E+00 -0.00000000000E+00 -0.60989565380E+03  0.60989565380E+03  0.00000000000E+00 0. -1.
    9000010    2    1    2  502    0 -0.20472203876E+03  0.18813673262E+03  0.33233829304E+03  0.11118924924E+04  0.10239871241E+04 0.  0.
   -9000010    2    1    2    0  501  0.20472203876E+03 -0.18813673262E+03  0.10239894170E+04  0.14642265252E+04  0.10090086461E+04 0.  0.
        -13    1    3    3    0    0 -0.19859890262E+03  0.52812667551E+03 -0.88189263018E+02  0.57108376512E+03  0.10566000000E+00 0.  1.
         13    1    4    4    0    0  0.26511455021E+03  0.14058328249E+03  0.10839044449E+04  0.11246769495E+04  0.10566000000E+00 0. -1.
          4    1    3    3  502    0 -0.61231361483E+01 -0.33998994289E+03  0.42052755606E+03  0.54080872725E+03  0.00000000000E+00 0.  1.
         -4    1    4    4    0  501 -0.60392511445E+02 -0.32872001511E+03 -0.59915027921E+02  0.33954957568E+03  0.00000000000E+00 0. -1.
</event>
<event>
 8    1  0.7446554E-006  0.1705752E+04  0.7818608E-02  0.8300022E-01
          2   -1    0    0  502    0  0.00000000000E+00  0.00000000000E+00  0.18547704307E+04  0.18547704307E+04  0.00000000000E+00 0.  1.
         -2   -1    0    0    0  501 -0.00000000000E+00 -0.00000000000E+00 -0.16521704418E+04  0.16521704418E+04  0.00000000000E+00 0. -1.
    9000010    2    1    2  502    0 -0.13672053043E+04 -0.23913016236E+03  0.49581954526E+03  0.17851976316E+04  0.10073033227E+04 0.  0.
   -9000010    2    1    2    0  501  0.13672053043E+04  0.23913016236E+03 -0.29321955636E+03  0.17217432408E+04  0.97569898044E+03 0.  0.
        -13    1    3    3    0    0 -0.39302949804E+03  0.25193806085E+02  0.65405110757E+03  0.76347218461E+03  0.10566000000E+00 0.  1.
         13    1    4    4    0    0  0.10276408942E+04 -0.28849534627E+03 -0.22259185787E+03  0.10903313802E+04  0.10566000000E+00 0. -1.
          4    1    3    3  502    0 -0.97417580623E+03 -0.26432396845E+03 -0.15823156231E+03  0.10217254470E+04  0.00000000000E+00 0.  1.
         -4    1    4    4    0  501  0.33956441009E+03  0.52762550863E+03 -0.70627698484E+02  0.63141186063E+03  0.00000000000E+00 0. -1.
</event>
<event>
 8    1  0.7446554E-006  0.1322900E+04  0.7818608E-02  0.8519350E-01
         -2   -1    0    0    0  501 -0.00000000000E+00  0.00000000000E+00  0.62700128830E+03  0.62700128830E+03  0.00000000000E+00 0.  1.
          2   -1    0    0  502    0  0.00000000000E+00 -0.00000000000E+00 -0.31408471505E+04  0.31408471505E+04  0.00000000000E+00 0. -1.
    9000010    2    1    2  502    0 -0.35705908606E+03  0.78937817355E+03 -0.18857386406E+04  0.23036355092E+04  0.10000586216E+04 0.  0.
   -9000010    2    1    2    0  501  0.35705908606E+03 -0.78937817355E+03 -0.62810722165E+03  0.14642129297E+04  0.99939568226E+03 0.  0.
        -13    1    3    3    0    0 -0.50836212316E+03  0.53632496369E+02 -0.44024979854E+03  0.67463203986E+03  0.10566000000E+00 0.  1.
         13    1    4    4    0    0 -0.74467431996E+02 -0.18901053534E+03  0.24619963420E+03  0.31919375298E+03  0.10566000000E+00 0. -1.
          4    1    3    3  502    0  0.15130303710E+03  0.73574567719E+03 -0.14454888420E+04  0.16290034693E+04  0.00000000000E+00 0.  1.
         -4    1    4    4    0  501  0.43152651806E+03 -0.60036763821E+03 -0.87430685585E+03  0.11450191767E+04  0.00000000000E+00 0. -1.
</event>
<event>
 8    1  0.7446554E-006  0.1256635E+04  0.7818608E-02  0.8565093E-01
         -1   -1    0    0    0  501 -0.00000000000E+00  0.00000000000E+00  0.42519891200E+04  0.42519891200E+04  0.00000000000E+00 0.  1.
          1   -1    0    0  502    0  0.00000000000E+00 -0.00000000000E+00 -0.39183157104E+03  0.39183157104E+03  0.00000000000E+00 0. -1.
    9000010    2    1    2  502    0  0.42728676964E+03  0.61383035970E+03  0.24668815082E+04  0.27705343907E+04  0.10153791118E+04 0.  0.
   -9000010    2    1    2    0  501 -0.42728676964E+03 -0.61383035970E+03  0.13932760407E+04  0.18732863003E+04  0.10043016196E+04 0.  0.
        -13    1    3    3    0    0  0.91632155438E+01 -0.22309416096E+03  0.14235346422E+03  0.26480084803E+03  0.10566000000E+00 0.  1.
         13    1    4    4    0    0  0.27257909966E+03  0.52690671070E+02  0.22707963305E+03  0.35866536396E+03  0.10566000000E+00 0. -1.
          4    1    3    3  502    0  0.41812355409E+03  0.83692452067E+03  0.23245280440E+04  0.25057335427E+04  0.00000000000E+00 0.  1.
         -4    1    4    4    0  501 -0.69986586930E+03 -0.66652103077E+03  0.11661964077E+04  0.15146209363E+04  0.00000000000E+00 0. -1.
</event>
<event>
 8    1  0.7446554E-006  0.1295918E+04  0.7818608E-02  0.8537634E-01
         -2   -1    0    0    0  501 -0.00000000000E+00  0.00000000000E+00  0.68431117478E+03  0.68431117478E+03  0.00000000000E+00 0.  1.
          2   -1    0    0  502    0  0.00000000000E+00 -0.00000000000E+00 -0.25362823400E+04  0.25362823400E+04  0.00000000000E+00 0. -1.
    9000010    2    1    2  502    0 -0.16769420353E+03  0.79011933528E+03 -0.12227803006E+04  0.17894840356E+04  0.10269622877E+04 0.  0.
   -9000010    2    1    2    0  501  0.16769420353E+03 -0.79011933528E+03 -0.62919086464E+03  0.14311094792E+04  0.99989163782E+03 0.  0.
        -13    1    3    3    0    0 -0.56778329563E+03  0.40667440644E+03 -0.42312546360E+03  0.81657645862E+03  0.10566000000E+00 0.  1.
         13    1    4    4    0    0 -0.72095260585E+02 -0.70045675237E+03  0.49346782661E+02  0.70588420061E+03  0.10566000000E+00 0. -1.
          4    1    3    3  502    0  0.40008909210E+03  0.38344492884E+03 -0.79965483702E+03  0.97290757703E+03  0.00000000000E+00 0.  1.
         -4    1    4    4    0  501  0.23978946412E+03 -0.89662582902E+02 -0.67853764730E+03  0.72522527857E+03  0.00000000000E+00 0. -1.
</event>
<event>
 7    1  0.7446554E-006  0.1486391E+04  0.7818608E-02  0.8417375E-01
         -2   -1    0    0    0  501 -0.00000000000E+00  0.00000000000E+00  0.63068378470E+03  0.63068378470E+03  0.00000000000E+00 0.  1.
          2   -1    0    0  502    0  0.00000000000E+00 -0.00000000000E+00 -0.41137787024E+04  0.41137787024E+04  0.00000000000E+00 0. -1.
   -9000010    2    1    2    0  501  0.45209402115E+03 -0.69928826367E+03 -0.68359575095E+03  0.14717511072E+04  0.10026739705E+04 0.  0.
        -13    1    1    2    0    0 -0.86901576773E+02 -0.46439597104E+03 -0.69615471816E+03  0.84133638025E+03  0.10566000000E+00 0.  1.
         13    1    3    3    0    0  0.12954740265E+03 -0.65847584926E+03  0.46327470126E+02  0.67269548776E+03  0.10566000000E+00 0. -1.
          4    1    1    2  502    0 -0.36519244438E+03  0.11636842347E+04 -0.21033444486E+04  0.24313749996E+04  0.00000000000E+00 0.  1.
         -4    1    3    3    0  501  0.32254661850E+03 -0.40812414404E+02 -0.72992322107E+03  0.79905561943E+03  0.00000000000E+00 0. -1.
</event>
<event>
 8    1  0.7446554E-006  0.1308586E+04  0.7818608E-02  0.8528993E-01
          1   -1    0    0  502    0  0.00000000000E+00  0.00000000000E+00  0.20723411871E+04  0.20723411871E+04  0.00000000000E+00 0. -1.
         -1   -1    0    0    0  501 -0.00000000000E+00 -0.00000000000E+00 -0.82655581597E+03  0.82655581597E+03  0.00000000000E+00 0.  1.
    9000010    2    1    2  502    0 -0.36399605881E+03 -0.75986262072E+03  0.63701431843E+03  0.14437372939E+04  0.98422852969E+03 0.  0.
   -9000010    2    1    2    0  501  0.36399605881E+03  0.75986262072E+03  0.60877105268E+03  0.14551597092E+04  0.10183335659E+04 0.  0.
        -13    1    3    3    0    0  0.14179892229E+03 -0.49583076533E+03 -0.85873822099E+02  0.52280914940E+03  0.10566000000E+00 0.  1.
         13    1    4    4    0    0  0.12845173051E+03  0.48131608821E+03  0.87272295482E+03  0.10048932236E+04  0.10566000000E+00 0. -1.
          4    1    3    3  502    0 -0.50579498111E+03 -0.26403185539E+03  0.72288814053E+03  0.92092814448E+03  0.00000000000E+00 0.  1.
         -4    1    4    4    0  501  0.23554432830E+03  0.27854653251E+03 -0.26395190214E+03  0.45026648555E+03  0.00000000000E+00 0. -1.
</event>
<event>
 8    1  0.7446554E-006  0.1742653E+04  0.7818608E-02  0.8282075E-01
         -2   -1    0    0    0  501 -0.00000000000E+00  0.00000000000E+00  0.10071153848E+04  0.10071153848E+04  0.00000000000E+00 0.  1.
          2   -1    0    0  502    0  0.00000000000E+00 -0.00000000000E+00 -0.34310158283E+04  0.34310158283E+04  0.00000000000E+00 0. -1.
    9000010    2    1    2  502    0 -0.64370584612E+03 -0.12680285641E+04 -0.19874988796E+04  0.26467845046E+04  0.10163969507E+04 0.  0.
   -9000010    2    1    2    0  501  0.64370584612E+03  0.12680285641E+04 -0.43640156390E+03  0.17913467085E+04  0.99810973807E+03 0.  0.
        -13    1    3    3    0    0 -0.28752945582E+02 -0.75099747094E+03 -0.36332889091E+03  0.83476453409E+03  0.10566000000E+00 0.  1.
         13    1    4    4    0    0  0.30629835453E+03  0.13424719112E+04 -0.25249500422E+03  0.13999297313E+04  0.10566000000E+00 0. -1.
          4    1    3    3  502    0 -0.61495290054E+03 -0.51703109321E+03 -0.16241699887E+04  0.18120199705E+04  0.00000000000E+00 0.  1.
         -4    1    4    4    0  501  0.33740749159E+03 -0.74443347068E+02 -0.18390655968E+03  0.39141697714E+03  0.00000000000E+00 0. -1.
</event>
<event>
 8    1  0.7446554E-006  0.1428906E+04  0.7818608E-02  0.8451626E-01
         -1   -1    0    0    0  501 -0.00000000000E+00  0.00000000000E+00  0.13620633717E+04  0.13620633717E+04  0.00000000000E+00 0. -1.
          1   -1    0    0  502    0  0.00000000000E+00 -0.00000000000E+00 -0.16979759110E+04  0.16979759110E+04  0.00000000000E+00 0.  1.
    9000010    2    1    2  502    0 -0.29696161650E+03  0.97734787235E+03  0.35578634763E+03  0.14723217459E+04  0.99887553433E+03 0.  0.
   -9000010    2    1    2    0  501  0.29696161650E+03 -0.97734787235E+03 -0.69169888684E+03  0.15877175368E+04  0.99950215669E+03 0.  0.
        -13    1    3    3    0    0  0.10942727664E+03 -0.25775838488E+01 -0.23415093165E+03  0.25847174462E+03  0.10566000000E+00 0.  1.
         13    1    4    4    0    0  0.30738478002E+03 -0.55805420905E+03  0.14354349787E+03  0.65308089099E+03  0.10566000000E+00 0. -1.
          4    1    3    3  502    0 -0.40638889314E+03  0.97992545620E+03  0.58993727927E+03  0.12138500013E+04  0.00000000000E+00 0.  1.
         -4    1    4    4    0  501 -0.10423163513E+02 -0.41929366330E+03 -0.83524238471E+03  0.93463664578E+03  0.00000000000E+00 0. -1.
</event>
<event>
 8    1  0.7446554E-006  0.1173320E+04  0.7818608E-02  0.8626928E-01
          2   -1    0    0  502    0  0.00000000000E+00  0.00000000000E+00  0.23969094992E+04  0.23969094992E+04  0.00000000000E+00 0.  1.
         -2   -1    0    0    0  501 -0.00000000000E+00 -0.00000000000E+00 -0.65965055614E+03  0.65965055614E+03  0.00000000000E+00 0. -1.
    9000010    2    1    2  502    0  0.60211759870E+03  0.16850098082E+03  0.14129962898E+04  0.18316245194E+04  0.98354038130E+03 0.  0.
   -9000010    2    1    2    0  501 -0.60211759870E+03 -0.16850098082E+03  0.32426265319E+03  0.12249355359E+04  0.10021889122E+04 0.  0.
        -13    1    3    3    0    0  0.32390446785E+03  0.58234140605E+03  0.78343525606E+03  0.10284971702E+04  0.10566000000E+00 0.  1.
         13    1    4    4    0    0 -0.87736219875E+03 -0.18486673359E+03  0.18294745582E+03  0.91510104346E+03  0.10566000000E+00 0. -1.
          4    1    3    3  502    0  0.27821313085E+03 -0.41384042524E+03  0.62956103376E+03  0.80312734916E+03  0.00000000000E+00 0.  1.
         -4    1    4    4    0  501  0.27524460005E+03  0.16365752771E+02  0.14131519737E+03  0.30983449248E+03  0.00000000000E+00 0. -1.
</event>
<event>
 8    1  0.7446554E-006  0.1390513E+04  0.7818608E-02  0.8475436E-01
          1   -1    0    0  502    0  0.00000000000E+00  0.00000000000E+00  0.19934130846E+04  0.19934130846E+04  0.00000000000E+00 0.  1.
         -1   -1    0    0    0  501 -0.00000000000E+00 -0.00000000000E+00 -0.11792594856E+04  0.11792594856E+04  0.00000000000E+00 0. -1.
    9000010    2    1    2  502    0  0.97036770663E+03  0.11203569045E+03  0.10732475979E+04  0.17497555907E+04  0.97755753737E+03 0.  0.
   -9000010    2    1    2    0  501 -0.97036770663E+03 -0.11203569045E+03 -0.25909399892E+03  0.14229169795E+04  0.10016973337E+04 0.  0.
        -13    1    3    3    0    0  0.47761477918E+03  0.52853780444E+03  0.72567709905E+03  0.10168949559E+04  0.10566000000E+00 0.  1.
         13    1    4    4    0    0 -0.95750074282E+03 -0.36328953951E+03  0.48852455192E+02  0.10252675434E+04  0.10566000000E+00 0. -1.
          4    1    3    3  502    0  0.49275292744E+03 -0.41650211399E+03  0.34757049887E+03  0.73286063487E+03  0.00000000000E+00 0.  1.
         -4    1    4    4    0  501 -0.12866963810E+02  0.25125384906E+03 -0.30794645411E+03  0.39764943609E+03  0.00000000000E+00 0. -1.
</event>
<event>
 8    1  0.7446554E-006  0.1112598E+04  0.7818608E-02  0.8675455E-01
          2   -1    0    0  502    0  0.00000000000E+00  0.00000000000E+00  0.31029183229E+04  0.31029183229E+04  0.00000000000E+00 0. -1.
         -2   -1    0    0    0  501 -0.00000000000E+00 -0.00000000000E+00 -0.40946362619E+03  0.40946362619E+03  0.00000000000E+00 0.  1.
    9000010    2    1    2  502    0  0.43923650067E+03  0.23894127096E+03  0.16405200717E+04  0.19883325304E+04  0.10060509488E+04 0.  0.
   -9000010    2    1    2    0  501 -0.43923650067E+03 -0.23894127096E+03  0.10529346250E+04  0.15240494187E+04  0.98185216376E+03 0.  0.
        -13    1    3    3    0    0  0.61328941961E+02 -0.42661455743E+02 -0.13338891071E+03  0.15288509277E+03  0.10566000000E+00 0.  1.
         13    1    4    4    0    0 -0.43254300824E+03 -0.21134423781E+03  0.12424298324E+04  0.13324382689E+04  0.10566000000E+00 0. -1.
          4    1    3    3  502    0  0.37790755871E+03  0.28160272671E+03  0.17739089824E+04  0.18354474377E+04  0.00000000000E+00 0.  1.
         -4    1    4    4    0  501 -0.66934924234E+01 -0.27597033154E+02 -0.18949520740E+03  0.19161114974E+03  0.00000000000E+00 0. -1.
</event>
<event>
 8    1  0.7446554E-006  0.1231001E+04  0.7818608E-02  0.8583577E-01
         -1   -1    0    0    0  501 -0.00000000000E+00  0.00000000000E+00  0.16581414163E+04  0.16581414163E+04  0.00000000000E+00 0. -1.
          1   -1    0    0  502    0  0.00000000000E+00 -0.00000000000E+00 -0.10068608663E+04  0.10068608663E+04  0.00000000000E+00 0.  1.
    9000010    2    1    2  502    0 -0.39943629080E+03  0.54586478123E+03  0.73470034239E+03  0.14505845274E+04  0.10520899051E+04 0.  0.
   -9000010    2    1    2    0  501  0.39943629080E+03 -0.54586478123E+03 -0.83419792390E+02  0.12144177551E+04  0.10051536760E+04 0.  0.
        -13    1    3    3    0    0  0.96212049454E+02 -0.25614345164E+03  0.33606585083E+02  0.27567306724E+03  0.10566000000E+00 0.  1.
         13    1    4    4    0    0  0.71291092962E+03 -0.48094738192E+03  0.63243253742E+02  0.86229467008E+03  0.10566000000E+00 0. -1.
          4    1    3    3  502    0 -0.49564834026E+03  0.80200823286E+03  0.70109375731E+03  0.11749114602E+04  0.00000000000E+00 0.  1.
         -4    1    4    4    0  501 -0.31347463882E+03 -0.64917399309E+02 -0.14666304613E+03  0.35212308504E+03  0.00000000000E+00 0. -1.
</event>
<event>
 8    1  0.7446554E-006  0.1280942E+04  0.7818608E-02  0.8547982E-01
          1   -1    0    0  502    0  0.00000000000E+00  0.00000000000E+00  0.45393443533E+03  0.45393443533E+03  0.00000000000E+00 0.  1.
         -1   -1    0    0    0  501 -0.00000000000E+00 -0.00000000000E+00 -0.43298650155E+04  0.43298650155E+04  0.00000000000E+00 0. -1.
    9000010    2    1    2  502    0 -0.67832790876E+03  0.42286672066E+03 -0.28917794876E+04  0.31570820199E+04  0.98276816181E+03 0.  0.
   -9000010    2    1    2    0  501  0.67832790876E+03 -0.42286672066E+03 -0.98415109259E+03  0.16267174310E+04  0.10191718265E+04 0.  0.
        -13    1    3    3    0    0 -0.48156645992E+03  0.90449544605E+02 -0.26639030633E+04  0.27085913160E+04  0.10566000000E+00 0.  1.
         13    1    4    4    0    0  0.33543406916E+03 -0.53059806227E+03 -0.54605825594E+02  0.63010485301E+03  0.10566000000E+00 0. -1.
          4    1    3    3  502    0 -0.19676144884E+03  0.33241717605E+03 -0.22787642437E+03  0.44849070388E+03  0.00000000000E+00 0.  1.
         -4    1    4    4    0  501  0.34289383960E+03  0.10773134161E+03 -0.92954526699E+03  0.99661257798E+03  0.00000000000E+00 0. -1.
</event>
<event>
 8    1  0.7446554E-006  0.1995626E+04  0.7818608E-02  0.8170176E-01
         -2   -1    0    0    0  501 -0.00000000000E+00  0.00000000000E+00  0.15864922754E+04  0.15864922754E+04  0.00000000000E+00 0.  1.
          2   -1    0    0  502    0  0.00000000000E+00 -0.00000000000E+00 -0.26388346310E+04  0.26388346310E+04  0.00000000000E+00 0. -1.
    9000010    2    1    2  502    0 -0.24523355344E+03 -0.17131579075E+04 -0.99073403182E+03  0.22219419430E+04  0.98001151252E+03 0.  0.
   -9000010    2    1    2    0  501  0.24523355344E+03  0.17131579075E+04 -0.61608323767E+02  0.20033849634E+04  0.10073262701E+04 0.  0.
        -13    1    3    3    0    0 -0.38186146589E+03 -0.39390452831E+03  0.28324305848E+02  0.54934618778E+03  0.10566000000E+00 0.  1.
         13    1    4    4    0    0  0.43242695679E+03  0.36902905150E+03 -0.27177093281E+03  0.63010710589E+03  0.10566000000E+00 0. -1.
          4    1    3    3  502    0  0.13662791245E+03 -0.13192533792E+04 -0.10190583377E+04  0.16725957552E+04  0.00000000000E+00 0.  1.
         -4    1    4    4    0  501 -0.18719340335E+03  0.13441288560E+04  0.21016260904E+03  0.13732778575E+04  0.00000000000E+00 0. -1.
</event>
<event>
 8    1  0.7446554E-006  0.1159851E+04  0.7818608E-02  0.8637424E-01
         -1   -1    0    0    0  501 -0.00000000000E+00  0.00000000000E+00  0.23270182154E+04  0.23270182154E+04  0.00000000000E+00 0. -1.
          1   -1    0    0  502    0  0.00000000000E+00 -0.00000000000E+00 -0.63731432180E+03  0.63731432180E+03  0.00000000000E+00 0.  1.
    9000010    2    1    2  502    0 -0.52626180763E+03 -0.29300095788E+03  0.12951029540E+04  0.17370186785E+04  0.98850451524E+03 0.  0.
   -9000010    2    1    2    0  501  0.52626180763E+03  0.29300095788E+03  0.39460093967E+03  0.12273138587E+04  0.99387542214E+03 0.  0.
        -13    1    3    3    0    0 -0.29427543110E+03  0.35421450350E+03  0.63057320989E+03  0.78082554263E+03  0.10566000000E+00 0.  1.
         13    1    4    4    0    0  0.74171592752E+03  0.45950718744E+03  0.38810137315E+03  0.95494086699E+03  0.10566000000E+00 0. -1.
          4    1    3    3  502    0 -0.23198637653E+03 -0.64721546138E+03  0.66452974409E+03  0.95619313589E+03  0.00000000000E+00 0.  1.
         -4    1    4    4    0  501 -0.21545411989E+03 -0.16650622956E+03  0.64995665231E+01  0.27237299173E+03  0.00000000000E+00 0. -1.
</event>
<event>
 8    1  0.7446554E-006  0.1365927E+04  0.7818608E-02  0.8491101E-01
          2   -1    0    0  502    0  0.00000000000E+00  0.00000000000E+00  0.20930162192E+04  0.20930162192E+04  0.00000000000E+00 0. -1.
         -2   -1    0    0    0  501 -0.00000000000E+00 -0.00000000000E+00 -0.94037503678E+03  0.94037503678E+03  0.00000000000E+00 0.  1.
    9000010    2    1    2  502    0  0.65177736134E+03 -0.66375947952E+03  0.92684227361E+03  0.16604998456E+04  0.10162837997E+04 0.  0.
   -9000010    2    1    2    0  501 -0.65177736134E+03  0.66375947952E+03  0.22579890878E+03  0.13728914104E+04  0.98410126617E+03 0.  0.
        -13    1    3    3    0    0  0.17098436877E+03 -0.20870920759E+03 -0.21206787139E+03  0.34317339777E+03  0.10566000000E+00 0.  1.
         13    1    4    4    0    0 -0.70321055593E+03  0.30317240960E+03 -0.22043622517E+03  0.79687560914E+03  0.10566000000E+00 0. -1.
          4    1    3    3  502    0  0.48079299258E+03 -0.45505027193E+03  0.11389101450E+04  0.13173264478E+04  0.00000000000E+00 0.  1.
         -4    1    4    4    0  501  0.51433194590E+02  0.36058706992E+03  0.44623513395E+03  0.57601580124E+03  0.00000000000E+00 0. -1.
</event>
<event>
 8    1  0.7446554E-006  0.1162471E+04  0.7818608E-02  0.8635371E-01
         -1   -1    0    0    0  501 -0.00000000000E+00  0.00000000000E+00  0.12306510039E+04  0.12306510039E+04  0.00000000000E+00 0. -1.
          1   -1    0    0  502    0  0.00000000000E+00 -0.00000000000E+00 -0.10984643044E+04  0.10984643044E+04  0.00000000000E+00 0.  1.
    9000010    2    1    2  502    0 -0.42991688936E+03 -0.37736870115E+03  0.84751705313E+02  0.11784883163E+04  0.10268476965E+04 0.  0.
   -9000010    2    1    2    0  501  0.42991688936E+03  0.37736870115E+03  0.47434994139E+02  0.11506269920E+04  0.99722451212E+03 0.  0.
        -13    1    3    3    0    0  0.71287605627E+02  0.30875278627E+03 -0.41104400349E+02  0.31953057543E+03  0.10566000000E+00 0.  1.
         13    1    4    4    0    0 -0.76174620134E+02 -0.20033969380E+03  0.27586570246E+03  0.34934290121E+03  0.10566000000E+00 0. -1.
          4    1    3    3  502    0 -0.50120449499E+03 -0.68612148742E+03  0.12585610566E+03  0.85895774089E+03  0.00000000000E+00 0.  1.
         -4    1    4    4    0  501  0.50609150949E+03  0.57770839495E+03 -0.22843070832E+03  0.80128409075E+03  0.00000000000E+00 0. -1.
</event>
<event>
 8    1  0.7446554E-006  0.1350125E+04  0.7818608E-02  0.8501349E-01
         -1   -1    0    0    0  501 -0.00000000000E+00  0.00000000000E+00  0.76104127903E+03  0.76104127903E+03  0.00000000000E+00 0. -1.
          1   -1    0    0  502    0  0.00000000000E+00 -0.00000000000E+00 -0.26185771756E+04  0.26185771756E+04  0.00000000000E+00 0.  1.
    9000010    2    1    2  502    0  0.54011977357E+03  0.69852269384E+03 -0.14065118916E+04  0.19334424772E+04  0.99008120251E+03 0.  0.
   -9000010    2    1    2    0  501 -0.54011977357E+03 -0.69852269384E+03 -0.45102400492E+03  0.14461759775E+04  0.10527767955E+04 0.  0.
        -13    1    3    3    0    0  0.35117340234E+03  0.24960892156E+03 -0.13799688644E+04  0.14456629794E+04  0.10566000000E+00 0.  1.
         13    1    4    4    0    0  0.10118307529E+03 -0.64088355106E+03 -0.47136112386E+03  0.80196699496E+03  0.10566000000E+00 0. -1.
          4    1    3    3  502    0  0.18894637123E+03  0.44891377228E+03 -0.26543027283E+02  0.48777949776E+03  0.00000000000E+00 0.  1.
         -4    1    4    4    0  501 -0.64130284886E+03 -0.57639142775E+02  0.20337118943E+02  0.64420898251E+03  0.00000000000E+00 0. -1.
</event>
<event>
 8    1  0.7446554E-006  0.1714640E+04  0.7818608E-02  0.8295657E-01
         -2   -1    0    0    0  501 -0.00000000000E+00  0.00000000000E+00  0.17509460902E+04  0.17509460902E+04  0.00000000000E+00 0. -1.
          2   -1    0    0  502    0  0.00000000000E+00 -0.00000000000E+00 -0.16791310959E+04  0.16791310959E+04  0.00000000000E+00 0.  1.
    9000010    2    1    2  502    0 -0.13449749465E+04 -0.30144346027E+03  0.29339521592E+02  0.17087763098E+04  0.10095691671E+04 0.  0.
   -9000010    2    1    2    0  501  0.13449749465E+04  0.30144346027E+03  0.42475472677E+02  0.17213008763E+04  0.10301683234E+04 0.  0.
        -13    1    3    3    0    0 -0.63026229822E+03 -0.39059401040E+03  0.45712192807E+03  0.87106527529E+03  0.10566000000E+00 0.  1.
         13    1    4    4    0    0  0.98821666507E+03  0.69163393254E+02 -0.43471193486E+03  0.10818180205E+04  0.10566000000E+00 0. -1.
          4    1    3    3  502    0 -0.71471264823E+03  0.89150550132E+02 -0.42778240648E+03  0.83771103456E+03  0.00000000000E+00 0.  1.
         -4    1    4    4    0  501  0.35675828139E+03  0.23228006702E+03  0.47718740753E+03  0.63948285574E+03  0.00000000000E+00 0. -1.
</event>
<event>
 8    1  0.7446554E-006  0.1265659E+04  0.7818608E-02  0.8558694E-01
          2   -1    0    0  502    0  0.00000000000E+00  0.00000000000E+00  0.26007165038E+04  0.26007165038E+04  0.00000000000E+00 0.  1.
         -2   -1    0    0    0  501 -0.00000000000E+00 -0.00000000000E+00 -0.66953233759E+03  0.66953233759E+03  0.00000000000E+00 0. -1.
    9000010    2    1    2  502    0  0.76278600902E+03  0.22733171222E+03  0.50279342424E+03  0.13616049416E+04  0.98368927342E+03 0.  0.
   -9000010    2    1    2    0  501 -0.76278600902E+03 -0.22733171222E+03  0.14283907419E+04  0.19086438997E+04  0.98442837292E+03 0.  0.
        -13    1    3    3    0    0  0.89713348392E+03  0.39048704301E+03  0.21035665709E+03  0.10007889653E+04  0.10566000000E+00 0.  1.
         13    1    4    4    0    0  0.90729933393E+02  0.14083172752E+03  0.72193918271E+03  0.74112191371E+03  0.10566000000E+00 0. -1.
          4    1    3    3  502    0 -0.13434747491E+03 -0.16315533079E+03  0.29243676715E+03  0.36081597631E+03  0.00000000000E+00 0.  1.
         -4    1    4    4    0  501 -0.85351594241E+03 -0.36816343973E+03  0.70645155921E+03  0.11675219860E+04  0.00000000000E+00 0. -1.
</event>
<event>
 8    1  0.7446554E-006  0.1685135E+04  0.7818608E-02  0.8310254E-01
         -2   -1    0    0    0  501 -0.00000000000E+00  0.00000000000E+00  0.11187132095E+04  0.11187132095E+04  0.00000000000E+00 0. -1.
          2   -1    0    0  502    0  0.00000000000E+00 -0.00000000000E+00 -0.27201937628E+04  0.27201937628E+04  0.00000000000E+00 0.  1.
    9000010    2    1    2  502    0 -0.12216506286E+04  0.58706598201E+03 -0.30501923939E+03  0.17137677147E+04  0.10034372516E+04 0.  0.
   -9000010    2    1    2    0  501  0.12216506286E+04 -0.58706598201E+03 -0.12964613139E+04  0.21251392576E+04  0.99916375041E+03 0.  0.
        -13    1    3    3    0    0 -0.46969063275E+03  0.37890491685E+02  0.33996619434E+03  0.58105249703E+03  0.10566000000E+00 0.  1.
         13    1    4    4    0    0  0.47268819163E+03  0.23948037895E+03 -0.21597605468E+03  0.57221555883E+03  0.10566000000E+00 0. -1.
          4    1    3    3  502    0 -0.75195999587E+03  0.54917549033E+03 -0.64498543373E+03  0.11327152176E+04  0.00000000000E+00 0.  1.
         -4    1    4    4    0  501  0.74896243699E+03 -0.82654636096E+03 -0.10804852592E+04  0.15529236988E+04  0.00000000000E+00 0. -1.
</event>
<event>
 8    1  0.7446554E-006  0.1153819E+04  0.7818608E-02  0.8642174E-01
          2   -1    0    0  502    0  0.00000000000E+00  0.00000000000E+00  0.88618065596E+03  0.88618065596E+03  0.00000000000E+00 0. -1.
         -2   -1    0    0    0  501 -0.00000000000E+00 -0.00000000000E+00 -0.16862175913E+04  0.16862175913E+04  0.00000000000E+00 0.  1.
    9000010    2    1    2  502    0  0.19243419362E+03  0.43176444303E+03  0.28601478668E+02  0.11410519101E+04  0.10381377383E+04 0.  0.
   -9000010    2    1    2    0  501 -0.19243419362E+03 -0.43176444303E+03 -0.82863841400E+03  0.14313463372E+04  0.10670797827E+04 0.  0.
        -13    1    3    3    0    0  0.90304737489E+02  0.47110747424E+03  0.47879393360E+03  0.67774688485E+03  0.10566000000E+00 0.  1.
         13    1    4    4    0    0  0.63772124626E+02  0.32955594592E+03 -0.39547260849E+03  0.51872208416E+03  0.10566000000E+00 0. -1.
          4    1    3    3  502    0  0.10212945613E+03 -0.39343031216E+02 -0.45019245494E+03  0.46330502522E+03  0.00000000000E+00 0.  1.
         -4    1    4    4    0  501 -0.25620631825E+03 -0.76132038895E+03 -0.43316580551E+03  0.91262425302E+03  0.00000000000E+00 0. -1.
</event>
<event>
 8    1  0.7446554E-006  0.1181211E+04  0.7818608E-02  0.8620847E-01
          2   -1    0    0  502    0  0.00000000000E+00  0.00000000000E+00  0.19298614330E+04  0.19298614330E+04  0.00000000000E+00 0.  1.
         -2   -1    0    0    0  501 -0.00000000000E+00 -0.00000000000E+00 -0.77100734598E+03  0.77100734598E+03  0.00000000000E+00 0. -1.
    9000010    2    1    2  502    0  0.64007239285E+03  0.58229162419E+01  0.91341215385E+03  0.14880963305E+04  0.98507987066E+03 0.  0.
   -9000010    2    1    2    0  501 -0.64007239285E+03 -0.58229162419E+01  0.24544193322E+03  0.12127724485E+04  0.10004242574E+04 0.  0.
        -13    1    3    3    0    0  0.41221683482E+03  0.47310182314E+03  0.33844042057E+03  0.71294458649E+03  0.10566000000E+00 0.  1.
         13    1    4    4    0    0 -0.22391985708E+03 -0.31536109704E+03  0.50234024608E+03  0.63398616539E+03  0.10566000000E+00 0. -1.
          4    1    3    3  502    0  0.22785555803E+03 -0.46727890690E+03  0.57497173328E+03  0.77515174400E+03  0.00000000000E+00 0.  1.
         -4    1    4    4    0  501 -0.41615253577E+03  0.30953818079E+03 -0.25689831286E+03  0.57878628313E+03  0.00000000000E+00 0. -1.
</event>
<event>
 8    1  0.7446554E-006  0.1349459E+04  0.7818608E-02  0.8501785E-01
          1   -1    0    0  502    0  0.00000000000E+00  0.00000000000E+00  0.15368869239E+04  0.15368869239E+04  0.00000000000E+00 0. -1.
         -1   -1    0    0    0  501 -0.00000000000E+00 -0.00000000000E+00 -0.11927071952E+04  0.11927071952E+04  0.00000000000E+00 0.  1.
    9000010    2    1    2  502    0  0.89314689874E+03 -0.93952542263E+02  0.60763041256E+02  0.13400230415E+04  0.99268884427E+03 0.  0.
   -9000010    2    1    2    0  501 -0.89314689874E+03  0.93952542263E+02  0.28341668746E+03  0.13895710777E+04  0.10217848591E+04 0.  0.
        -13    1    3    3    0    0 -0.24308066576E+02 -0.29318094641E+03 -0.21170987700E+03  0.36244590303E+03  0.10566000000E+00 0.  1.
         13    1    4    4    0    0 -0.62161171463E+03  0.52219485087E+03  0.33835706225E+03  0.87953061275E+03  0.10566000000E+00 0. -1.
          4    1    3    3  502    0  0.91745496532E+03  0.19922840415E+03  0.27247291826E+03  0.97757713843E+03  0.00000000000E+00 0.  1.
         -4    1    4    4    0  501 -0.27153518411E+03 -0.42824230860E+03 -0.54940374791E+02  0.51004046494E+03  0.00000000000E+00 0. -1.
</event>
<event>
 8    1  0.7446554E-006  0.1254334E+04  0.7818608E-02  0.8566733E-01
          2   -1    0    0  502    0  0.00000000000E+00  0.00000000000E+00  0.14331003301E+04  0.14331003301E+04  0.00000000000E+00 0.  1.
         -2   -1    0    0    0  501 -0.00000000000E+00 -0.00000000000E+00 -0.11098474628E+04  0.11098474628E+04  0.00000000000E+00 0. -1.
    9000010    2    1    2  502    0  0.77248013977E+02  0.75091048991E+03  0.29237592627E+03  0.12797702979E+04  0.99120861259E+03 0.  0.
   -9000010    2    1    2    0  501 -0.77248013977E+02 -0.75091048991E+03  0.30876941050E+02  0.12631774949E+04  0.10123389643E+04 0.  0.
        -13    1    3    3    0    0  0.28845347140E+03  0.87401239365E+03  0.29589830199E+02  0.92085755611E+03  0.10566000000E+00 0.  1.
         13    1    4    4    0    0 -0.43904078664E+03 -0.18793648481E+02 -0.51269334470E+02  0.44242351811E+03  0.10566000000E+00 0. -1.
          4    1    3    3  502    0 -0.21120545743E+03 -0.12310190374E+03  0.26278609607E+03  0.35891274182E+03  0.00000000000E+00 0.  1.
         -4    1    4    4    0  501  0.36179277266E+03 -0.73211684143E+03  0.82146275520E+02  0.82075397680E+03  0.00000000000E+00 0. -1.
</event>
<event>
 8    1  0.7446554E-006  0.1547536E+04  0.7818608E-02  0.8382656E-01
         -1   -1    0    0    0  501 -0.00000000000E+00  0.00000000000E+00  0.93508117848E+03  0.93508117848E+03  0.00000000000E+00 0.  1.
          1   -1    0    0  502    0  0.00000000000E+00 -0.00000000000E+00 -0.27379933681E+04  0.27379933681E+04  0.00000000000E+00 0. -1.
    9000010    2    1    2  502    0  0.11391141186E+04  0.29291667370E+03 -0.13758715124E+04  0.20817284251E+04  0.10281972886E+04 0.  0.
   -9000010    2    1    2    0  501 -0.11391141186E+04 -0.29291667370E+03 -0.42704067717E+03  0.15913461215E+04  0.98317729100E+03 0.  0.
        -13    1    3    3    0    0 -0.48809211732E+01 -0.18767229815E+03  0.47276407172E+02  0.19359696466E+03  0.10566000000E+00 0.  1.
         13    1    4    4    0    0 -0.99371224255E+03  0.20450241350E+03 -0.27032208564E+03  0.10499329975E+04  0.10566000000E+00 0. -1.
          4    1    3    3  502    0  0.11439950397E+04  0.48058897186E+03 -0.14231479196E+04  0.18881314604E+04  0.00000000000E+00 0.  1.
         -4    1    4    4    0  501 -0.14540187600E+03 -0.49741908720E+03 -0.15671859153E+03  0.54141312395E+03  0.00000000000E+00 0. -1.
</event>
<event>
 8    1  0.7446554E-006  0.1396030E+04  0.7818608E-02  0.8471967E-01
          2   -1    0    0  502    0  0.00000000000E+00  0.00000000000E+00  0.22241452250E+04  0.22241452250E+04  0.00000000000E+00 0. -1.
         -2   -1    0    0    0  501 -0.00000000000E+00 -0.00000000000E+00 -0.10544928844E+04  0.10544928844E+04  0.00000000000E+00 0.  1.
    9000010    2    1    2  502    0 -0.20844714528E+03  0.95375946143E+03  0.12641172678E+04  0.18952467557E+04  0.10202256984E+04 0.  0.
   -9000010    2    1    2    0  501  0.20844714528E+03 -0.95375946143E+03 -0.94464927245E+02  0.13833913536E+04  0.97557198203E+03 0.  0.
        -13    1    3    3    0    0 -0.32165636065E+03  0.27019114841E+03  0.11080519450E+04  0.11850085211E+04  0.10566000000E+00 0.  1.
         13    1    4    4    0    0 -0.38559644197E+03 -0.25203803555E+03 -0.39377673848E+02  0.46234013430E+03  0.10566000000E+00 0. -1.
          4    1    3    3  502    0  0.11320921536E+03  0.68356831302E+03  0.15606532282E+03  0.71023823468E+03  0.00000000000E+00 0.  1.
         -4    1    4    4    0  501  0.59404358726E+03 -0.70172142588E+03 -0.55087253397E+02  0.92105121931E+03  0.00000000000E+00 0. -1.
</event>
<event>
 8    1  0.7446554E-006  0.1092553E+04  0.7818608E-02  0.8692186E-01
          2   -1    0    0  502    0  0.00000000000E+00  0.00000000000E+00  0.21216430623E+04  0.21216430623E+04  0.00000000000E+00 0. -1.
         -2   -1    0    0    0  501 -0.00000000000E+00 -0.00000000000E+00 -0.58942752857E+03  0.58942752857E+03  0.00000000000E+00 0.  1.
    9000010    2    1    2  502    0  0.38675607925E+03 -0.11648656513E+03  0.10703242593E+04  0.15476918724E+04  0.10424043011E+04 0.  0.
   -9000010    2    1    2    0  501 -0.38675607925E+03  0.11648656513E+03  0.46189127446E+03  0.11633787185E+04  0.98841140655E+03 0.  0.
        -13    1    3    3    0    0  0.10955587601E+02 -0.46921465010E+03  0.88173104507E+03  0.99886538621E+03  0.10566000000E+00 0.  1.
         13    1    4    4    0    0 -0.50972526757E+03 -0.31059504904E+03  0.39040012676E+03  0.71323306361E+03  0.10566000000E+00 0. -1.
          4    1    3    3  502    0  0.37580049165E+03  0.35272808496E+03  0.18859321422E+03  0.54882648615E+03  0.00000000000E+00 0.  1.
         -4    1    4    4    0  501  0.12296918832E+03  0.42708161417E+03  0.71491147697E+02  0.45014565491E+03  0.00000000000E+00 0. -1.
</event>
<event>
 8    1  0.7446554E-006  0.1089014E+04  0.7818608E-02  0.8695179E-01
         -1   -1    0    0    0  501 -0.00000000000E+00  0.00000000000E+00  0.10219548441E+04  0.10219548441E+04  0.00000000000E+00 0.  1.
          1   -1    0    0  502    0  0.00000000000E+00 -0.00000000000E+00 -0.16801861084E+04  0.16801861084E+04  0.00000000000E+00 0. -1.
    9000010    2    1    2  502    0  0.16979609736E+03 -0.39619317470E+03  0.42309377638E+03  0.11647220660E+04  0.99587619768E+03 0.  0.
   -9000010    2    1    2    0  501 -0.16979609736E+03  0.39619317470E+03 -0.10813250407E+04  0.15374188865E+04  0.10042874302E+04 0.  0.
        -13    1    3    3    0    0 -0.21122723250E+03 -0.61045383319E+03  0.21699086051E+03  0.68143662282E+03  0.10566000000E+00 0.  1.
         13    1    4    4    0    0  0.22790779701E+03 -0.10687396827E+03  0.30849443111E+02  0.25360541859E+03  0.10566000000E+00 0. -1.
          4    1    3    3  502    0  0.38102332986E+03  0.21426065850E+03  0.20610291587E+03  0.48328544320E+03  0.00000000000E+00 0.  1.
         -4    1    4    4    0  501 -0.39770389437E+03  0.50306714297E+03 -0.11121744838E+04  0.12838134679E+04  0.00000000000E+00 0. -1.
</event>
<event>
 8    1  0.7446554E-006  0.1148826E+04  0.7818608E-02  0.8646127E-01
          1   -1    0    0  502    0  0.00000000000E+00  0.00000000000E+00  0.15743570934E+04  0.15743570934E+04  0.00000000000E+00 0.  1.
         -1   -1    0    0    0  501 -0.00000000000E+00 -0.00000000000E+00 -0.10068626408E+04  0.10068626408E+04  0.00000000000E+00 0. -1.
    9000010    2    1    2  502    0 -0.51415843406E+03  0.25628418962E+03 -0.24564363108E+03  0.11681921474E+04  0.98706211491E+03 0.  0.
   -9000010    2    1    2    0  501  0.51415843406E+03 -0.25628418962E+03  0.81313808370E+03  0.14130275868E+04  0.10027028157E+04 0.  0.
        -13    1    3    3    0    0  0.26057278040E+03 -0.95386301507E+02  0.16325632895E+02  0.27796269148E+03  0.10566000000E+00 0.  1.
         13    1    4    4    0    0  0.76766355344E+03 -0.98529987042E+02  0.32204357920E+03  0.83828847523E+03  0.10566000000E+00 0. -1.
          4    1    3    3  502    0 -0.77473121446E+03  0.35167049113E+03 -0.26196926398E+03  0.89022945596E+03  0.00000000000E+00 0.  1.
         -4    1    4    4    0  501 -0.25350511939E+03 -0.15775420258E+03  0.49109450450E+03  0.57473911154E+03  0.00000000000E+00 0. -1.
</event>
<event>
 7    1  0.7446554E-006  0.9483465E+03  0.7818608E-02  0.8824698E-01
          1   -1    0    0  502    0  0.00000000000E+00  0.00000000000E+00  0.25028836245E+04  0.25028836245E+04  0.00000000000E+00 0. -1.
         -1   -1    0    0    0  501 -0.00000000000E+00 -0.00000000000E+00 -0.44083118894E+03  0.44083118894E+03  0.00000000000E+00 0.  1.
   -9000010    2    1    2    0  501 -0.15488173948E+03  0.48562212605E+03  0.17553871757E+04  0.20751467746E+04  0.98236082826E+03 0.  0.
        -13    1    1    2    0    0  0.21156069946E+03 -0.37517081619E+03 -0.10102149244E+03  0.44239849002E+03  0.10566000000E+00 0.  1.
         13    1    3    3    0    0 -0.37090814821E+03 -0.12187909397E+03  0.10461936762E+04  0.11166685217E+04  0.10566000000E+00 0. -1.
          4    1    1    2  502    0 -0.56678959980E+02 -0.11045130986E+03  0.40768675226E+03  0.42616954880E+03  0.00000000000E+00 0.  1.
         -4    1    3    3    0  501  0.21602640873E+03  0.60750122002E+03  0.70919349948E+03  0.95847825291E+03  0.00000000000E+00 0. -1.
</event>
<event>
 8    1  0.7446554E-006  0.1472244E+04  0.7818608E-02  0.8425655E-01
         -1   -1    0    0    0  501 -0.00000000000E+00  0.00000000000E+00  0.24538568860E+04  0.24538568860E+04  0.00000000000E+00 0.  1.
          1   -1    0    0  502    0  0.00000000000E+00 -0.00000000000E+00 -0.99741703890E+03  0.99741703890E+03  0.00000000000E+00 0. -1.
    9000010    2    1    2  502    0 -0.18639762341E+03  0.10712704845E+04  0.14112635200E+03  0.14711031234E+04  0.98074626056E+03 0.  0.
   -9000010    2    1    2    0  501  0.18639762341E+03 -0.10712704845E+04  0.13153134951E+04  0.19801708015E+04  0.10043218049E+04 0.  0.
        -13    1    3    3    0    0 -0.25392517893E+03  0.94280141744E+03  0.49057722247E+03  0.10927115500E+04  0.10566000000E+00 0.  1.
         13    1    4    4    0    0 -0.31165118977E+03 -0.45865542680E+03  0.97238695048E+03  0.11193871793E+04  0.10566000000E+00 0. -1.
          4    1    3    3  502    0  0.67527555518E+02  0.12846906703E+03 -0.34945087047E+03  0.37839157339E+03  0.00000000000E+00 0.  1.
         -4    1    4    4    0  501  0.49804881318E+03 -0.61261505767E+03  0.34292654467E+03  0.86078362219E+03  0.00000000000E+00 0. -1.
</event>
<event>
 8    1  0.7446554E-006  0.1097911E+04  0.7818608E-02  0.8687677E-01
         -4   -1    0    0    0  501 -0.00000000000E+00  0.00000000000E+00  0.76664088105E+03  0.76664088105E+03  0.00000000000E+00 0. -1.
          4   -1    0    0  502    0  0.00000000000E+00 -0.00000000000E+00 -0.22201305030E+04  0.22201305030E+04  0.00000000000E+00 0.  1.
    9000010    2    1    2  502    0 -0.40251501105E+03 -0.23310593360E+03 -0.15293405184E+04  0.18776669626E+04  0.98508582918E+03 0.  0.
   -9000010    2    1    2    0  501  0.40251501105E+03  0.23310593360E+03  0.75850896515E+02  0.11091044214E+04  0.10039933011E+04 0.  0.
        -13    1    3    3    0    0 -0.33653148283E+03 -0.18221119874E+03 -0.16704841957E+04  0.17137595569E+04  0.10566000000E+00 0.  1.
         13    1    4    4    0    0  0.55140709171E+03  0.18950697697E+03  0.42866718637E+03  0.72368380039E+03  0.10566000000E+00 0. -1.
          4    1    3    3  502    0 -0.65983528222E+02 -0.50894734866E+02  0.14114367721E+03  0.16390740572E+03  0.00000000000E+00 0.  1.
         -4    1    4    4    0  501 -0.14889208066E+03  0.43598956629E+02 -0.35281628985E+03  0.38542062099E+03  0.00000000000E+00 0. -1.
</event>
<event>
 8    1  0.7446554E-006  0.1525090E+04  0.7818608E-02  0.8395204E-01
          2   -1    0    0  502    0  0.00000000000E+00  0.00000000000E+00  0.24810309192E+04  0.24810309192E+04  0.00000000000E+00 0. -1.
         -2   -1    0    0    0  501 -0.00000000000E+00 -0.00000000000E+00 -0.96008609007E+03  0.96008609007E+03  0.00000000000E+00 0.  1.
    9000010    2    1    2  502    0  0.75006960178E+03  0.89223290932E+03  0.50258733087E+03  0.16171745052E+04  0.10019857200E+04 0.  0.
   -9000010    2    1    2    0  501 -0.75006960178E+03 -0.89223290932E+03  0.10183574983E+04  0.18239425041E+04  0.96489910974E+03 0.  0.
        -13    1    3    3    0    0  0.32804786769E+03  0.28229172395E+03  0.72367771027E+03  0.84321614098E+03  0.10566000000E+00 0.  1.
         13    1    4    4    0    0 -0.66268200875E+03 -0.10741483171E+04  0.68971497807E+03  0.14382798107E+04  0.10566000000E+00 0. -1.
          4    1    3    3  502    0  0.42202173410E+03  0.60994118537E+03 -0.22109037940E+03  0.77395836420E+03  0.00000000000E+00 0.  1.
         -4    1    4    4    0  501 -0.87387593031E+02  0.18191540774E+03  0.32864252019E+03  0.38566269338E+03  0.00000000000E+00 0. -1.
</event>
<event>
 8    1  0.7446554E-006  0.1270387E+04  0.7818608E-02  0.8555364E-01
         -2   -1    0    0    0  501 -0.00000000000E+00  0.00000000000E+00  0.68518954533E+03  0.68518954533E+03  0.00000000000E+00 0.  1.
          2   -1    0    0  502    0  0.00000000000E+00 -0.00000000000E+00 -0.23594944410E+04  0.23594944410E+04  0.00000000000E+00 0. -1.
    9000010    2    1    2  502    0 -0.33239254969E+03 -0.74123880760E+03 -0.90444408459E+03  0.15646503378E+04  0.98498314726E+03 0.  0.
   -9000010    2    1    2    0  501  0.33239254969E+03  0.74123880760E+03 -0.76986081110E+03  0.14800336486E+04  0.96844935616E+03 0.  0.
        -13    1    3    3    0    0  0.91381727658E+01 -0.50246877058E+03  0.67570839343E+02  0.50707415740E+03  0.10566000000E+00 0.  1.
         13    1    4    4    0    0  0.44657879824E+03  0.56921983816E+03 -0.43391581317E+02  0.72479423817E+03  0.10566000000E+00 0. -1.
          4    1    3    3  502    0 -0.34153072245E+03 -0.23877003702E+03 -0.97201492394E+03  0.10575761804E+04  0.00000000000E+00 0.  1.
         -4    1    4    4    0  501 -0.11418624855E+03  0.17201896944E+03 -0.72646922978E+03  0.75523941040E+03  0.00000000000E+00 0. -1.
</event>
<event>
 8    1  0.7446554E-006  0.1117855E+04  0.7818608E-02  0.8671127E-01
          2   -1    0    0  502    0  0.00000000000E+00  0.00000000000E+00  0.11486628979E+04  0.11486628979E+04  0.00000000000E+00 0.  1.
         -2   -1    0    0    0  501 -0.00000000000E+00 -0.00000000000E+00 -0.10905323132E+04  0.10905323132E+04  0.00000000000E+00 0. -1.
    9000010    2    1    2  502    0 -0.50053515025E+03 -0.22473650557E+02  0.74881645114E+02  0.11528529464E+04  0.10355781736E+04 0.  0.
   -9000010    2    1    2    0  501  0.50053515025E+03  0.22473650557E+02 -0.16751060450E+02  0.10863422647E+04  0.96375225886E+03 0.  0.
        -13    1    3    3    0    0 -0.41946766977E+03 -0.85137954001E+02  0.53290275655E+03  0.68351075800E+03  0.10566000000E+00 0.  1.
         13    1    4    4    0    0  0.58431431983E+03 -0.26660024360E+03 -0.26639034591E+03  0.69531485085E+03  0.10566000000E+00 0. -1.
          4    1    3    3  502    0 -0.81067480473E+02  0.62664303444E+02 -0.45802111144E+03  0.46934218843E+03  0.00000000000E+00 0.  1.
         -4    1    4    4    0  501 -0.83779169587E+02  0.28907389416E+03  0.24963928546E+03  0.39102741385E+03  0.00000000000E+00 0. -1.
</event>
<event>
 8    1  0.7446554E-006  0.1313199E+04  0.7818608E-02  0.8525871E-01
          2   -1    0    0  502    0  0.00000000000E+00  0.00000000000E+00  0.30162699664E+04  0.30162699664E+04  0.00000000000E+00 0.  1.
         -2   -1    0    0    0  501 -0.00000000000E+00 -0.00000000000E+00 -0.79982779712E+03  0.79982779712E+03  0.00000000000E+00 0. -1.
    9000010    2    1    2  502    0 -0.79414900024E+03 -0.27014969050E+03  0.88626914069E+02  0.13151158573E+04  0.10089705141E+04 0.  0.
   -9000010    2    1    2    0  501  0.79414900024E+03  0.27014969050E+03  0.21278152552E+04  0.25009819062E+04  0.10117604682E+04 0.  0.
        -13    1    3    3    0    0 -0.67164662291E+02 -0.45565278344E+03 -0.21177778291E+03  0.50693233416E+03  0.10566000000E+00 0.  1.
         13    1    4    4    0    0  0.36792607937E+03  0.36958073467E+03  0.26027065058E+03  0.58283817826E+03  0.10566000000E+00 0. -1.
          4    1    3    3  502    0 -0.72698433795E+03  0.18550309294E+03  0.30040469698E+03  0.80818352315E+03  0.00000000000E+00 0.  1.
         -4    1    4    4    0  501  0.42622292087E+03 -0.99431044161E+02  0.18675446046E+04  0.19181437279E+04  0.00000000000E+00 0. -1.
</event>
<event>
 8    1  0.7446554E-006  0.1158090E+04  0.7818608E-02  0.8638808E-01
         -4   -1    0    0    0  501 -0.00000000000E+00  0.00000000000E+00  0.15511450361E+04  0.15511450361E+04  0.00000000000E+00 0. -1.
          4   -1    0    0  502    0  0.00000000000E+00 -0.00000000000E+00 -0.86987211094E+03  0.86987211094E+03  0.00000000000E+00 0.  1.
    9000010    2    1    2  502    0 -0.70147099069E+02  0.54722556489E+03  0.25387756644E+03  0.12033481274E+04  0.10388534365E+04 0.  0.
   -9000010    2    1    2    0  501  0.70147099069E+02 -0.54722556489E+03  0.42739535868E+03  0.12176690196E+04  0.99783496348E+03 0.  0.
        -13    1    3    3    0    0 -0.44516197556E+03 -0.22569054930E+02  0.26980624852E+03  0.52103163976E+03  0.10566000000E+00 0.  1.
         13    1    4    4    0    0 -0.22560045939E+03 -0.12039402638E+03 -0.25435604185E+03  0.36067616508E+03  0.10566000000E+00 0. -1.
          4    1    3    3  502    0  0.37501487649E+03  0.56979461982E+03 -0.15928682074E+02  0.68231648762E+03  0.00000000000E+00 0.  1.
         -4    1    4    4    0  501  0.29574755846E+03 -0.42683153851E+03  0.68175140053E+03  0.85699285454E+03  0.00000000000E+00 0. -1.
</event>
<event>
 8    1  0.7446554E-006  0.1143378E+04  0.7818608E-02  0.8650465E-01
          2   -1    0    0  502    0  0.00000000000E+00  0.00000000000E+00  0.13417183113E+04  0.13417183113E+04  0.00000000000E+00 0.  1.
         -2   -1    0    0    0  501 -0.00000000000E+00 -0.00000000000E+00 -0.10705790159E+04  0.10705790159E+04  0.00000000000E+00 0. -1.
    9000010    2    1    2  502    0 -0.50405590440E+03  0.10028863880E+03 -0.22777148245E+03  0.11416225760E+04  0.99362573028E+03 0.  0.
   -9000010    2    1    2    0  501  0.50405590440E+03 -0.10028863880E+03  0.49891077786E+03  0.12706747513E+04  0.10495580944E+04 0.  0.
        -13    1    3    3    0    0 -0.19128312195E+03 -0.34136563761E+03 -0.41364400472E+03  0.56940416673E+03  0.10566000000E+00 0.  1.
         13    1    4    4    0    0  0.15812296884E+03  0.41481302339E+03  0.47439107301E+03  0.64970733332E+03  0.10566000000E+00 0. -1.
          4    1    3    3  502    0 -0.31277278245E+03  0.44165427641E+03  0.18587252228E+03  0.57221840922E+03  0.00000000000E+00 0.  1.
         -4    1    4    4    0  501  0.34593293556E+03 -0.51510166219E+03  0.24519704845E+02  0.62096741800E+03  0.00000000000E+00 0. -1.
</event>
<event>
 8    1  0.7446554E-006  0.1247537E+04  0.7818608E-02  0.8571601E-01
         -1   -1    0    0    0  501 -0.00000000000E+00  0.00000000000E+00  0.18864183601E+04  0.18864183601E+04  0.00000000000E+00 0.  1.
          1   -1    0    0  502    0  0.00000000000E+00 -0.00000000000E+00 -0.86682557630E+03  0.86682557630E+03  0.00000000000E+00 0. -1.
    9000010    2    1    2  502    0 -0.27756777201E+03 -0.66998894033E+03  0.81313871946E+03  0.14914423970E+04  0.10184678680E+04 0.  0.
   -9000010    2    1    2    0  501  0.27756777201E+03  0.66998894033E+03  0.20645406433E+03  0.12618015394E+04  0.10117266410E+04 0.  0.
        -13    1    3    3    0    0 -0.60491643827E+03 -0.23385742130E+03  0.21789140639E+03  0.68417093400E+03  0.10566000000E+00 0.  1.
         13    1    4    4    0    0  0.26071683947E+03  0.92377719092E+03  0.27481266574E+03  0.99842855591E+03  0.10566000000E+00 0. -1.
          4    1    3    3  502    0  0.32734866626E+03 -0.43613151902E+03  0.59524731307E+03  0.80727146296E+03  0.00000000000E+00 0.  1.
         -4    1    4    4    0  501  0.16850932535E+02 -0.25378825059E+03 -0.68358601410E+02  0.26337298353E+03  0.00000000000E+00 0. -1.
</event>
<event>
 8    1  0.7446554E-006  0.1330479E+04  0.7818608E-02  0.8514294E-01
          1   -1    0    0  502    0  0.00000000000E+00  0.00000000000E+00  0.59713065825E+03  0.59713065825E+03  0.00000000000E+00 0.  1.
         -1   -1    0    0    0  501 -0.00000000000E+00 -0.00000000000E+00 -0.46576877347E+04  0.46576877347E+04  0.00000000000E+00 0. -1.
    9000010    2    1    2  502    0  0.83073059811E+03  0.29505904681E+03 -0.43730363331E+03  0.13918269072E+04  0.98426343236E+03 0.  0.
   -9000010    2    1    2    0  501 -0.83073059811E+03 -0.29505904681E+03 -0.36232534431E+04  0.38629914857E+04  0.10087440397E+04 0.  0.
        -13    1    3    3    0    0 -0.19883085956E+03  0.15788826647E+03  0.24615757791E+02  0.25508500955E+03  0.10566000000E+00 0.  1.
         13    1    4    4    0    0 -0.79889267656E+02  0.31372580722E+03 -0.14297448316E+04  0.14659387681E+04  0.10566000000E+00 0. -1.
          4    1    3    3  502    0  0.10295614577E+04  0.13717078034E+03 -0.46191939110E+03  0.11367418977E+04  0.00000000000E+00 0.  1.
         -4    1    4    4    0  501 -0.75084133045E+03 -0.60878485403E+03 -0.21935086115E+04  0.23970527176E+04  0.00000000000E+00 0. -1.
</event>
<event>
 8    1  0.7446554E-006  0.1708447E+04  0.7818608E-02  0.8298696E-01
         -4   -1    0    0    0  501 -0.00000000000E+00  0.00000000000E+00  0.14764452761E+04  0.14764452761E+04  0.00000000000E+00 0.  1.
          4   -1    0    0  502    0  0.00000000000E+00 -0.00000000000E+00 -0.20770619451E+04  0.20770619451E+04  0.00000000000E+00 0. -1.
    9000010    2    1    2  502    0 -0.12535607256E+04 -0.62120635265E+03  0.89710526198E+02  0.17116511180E+04  0.98203347494E+03 0.  0.
   -9000010    2    1    2    0  501  0.12535607256E+04  0.62120635265E+03 -0.69032719524E+03  0.18418561032E+04  0.97906610766E+03 0.  0.
        -13    1    3    3    0    0 -0.51437925534E+03 -0.37474592856E+03 -0.43623514247E+03  0.77157089110E+03  0.10566000000E+00 0.  1.
         13    1    4    4    0    0  0.12791242701E+03  0.55906698936E+03 -0.15644308190E+03  0.59446777593E+03  0.10566000000E+00 0. -1.
          4    1    3    3  502    0 -0.73918147028E+03 -0.24646042408E+03  0.52594566867E+03  0.94008022692E+03  0.00000000000E+00 0.  1.
         -4    1    4    4    0  501  0.11256482986E+04  0.62139363285E+02 -0.53388411333E+03  0.12473883273E+04  0.00000000000E+00 0. -1.
</event>
<event>
 8    1  0.7446554E-006  0.1311174E+04  0.7818608E-02  0.8527240E-01
          1   -1    0    0  502    0  0.00000000000E+00  0.00000000000E+00  0.11882960206E+04  0.11882960206E+04  0.00000000000E+00 0.  1.
         -1   -1    0    0    0  501 -0.00000000000E+00 -0.00000000000E+00 -0.17454965218E+04  0.17454965218E+04  0.00000000000E+00 0. -1.
    9000010    2    1    2  502    0  0.80807492966E+03  0.18911223416E+03 -0.88840557084E+03  0.15994715419E+04  0.10393729965E+04 0.  0.
   -9000010    2    1    2    0  501 -0.80807492966E+03 -0.18911223416E+03  0.33120506967E+03  0.13343210006E+04  0.99094258430E+03 0.  0.
        -13    1    3    3    0    0  0.71742820468E+03 -0.27435111638E+03 -0.25483908251E+03  0.80926802301E+03  0.10566000000E+00 0.  1.
         13    1    4    4    0    0 -0.44618851109E+03 -0.33918104270E+03  0.62880856019E+03  0.84233495932E+03  0.10566000000E+00 0. -1.
          4    1    3    3  502    0  0.90646724976E+02  0.46346335055E+03 -0.63356648834E+03  0.79020351884E+03  0.00000000000E+00 0.  1.
         -4    1    4    4    0  501 -0.36188641857E+03  0.15006880854E+03 -0.29760349051E+03  0.49198604127E+03  0.00000000000E+00 0. -1.
</event>
<event>
 8    1  0.7446554E-006  0.1185092E+04  0.7818608E-02  0.8617873E-01
         -2   -1    0    0    0  501 -0.00000000000E+00  0.00000000000E+00  0.14119328636E+04  0.14119328636E+04  0.00000000000E+00 0. -1.
          2   -1    0    0  502    0  0.00000000000E+00 -0.00000000000E+00 -0.10115904861E+04  0.10115904861E+04  0.00000000000E+00 0.  1.
    9000010    2    1    2  502    0 -0.90913903640E+02  0.50506982511E+03  0.60406497113E+02  0.12375383216E+04  0.11244960144E+04 0.  0.
   -9000010    2    1    2    0  501  0.90913903640E+02 -0.50506982511E+03  0.33993588037E+03  0.11859850282E+04  0.10137273885E+04 0.  0.
        -13    1    3    3    0    0 -0.49265556454E+03  0.59534742087E+03 -0.13046583691E+03  0.78368960857E+03  0.10566000000E+00 0.  1.
         13    1    4    4    0    0  0.47568281179E+03  0.53392079179E+01  0.32825955361E+02  0.47684399868E+03  0.10566000000E+00 0. -1.
          4    1    3    3  502    0  0.40174166090E+03 -0.90277595761E+02  0.19087233402E+03  0.45384871300E+03  0.00000000000E+00 0.  1.
         -4    1    4    4    0  501 -0.38476890815E+03 -0.51040903303E+03  0.30710992501E+03  0.70914102950E+03  0.00000000000E+00 0. -1.
</event>
<event>
 8    1  0.7446554E-006  0.1182007E+04  0.7818608E-02  0.8620236E-01
          2   -1    0    0  502    0  0.00000000000E+00  0.00000000000E+00  0.25236410691E+04  0.25236410691E+04  0.00000000000E+00 0.  1.
         -2   -1    0    0    0  501 -0.00000000000E+00 -0.00000000000E+00 -0.63580274020E+03  0.63580274020E+03  0.00000000000E+00 0. -1.
    9000010    2    1    2  502    0  0.30573997031E+03  0.55746199787E+03  0.37752678858E+03  0.12429544597E+04  0.99908383242E+03 0.  0.
   -9000010    2    1    2    0  501 -0.30573997031E+03 -0.55746199787E+03  0.15103115404E+04  0.19164893497E+04  0.99380564999E+03 0.  0.
        -13    1    3    3    0    0  0.57934580391E+03  0.44762512585E+03  0.53681807971E+03  0.90784551310E+03  0.10566000000E+00 0.  1.
         13    1    4    4    0    0  0.33582161187E+03 -0.18640891198E+02  0.52036505951E+03  0.61959942233E+03  0.10566000000E+00 0. -1.
          4    1    3    3  502    0 -0.27360583360E+03  0.10983687202E+03 -0.15929129113E+03  0.33510894656E+03  0.00000000000E+00 0.  1.
         -4    1    4    4    0  501 -0.64156158217E+03 -0.53882110667E+03  0.98994648086E+03  0.12968899274E+04  0.00000000000E+00 0. -1.
</event>
<event>
 8    1  0.7446554E-006  0.1371952E+04  0.7818608E-02  0.8487231E-01
         -2   -1    0    0    0  501 -0.00000000000E+00  0.00000000000E+00  0.66922246185E+03  0.66922246185E+03  0.00000000000E+00 0.  1.
          2   -1    0    0  502    0  0.00000000000E+00 -0.00000000000E+00 -0.29821384188E+04  0.29821384188E+04  0.00000000000E+00 0. -1.
    9000010    2    1    2  502    0 -0.81307064103E+03 -0.49007663111E+03 -0.72430191703E+03  0.15548888502E+04  0.99589512388E+03 0.  0.
   -9000010    2    1    2    0  501  0.81307064103E+03  0.49007663111E+03 -0.15886140399E+04  0.20964720305E+04  0.98500834262E+03 0.  0.
        -13    1    3    3    0    0 -0.80769457095E+03 -0.66918947075E+03 -0.29485006512E+03  0.10895511185E+04  0.10566000000E+00 0.  1.
         13    1    4    4    0    0 -0.15947899314E+03  0.33657546876E+03 -0.56033814690E+03  0.67282646013E+03  0.10566000000E+00 0. -1.
          4    1    3    3  502    0 -0.53760700814E+01  0.17911283964E+03 -0.42945185190E+03  0.46533773171E+03  0.00000000000E+00 0.  1.
         -4    1    4    4    0  501  0.97254963416E+03  0.15350116235E+03 -0.10282758930E+04  0.14236455703E+04  0.00000000000E+00 0. -1.
</event>
<event>
 8    1  0.7446554E-006  0.1390703E+04  0.7818608E-02  0.8475316E-01
          1   -1    0    0  502    0  0.00000000000E+00  0.00000000000E+00  0.11438507455E+04  0.11438507455E+04  0.00000000000E+00 0. -1.
         -1   -1    0    0    0  501 -0.00000000000E+00 -0.00000000000E+00 -0.28557187905E+04  0.28557187905E+04  0.00000000000E+00 0.  1.
    9000010    2    1    2  502    0  0.76300540512E+03  0.55651231178E+03  0.42491858201E+03  0.14445112919E+04  0.10070619989E+04 0.  0.
   -9000010    2    1    2    0  501 -0.76300540512E+03 -0.55651231178E+03 -0.21367866270E+04  0.25550582442E+04  0.10346894899E+04 0.  0.
        -13    1    3    3    0    0 -0.21198428731E+03  0.25953206499E+03  0.23100909684E+03  0.40701283126E+03  0.10566000000E+00 0.  1.
         13    1    4    4    0    0 -0.39096399008E+02 -0.65842191265E+03 -0.86021837755E+03  0.10839850607E+04  0.10566000000E+00 0. -1.
          4    1    3    3  502    0  0.97498969243E+03  0.29698024680E+03  0.19390948517E+03  0.10374984606E+04  0.00000000000E+00 0.  1.
         -4    1    4    4    0  501 -0.72390900611E+03  0.10190960086E+03 -0.12765682494E+04  0.14710731835E+04  0.00000000000E+00 0. -1.
</event>
<event>
 8    1  0.7446554E-006  0.1154154E+04  0.7818608E-02  0.8641909E-01
         -2   -1    0    0    0  501 -0.00000000000E+00  0.00000000000E+00  0.53103196208E+03  0.53103196208E+03  0.00000000000E+00 0.  1.
          2   -1    0    0  502    0  0.00000000000E+00 -0.00000000000E+00 -0.25651564133E+04  0.25651564133E+04  0.00000000000E+00 0. -1.
    9000010    2    1    2  502    0  0.12698909947E+03  0.57118095539E+03 -0.12537829550E+04  0.17095035889E+04  0.10040203719E+04 0.  0.
   -9000010    2    1    2    0  501 -0.12698909947E+03 -0.57118095539E+03 -0.78034149620E+03  0.13866847864E+04  0.98569160036E+03 0.  0.
        -13    1    3    3    0    0 -0.41747882012E+03  0.38208315034E+03 -0.77838315992E+03  0.96237022701E+03  0.10566000000E+00 0.  1.
         13    1    4    4    0    0  0.33743857428E+03 -0.43387569142E+03 -0.11138166424E+03  0.56081975118E+03  0.10566000000E+00 0. -1.
          4    1    3    3  502    0  0.54446791959E+03  0.18909780505E+03 -0.47539979510E+03  0.74713336194E+03  0.00000000000E+00 0.  1.
         -4    1    4    4    0  501 -0.46442767375E+03 -0.13730526397E+03 -0.66895983196E+03  0.82586503525E+03  0.00000000000E+00 0. -1.
</event>
<event>
 8    1  0.7446554E-006  0.1662634E+04  0.7818608E-02  0.8321595E-01
         -2   -1    0    0    0  501 -0.00000000000E+00  0.00000000000E+00  0.51976297625E+03  0.51976297625E+03  0.00000000000E+00 0.  1.
          2   -1    0    0  502    0  0.00000000000E+00 -0.00000000000E+00 -0.54147130476E+04  0.54147130476E+04  0.00000000000E+00 0. -1.
    9000010    2    1    2  502    0  0.75509792933E+01 -0.13277405743E+04 -0.20471948600E+04  0.26352304069E+04  0.99522884445E+03 0.  0.
   -9000010    2    1    2    0  501 -0.75509792933E+01  0.13277405743E+04 -0.28477552114E+04  0.32992456170E+04  0.10061609449E+04 0.  0.
        -13    1    3    3    0    0  0.22221424377E+03 -0.24807340313E+03 -0.12022766586E+04  0.12475531084E+04  0.10566000000E+00 0.  1.
         13    1    4    4    0    0  0.43753116990E+03  0.26989599206E+03 -0.99176033497E+03  0.11170792024E+04  0.10566000000E+00 0. -1.
          4    1    3    3  502    0 -0.21466326448E+03 -0.10796671712E+04 -0.84491820142E+03  0.13876772985E+04  0.00000000000E+00 0.  1.
         -4    1    4    4    0  501 -0.44508214919E+03  0.10578445822E+04 -0.18559948764E+04  0.21821664146E+04  0.00000000000E+00 0. -1.
</event>
<event>
 8    1  0.7446554E-006  0.1096652E+04  0.7818608E-02  0.8688735E-01
          2   -1    0    0  502    0  0.00000000000E+00  0.00000000000E+00  0.36722643237E+04  0.36722643237E+04  0.00000000000E+00 0.  1.
         -2   -1    0    0    0  501 -0.00000000000E+00 -0.00000000000E+00 -0.35746250862E+03  0.35746250862E+03  0.00000000000E+00 0. -1.
    9000010    2    1    2  502    0  0.31581867743E+03  0.32036997661E+03  0.22432391090E+04  0.24977303030E+04  0.10020761487E+04 0.  0.
   -9000010    2    1    2    0  501 -0.31581867743E+03 -0.32036997661E+03  0.10715627062E+04  0.15319965293E+04  0.99819255340E+03 0.  0.
        -13    1    3    3    0    0 -0.12320814138E+03  0.57120503808E+03  0.13555946429E+04  0.14761748842E+04  0.10566000000E+00 0.  1.
         13    1    4    4    0    0 -0.67683952219E+03 -0.25484610778E+03  0.64209486845E+03  0.96713189830E+03  0.10566000000E+00 0. -1.
          4    1    3    3  502    0  0.43902681880E+03 -0.25083506147E+03  0.88764446603E+03  0.10215554188E+04  0.00000000000E+00 0.  1.
         -4    1    4    4    0  501  0.36102084477E+03 -0.65523868828E+02  0.42946783770E+03  0.56486463101E+03  0.00000000000E+00 0. -1.
</event>
<event>
 8    1  0.7446554E-006  0.1826249E+04  0.7818608E-02  0.8243054E-01
          2   -1    0    0  502    0  0.00000000000E+00  0.00000000000E+00  0.37415975360E+04  0.37415975360E+04  0.00000000000E+00 0. -1.
         -2   -1    0    0    0  501 -0.00000000000E+00 -0.00000000000E+00 -0.98747329983E+03  0.98747329983E+03  0.00000000000E+00 0.  1.
    9000010    2    1    2  502    0  0.60579171933E+03 -0.13958779773E+04  0.21098204401E+04  0.27858352690E+04  0.99703406243E+03 0.  0.
   -9000010    2    1    2    0  501 -0.60579171933E+03  0.13958779773E+04  0.64430379607E+03  0.19432355668E+04  0.10225351592E+04 0.  0.
        -13    1    3    3    0    0  0.59669993489E+03 -0.23400956095E+03  0.57694049801E+03  0.86236398135E+03  0.10566000000E+00 0.  1.
         13    1    4    4    0    0 -0.46623192797E+03  0.20589022897E+03 -0.11799317197E+03  0.52314949760E+03  0.10566000000E+00 0. -1.
          4    1    3    3  502    0  0.90917844439E+01 -0.11618684164E+04  0.15328799421E+04  0.19234712876E+04  0.00000000000E+00 0.  1.
         -4    1    4    4    0  501 -0.13955979137E+03  0.11899877483E+04  0.76229696804E+03  0.14200860692E+04  0.00000000000E+00 0. -1.
</event>
<event>
 8    1  0.7446554E-006  0.1292785E+04  0.7818608E-02  0.8539787E-01
          2   -1    0    0  502    0  0.00000000000E+00  0.00000000000E+00  0.25491283509E+04  0.25491283509E+04  0.00000000000E+00 0. -1.
         -2   -1    0    0    0  501 -0.00000000000E+00 -0.00000000000E+00 -0.66816549047E+03  0.66816549047E+03  0.00000000000E+00 0.  1.
    9000010    2    1    2  502    0  0.76616753822E+03  0.31307406387E+03  0.11556383297E+04  0.17288281134E+04  0.98403182391E+03 0.  0.
   -9000010    2    1    2    0  501 -0.76616753822E+03 -0.31307406387E+03  0.72532453071E+03  0.14884657280E+04  0.10022008194E+04 0.  0.
        -13    1    3    3    0    0  0.97115286858E+03  0.88975133854E+02  0.95420510729E+03  0.13643906576E+04  0.10566000000E+00 0.  1.
         13    1    4    4    0    0 -0.29704915322E+03 -0.23424409028E+03  0.90428205055E+03  0.98022167461E+03  0.10566000000E+00 0. -1.
          4    1    3    3  502    0 -0.20498533036E+03  0.22409893002E+03  0.20143322246E+03  0.36443745582E+03  0.00000000000E+00 0.  1.
         -4    1    4    4    0  501 -0.46911838501E+03 -0.78829973592E+02 -0.17895751984E+03  0.50824405338E+03  0.00000000000E+00 0. -1.
</event>
<event>
 8    1  0.7446554E-006  0.1494065E+04  0.7818608E-02  0.8412923E-01
         -1   -1    0    0    0  501 -0.00000000000E+00  0.00000000000E+00  0.16454409271E+04  0.16454409271E+04  0.00000000000E+00 0. -1.
          1   -1    0    0  502    0  0.00000000000E+00 -0.00000000000E+00 -0.13681787435E+04  0.13681787435E+04  0.00000000000E+00 0.  1.
    9000010    2    1    2  502    0 -0.90356048874E+03 -0.60131941004E+03  0.50560671228E+01  0.15205091021E+04  0.10648548145E+04 0.  0.
   -9000010    2    1    2    0  501  0.90356048874E+03  0.60131941004E+03  0.27220611647E+03  0.14931105686E+04  0.98857291610E+03 0.  0.
        -13    1    3    3    0    0  0.75234916985E+02  0.12588707028E+03 -0.23569506450E+03  0.27759686920E+03  0.10566000000E+00 0.  1.
         13    1    4    4    0    0  0.44866337075E+01  0.38317075499E+03  0.40605268971E+03  0.55831779064E+03  0.10566000000E+00 0. -1.
          4    1    3    3  502    0 -0.97879540573E+03 -0.72720648031E+03  0.24075113162E+03  0.12429122329E+04  0.00000000000E+00 0.  1.
         -4    1    4    4    0  501  0.89907385503E+03  0.21814865504E+03 -0.13384657324E+03  0.93479277793E+03  0.00000000000E+00 0. -1.
</event>
<event>
 8    1  0.7446554E-006  0.1169544E+04  0.7818608E-02  0.8629856E-01
          1   -1    0    0  502    0  0.00000000000E+00  0.00000000000E+00  0.15832294751E+04  0.15832294751E+04  0.00000000000E+00 0.  1.
         -1   -1    0    0    0  501 -0.00000000000E+00 -0.00000000000E+00 -0.86949633458E+03  0.86949633458E+03  0.00000000000E+00 0. -1.
    9000010    2    1    2  502    0  0.35714798876E+03  0.50044001955E+03  0.25955301089E+03  0.11999458143E+04  0.99724986479E+03 0.  0.
   -9000010    2    1    2    0  501 -0.35714798876E+03 -0.50044001955E+03  0.45418012968E+03  0.12527799954E+04  0.99256396651E+03 0.  0.
        -13    1    3    3    0    0  0.53426366743E+03  0.82156574963E+02  0.45393618458E+03  0.70586502958E+03  0.10566000000E+00 0.  1.
         13    1    4    4    0    0 -0.20542896412E+03 -0.17594987641E+03  0.74423583508E+03  0.79186261920E+03  0.10566000000E+00 0. -1.
          4    1    3    3  502    0 -0.17711567867E+03  0.41828344459E+03 -0.19438317369E+03  0.49408078475E+03  0.00000000000E+00 0.  1.
         -4    1    4    4    0  501 -0.15171902464E+03 -0.32449014314E+03 -0.29005570540E+03  0.46091737619E+03  0.00000000000E+00 0. -1.
</event>
<event>
 8    1  0.7446554E-006  0.1289338E+04  0.7818608E-02  0.8542163E-01
         -1   -1    0    0    0  501 -0.00000000000E+00  0.00000000000E+00  0.10776690833E+04  0.10776690833E+04  0.00000000000E+00 0. -1.
          1   -1    0    0  502    0  0.00000000000E+00 -0.00000000000E+00 -0.15898641135E+04  0.15898641135E+04  0.00000000000E+00 0.  1.
    9000010    2    1    2  502    0  0.98470478920E+02  0.80955915120E+03 -0.48293462041E+03  0.13637019129E+04  0.98049712138E+03 0.  0.
   -9000010    2    1    2    0  501 -0.98470478920E+02 -0.80955915120E+03 -0.29260409853E+02  0.13038312839E+04  0.10168762909E+04 0.  0.
        -13    1    3    3    0    0 -0.12585983781E+03  0.57644945791E+03 -0.74288194534E+03  0.94868765786E+03  0.10566000000E+00 0.  1.
         13    1    4    4    0    0  0.41576410411E+03 -0.11682309919E+03  0.61939506359E+02  0.43628424265E+03  0.10566000000E+00 0. -1.
          4    1    3    3  502    0  0.22433031673E+03  0.23310969328E+03  0.25994732493E+03  0.41501425499E+03  0.00000000000E+00 0.  1.
         -4    1    4    4    0  501 -0.51423458303E+03 -0.69273605201E+03 -0.91199916212E+02  0.86754704129E+03  0.00000000000E+00 0. -1.
</event>
<event>
 8    1  0.7446554E-006  0.1352912E+04  0.7818608E-02  0.8499531E-01
          2   -1    0    0  502    0  0.00000000000E+00  0.00000000000E+00  0.34032408595E+04  0.34032408595E+04  0.00000000000E+00 0. -1.
         -2   -1    0    0    0  501 -0.00000000000E+00 -0.00000000000E+00 -0.58370976140E+03  0.58370976140E+03  0.00000000000E+00 0.  1.
    9000010    2    1    2  502    0 -0.80860346595E+03  0.41931600937E+03  0.19664605223E+04  0.23856315227E+04  0.99729900002E+03 0.  0.
   -9000010    2    1    2    0  501  0.80860346595E+03 -0.41931600937E+03  0.85307057580E+03  0.16013190982E+04  0.10034081752E+04 0.  0.
        -13    1    3    3    0    0 -0.79706118648E+03 -0.72100498577E+02  0.15370817630E+04  0.17329527905E+04  0.10566000000E+00 0.  1.
         13    1    4    4    0    0  0.46148658466E+03 -0.63810906461E+02  0.98294602037E+03  0.10877612742E+04  0.10566000000E+00 0. -1.
          4    1    3    3  502    0 -0.11542279467E+02  0.49141650795E+03  0.42937875937E+03  0.65267873223E+03  0.00000000000E+00 0.  1.
         -4    1    4    4    0  501  0.34711688128E+03 -0.35550510291E+03 -0.12987544456E+03  0.51355782398E+03  0.00000000000E+00 0. -1.
</event>
<event>
 8    1  0.7446554E-006  0.1462258E+04  0.7818608E-02  0.8431557E-01
          2   -1    0    0  502    0  0.00000000000E+00  0.00000000000E+00  0.26261106972E+04  0.26261106972E+04  0.00000000000E+00 0. -1.
         -2   -1    0    0    0  501 -0.00000000000E+00 -0.00000000000E+00 -0.89070451262E+03  0.89070451262E+03  0.00000000000E+00 0.  1.
    9000010    2    1    2  502    0 -0.38917326154E+03  0.99164461713E+03  0.13822892764E+04  0.20112152320E+04  0.99972405768E+03 0.  0.
   -9000010    2    1    2    0  501  0.38917326154E+03 -0.99164461713E+03  0.35311690824E+03  0.15055999779E+04  0.10036557519E+04 0.  0.
        -13    1    3    3    0    0 -0.66731901870E+03  0.34787850672E+03  0.81407220804E+03  0.11086242372E+04  0.10566000000E+00 0.  1.
         13    1    4    4    0    0 -0.22506708181E+03 -0.30743139266E+03  0.43998566003E+03  0.58202804460E+03  0.10566000000E+00 0. -1.
          4    1    3    3  502    0  0.27814575716E+03  0.64376611041E+03  0.56821706833E+03  0.90259099479E+03  0.00000000000E+00 0.  1.
         -4    1    4    4    0  501  0.61424034335E+03 -0.68421322447E+03 -0.86868751787E+02  0.92357193330E+03  0.00000000000E+00 0. -1.
</event>
<event>
 8    1  0.7446554E-006  0.1698051E+04  0.7818608E-02  0.8303827E-01
          2   -1    0    0  502    0  0.00000000000E+00  0.00000000000E+00  0.25220882709E+04  0.25220882709E+04  0.00000000000E+00 0.  1.
         -2   -1    0    0    0  501 -0.00000000000E+00 -0.00000000000E+00 -0.12550237103E+04  0.12550237103E+04  0.00000000000E+00 0. -1.
    9000010    2    1    2  502    0  0.26650255052E+03  0.13440606058E+04  0.73870753680E+02  0.17108807688E+04  0.10218285546E+04 0.  0.
   -9000010    2    1    2    0  501 -0.26650255052E+03 -0.13440606058E+04  0.11931938070E+04  0.20662312124E+04  0.98390926430E+03 0.  0.
        -13    1    3    3    0    0  0.59122454213E+03  0.84586274264E+03  0.29989639057E+03  0.10746944193E+04  0.10566000000E+00 0.  1.
         13    1    4    4    0    0 -0.27168286036E+02 -0.65343095187E+03 -0.14976383260E+02  0.65416697245E+03  0.10566000000E+00 0. -1.
          4    1    3    3  502    0 -0.32472199161E+03  0.49819786321E+03 -0.22602563689E+03  0.63618634949E+03  0.00000000000E+00 0.  1.
         -4    1    4    4    0  501 -0.23933426449E+03 -0.69062965398E+03  0.12081701902E+04  0.14120642399E+04  0.00000000000E+00 0. -1.
</event>
<event>
 8    1  0.7446554E-006  0.1032187E+04  0.7818608E-02  0.8744924E-01
         -1   -1    0    0    0  501 -0.00000000000E+00  0.00000000000E+00  0.10566536548E+04  0.10566536548E+04  0.00000000000E+00 0.  1.
          1   -1    0    0  502    0  0.00000000000E+00 -0.00000000000E+00 -0.10852812919E+04  0.10852812919E+04  0.00000000000E+00 0. -1.
    9000010    2    1    2  502    0  0.21854838549E+03  0.34263625651E+03  0.26636803316E+03  0.11115309161E+04  0.99969297656E+03 0.  0.
   -9000010    2    1    2    0  501 -0.21854838549E+03 -0.34263625651E+03 -0.29499567024E+03  0.10304040305E+04  0.89974830901E+03 0.  0.
        -13    1    3    3    0    0 -0.11576383458E+03  0.19250962836E+03  0.58453554799E+03  0.62621325476E+03  0.10566000000E+00 0.  1.
         13    1    4    4    0    0 -0.43928530333E+03 -0.17407159805E+03  0.15869222468E+03  0.49845334015E+03  0.10566000000E+00 0. -1.
          4    1    3    3  502    0  0.33431222007E+03  0.15012662815E+03 -0.31816751483E+03  0.48531766139E+03  0.00000000000E+00 0.  1.
         -4    1    4    4    0  501  0.22073691784E+03 -0.16856465846E+03 -0.45368789492E+03  0.53195069036E+03  0.00000000000E+00 0. -1.
</event>
<event>
 8    1  0.7446554E-006  0.1666833E+04  0.7818608E-02  0.8319465E-01
         -1   -1    0    0    0  501 -0.00000000000E+00  0.00000000000E+00  0.16334678111E+04  0.16334678111E+04  0.00000000000E+00 0. -1.
          1   -1    0    0  502    0  0.00000000000E+00 -0.00000000000E+00 -0.17457932501E+04  0.17457932501E+04  0.00000000000E+00 0.  1.
    9000010    2    1    2  502    0 -0.12074873294E+04 -0.58480488039E+03  0.21444834366E+03  0.16887218811E+04  0.10028813993E+04 0.  0.
   -9000010    2    1    2    0  501  0.12074873294E+04  0.58480488039E+03 -0.32677378268E+03  0.16905391801E+04  0.97525341109E+03 0.  0.
        -13    1    3    3    0    0 -0.38331199629E+03 -0.66027962004E+03 -0.16043575666E+03  0.78015184825E+03  0.10566000000E+00 0.  1.
         13    1    4    4    0    0  0.32583325210E+03  0.37034485210E+03  0.30948669485E+03  0.58232692116E+03  0.10566000000E+00 0. -1.
          4    1    3    3  502    0 -0.82417533307E+03  0.75474739652E+02  0.37488410032E+03  0.90857003288E+03  0.00000000000E+00 0.  1.
         -4    1    4    4    0  501  0.88165407726E+03  0.21446002829E+03 -0.63626047753E+03  0.11082122590E+04  0.00000000000E+00 0. -1.
</event>
<event>
 8    1  0.7446554E-006  0.1791864E+04  0.7818608E-02  0.8258840E-01
         -2   -1    0    0    0  501 -0.00000000000E+00  0.00000000000E+00  0.36588232019E+04  0.36588232019E+04  0.00000000000E+00 0.  1.
          2   -1    0    0  502    0  0.00000000000E+00 -0.00000000000E+00 -0.88159891642E+03  0.88159891642E+03  0.00000000000E+00 0. -1.
    9000010    2    1    2  502    0  0.45956975474E+03  0.14094193625E+04  0.15400766894E+04  0.23603341783E+04  0.10008366127E+04 0.  0.
   -9000010    2    1    2    0  501 -0.45956975474E+03 -0.14094193625E+04  0.12371475961E+04  0.21800879400E+04  0.10122163566E+04 0.  0.
        -13    1    3    3    0    0  0.51806709662E+02  0.57740386422E+03  0.19933795661E+02  0.58006596604E+03  0.10566000000E+00 0.  1.
         13    1    4    4    0    0 -0.65122526347E+03 -0.44762117112E+03  0.37670314653E+03  0.87542237142E+03  0.10566000000E+00 0. -1.
          4    1    3    3  502    0  0.40776304508E+03  0.83201549830E+03  0.15201428937E+04  0.17802682123E+04  0.00000000000E+00 0.  1.
         -4    1    4    4    0  501  0.19165550873E+03 -0.96179819140E+03  0.86044444953E+03  0.13046655685E+04  0.00000000000E+00 0. -1.
</event>
<event>
 8    1  0.7446554E-006  0.1040599E+04  0.7818608E-02  0.8737353E-01
          2   -1    0    0  502    0  0.00000000000E+00  0.00000000000E+00  0.11111458580E+04  0.11111458580E+04  0.00000000000E+00 0. -1.
         -2   -1    0    0    0  501 -0.00000000000E+00 -0.00000000000E+00 -0.97624808631E+03  0.97624808631E+03  0.00000000000E+00 0.  1.
    9000010    2    1    2  502    0 -0.13186417209E+03 -0.23227815699E+03  0.10622470397E+03  0.10283614627E+04  0.98737141352E+03 0.  0.
   -9000010    2    1    2    0  501  0.13186417209E+03  0.23227815699E+03  0.28673067740E+02  0.10590324816E+04  0.10243956024E+04 0.  0.
        -13    1    3    3    0    0 -0.38620692554E+03 -0.40362203057E+03 -0.20155352762E+03  0.59387740196E+03  0.10566000000E+00 0.  1.
         13    1    4    4    0    0 -0.33815956230E+03  0.43131425966E+03  0.23526915405E+02  0.54857762174E+03  0.10566000000E+00 0. -1.
          4    1    3    3  502    0  0.25434275345E+03  0.17134387358E+03  0.30777823158E+03  0.43448406079E+03  0.00000000000E+00 0.  1.
         -4    1    4    4    0  501  0.47002373439E+03 -0.19903610267E+03  0.51461523354E+01  0.51045485984E+03  0.00000000000E+00 0. -1.
</event>
<event>
 8    1  0.7446554E-006  0.1181855E+04  0.7818608E-02  0.8620353E-01
         -2   -1    0    0    0  501 -0.00000000000E+00  0.00000000000E+00  0.10006494000E+04  0.10006494000E+04  0.00000000000E+00 0. -1.
          2   -1    0    0  502    0  0.00000000000E+00 -0.00000000000E+00 -0.18562940414E+04  0.18562940414E+04  0.00000000000E+00 0.  1.
    9000010    2    1    2  502    0  0.31458725424E+03  0.48440769617E+03 -0.11436523728E+04  0.16571403752E+04  0.10509793131E+04 0.  0.
   -9000010    2    1    2    0  501 -0.31458725424E+03 -0.48440769617E+03  0.28800773143E+03  0.11998030663E+04  0.10114163276E+04 0.  0.
        -13    1    3    3    0    0  0.56711198162E+03  0.61110014970E+03 -0.54742712565E+03  0.99736445783E+03  0.10566000000E+00 0.  1.
         13    1    4    4    0    0 -0.35090043009E+03 -0.77915803200E+02 -0.31077651514E+03  0.47516737867E+03  0.10566000000E+00 0. -1.
          4    1    3    3  502    0 -0.25252472738E+03 -0.12669245354E+03 -0.59622524717E+03  0.65977591733E+03  0.00000000000E+00 0.  1.
         -4    1    4    4    0  501  0.36313175852E+02 -0.40649189297E+03  0.59878424657E+03  0.72463568759E+03  0.00000000000E+00 0. -1.
</event>
<event>
 8    1  0.7446554E-006  0.1216469E+04  0.7818608E-02  0.8594263E-01
          1   -1    0    0  502    0  0.00000000000E+00  0.00000000000E+00  0.14217044695E+04  0.14217044695E+04  0.00000000000E+00 0.  1.
         -1   -1    0    0    0  501 -0.00000000000E+00 -0.00000000000E+00 -0.14859965692E+04  0.14859965692E+04  0.00000000000E+00 0. -1.
    9000010    2    1    2  502    0  0.63633078575E+03  0.10790360721E+03 -0.82683751499E+03  0.14498158604E+04  0.10008724672E+04 0.  0.
   -9000010    2    1    2    0  501 -0.63633078575E+03 -0.10790360721E+03  0.76254541539E+03  0.14578851783E+04  0.10617879380E+04 0.  0.
        -13    1    3    3    0    0  0.83008836026E+03  0.29864359161E+03 -0.46504159649E+03  0.99724539521E+03  0.10566000000E+00 0.  1.
         13    1    4    4    0    0 -0.50973353728E+03 -0.47348117027E+03  0.11727743965E+03  0.70552583698E+03  0.10566000000E+00 0. -1.
          4    1    3    3  502    0 -0.19375757451E+03 -0.19073998440E+03 -0.36179591850E+03  0.45257046520E+03  0.00000000000E+00 0.  1.
         -4    1    4    4    0  501 -0.12659724847E+03  0.36557756306E+03  0.64526797574E+03  0.75235934130E+03  0.00000000000E+00 0. -1.
</event>
<event>
 8    1  0.7446554E-006  0.1402462E+04  0.7818608E-02  0.8467942E-01
          2   -1    0    0  502    0  0.00000000000E+00  0.00000000000E+00  0.97726672725E+03  0.97726672725E+03  0.00000000000E+00 0. -1.
         -2   -1    0    0    0  501 -0.00000000000E+00 -0.00000000000E+00 -0.23469131643E+04  0.23469131643E+04  0.00000000000E+00 0.  1.
    9000010    2    1    2  502    0 -0.91458485293E+03 -0.47603020185E+03 -0.49449998545E+02  0.13830282239E+04  0.92046268768E+03 0.  0.
   -9000010    2    1    2    0  501  0.91458485293E+03  0.47603020185E+03 -0.13201964385E+04  0.19411516677E+04  0.98085725485E+03 0.  0.
        -13    1    3    3    0    0  0.36756699432E+02 -0.21977215357E+03 -0.29301785248E+03  0.36811727408E+03  0.10566000000E+00 0.  1.
         13    1    4    4    0    0  0.27679136576E+03 -0.21880588078E+03 -0.45937883300E+02  0.35580861978E+03  0.10566000000E+00 0. -1.
          4    1    3    3  502    0 -0.95134155236E+03 -0.25625804828E+03  0.24356785394E+03  0.10149109498E+04  0.00000000000E+00 0.  1.
         -4    1    4    4    0  501  0.63779348717E+03  0.69483608263E+03 -0.12742585552E+04  0.15853430479E+04  0.00000000000E+00 0. -1.
</event>
<event>
 8    1  0.7446554E-006  0.1413625E+04  0.7818608E-02  0.8461010E-01
         -1   -1    0    0    0  501 -0.00000000000E+00  0.00000000000E+00  0.93655901574E+03  0.93655901574E+03  0.00000000000E+00 0. -1.
          1   -1    0    0  502    0  0.00000000000E+00 -0.00000000000E+00 -0.25623889453E+04  0.25623889453E+04  0.00000000000E+00 0.  1.
    9000010    2    1    2  502    0 -0.94546275294E+03 -0.32083068107E+03 -0.15280499175E+04  0.20810268782E+04  0.99945193697E+03 0.  0.
   -9000010    2    1    2    0  501  0.94546275294E+03  0.32083068107E+03 -0.97780012103E+02  0.14179210829E+04  0.10020514575E+04 0.  0.
        -13    1    3    3    0    0 -0.11062327362E+04 -0.24144275953E+03 -0.95713169195E+03  0.14826147712E+04  0.10566000000E+00 0.  1.
         13    1    4    4    0    0 -0.90878144201E+02 -0.89741329190E+02  0.22386570360E+03  0.25773670222E+03  0.10566000000E+00 0. -1.
          4    1    3    3  502    0  0.16076998325E+03 -0.79387921536E+02 -0.57091822554E+03  0.59841210704E+03  0.00000000000E+00 0.  1.
         -4    1    4    4    0  501  0.10363408971E+04  0.41057201026E+03 -0.32164571570E+03  0.11601843807E+04  0.00000000000E+00 0. -1.
</event>
<event>
 8    1  0.7446554E-006  0.1188887E+04  0.7818608E-02  0.8614978E-01
         -2   -1    0    0    0  501 -0.00000000000E+00  0.00000000000E+00  0.83630630056E+03  0.83630630056E+03  0.00000000000E+00 0. -1.
          2   -1    0    0  502    0  0.00000000000E+00 -0.00000000000E+00 -0.17084246462E+04  0.17084246462E+04  0.00000000000E+00 0.  1.
    9000010    2    1    2  502    0 -0.38143781898E+03  0.56587517762E+03 -0.30074948352E+03  0.12152871345E+04  0.95956398480E+03 0.  0.
   -9000010    2    1    2    0  501  0.38143781898E+03 -0.56587517762E+03 -0.57136886217E+03  0.13294438124E+04  0.98754693416E+03 0.  0.
        -13    1    3    3    0    0 -0.22945825031E+03  0.72897500872E+03  0.85822557014E+02  0.76903912412E+03  0.10566000000E+00 0.  1.
         13    1    4    4    0    0  0.69696242580E+03 -0.22044403524E+03 -0.38129273706E+03  0.82446125328E+03  0.10566000000E+00 0. -1.
          4    1    3    3  502    0 -0.15197956867E+03 -0.16309983110E+03 -0.38657204054E+03  0.44624801033E+03  0.00000000000E+00 0.  1.
         -4    1    4    4    0  501 -0.31552460683E+03 -0.34543114238E+03 -0.19007612510E+03  0.50498255908E+03  0.00000000000E+00 0. -1.
</event>
<event>
 8    1  0.7446554E-006  0.1502119E+04  0.7818608E-02  0.8408281E-01
         -2   -1    0    0    0  501 -0.00000000000E+00  0.00000000000E+00  0.83348742734E+03  0.83348742734E+03  0.00000000000E+00 0. -1.
          2   -1    0    0  502    0  0.00000000000E+00 -0.00000000000E+00 -0.28327059864E+04  0.28327059864E+04  0.00000000000E+00 0.  1.
    9000010    2    1    2  502    0  0.57107136299E+03 -0.96249999991E+03 -0.61344042132E+03  0.16222362353E+04  0.10014052632E+04 0.  0.
   -9000010    2    1    2    0  501 -0.57107136299E+03  0.96249999991E+03 -0.13857781377E+04  0.20439571784E+04  0.10024226398E+04 0.  0.
        -13    1    3    3    0    0  0.57178355956E+03 -0.20917366798E+03  0.59982818602E+02  0.61179082377E+03  0.10566000000E+00 0.  1.
         13    1    4    4    0    0 -0.35801297016E+03  0.37058553351E+02  0.49097873762E+01  0.35995935931E+03  0.10566000000E+00 0. -1.
          4    1    3    3  502    0 -0.71219656834E+00 -0.75332633193E+03 -0.67342323993E+03  0.10104454115E+04  0.00000000000E+00 0.  1.
         -4    1    4    4    0  501 -0.21305839283E+03  0.92544144656E+03 -0.13906879251E+04  0.16839978191E+04  0.00000000000E+00 0. -1.
</event>
<event>
 8    1  0.7446554E-006  0.1109305E+04  0.7818608E-02  0.8678178E-01
         -2   -1    0    0    0  501 -0.00000000000E+00  0.00000000000E+00  0.15654892678E+04  0.15654892678E+04  0.00000000000E+00 0.  1.
          2   -1    0    0  502    0  0.00000000000E+00 -0.00000000000E+00 -0.88657991873E+03  0.88657991873E+03  0.00000000000E+00 0. -1.
    9000010    2    1    2  502    0 -0.24979813160E+03  0.40907067540E+03 -0.74993406339E+02  0.11057514312E+04  0.99364193383E+03 0.  0.
   -9000010    2    1    2    0  501  0.24979813160E+03 -0.40907067540E+03  0.75390275541E+03  0.13463177553E+04  0.10072061406E+04 0.  0.
        -13    1    3    3    0    0  0.37128806925E+03  0.12956749561E+03 -0.14929079684E+03  0.42063085891E+03  0.10566000000E+00 0.  1.
         13    1    4    4    0    0 -0.16985089540E+03 -0.54871774187E+03  0.69262804821E+03  0.89981893248E+03  0.10566000000E+00 0. -1.
          4    1    3    3  502    0 -0.62108620084E+03  0.27950317979E+03  0.74297390501E+02  0.68512057233E+03  0.00000000000E+00 0.  1.
         -4    1    4    4    0  501  0.41964902700E+03  0.13964706648E+03  0.61274707204E+02  0.44649882282E+03  0.00000000000E+00 0. -1.
</event>
<event>
 8    1  0.7446554E-006  0.1036219E+04  0.7818608E-02  0.8741286E-01
          2   -1    0    0  502    0  0.00000000000E+00  0.00000000000E+00  0.17798282523E+04  0.17798282523E+04  0.00000000000E+00 0.  1.
         -2   -1    0    0    0  501 -0.00000000000E+00 -0.00000000000E+00 -0.60677530013E+03  0.60677530013E+03  0.00000000000E+00 0. -1.
    9000010    2    1    2  502    0 -0.13092922436E+03 -0.26533499816E+03  0.68253626399E+03  0.12505833274E+04  0.10052650318E+04 0.  0.
   -9000010    2    1    2    0  501  0.13092922436E+03  0.26533499816E+03  0.49051668815E+03  0.11360202250E+04  0.98101488629E+03 0.  0.
        -13    1    3    3    0    0  0.11556820054E+03  0.34055829388E+03  0.96529454151E+02  0.37236260176E+03  0.10566000000E+00 0.  1.
         13    1    4    4    0    0  0.78086153378E+02  0.41744062508E+03 -0.16904362055E+03  0.45708848118E+03  0.10566000000E+00 0. -1.
          4    1    3    3  502    0 -0.24649742490E+03 -0.60589329204E+03  0.58600680984E+03  0.87822072567E+03  0.00000000000E+00 0.  1.
         -4    1    4    4    0  501  0.52843070980E+02 -0.15210562692E+03  0.65956030871E+03  0.67893174378E+03  0.00000000000E+00 0. -1.
</event>
<event>
 8    1  0.7446554E-006  0.1719245E+04  0.7818608E-02  0.8293406E-01
          2   -1    0    0  502    0  0.00000000000E+00  0.00000000000E+00  0.29259830586E+04  0.29259830586E+04  0.00000000000E+00 0. -1.
         -2   -1    0    0    0  501 -0.00000000000E+00 -0.00000000000E+00 -0.10480132585E+04  0.10480132585E+04  0.00000000000E+00 0.  1.
    9000010    2    1    2  502    0 -0.54907992714E+03 -0.12884287569E+04  0.56308724657E+03  0.18119228567E+04  0.10022274010E+04 0.  0.
   -9000010    2    1    2    0  501  0.54907992714E+03  0.12884287569E+04  0.13148825536E+04  0.21620734604E+04  0.99202222278E+03 0.  0.
        -13    1    3    3    0    0 -0.56931426607E+03 -0.22443289467E+03  0.41041872045E+03  0.73683946353E+03  0.10566000000E+00 0.  1.
         13    1    4    4    0    0  0.70681433572E+03  0.13488096636E+04  0.12807278117E+04  0.19897582146E+04  0.10566000000E+00 0. -1.
          4    1    3    3  502    0  0.20234338927E+02 -0.10639958623E+04  0.15266852612E+03  0.10750833932E+04  0.00000000000E+00 0.  1.
         -4    1    4    4    0  501 -0.15773440858E+03 -0.60380906666E+02  0.34154741836E+02  0.17231524578E+03  0.00000000000E+00 0. -1.
</event>
<event>
 8    1  0.7446554E-006  0.1727958E+04  0.7818608E-02  0.8289167E-01
         -1   -1    0    0    0  501 -0.00000000000E+00  0.00000000000E+00  0.31804918240E+04  0.31804918240E+04  0.00000000000E+00 0.  1.
          1   -1    0    0  502    0  0.00000000000E+00 -0.00000000000E+00 -0.95397082676E+03  0.95397082676E+03  0.00000000000E+00 0. -1.
    9000010    2    1    2  502    0 -0.13206210198E+04  0.46145344636E+03  0.86323519311E+03  0.19457751733E+04  0.10410988740E+04 0.  0.
   -9000010    2    1    2    0  501  0.13206210198E+04 -0.46145344636E+03  0.13632858041E+04  0.21886874774E+04  0.98733253218E+03 0.  0.
        -13    1    3    3    0    0 -0.12295960550E+03 -0.24930436860E+03  0.38169822560E+03  0.47219199419E+03  0.10566000000E+00 0.  1.
         13    1    4    4    0    0  0.14219600312E+04 -0.22062634796E+03  0.12410671704E+04  0.19002352613E+04  0.10566000000E+00 0. -1.
          4    1    3    3  502    0 -0.11976614143E+04  0.71075781496E+03  0.48153696751E+03  0.14735831791E+04  0.00000000000E+00 0.  1.
         -4    1    4    4    0  501 -0.10133901141E+03 -0.24082709840E+03  0.12221863371E+03  0.28845221611E+03  0.00000000000E+00 0. -1.
</event>
<event>
 8    1  0.7817199E-006  0.1022657E+04  0.7818608E-02  0.8753590E-01
         -1   -1    0    0    0  501 -0.00000000000E+00  0.00000000000E+00  0.84505503357E+03  0.84505503357E+03  0.00000000000E+00 0.  1.
          1   -1    0    0  502    0  0.00000000000E+00 -0.00000000000E+00 -0.13891491946E+04  0.13891491946E+04  0.00000000000E+00 0. -1.
    9000010    2    1    2  502    0 -0.14864928398E+03  0.51868374391E+03  0.10450099956E+03  0.93294125518E+03  0.75387631007E+03 0.  0.
   -9000010    2    1    2    0  501  0.14864928398E+03 -0.51868374391E+03 -0.64859516055E+03  0.13012629729E+04  0.99069682883E+03 0.  0.
        -13    1    3    3    0    0 -0.91215152357E+02 -0.18128875694E+03  0.10949841131E+03  0.23059863541E+03  0.10566000000E+00 0.  1.
         13    1    4    4    0    0 -0.56894110174E+02 -0.58605932028E+03  0.29451305630E+02  0.58955055527E+03  0.10566000000E+00 0. -1.
          4    1    3    3  502    0 -0.57434131624E+02  0.69997250085E+03 -0.49974117448E+01  0.70234261977E+03  0.00000000000E+00 0.  1.
         -4    1    4    4    0  501  0.20554339416E+03  0.67375576365E+02 -0.67804646618E+03  0.71171241768E+03  0.00000000000E+00 0. -1.
</event>
<event>
 8    1  0.7446554E-006  0.1116082E+04  0.7818608E-02  0.8672584E-01
          2   -1    0    0  502    0  0.00000000000E+00  0.00000000000E+00  0.32472888908E+04  0.32472888908E+04  0.00000000000E+00 0.  1.
         -2   -1    0    0    0  501 -0.00000000000E+00 -0.00000000000E+00 -0.39667055079E+03  0.39667055079E+03  0.00000000000E+00 0. -1.
    9000010    2    1    2  502    0 -0.44502718643E+03 -0.25743962636E+03  0.17611202153E+04  0.20871927381E+04  0.99524105401E+03 0.  0.
   -9000010    2    1    2    0  501  0.44502718643E+03  0.25743962636E+03  0.10894981248E+04  0.15567667035E+04  0.98599799562E+03 0.  0.
        -13    1    3    3    0    0  0.26814497709E+03 -0.30283030864E+03  0.59275047189E+03  0.71760787179E+03  0.10566000000E+00 0.  1.
         13    1    4    4    0    0 -0.14229026234E+03 -0.22806447509E+03  0.59130153934E+02  0.27523864159E+03  0.10566000000E+00 0. -1.
          4    1    3    3  502    0 -0.71317216352E+03  0.45390682280E+02  0.11683697434E+04  0.13695848663E+04  0.00000000000E+00 0.  1.
         -4    1    4    4    0  501  0.58731744877E+03  0.48550410145E+03  0.10303679708E+04  0.12815280619E+04  0.00000000000E+00 0. -1.
</event>
<event>
 8    1  0.7446554E-006  0.1121827E+04  0.7818608E-02  0.8667874E-01
         -2   -1    0    0    0  501 -0.00000000000E+00  0.00000000000E+00  0.14837760973E+04  0.14837760973E+04  0.00000000000E+00 0.  1.
          2   -1    0    0  502    0  0.00000000000E+00 -0.00000000000E+00 -0.95178386551E+03  0.95178386551E+03  0.00000000000E+00 0. -1.
    9000010    2    1    2  502    0  0.25246543265E+03 -0.57957563707E+03 -0.12159166409E+03  0.11792248901E+04  0.98799802376E+03 0.  0.
   -9000010    2    1    2    0  501 -0.25246543265E+03  0.57957563707E+03  0.65358389589E+03  0.12563350727E+04  0.86692513641E+03 0.  0.
        -13    1    3    3    0    0  0.48562507248E+03  0.54674100774E+02  0.18767155018E+02  0.48905335659E+03  0.10566000000E+00 0.  1.
         13    1    4    4    0    0 -0.32907523620E+03  0.65143935090E+03  0.79562893090E+03  0.10796708507E+04  0.10566000000E+00 0. -1.
          4    1    3    3  502    0 -0.23315963983E+03 -0.63424973784E+03 -0.14035881911E+03  0.69017153354E+03  0.00000000000E+00 0.  1.
         -4    1    4    4    0  501  0.76609803556E+02 -0.71863713835E+02 -0.14204503500E+03  0.17666422200E+03  0.00000000000E+00 0. -1.
</event>
<event>
 8    1  0.7446554E-006  0.1079401E+04  0.7818608E-02  0.8703368E-01
          1   -1    0    0  502    0  0.00000000000E+00  0.00000000000E+00  0.19113331219E+04  0.19113331219E+04  0.00000000000E+00 0. -1.
         -1   -1    0    0    0  501 -0.00000000000E+00 -0.00000000000E+00 -0.73901292201E+03  0.73901292201E+03  0.00000000000E+00 0.  1.
    9000010    2    1    2  502    0  0.83731763447E+02  0.38998736269E+03  0.34441294497E+02  0.10862599681E+04  0.10097887721E+04 0.  0.
   -9000010    2    1    2    0  501 -0.83731763447E+02 -0.38998736269E+03  0.11378789054E+04  0.15640860758E+04  0.99624078309E+03 0.  0.
        -13    1    3    3    0    0  0.47801956597E+03  0.10844366232E+03 -0.22199217053E+03  0.53809224887E+03  0.10566000000E+00 0.  1.
         13    1    4    4    0    0 -0.30480695708E+03 -0.29164270197E+03  0.12337065420E+04  0.13038384063E+04  0.10566000000E+00 0. -1.
          4    1    3    3  502    0 -0.39428780253E+03  0.28154370036E+03  0.25643346503E+03  0.54816771924E+03  0.00000000000E+00 0.  1.
         -4    1    4    4    0  501  0.22107519364E+03 -0.98344660719E+02 -0.95827636647E+02  0.26024766950E+03  0.00000000000E+00 0. -1.
</event>
<event>
 8    1  0.7446554E-006  0.1124738E+04  0.7818608E-02  0.8665499E-01
          2   -1    0    0  502    0  0.00000000000E+00  0.00000000000E+00  0.45315861075E+04  0.45315861075E+04  0.00000000000E+00 0.  1.
         -2   -1    0    0    0  501 -0.00000000000E+00 -0.00000000000E+00 -0.49113280694E+03  0.49113280694E+03  0.00000000000E+00 0. -1.
    9000010    2    1    2  502    0 -0.45960386865E+03  0.22020402523E+03  0.37995291426E+03  0.11960283555E+04  0.10131110903E+04 0.  0.
   -9000010    2    1    2    0  501  0.45960386865E+03 -0.22020402523E+03  0.36605003863E+04  0.38266905590E+04  0.99225602892E+03 0.  0.
        -13    1    3    3    0    0 -0.20507052595E+03  0.25103354296E+03  0.70858699117E+03  0.77920940415E+03  0.10566000000E+00 0.  1.
         13    1    4    4    0    0  0.21998922597E+03 -0.55920001179E+03  0.13292697648E+04  0.14587864928E+04  0.10566000000E+00 0. -1.
          4    1    3    3  502    0 -0.25453334269E+03 -0.30829517736E+02 -0.32863407690E+03  0.41681895136E+03  0.00000000000E+00 0.  1.
         -4    1    4    4    0  501  0.23961464268E+03  0.33899598657E+03  0.23312306215E+04  0.23679040662E+04  0.00000000000E+00 0. -1.
</event>
<event>
 8    1  0.7446554E-006  0.1016926E+04  0.7818608E-02  0.8758849E-01
          1   -1    0    0  502    0  0.00000000000E+00  0.00000000000E+00  0.13736055039E+04  0.13736055039E+04  0.00000000000E+00 0.  1.
         -1   -1    0    0    0  501 -0.00000000000E+00 -0.00000000000E+00 -0.80602299021E+03  0.80602299021E+03  0.00000000000E+00 0. -1.
    9000010    2    1    2  502    0  0.34643094711E+03 -0.22593144069E+03 -0.11422160722E+01  0.99334183034E+03  0.90314299546E+03 0.  0.
   -9000010    2    1    2    0  501 -0.34643094711E+03  0.22593144069E+03  0.56872472971E+03  0.11862866637E+04  0.95538935170E+03 0.  0.
        -13    1    3    3    0    0 -0.24274069497E+03  0.51776990528E+02 -0.19291406593E+03  0.31435608749E+03  0.10566000000E+00 0.  1.
         13    1    4    4    0    0 -0.45613174068E+03 -0.10567140746E+03  0.67473723789E+03  0.82127520514E+03  0.10566000000E+00 0. -1.
          4    1    3    3  502    0  0.58917164208E+03 -0.27770843122E+03  0.19177184986E+03  0.67898574285E+03  0.00000000000E+00 0.  1.
         -4    1    4    4    0  501  0.10970079358E+03  0.33160284815E+03 -0.10601250818E+03  0.36501145859E+03  0.00000000000E+00 0. -1.
</event>
<event>
 8    1  0.7446554E-006  0.1013226E+04  0.7818608E-02  0.8762263E-01
          1   -1    0    0  502    0  0.00000000000E+00  0.00000000000E+00  0.97321301464E+03  0.97321301464E+03  0.00000000000E+00 0.  1.
         -1   -1    0    0    0  501 -0.00000000000E+00 -0.00000000000E+00 -0.11613208083E+04  0.11613208083E+04  0.00000000000E+00 0. -1.
    9000010    2    1    2  502    0  0.47290236836E+02 -0.24162812504E+03  0.23007450793E+03  0.10185024609E+04  0.96114123125E+03 0.  0.
   -9000010    2    1    2    0  501 -0.47290236836E+02  0.24162812504E+03 -0.41818230157E+03  0.11160313620E+04  0.10050020131E+04 0.  0.
        -13    1    3    3    0    0  0.17585260888E+03 -0.14541401625E+03  0.58554973428E+03  0.62844083146E+03  0.10566000000E+00 0.  1.
         13    1    4    4    0    0  0.85801694902E+02  0.45558992855E+03 -0.63320761507E+03  0.78477768112E+03  0.10566000000E+00 0. -1.
          4    1    3    3  502    0 -0.12856237204E+03 -0.96214108793E+02 -0.35547522635E+03  0.39006162947E+03  0.00000000000E+00 0.  1.
         -4    1    4    4    0  501 -0.13309193174E+03 -0.21396180351E+03  0.21502531349E+03  0.33125368088E+03  0.00000000000E+00 0. -1.
</event>
<event>
 8    1  0.7446554E-006  0.1233635E+04  0.7818608E-02  0.8581656E-01
          2   -1    0    0  502    0  0.00000000000E+00  0.00000000000E+00  0.13008446167E+04  0.13008446167E+04  0.00000000000E+00 0.  1.
         -2   -1    0    0    0  501 -0.00000000000E+00 -0.00000000000E+00 -0.17559390300E+04  0.17559390300E+04  0.00000000000E+00 0. -1.
    9000010    2    1    2  502    0 -0.50131092117E+03  0.48846518589E+03 -0.11119004149E+04  0.16699235242E+04  0.10307333150E+04 0.  0.
   -9000010    2    1    2    0  501  0.50131092117E+03 -0.48846518589E+03  0.65680600157E+03  0.13868601225E+04  0.10010374609E+04 0.  0.
        -13    1    3    3    0    0  0.17837937937E+03  0.51472837585E+03 -0.34491395670E+03  0.64477139560E+03  0.10566000000E+00 0.  1.
         13    1    4    4    0    0  0.60910525903E+03 -0.51509380016E+03  0.82544673916E+02  0.80196288811E+03  0.10566000000E+00 0. -1.
          4    1    3    3  502    0 -0.67969030054E+03 -0.26263189956E+02 -0.76698645819E+03  0.10251521286E+04  0.00000000000E+00 0.  1.
         -4    1    4    4    0  501 -0.10779433786E+03  0.26628614269E+02  0.57426132765E+03  0.58489723440E+03  0.00000000000E+00 0. -1.
</event>
<event>
 8    1  0.7446554E-006  0.1151432E+04  0.7818608E-02  0.8644061E-01
         -2   -1    0    0    0  501 -0.00000000000E+00  0.00000000000E+00  0.46054125173E+03  0.46054125173E+03  0.00000000000E+00 0. -1.
          2   -1    0    0  502    0  0.00000000000E+00 -0.00000000000E+00 -0.28879934189E+04  0.28879934189E+04  0.00000000000E+00 0.  1.
    9000010    2    1    2  502    0  0.47959518779E+03  0.30339990546E+03 -0.13082623140E+04  0.17427652013E+04  0.10018069763E+04 0.  0.
   -9000010    2    1    2    0  501 -0.47959518779E+03 -0.30339990546E+03 -0.11191898531E+04  0.16057694693E+04  0.10019214613E+04 0.  0.
        -13    1    3    3    0    0  0.30706053801E+03  0.61688623949E+03 -0.47789988166E+03  0.83858399372E+03  0.10566000000E+00 0.  1.
         13    1    4    4    0    0 -0.13714227638E+02  0.34597231361E+03 -0.41607513281E+03  0.54129793010E+03  0.10566000000E+00 0. -1.
          4    1    3    3  502    0  0.17253464978E+03 -0.31348633403E+03 -0.83036243237E+03  0.90418120755E+03  0.00000000000E+00 0.  1.
         -4    1    4    4    0  501 -0.46588096015E+03 -0.64937221907E+03 -0.70311472030E+03  0.10644715392E+04  0.00000000000E+00 0. -1.
</event>
<event>
 8    1  0.7446554E-006  0.1105225E+04  0.7818608E-02  0.8681566E-01
          2   -1    0    0  502    0  0.00000000000E+00  0.00000000000E+00  0.25449976468E+04  0.25449976468E+04  0.00000000000E+00 0.  1.
         -2   -1    0    0    0  501 -0.00000000000E+00 -0.00000000000E+00 -0.51672385665E+03  0.51672385665E+03  0.00000000000E+00 0. -1.
    9000010    2    1    2  502    0 -0.17192621325E+03  0.52527682679E+03  0.14562153325E+04  0.18564241418E+04  0.10100857053E+04 0.  0.
   -9000010    2    1    2    0  501  0.17192621325E+03 -0.52527682679E+03  0.57205845763E+03  0.12052973617E+04  0.90554761526E+03 0.  0.
        -13    1    3    3    0    0  0.16708321313E+02  0.29749784686E+02 -0.15577758285E+03  0.15947063734E+03  0.10566000000E+00 0.  1.
         13    1    4    4    0    0  0.93141476191E+02  0.43696251738E+02 -0.21065319697E+03  0.23443437794E+03  0.10566000000E+00 0. -1.
          4    1    3    3  502    0 -0.18863453456E+03  0.49552704211E+03  0.16119929154E+04  0.16969535045E+04  0.00000000000E+00 0.  1.
         -4    1    4    4    0  501  0.78784737059E+02 -0.56897307853E+03  0.78271165461E+03  0.97086298371E+03  0.00000000000E+00 0. -1.
</event>
<event>
 8    1  0.7446554E-006  0.1294690E+04  0.7818608E-02  0.8538478E-01
         -4   -1    0    0    0  501 -0.00000000000E+00  0.00000000000E+00  0.17069799201E+04  0.17069799201E+04  0.00000000000E+00 0. -1.
          4   -1    0    0  502    0  0.00000000000E+00 -0.00000000000E+00 -0.10970209177E+04  0.10970209177E+04  0.00000000000E+00 0.  1.
    9000010    2    1    2  502    0 -0.79487947553E+03  0.21784089090E+03 -0.15001277310E+03  0.12985959424E+04  0.99224974441E+03 0.  0.
   -9000010    2    1    2    0  501  0.79487947553E+03 -0.21784089090E+03  0.75997177551E+03  0.15054048953E+04  0.10046883919E+04 0.  0.
        -13    1    3    3    0    0  0.22634069153E+03 -0.46327112761E+02 -0.66739972082E+02  0.24047982256E+03  0.10566000000E+00 0.  1.
         13    1    4    4    0    0  0.27904359589E+03 -0.58632052406E+03  0.50302315290E+03  0.82138260808E+03  0.10566000000E+00 0. -1.
          4    1    3    3  502    0 -0.10212201671E+04  0.26416800366E+03 -0.83272801019E+02  0.10581161199E+04  0.00000000000E+00 0.  1.
         -4    1    4    4    0  501  0.51583587964E+03  0.36847963315E+03  0.25694862262E+03  0.68402228724E+03  0.00000000000E+00 0. -1.
</event>
<event>
 8    1  0.7446554E-006  0.1662199E+04  0.7818608E-02  0.8321817E-01
         -2   -1    0    0    0  501 -0.00000000000E+00  0.00000000000E+00  0.76177736368E+03  0.76177736368E+03  0.00000000000E+00 0. -1.
          2   -1    0    0  502    0  0.00000000000E+00 -0.00000000000E+00 -0.38053814592E+04  0.38053814592E+04  0.00000000000E+00 0.  1.
    9000010    2    1    2  502    0  0.12258403324E+04  0.50042801078E+03 -0.10223034952E+04  0.19465089214E+04  0.99532900601E+03 0.  0.
   -9000010    2    1    2    0  501 -0.12258403324E+04 -0.50042801078E+03 -0.20213006003E+04  0.26206499015E+04  0.10144146464E+04 0.  0.
        -13    1    3    3    0    0  0.67077467906E+03  0.43620716479E+03 -0.21663852077E+02  0.80042781957E+03  0.10566000000E+00 0.  1.
         13    1    4    4    0    0 -0.10129690508E+04 -0.40879057791E+03 -0.74199155779E+03  0.13205178974E+04  0.10566000000E+00 0. -1.
          4    1    3    3  502    0  0.55506565335E+03  0.64220845989E+02 -0.10006396431E+04  0.11460811018E+04  0.00000000000E+00 0.  1.
         -4    1    4    4    0  501 -0.21287128162E+03 -0.91637432864E+02 -0.12793090425E+04  0.13001320040E+04  0.00000000000E+00 0. -1.
</event>
<event>
 8    1  0.7446554E-006  0.2358418E+04  0.7818608E-02  0.8036329E-01
         -2   -1    0    0    0  501 -0.00000000000E+00  0.00000000000E+00  0.40010263777E+04  0.40010263777E+04  0.00000000000E+00 0. -1.
          2   -1    0    0  502    0  0.00000000000E+00 -0.00000000000E+00 -0.14664029819E+04  0.14664029819E+04  0.00000000000E+00 0.  1.
    9000010    2    1    2  502    0 -0.21420988683E+04 -0.70894914480E+02  0.18912913040E+04  0.30241846231E+04  0.98746958828E+03 0.  0.
   -9000010    2    1    2    0  501  0.21420988683E+04  0.70894914480E+02  0.64333209171E+03  0.24432447365E+04  0.98079305240E+03 0.  0.
        -13    1    3    3    0    0 -0.18379199551E+04  0.22835265636E+03  0.11840657731E+04  0.21982052823E+04  0.10566000000E+00 0.  1.
         13    1    4    4    0    0  0.10000039838E+04 -0.45260532812E+03  0.23848544024E+03  0.11232697215E+04  0.10566000000E+00 0. -1.
          4    1    3    3  502    0 -0.30417891319E+03 -0.29924757084E+03  0.70722553093E+03  0.82597934083E+03  0.00000000000E+00 0.  1.
         -4    1    4    4    0  501  0.11420948844E+04  0.52350024260E+03  0.40484665147E+03  0.13199750150E+04  0.00000000000E+00 0. -1.
</event>
<event>
 8    1  0.7446554E-006  0.1123683E+04  0.7818608E-02  0.8666359E-01
          1   -1    0    0  502    0  0.00000000000E+00  0.00000000000E+00  0.15576752279E+04  0.15576752279E+04  0.00000000000E+00 0. -1.
         -1   -1    0    0    0  501 -0.00000000000E+00 -0.00000000000E+00 -0.81089142129E+03  0.81089142129E+03  0.00000000000E+00 0.  1.
    9000010    2    1    2  502    0 -0.34679129641E+03 -0.37791044179E+03  0.35016976642E+03  0.11703128331E+04  0.99193384690E+03 0.  0.
   -9000010    2    1    2    0  501  0.34679129641E+03  0.37791044179E+03  0.39661404019E+03  0.11982538161E+04  0.10076849735E+04 0.  0.
        -13    1    3    3    0    0 -0.32181781867E+03  0.29277884746E+03  0.60270864433E+02  0.43922517027E+03  0.10566000000E+00 0.  1.
         13    1    4    4    0    0  0.19517008420E+03  0.72322850898E+03  0.31356156401E+03  0.81207863139E+03  0.10566000000E+00 0. -1.
          4    1    3    3  502    0 -0.24973477739E+02 -0.67068928925E+03  0.28989890199E+03  0.73108766279E+03  0.00000000000E+00 0.  1.
         -4    1    4    4    0  501  0.15162121221E+03 -0.34531806719E+03  0.83052476179E+02  0.38617518475E+03  0.00000000000E+00 0. -1.
</event>
<event>
 8    1  0.7446554E-006  0.1085920E+04  0.7818608E-02  0.8697805E-01
         -4   -1    0    0    0  501 -0.00000000000E+00  0.00000000000E+00  0.13666995972E+04  0.13666995972E+04  0.00000000000E+00 0. -1.
          4   -1    0    0  502    0  0.00000000000E+00 -0.00000000000E+00 -0.88144056551E+03  0.88144056551E+03  0.00000000000E+00 0.  1.
    9000010    2    1    2  502    0  0.40655757540E+03 -0.87870679201E+00  0.40744415473E+03  0.11669038241E+04  0.10150684515E+04 0.  0.
   -9000010    2    1    2    0  501 -0.40655757540E+03  0.87870679201E+00  0.77814876938E+02  0.10812363386E+04  0.99886286877E+03 0.  0.
        -13    1    3    3    0    0 -0.92556763485E+02  0.37332363912E+03  0.38272571244E+03  0.54260139709E+03  0.10566000000E+00 0.  1.
         13    1    4    4    0    0 -0.22514537630E+03  0.28301717504E+03  0.45189730717E+03  0.57879214682E+03  0.10566000000E+00 0. -1.
          4    1    3    3  502    0  0.49911433888E+03 -0.37420234591E+03  0.24718442290E+02  0.62430242700E+03  0.00000000000E+00 0.  1.
         -4    1    4    4    0  501 -0.18141219910E+03 -0.28213846825E+03 -0.37408243023E+03  0.50244419178E+03  0.00000000000E+00 0. -1.
</event>
<event>
 8    1  0.7446554E-006  0.1237432E+04  0.7818608E-02  0.8578896E-01
          2   -1    0    0  502    0  0.00000000000E+00  0.00000000000E+00  0.78811063294E+03  0.78811063294E+03  0.00000000000E+00 0. -1.
         -2   -1    0    0    0  501 -0.00000000000E+00 -0.00000000000E+00 -0.21067594270E+04  0.21067594270E+04  0.00000000000E+00 0.  1.
    9000010    2    1    2  502    0  0.70255752270E+03  0.14271640877E+03 -0.10616190608E+04  0.16283596013E+04  0.10052685786E+04 0.  0.
   -9000010    2    1    2    0  501 -0.70255752270E+03 -0.14271640877E+03 -0.25702973332E+03  0.12665104586E+04  0.10119433838E+04 0.  0.
        -13    1    3    3    0    0 -0.18786866101E+03 -0.18955470848E+03 -0.35464242842E+03  0.44384331075E+03  0.10566000000E+00 0.  1.
         13    1    4    4    0    0 -0.61027843642E+03 -0.39360399731E+02  0.30800836760E+03  0.68473219342E+03  0.10566000000E+00 0. -1.
          4    1    3    3  502    0  0.89042618371E+03  0.33227111724E+03 -0.70697663235E+03  0.11845162906E+04  0.00000000000E+00 0.  1.
         -4    1    4    4    0  501 -0.92279086274E+02 -0.10335600904E+03 -0.56503810093E+03  0.58177826521E+03  0.00000000000E+00 0. -1.
</event>
<event>
 8    1  0.7446554E-006  0.1105500E+04  0.7818608E-02  0.8681337E-01
         -2   -1    0    0    0  501 -0.00000000000E+00  0.00000000000E+00  0.47004459796E+03  0.47004459796E+03  0.00000000000E+00 0.  1.
          2   -1    0    0  502    0  0.00000000000E+00 -0.00000000000E+00 -0.28806413564E+04  0.28806413564E+04  0.00000000000E+00 0. -1.
    9000010    2    1    2  502    0  0.25939629983E+03  0.38163082159E+03 -0.17247001648E+04  0.20466971922E+04  0.10007248441E+04 0.  0.
   -9000010    2    1    2    0  501 -0.25939629983E+03 -0.38163082159E+03 -0.68589659366E+03  0.13039887622E+04  0.10084661771E+04 0.  0.
        -13    1    3    3    0    0  0.25464808367E+03 -0.12072276215E+03 -0.14439531888E+04  0.14711969461E+04  0.10566000000E+00 0.  1.
         13    1    4    4    0    0 -0.41095615836E+03 -0.26072948079E+02  0.10389960183E+03  0.42468800447E+03  0.10566000000E+00 0. -1.
          4    1    3    3  502    0  0.47482161637E+01  0.50235358374E+03 -0.28074697605E+03  0.57550024606E+03  0.00000000000E+00 0.  1.
         -4    1    4    4    0  501  0.15155985853E+03 -0.35555787351E+03 -0.78979619549E+03  0.87930075773E+03  0.00000000000E+00 0. -1.
</event>
<event>
 8    1  0.7446554E-006  0.1106507E+04  0.7818608E-02  0.8680499E-01
          2   -1    0    0  502    0  0.00000000000E+00  0.00000000000E+00  0.18827961123E+04  0.18827961123E+04  0.00000000000E+00 0. -1.
         -2   -1    0    0    0  501 -0.00000000000E+00 -0.00000000000E+00 -0.67341777936E+03  0.67341777936E+03  0.00000000000E+00 0.  1.
    9000010    2    1    2  502    0  0.31856024130E+03 -0.47749288775E+03  0.39761320845E+03  0.12194285659E+04  0.99971479867E+03 0.  0.
   -9000010    2    1    2    0  501 -0.31856024130E+03  0.47749288775E+03  0.81176512447E+03  0.13367853257E+04  0.89361753818E+03 0.  0.
        -13    1    3    3    0    0  0.77015304879E+02 -0.43846335876E+03 -0.26154676539E+03  0.51632179483E+03  0.10566000000E+00 0.  1.
         13    1    4    4    0    0 -0.56050106039E+03  0.19714338181E+03  0.75718253498E+03  0.96247200174E+03  0.10566000000E+00 0. -1.
          4    1    3    3  502    0  0.24154493642E+03 -0.39029528988E+02  0.65915997385E+03  0.70310677110E+03  0.00000000000E+00 0.  1.
         -4    1    4    4    0  501  0.24194081910E+03  0.28034950594E+03  0.54582589488E+02  0.37431332397E+03  0.00000000000E+00 0. -1.
</event>
<event>
 8    1  0.7446554E-006  0.1647095E+04  0.7818608E-02  0.8329536E-01
          4   -1    0    0  502    0  0.00000000000E+00  0.00000000000E+00  0.12675501910E+04  0.12675501910E+04  0.00000000000E+00 0. -1.
         -4   -1    0    0    0  501 -0.00000000000E+00 -0.00000000000E+00 -0.21516011740E+04  0.21516011740E+04  0.00000000000E+00 0.  1.
    9000010    2    1    2  502    0  0.10844542061E+04 -0.71982811451E+03 -0.31716288279E+03  0.16738693217E+04  0.10035201902E+04 0.  0.
   -9000010    2    1    2    0  501 -0.10844542061E+04  0.71982811451E+03 -0.56688810019E+03  0.17452820434E+04  0.10151127293E+04 0.  0.
        -13    1    3    3    0    0  0.57052743430E+03 -0.86443928678E+03 -0.44115157122E+03  0.11257759785E+04  0.10566000000E+00 0.  1.
         13    1    4    4    0    0 -0.11515393909E+03 -0.17040360835E+03  0.14248691969E+03  0.25020062525E+03  0.10566000000E+00 0. -1.
          4    1    3    3  502    0  0.51392677185E+03  0.14461117227E+03  0.12398868843E+03  0.54809334317E+03  0.00000000000E+00 0.  1.
         -4    1    4    4    0  501 -0.96930026706E+03  0.89023172285E+03 -0.70937501988E+03  0.14950814182E+04  0.00000000000E+00 0. -1.
</event>
<event>
 8    1  0.7446554E-006  0.1230831E+04  0.7818608E-02  0.8583700E-01
         -1   -1    0    0    0  501 -0.00000000000E+00  0.00000000000E+00  0.90420022787E+03  0.90420022787E+03  0.00000000000E+00 0.  1.
          1   -1    0    0  502    0  0.00000000000E+00 -0.00000000000E+00 -0.23660523253E+04  0.23660523253E+04  0.00000000000E+00 0. -1.
    9000010    2    1    2  502    0 -0.37025749062E+03 -0.62213349532E+03  0.15097469360E+03  0.12435473778E+04  0.99973797939E+03 0.  0.
   -9000010    2    1    2    0  501  0.37025749062E+03  0.62213349532E+03 -0.16128267910E+04  0.20267051753E+04  0.99105141872E+03 0.  0.
        -13    1    3    3    0    0 -0.45017776289E+02  0.24325642829E+03  0.19946990218E+03  0.31778694612E+03  0.10566000000E+00 0.  1.
         13    1    4    4    0    0  0.36611643122E+03 -0.10610254387E+03 -0.10159563882E+04  0.10851112316E+04  0.10566000000E+00 0. -1.
          4    1    3    3  502    0 -0.32523971433E+03 -0.86538992360E+03 -0.48495208581E+02  0.92576043170E+03  0.00000000000E+00 0.  1.
         -4    1    4    4    0  501  0.41410593976E+01  0.72823603918E+03 -0.59687040282E+03  0.94159394375E+03  0.00000000000E+00 0. -1.
</event>
<event>
 8    1  0.7446554E-006  0.1248419E+04  0.7818608E-02  0.8570967E-01
          2   -1    0    0  502    0  0.00000000000E+00  0.00000000000E+00  0.99317072721E+03  0.99317072721E+03  0.00000000000E+00 0. -1.
         -2   -1    0    0    0  501 -0.00000000000E+00 -0.00000000000E+00 -0.17228817208E+04  0.17228817208E+04  0.00000000000E+00 0.  1.
    9000010    2    1    2  502    0 -0.34740752303E+02 -0.75697081394E+03 -0.76939073901E+03  0.14634264615E+04  0.98764526327E+03 0.  0.
   -9000010    2    1    2    0  501  0.34740752303E+02  0.75697081394E+03  0.39679745409E+02  0.12526259865E+04  0.99663716906E+03 0.  0.
        -13    1    3    3    0    0 -0.49349847708E+03 -0.38969784625E+03 -0.55237600405E+03  0.83697336831E+03  0.10566000000E+00 0.  1.
         13    1    4    4    0    0  0.33942942552E+03 -0.68608997056E+02 -0.10263386140E+03  0.36118312538E+03  0.10566000000E+00 0. -1.
          4    1    3    3  502    0  0.45875772478E+03 -0.36727296769E+03 -0.21701473496E+03  0.62645309324E+03  0.00000000000E+00 0.  1.
         -4    1    4    4    0  501 -0.30468867322E+03  0.82557981100E+03  0.14231360681E+03  0.89144286110E+03  0.00000000000E+00 0. -1.
</event>
<event>
 8    1  0.7446554E-006  0.1513135E+04  0.7818608E-02  0.8401980E-01
          2   -1    0    0  502    0  0.00000000000E+00  0.00000000000E+00  0.12301667273E+04  0.12301667273E+04  0.00000000000E+00 0. -1.
         -2   -1    0    0    0  501 -0.00000000000E+00 -0.00000000000E+00 -0.20085678319E+04  0.20085678319E+04  0.00000000000E+00 0.  1.
    9000010    2    1    2  502    0  0.10975932417E+03 -0.11304340079E+04  0.48945947665E+02  0.15159956776E+04  0.10029551502E+04 0.  0.
   -9000010    2    1    2    0  501 -0.10975932417E+03  0.11304340079E+04 -0.82734705232E+03  0.17227388815E+04  0.99669351026E+03 0.  0.
        -13    1    3    3    0    0  0.40998625875E+03 -0.10507518797E+04  0.23748229213E+03  0.11526344153E+04  0.10566000000E+00 0.  1.
         13    1    4    4    0    0  0.13521198437E+02  0.35948799671E+03 -0.86937777932E+03  0.94086777866E+03  0.10566000000E+00 0. -1.
          4    1    3    3  502    0 -0.30022693458E+03 -0.79682128283E+02 -0.18853634446E+03  0.36336126238E+03  0.00000000000E+00 0.  1.
         -4    1    4    4    0  501 -0.12328052261E+03  0.77094601123E+03  0.42030726994E+02  0.78187110287E+03  0.00000000000E+00 0. -1.
</event>
<event>
 8    1  0.7446554E-006  0.1099228E+04  0.7818608E-02  0.8686573E-01
          2   -1    0    0  502    0  0.00000000000E+00  0.00000000000E+00  0.19453180767E+04  0.19453180767E+04  0.00000000000E+00 0. -1.
         -2   -1    0    0    0  501 -0.00000000000E+00 -0.00000000000E+00 -0.66651844418E+03  0.66651844418E+03  0.00000000000E+00 0.  1.
    9000010    2    1    2  502    0  0.45925282573E+03  0.56144724913E+02  0.98526292549E+03  0.14834640769E+04  0.10078974388E+04 0.  0.
   -9000010    2    1    2    0  501 -0.45925282573E+03 -0.56144724913E+02  0.29353670703E+03  0.11283724440E+04  0.98640518340E+03 0.  0.
        -13    1    3    3    0    0 -0.17781092455E+03 -0.32055473789E+03  0.28163834434E+03  0.46226857242E+03  0.10566000000E+00 0.  1.
         13    1    4    4    0    0 -0.41101538179E+03 -0.92144955536E+02 -0.30927315503E+03  0.52256505096E+03  0.10566000000E+00 0. -1.
          4    1    3    3  502    0  0.63706375028E+03  0.37669946281E+03  0.70362458114E+03  0.10211955045E+04  0.00000000000E+00 0.  1.
         -4    1    4    4    0  501 -0.48237443940E+02  0.36000230623E+02  0.60280986206E+03  0.60580739299E+03  0.00000000000E+00 0. -1.
</event>
<event>
 8    1  0.7446554E-006  0.1132599E+04  0.7818608E-02  0.8659122E-01
          2   -1    0    0  502    0  0.00000000000E+00  0.00000000000E+00  0.37055930301E+04  0.37055930301E+04  0.00000000000E+00 0. -1.
         -2   -1    0    0    0  501 -0.00000000000E+00 -0.00000000000E+00 -0.34747648559E+03  0.34747648559E+03  0.00000000000E+00 0.  1.
    9000010    2    1    2  502    0  0.31362474414E+03 -0.24515286649E+03  0.16401729369E+04  0.19592771355E+04  0.99505739665E+03 0.  0.
   -9000010    2    1    2    0  501 -0.31362474414E+03  0.24515286649E+03  0.17179436076E+04  0.20937923802E+04  0.11287939955E+04 0.  0.
        -13    1    3    3    0    0  0.40665068681E+03 -0.93789900076E+02  0.12773129714E+03  0.43643627469E+03  0.10566000000E+00 0.  1.
         13    1    4    4    0    0 -0.54855834443E+03 -0.85586108237E+02  0.32577096926E+03  0.64371420269E+03  0.10566000000E+00 0. -1.
          4    1    3    3  502    0 -0.93025942670E+02 -0.15136296641E+03  0.15124416398E+04  0.15228408608E+04  0.00000000000E+00 0.  1.
         -4    1    4    4    0  501  0.23493360029E+03  0.33073897472E+03  0.13921726383E+04  0.14500781775E+04  0.00000000000E+00 0. -1.
</event>
<event>
 8    1  0.7446554E-006  0.1224086E+04  0.7818608E-02  0.8588643E-01
          4   -1    0    0  502    0  0.00000000000E+00  0.00000000000E+00  0.13117563855E+04  0.13117563855E+04  0.00000000000E+00 0.  1.
         -4   -1    0    0    0  501 -0.00000000000E+00 -0.00000000000E+00 -0.11480577022E+04  0.11480577022E+04  0.00000000000E+00 0. -1.
    9000010    2    1    2  502    0 -0.61450983676E+03 -0.32681890422E+03  0.16879909678E+03  0.12318574037E+04  0.10022707181E+04 0.  0.
   -9000010    2    1    2    0  501  0.61450983676E+03  0.32681890422E+03 -0.51004134763E+01  0.12279566840E+04  0.10116415709E+04 0.  0.
        -13    1    3    3    0    0  0.21521885837E+03 -0.23085469607E+03 -0.13471285756E+03  0.34316266238E+03  0.10566000000E+00 0.  1.
         13    1    4    4    0    0  0.75741616025E+03  0.27255440261E+03 -0.32915329088E+03  0.86965915292E+03  0.10566000000E+00 0. -1.
          4    1    3    3  502    0 -0.82972869512E+03 -0.95964208150E+02  0.30351195434E+03  0.88869474129E+03  0.00000000000E+00 0.  1.
         -4    1    4    4    0  501 -0.14290632349E+03  0.54264501609E+02  0.32405287741E+03  0.35829753109E+03  0.00000000000E+00 0. -1.
</event>
<event>
 8    1  0.7446554E-006  0.1428157E+04  0.7818608E-02  0.8452084E-01
          1   -1    0    0  502    0  0.00000000000E+00  0.00000000000E+00  0.15682668505E+04  0.15682668505E+04  0.00000000000E+00 0. -1.
         -1   -1    0    0    0  501 -0.00000000000E+00 -0.00000000000E+00 -0.13669426399E+04  0.13669426399E+04  0.00000000000E+00 0.  1.
    9000010    2    1    2  502    0  0.67753952187E+02 -0.10920173184E+04 -0.21620028662E+03  0.14906328291E+04  0.98901529094E+03 0.  0.
   -9000010    2    1    2    0  501 -0.67753952187E+02  0.10920173184E+04  0.41752449713E+03  0.14445766613E+04  0.84580293386E+03 0.  0.
        -13    1    3    3    0    0 -0.40972105682E+03 -0.33987332289E+03  0.10687480224E+03  0.54296174316E+03  0.10566000000E+00 0.  1.
         13    1    4    4    0    0 -0.24647713568E+03  0.31984994236E+03  0.50566430631E+03  0.64711001065E+03  0.10566000000E+00 0. -1.
          4    1    3    3  502    0  0.47747500901E+03 -0.75214399546E+03 -0.32307508886E+03  0.94767108597E+03  0.00000000000E+00 0.  1.
         -4    1    4    4    0  501  0.17872318349E+03  0.77216737600E+03 -0.88139809180E+02  0.79746665061E+03  0.00000000000E+00 0. -1.
</event>
<event>
 8    1  0.7446554E-006  0.1238312E+04  0.7818608E-02  0.8578258E-01
         -4   -1    0    0    0  501 -0.00000000000E+00  0.00000000000E+00  0.32232553380E+04  0.32232553380E+04  0.00000000000E+00 0. -1.
          4   -1    0    0  502    0  0.00000000000E+00 -0.00000000000E+00 -0.47901751740E+03  0.47901751740E+03  0.00000000000E+00 0.  1.
    9000010    2    1    2  502    0  0.69467143016E+03 -0.21788607299E+03  0.12232792136E+04  0.17434126074E+04  0.10064952799E+04 0.  0.
   -9000010    2    1    2    0  501 -0.69467143016E+03  0.21788607299E+03  0.15209586070E+04  0.19588602481E+04  0.99688296731E+03 0.  0.
        -13    1    3    3    0    0  0.71713292753E+03 -0.27116193105E+02  0.13389795018E+04  0.15191711692E+04  0.10566000000E+00 0.  1.
         13    1    4    4    0    0 -0.94824137527E+03  0.12186622883E+03  0.10917609795E+04  0.14511909354E+04  0.10566000000E+00 0. -1.
          4    1    3    3  502    0 -0.22461497366E+02 -0.19076987988E+03 -0.11570028820E+03  0.22424143824E+03  0.00000000000E+00 0.  1.
         -4    1    4    4    0  501  0.25356994511E+03  0.96019844157E+02  0.42919762755E+03  0.50766931267E+03  0.00000000000E+00 0. -1.
</event>
<event>
 8    1  0.7446554E-006  0.1140030E+04  0.7818608E-02  0.8653143E-01
         -2   -1    0    0    0  501 -0.00000000000E+00  0.00000000000E+00  0.52476711397E+03  0.52476711397E+03  0.00000000000E+00 0. -1.
          2   -1    0    0  502    0  0.00000000000E+00 -0.00000000000E+00 -0.25420229872E+04  0.25420229872E+04  0.00000000000E+00 0.  1.
    9000010    2    1    2  502    0 -0.53272804661E+03  0.76466496142E+02 -0.12518353779E+04  0.16910863548E+04  0.10015163250E+04 0.  0.
   -9000010    2    1    2    0  501  0.53272804661E+03 -0.76466496142E+02 -0.76542049528E+03  0.13757037463E+04  0.10084869689E+04 0.  0.
        -13    1    3    3    0    0 -0.24147534476E+02 -0.32225361804E+03 -0.50663004263E+02  0.32710433951E+03  0.10566000000E+00 0.  1.
         13    1    4    4    0    0  0.99286480247E+02 -0.58031924046E+02  0.24797858451E+03  0.27334757894E+03  0.10566000000E+00 0. -1.
          4    1    3    3  502    0 -0.50858051213E+03  0.39872011418E+03 -0.12011723737E+04  0.13639820153E+04  0.00000000000E+00 0.  1.
         -4    1    4    4    0  501  0.43344156636E+03 -0.18434572096E+02 -0.10133990798E+04  0.11023561674E+04  0.00000000000E+00 0. -1.
</event>
<event>
 8    1  0.7446554E-006  0.1698433E+04  0.7818608E-02  0.8303638E-01
          2   -1    0    0  502    0  0.00000000000E+00  0.00000000000E+00  0.78893281097E+03  0.78893281097E+03  0.00000000000E+00 0.  1.
         -2   -1    0    0    0  501 -0.00000000000E+00 -0.00000000000E+00 -0.36793442408E+04  0.36793442408E+04  0.00000000000E+00 0. -1.
    9000010    2    1    2  502    0  0.12657389310E+04  0.29105121115E+03 -0.16546511518E+04  0.24204697208E+04  0.11974962990E+04 0.  0.
   -9000010    2    1    2    0  501 -0.12657389310E+04 -0.29105121115E+03 -0.12357602780E+04  0.20478073310E+04  0.98975024686E+03 0.  0.
        -13    1    3    3    0    0  0.94818909925E+03  0.32843530429E+03 -0.18065099614E+04  0.20664971737E+04  0.10566000000E+00 0.  1.
         13    1    4    4    0    0 -0.12931545060E+04 -0.51550443000E+03 -0.11510046002E+04  0.18063236129E+04  0.10566000000E+00 0. -1.
          4    1    3    3  502    0  0.31754983177E+03 -0.37384093134E+02  0.15185880956E+03  0.35397254712E+03  0.00000000000E+00 0.  1.
         -4    1    4    4    0  501  0.27415574946E+02  0.22445321884E+03 -0.84755677894E+02  0.24148371815E+03  0.00000000000E+00 0. -1.
</event>
<event>
 8    1  0.7446554E-006  0.1334878E+04  0.7818608E-02  0.8511376E-01
          3   -1    0    0  502    0  0.00000000000E+00  0.00000000000E+00  0.12072263488E+04  0.12072263488E+04  0.00000000000E+00 0.  1.
         -3   -1    0    0    0  501 -0.00000000000E+00 -0.00000000000E+00 -0.16615862662E+04  0.16615862662E+04  0.00000000000E+00 0. -1.
    9000010    2    1    2  502    0  0.86540303985E+03 -0.45678736139E+01 -0.70795949906E+03  0.15201267275E+04  0.10298715107E+04 0.  0.
   -9000010    2    1    2    0  501 -0.86540303985E+03  0.45678736139E+01  0.25359958166E+03  0.13486858876E+04  0.10028447480E+04 0.  0.
        -13    1    3    3    0    0  0.10233019292E+04  0.15036933954E+03 -0.77107225335E+03  0.12900814732E+04  0.10566000000E+00 0.  1.
         13    1    4    4    0    0  0.12478958043E+02  0.19354801030E+03 -0.25211466798E+03  0.31808548169E+03  0.10566000000E+00 0. -1.
          4    1    3    3  502    0 -0.15789888930E+03 -0.15493721316E+03  0.63112754297E+02  0.23004525429E+03  0.00000000000E+00 0.  1.
         -4    1    4    4    0  501 -0.87788199789E+03 -0.18898013668E+03  0.50571424965E+03  0.10306004059E+04  0.00000000000E+00 0. -1.
</event>
<event>
 8    1  0.7446554E-006  0.1301192E+04  0.7818608E-02  0.8534024E-01
          2   -1    0    0  502    0  0.00000000000E+00  0.00000000000E+00  0.87806994310E+03  0.87806994310E+03  0.00000000000E+00 0. -1.
         -2   -1    0    0    0  501 -0.00000000000E+00 -0.00000000000E+00 -0.21862493875E+04  0.21862493875E+04  0.00000000000E+00 0.  1.
    9000010    2    1    2  502    0  0.77995386187E+03  0.27321346117E+03 -0.13040528867E+03  0.13136688031E+04  0.10127914705E+04 0.  0.
   -9000010    2    1    2    0  501 -0.77995386187E+03 -0.27321346117E+03 -0.11777741558E+04  0.17506505276E+04  0.99732225772E+03 0.  0.
        -13    1    3    3    0    0  0.89221877995E+03  0.15182375723E+03 -0.40626931302E+03  0.99204816941E+03  0.10566000000E+00 0.  1.
         13    1    4    4    0    0 -0.19594464995E+03 -0.59521044528E+03 -0.52575376560E+03  0.81797726938E+03  0.10566000000E+00 0. -1.
          4    1    3    3  502    0 -0.11226491808E+03  0.12138970394E+03  0.27586402435E+03  0.32162063364E+03  0.00000000000E+00 0.  1.
         -4    1    4    4    0  501 -0.58400921192E+03  0.32199698412E+03 -0.65202039016E+03  0.93267325821E+03  0.00000000000E+00 0. -1.
</event>
<event>
 8    1  0.7446554E-006  0.1738171E+04  0.7818608E-02  0.8284230E-01
          1   -1    0    0  502    0  0.00000000000E+00  0.00000000000E+00  0.15765834080E+04  0.15765834080E+04  0.00000000000E+00 0. -1.
         -1   -1    0    0    0  501 -0.00000000000E+00 -0.00000000000E+00 -0.19382846792E+04  0.19382846792E+04  0.00000000000E+00 0.  1.
    9000010    2    1    2  502    0 -0.10559329221E+04 -0.95165816186E+03  0.58649621090E+01  0.17414277370E+04  0.10059267232E+04 0.  0.
   -9000010    2    1    2    0  501  0.10559329221E+04  0.95165816186E+03 -0.36756623328E+03  0.17734403502E+04  0.99465478779E+03 0.  0.
        -13    1    3    3    0    0 -0.52137271452E+03 -0.10472573491E+03  0.39970197060E+03  0.66525082748E+03  0.10566000000E+00 0.  1.
         13    1    4    4    0    0  0.94425533781E+03  0.11607745208E+04 -0.34265772781E+03  0.15350667610E+04  0.10566000000E+00 0. -1.
          4    1    3    3  502    0 -0.53456020761E+03 -0.84693242695E+03 -0.39383700849E+03  0.10761769095E+04  0.00000000000E+00 0.  1.
         -4    1    4    4    0  501  0.11167758432E+03 -0.20911635891E+03 -0.24908505467E+02  0.23837358925E+03  0.00000000000E+00 0. -1.
</event>
<event>
 7    1  0.7446554E-006  0.2274708E+04  0.7818608E-02  0.8064907E-01
         -1   -1    0    0    0  501 -0.00000000000E+00  0.00000000000E+00  0.32278413956E+04  0.32278413956E+04  0.00000000000E+00 0. -1.
          1   -1    0    0  502    0  0.00000000000E+00 -0.00000000000E+00 -0.18894494190E+04  0.18894494190E+04  0.00000000000E+00 0.  1.
    9000010    2    1    2  502    0 -0.33630513362E+03  0.11470125762E+04  0.74802632051E+02  0.15556720511E+04  0.99286509852E+03 0.  0.
        -13    1    3    3    0    0 -0.20800667184E+03  0.54373962911E+03  0.53144536762E+03  0.78825995061E+03  0.10566000000E+00 0.  1.
         13    1    1    2    0    0  0.12190295680E+04 -0.65885741206E+03 -0.54640408643E+03  0.14895246269E+04  0.10566000000E+00 0. -1.
          4    1    3    3  502    0 -0.12829846178E+03  0.60327294709E+03 -0.45664273557E+03  0.76741210046E+03  0.00000000000E+00 0.  1.
         -4    1    1    2    0  501 -0.88272443442E+03 -0.48815516414E+03  0.18099934310E+04  0.20720941368E+04  0.00000000000E+00 0. -1.
</event>
<event>
 8    1  0.7446554E-006  0.1021014E+04  0.7818608E-02  0.8755094E-01
         -4   -1    0    0    0  501 -0.00000000000E+00  0.00000000000E+00  0.95723744711E+03  0.95723744711E+03  0.00000000000E+00 0. -1.
          4   -1    0    0  502    0  0.00000000000E+00 -0.00000000000E+00 -0.13521840121E+04  0.13521840121E+04  0.00000000000E+00 0.  1.
    9000010    2    1    2  502    0  0.57759981721E+01 -0.25971753724E+03 -0.70813158018E+03  0.12497442988E+04  0.99645567702E+03 0.  0.
   -9000010    2    1    2    0  501 -0.57759981721E+01  0.25971753724E+03  0.31318501515E+03  0.10596771604E+04  0.97843971163E+03 0.  0.
        -13    1    3    3    0    0 -0.36265902149E+01 -0.54777160464E+03 -0.77959981821E+03  0.95280783515E+03  0.10566000000E+00 0.  1.
         13    1    4    4    0    0  0.33197212054E+03  0.46843498352E+03  0.33012045440E+03  0.66228117003E+03  0.10566000000E+00 0. -1.
          4    1    3    3  502    0  0.94025883870E+01  0.28805406739E+03  0.71468238024E+02  0.29693646367E+03  0.00000000000E+00 0.  1.
         -4    1    4    4    0  501 -0.33774811871E+03 -0.20871744628E+03 -0.16935439247E+02  0.39739599039E+03  0.00000000000E+00 0. -1.
</event>
<event>
 8    1  0.7446554E-006  0.1149050E+04  0.7818608E-02  0.8645949E-01
         -2   -1    0    0    0  501 -0.00000000000E+00  0.00000000000E+00  0.74181641613E+03  0.74181641613E+03  0.00000000000E+00 0.  1.
          2   -1    0    0  502    0  0.00000000000E+00 -0.00000000000E+00 -0.17991404153E+04  0.17991404153E+04  0.00000000000E+00 0. -1.
    9000010    2    1    2  502    0 -0.15526557093E+03  0.54241430780E+03 -0.39352385374E+03  0.12065002004E+04  0.99119172278E+03 0.  0.
   -9000010    2    1    2    0  501  0.15526557093E+03 -0.54241430780E+03 -0.66380014538E+03  0.13344566310E+04  0.10108527035E+04 0.  0.
        -13    1    3    3    0    0  0.35843392966E+02  0.34219442917E+03 -0.70823642096E+03  0.78738847802E+03  0.10566000000E+00 0.  1.
         13    1    4    4    0    0 -0.65443974991E+02 -0.44019612327E+03 -0.89458044180E+03  0.99916451039E+03  0.10566000000E+00 0. -1.
          4    1    3    3  502    0 -0.19110896390E+03  0.20021987863E+03  0.31471256722E+03  0.41911172239E+03  0.00000000000E+00 0.  1.
         -4    1    4    4    0  501  0.22070954592E+03 -0.10221818454E+03  0.23078029642E+03  0.33529212059E+03  0.00000000000E+00 0. -1.
</event>
<event>
 8    1  0.7446554E-006  0.1356760E+04  0.7818608E-02  0.8497029E-01
         -4   -1    0    0    0  501 -0.00000000000E+00  0.00000000000E+00  0.27389661817E+04  0.27389661817E+04  0.00000000000E+00 0. -1.
          4   -1    0    0  502    0  0.00000000000E+00 -0.00000000000E+00 -0.73361194655E+03  0.73361194655E+03  0.00000000000E+00 0.  1.
    9000010    2    1    2  502    0 -0.80486939409E+03  0.42577659728E+03  0.49677060626E+03  0.14405808098E+04  0.99969574469E+03 0.  0.
   -9000010    2    1    2    0  501  0.80486939409E+03 -0.42577659728E+03  0.15085836289E+04  0.20319973184E+04  0.10119723734E+04 0.  0.
        -13    1    3    3    0    0 -0.65138763004E+03 -0.57544480216E+02  0.63859793178E+03  0.91401561333E+03  0.10566000000E+00 0.  1.
         13    1    4    4    0    0 -0.21495404824E+03 -0.21253207610E+03  0.48464500974E+03  0.57118816764E+03  0.10566000000E+00 0. -1.
          4    1    3    3  502    0 -0.15348176405E+03  0.48332107750E+03 -0.14182732552E+03  0.52656519645E+03  0.00000000000E+00 0.  1.
         -4    1    4    4    0  501  0.10198234423E+04 -0.21324452119E+03  0.10239386191E+04  0.14608091508E+04  0.00000000000E+00 0. -1.
</event>
<event>
 8    1  0.7446554E-006  0.1369125E+04  0.7818608E-02  0.8489044E-01
          2   -1    0    0  502    0  0.00000000000E+00  0.00000000000E+00  0.19787090838E+04  0.19787090838E+04  0.00000000000E+00 0. -1.
         -2   -1    0    0    0  501 -0.00000000000E+00 -0.00000000000E+00 -0.10036176907E+04  0.10036176907E+04  0.00000000000E+00 0.  1.
    9000010    2    1    2  502    0 -0.70840529014E+03 -0.59927906621E+03  0.84230051979E+03  0.16117356654E+04  0.10135325525E+04 0.  0.
   -9000010    2    1    2    0  501  0.70840529014E+03  0.59927906621E+03  0.13279087331E+03  0.13705911091E+04  0.99995655813E+03 0.  0.
        -13    1    3    3    0    0 -0.23682290097E+03 -0.53857703583E+03  0.95629637276E+03  0.11227880805E+04  0.10566000000E+00 0.  1.
         13    1    4    4    0    0  0.71354451150E+03 -0.49241818278E+02  0.53909858560E+02  0.71727038875E+03  0.10566000000E+00 0. -1.
          4    1    3    3  502    0 -0.47158238917E+03 -0.60702030382E+02 -0.11399585297E+03  0.48894758488E+03  0.00000000000E+00 0.  1.
         -4    1    4    4    0  501 -0.51392213632E+01  0.64852088449E+03  0.78881014747E+02  0.65332072039E+03  0.00000000000E+00 0. -1.
</event>
<event>
 8    1  0.7446554E-006  0.1117725E+04  0.7818608E-02  0.8671234E-01
         -2   -1    0    0    0  501 -0.00000000000E+00  0.00000000000E+00  0.38670765855E+03  0.38670765855E+03  0.00000000000E+00 0. -1.
          2   -1    0    0  502    0  0.00000000000E+00 -0.00000000000E+00 -0.35796548452E+04  0.35796548452E+04  0.00000000000E+00 0.  1.
    9000010    2    1    2  502    0 -0.40975059120E+03  0.22711659176E+03 -0.22299738125E+04  0.24995212380E+04  0.10273002100E+04 0.  0.
   -9000010    2    1    2    0  501  0.40975059120E+03 -0.22711659176E+03 -0.96297337420E+03  0.14668412658E+04  0.10024111364E+04 0.  0.
        -13    1    3    3    0    0  0.29067086604E+03 -0.10021079746E+03 -0.34481349721E+03  0.46198280846E+03  0.10566000000E+00 0.  1.
         13    1    4    4    0    0  0.70821778116E+02 -0.59516673622E+03 -0.44354946396E+03  0.74563751669E+03  0.10566000000E+00 0. -1.
          4    1    3    3  502    0 -0.70042145724E+03  0.32732738922E+03 -0.18851603153E+04  0.20375384295E+04  0.00000000000E+00 0.  1.
         -4    1    4    4    0  501  0.33892881309E+03  0.36805014446E+03 -0.51942391024E+03  0.72120374910E+03  0.00000000000E+00 0. -1.
</event>
<event>
 8    1  0.7446554E-006  0.1228310E+04  0.7818608E-02  0.8585544E-01
          2   -1    0    0  502    0  0.00000000000E+00  0.00000000000E+00  0.20031428802E+04  0.20031428802E+04  0.00000000000E+00 0. -1.
         -2   -1    0    0    0  501 -0.00000000000E+00 -0.00000000000E+00 -0.77082421853E+03  0.77082421853E+03  0.00000000000E+00 0.  1.
    9000010    2    1    2  502    0 -0.64614115803E+03 -0.21473235922E+03  0.83056562368E+03  0.14911297070E+04  0.10344177907E+04 0.  0.
   -9000010    2    1    2    0  501  0.64614115803E+03  0.21473235922E+03  0.40175303798E+03  0.12828373917E+04  0.10102761443E+04 0.  0.
        -13    1    3    3    0    0 -0.48774762019E+03 -0.64888329225E+02  0.10636572522E+04  0.11719534964E+04  0.10566000000E+00 0.  1.
         13    1    4    4    0    0 -0.20395016142E+03 -0.11774643388E+03  0.27375258706E+03  0.36110992941E+03  0.10566000000E+00 0. -1.
          4    1    3    3  502    0 -0.15839353784E+03 -0.14984403000E+03 -0.23309162855E+03  0.31917621067E+03  0.00000000000E+00 0.  1.
         -4    1    4    4    0  501  0.85009131945E+03  0.33247879311E+03  0.12800045092E+03  0.92172746227E+03  0.00000000000E+00 0. -1.
</event>
<event>
 8    1  0.7446554E-006  0.1265822E+04  0.7818608E-02  0.8558579E-01
          2   -1    0    0  502    0  0.00000000000E+00  0.00000000000E+00  0.30414911660E+04  0.30414911660E+04  0.00000000000E+00 0. -1.
         -2   -1    0    0    0  501 -0.00000000000E+00 -0.00000000000E+00 -0.53705866032E+03  0.53705866032E+03  0.00000000000E+00 0.  1.
    9000010    2    1    2  502    0 -0.23629520069E+03 -0.74587019245E+03  0.10107704017E+04  0.16243287140E+04  0.10023119276E+04 0.  0.
   -9000010    2    1    2    0  501  0.23629520069E+03  0.74587019245E+03  0.14936621040E+04  0.19542211124E+04  0.98782382507E+03 0.  0.
        -13    1    3    3    0    0  0.38705901681E+03 -0.22441587463E+03  0.46550565634E+03  0.64565679314E+03  0.10566000000E+00 0.  1.
         13    1    4    4    0    0 -0.16995402794E+03  0.12257538181E+03 -0.71352919204E+02  0.22136021793E+03  0.10566000000E+00 0. -1.
          4    1    3    3  502    0 -0.62335421750E+03 -0.52145431782E+03  0.54526474541E+03  0.97867192084E+03  0.00000000000E+00 0.  1.
         -4    1    4    4    0  501  0.40624922863E+03  0.62329481064E+03  0.15650150232E+04  0.17328608944E+04  0.00000000000E+00 0. -1.
</event>
<event>
 8    1  0.7446554E-006  0.1280522E+04  0.7818608E-02  0.8548275E-01
          1   -1    0    0  502    0  0.00000000000E+00  0.00000000000E+00  0.25793734502E+04  0.25793734502E+04  0.00000000000E+00 0. -1.
         -1   -1    0    0    0  501 -0.00000000000E+00 -0.00000000000E+00 -0.63574395569E+03  0.63574395569E+03  0.00000000000E+00 0.  1.
    9000010    2    1    2  502    0 -0.81873036223E+03 -0.10895730041E+02  0.95841306166E+03  0.15955309273E+04  0.97812331541E+03 0.  0.
   -9000010    2    1    2    0  501  0.81873036223E+03  0.10895730041E+02  0.98521643289E+03  0.16195864787E+04  0.99094440774E+03 0.  0.
        -13    1    3    3    0    0 -0.39092682341E+03 -0.34342006157E+02 -0.13988843694E+03  0.41661965940E+03  0.10566000000E+00 0.  1.
         13    1    4    4    0    0 -0.21627662334E+03 -0.41409950993E+02  0.31887775344E+03  0.38752212149E+03  0.10566000000E+00 0. -1.
          4    1    3    3  502    0 -0.42780353882E+03  0.23446276115E+02  0.10983014986E+04  0.11789112679E+04  0.00000000000E+00 0.  1.
         -4    1    4    4    0  501  0.10350069856E+04  0.52305681035E+02  0.66633867945E+03  0.12320643572E+04  0.00000000000E+00 0. -1.
</event>
<event>
 8    1  0.7446554E-006  0.1804493E+04  0.7818608E-02  0.8253000E-01
         -1   -1    0    0    0  501 -0.00000000000E+00  0.00000000000E+00  0.27458022466E+04  0.27458022466E+04  0.00000000000E+00 0. -1.
          1   -1    0    0  502    0  0.00000000000E+00 -0.00000000000E+00 -0.12109625534E+04  0.12109625534E+04  0.00000000000E+00 0.  1.
    9000010    2    1    2  502    0  0.75076354083E+03 -0.13214008314E+04  0.47746430764E+03  0.18536056050E+04  0.94770012263E+03 0.  0.
   -9000010    2    1    2    0  501 -0.75076354083E+03  0.13214008314E+04  0.10573753856E+04  0.21031591949E+04  0.99774237249E+03 0.  0.
        -13    1    3    3    0    0  0.31703117171E+03 -0.75361381476E+03  0.72973488290E+03  0.10958811779E+04  0.10566000000E+00 0.  1.
         13    1    4    4    0    0 -0.99438370725E+03  0.11488898538E+04  0.87738248989E+03  0.17545788378E+04  0.10566000000E+00 0. -1.
          4    1    3    3  502    0  0.43373236912E+03 -0.56778701660E+03 -0.25227057526E+03  0.75772442707E+03  0.00000000000E+00 0.  1.
         -4    1    4    4    0  501  0.24362016642E+03  0.17251097755E+03  0.17999289570E+03  0.34858035712E+03  0.00000000000E+00 0. -1.
</event>
<event>
 8    1  0.7446554E-006  0.1511727E+04  0.7818608E-02  0.8402782E-01
          2   -1    0    0  502    0  0.00000000000E+00  0.00000000000E+00  0.13600407184E+04  0.13600407184E+04  0.00000000000E+00 0.  1.
         -2   -1    0    0    0  501 -0.00000000000E+00 -0.00000000000E+00 -0.19993263935E+04  0.19993263935E+04  0.00000000000E+00 0. -1.
    9000010    2    1    2  502    0  0.69572808093E+03  0.89378740066E+03 -0.99081120877E+03  0.18086217220E+04  0.10032508170E+04 0.  0.
   -9000010    2    1    2    0  501 -0.69572808093E+03 -0.89378740066E+03  0.35152553370E+03  0.15507453898E+04  0.99917344990E+03 0.  0.
        -13    1    3    3    0    0 -0.14981883356E+03  0.17383954269E+03  0.10149162667E+03  0.25093112788E+03  0.10566000000E+00 0.  1.
         13    1    4    4    0    0 -0.28874909700E+03 -0.37592761544E+03  0.66873412579E+03  0.81969686789E+03  0.10566000000E+00 0. -1.
          4    1    3    3  502    0  0.84554691448E+03  0.71994785797E+03 -0.10923028354E+04  0.15576905941E+04  0.00000000000E+00 0.  1.
         -4    1    4    4    0  501 -0.40697898392E+03 -0.51785978521E+03 -0.31720859209E+03  0.73104852192E+03  0.00000000000E+00 0. -1.
</event>
<event>
 8    1  0.7446554E-006  0.1978876E+04  0.7818608E-02  0.8177047E-01
          2   -1    0    0  502    0  0.00000000000E+00  0.00000000000E+00  0.33935427416E+04  0.33935427416E+04  0.00000000000E+00 0.  1.
         -2   -1    0    0    0  501 -0.00000000000E+00 -0.00000000000E+00 -0.12969857874E+04  0.12969857874E+04  0.00000000000E+00 0. -1.
    9000010    2    1    2  502    0  0.16992182047E+04  0.13712537285E+03  0.18265647047E+04  0.26921153643E+04  0.10024972015E+04 0.  0.
   -9000010    2    1    2    0  501 -0.16992182047E+04 -0.13712537285E+03  0.26999224956E+03  0.19984131648E+04  0.10072802426E+04 0.  0.
        -13    1    3    3    0    0  0.41178485102E+03 -0.19025880861E+03  0.10727917480E+04  0.11647520438E+04  0.10566000000E+00 0.  1.
         13    1    4    4    0    0  0.19622707006E+01  0.23046623025E+03 -0.29621727034E+02  0.23237037606E+03  0.10566000000E+00 0. -1.
          4    1    3    3  502    0  0.12874333537E+04  0.32738418146E+03  0.75377295663E+03  0.15273633205E+04  0.00000000000E+00 0.  1.
         -4    1    4    4    0  501 -0.17011804754E+04 -0.36759160310E+03  0.29961397660E+03  0.17660427887E+04  0.00000000000E+00 0. -1.
</event>
<event>
 8    1  0.7446554E-006  0.1268955E+04  0.7818608E-02  0.8556371E-01
         -1   -1    0    0    0  501 -0.00000000000E+00  0.00000000000E+00  0.99857050336E+03  0.99857050336E+03  0.00000000000E+00 0.  1.
          1   -1    0    0  502    0  0.00000000000E+00 -0.00000000000E+00 -0.18068764966E+04  0.18068764966E+04  0.00000000000E+00 0. -1.
    9000010    2    1    2  502    0  0.42570743765E+03  0.65825056474E+03  0.58611110684E+02  0.12602134780E+04  0.98497823295E+03 0.  0.
   -9000010    2    1    2    0  501 -0.42570743765E+03 -0.65825056474E+03 -0.86691710397E+03  0.15452335220E+04  0.10107822436E+04 0.  0.
        -13    1    3    3    0    0 -0.87282567080E+02  0.35444655112E+03  0.42514373230E+03  0.56035507350E+03  0.10566000000E+00 0.  1.
         13    1    4    4    0    0 -0.68538975178E+03 -0.68148380172E+03 -0.48126331881E+03  0.10797192584E+04  0.10566000000E+00 0. -1.
          4    1    3    3  502    0  0.51299000473E+03  0.30380401362E+03 -0.36653262162E+03  0.69985840450E+03  0.00000000000E+00 0.  1.
         -4    1    4    4    0  501  0.25968231414E+03  0.23233236978E+02 -0.38565378516E+03  0.46551426357E+03  0.00000000000E+00 0. -1.
</event>
<event>
 8    1  0.7446554E-006  0.1184988E+04  0.7818608E-02  0.8617953E-01
          2   -1    0    0  502    0  0.00000000000E+00  0.00000000000E+00  0.13889745314E+04  0.13889745314E+04  0.00000000000E+00 0. -1.
         -2   -1    0    0    0  501 -0.00000000000E+00 -0.00000000000E+00 -0.11836271873E+04  0.11836271873E+04  0.00000000000E+00 0.  1.
    9000010    2    1    2  502    0  0.13285709258E+03  0.64456710425E+03  0.59422567370E+03  0.13289538505E+04  0.98989717974E+03 0.  0.
   -9000010    2    1    2    0  501 -0.13285709258E+03 -0.64456710425E+03 -0.38887832959E+03  0.12436478682E+04  0.98097701600E+03 0.  0.
        -13    1    3    3    0    0  0.50822920794E+03  0.48077175183E+03  0.13298426730E+03  0.71212585382E+03  0.10566000000E+00 0.  1.
         13    1    4    4    0    0 -0.13190660839E+03 -0.53694675740E+03 -0.71292010016E+03  0.90220078364E+03  0.10566000000E+00 0. -1.
          4    1    3    3  502    0 -0.37537211537E+03  0.16379535241E+03  0.46124140640E+03  0.61682799665E+03  0.00000000000E+00 0.  1.
         -4    1    4    4    0  501 -0.95048418777E+00 -0.10762034685E+03  0.32404177057E+03  0.34144708456E+03  0.00000000000E+00 0. -1.
</event>
<event>
 8    1  0.7446554E-006  0.1215333E+04  0.7818608E-02  0.8595105E-01
         -2   -1    0    0    0  501 -0.00000000000E+00  0.00000000000E+00  0.47084942127E+03  0.47084942127E+03  0.00000000000E+00 0. -1.
          2   -1    0    0  502    0  0.00000000000E+00 -0.00000000000E+00 -0.31587317851E+04  0.31587317851E+04  0.00000000000E+00 0.  1.
    9000010    2    1    2  502    0  0.38729612457E+03 -0.56417314770E+03 -0.14924346307E+04  0.19234429389E+04  0.10019890136E+04 0.  0.
   -9000010    2    1    2    0  501 -0.38729612457E+03  0.56417314770E+03 -0.11954477331E+04  0.17061382675E+04  0.10067387330E+04 0.  0.
        -13    1    3    3    0    0 -0.45021487730E+01 -0.56894525435E+03 -0.14135423237E+04  0.15237522383E+04  0.10566000000E+00 0.  1.
         13    1    4    4    0    0 -0.59161795309E+03  0.55943030985E+03 -0.12525450920E+04  0.14939355048E+04  0.10566000000E+00 0. -1.
          4    1    3    3  502    0  0.39179827334E+03  0.47721066473E+01 -0.78892307064E+02  0.39969070055E+03  0.00000000000E+00 0.  1.
         -4    1    4    4    0  501  0.20432182852E+03  0.47428378438E+01  0.57097358823E+02  0.21220276272E+03  0.00000000000E+00 0. -1.
</event>
<event>
 8    1  0.7446554E-006  0.1420389E+04  0.7818608E-02  0.8456842E-01
          2   -1    0    0  502    0  0.00000000000E+00  0.00000000000E+00  0.27550206538E+04  0.27550206538E+04  0.00000000000E+00 0.  1.
         -2   -1    0    0    0  501 -0.00000000000E+00 -0.00000000000E+00 -0.78257561557E+03  0.78257561557E+03  0.00000000000E+00 0. -1.
    9000010    2    1    2  502    0  0.75373998310E+03 -0.67125297803E+03  0.14349408959E+04  0.20194797699E+04  0.10002692856E+04 0.  0.
   -9000010    2    1    2    0  501 -0.75373998310E+03  0.67125297803E+03  0.53750414231E+03  0.15181164994E+04  0.99853015988E+03 0.  0.
        -13    1    3    3    0    0 -0.11835439409E+03 -0.36199299458E+03  0.97463698791E+02  0.39312323064E+03  0.10566000000E+00 0.  1.
         13    1    4    4    0    0 -0.92379751027E+03  0.78545500655E+03  0.42840473829E+03  0.12860295635E+04  0.10566000000E+00 0. -1.
          4    1    3    3  502    0  0.87209437719E+03 -0.30925998345E+03  0.13374771971E+04  0.16263565393E+04  0.00000000000E+00 0.  1.
         -4    1    4    4    0  501  0.17005752717E+03 -0.11420202851E+03  0.10909940402E+03  0.23208693591E+03  0.00000000000E+00 0. -1.
</event>
<event>
 8    1  0.7446554E-006  0.1157807E+04  0.7818608E-02  0.8639031E-01
          1   -1    0    0  502    0  0.00000000000E+00  0.00000000000E+00  0.19967301188E+04  0.19967301188E+04  0.00000000000E+00 0. -1.
         -1   -1    0    0    0  501 -0.00000000000E+00 -0.00000000000E+00 -0.72809220437E+03  0.72809220437E+03  0.00000000000E+00 0.  1.
    9000010    2    1    2  502    0  0.35475470769E+02 -0.56360822934E+03  0.25081400892E+03  0.11783664541E+04  0.10033579062E+04 0.  0.
   -9000010    2    1    2    0  501 -0.35475470769E+02  0.56360822934E+03  0.10178239055E+04  0.15464558691E+04  0.10181588811E+04 0.  0.
        -13    1    3    3    0    0 -0.36861608867E+03 -0.44039523176E+02 -0.15807504284E+03  0.40349105413E+03  0.10566000000E+00 0.  1.
         13    1    4    4    0    0  0.33051225975E+03  0.62767829900E+03  0.37106331554E+03  0.80056629718E+03  0.10566000000E+00 0. -1.
          4    1    3    3  502    0  0.40409155944E+03 -0.51956870617E+03  0.40888905175E+03  0.77487539997E+03  0.00000000000E+00 0.  1.
         -4    1    4    4    0  501 -0.36598773052E+03 -0.64070069651E+02  0.64676058997E+03  0.74588957189E+03  0.00000000000E+00 0. -1.
</event>
<event>
 7    1  0.7446554E-006  0.1922948E+04  0.7818608E-02  0.8200505E-01
         -2   -1    0    0    0  501 -0.00000000000E+00  0.00000000000E+00  0.39928879678E+04  0.39928879678E+04  0.00000000000E+00 0.  1.
          2   -1    0    0  502    0  0.00000000000E+00 -0.00000000000E+00 -0.22104465896E+04  0.22104465896E+04  0.00000000000E+00 0. -1.
    9000010    2    1    2  502    0 -0.16465732067E+03  0.15363239572E+04 -0.14880620814E+04  0.23599446553E+04  0.98367000720E+03 0.  0.
        -13    1    3    3    0    0 -0.16593446162E+02  0.64171038286E+03 -0.29643249395E+02  0.64260897234E+03  0.10566000000E+00 0.  1.
         13    1    1    2    0    0 -0.29688021724E+03 -0.46417885472E+02  0.12787671299E+04  0.13135973002E+04  0.10566000000E+00 0. -1.
          4    1    3    3  502    0 -0.14806387451E+03  0.89461357437E+03 -0.14584188320E+04  0.17173356829E+04  0.00000000000E+00 0.  1.
         -4    1    1    2    0  501  0.46153753791E+03 -0.14899060718E+04  0.19917363297E+04  0.25297926019E+04  0.00000000000E+00 0. -1.
</event>
<event>
 8    1  0.7446554E-006  0.1558456E+04  0.7818608E-02  0.8376630E-01
          2   -1    0    0  502    0  0.00000000000E+00  0.00000000000E+00  0.15249826137E+04  0.15249826137E+04  0.00000000000E+00 0.  1.
         -2   -1    0    0    0  501 -0.00000000000E+00 -0.00000000000E+00 -0.15970065909E+04  0.15970065909E+04  0.00000000000E+00 0. -1.
    9000010    2    1    2  502    0 -0.67060470925E+03  0.99453485141E+03  0.45407963731E+02  0.15578182822E+04  0.99293789856E+03 0.  0.
   -9000010    2    1    2    0  501  0.67060470925E+03 -0.99453485141E+03 -0.11743194095E+03  0.15641709224E+04  0.99701061524E+03 0.  0.
        -13    1    3    3    0    0 -0.52184123552E+03  0.10517470075E+04 -0.26972202846E+03  0.12046742409E+04  0.10566000000E+00 0.  1.
         13    1    4    4    0    0  0.12611343867E+03 -0.89967979009E+03 -0.33768979330E+03  0.96920726977E+03  0.10566000000E+00 0. -1.
          4    1    3    3  502    0 -0.14876347374E+03 -0.57212156089E+02  0.31512999219E+03  0.35314404129E+03  0.00000000000E+00 0.  1.
         -4    1    4    4    0  501  0.54449127058E+03 -0.94855061315E+02  0.22025785235E+03  0.59496365260E+03  0.00000000000E+00 0. -1.
</event>
<event>
 8    1  0.7446554E-006  0.1234168E+04  0.7818608E-02  0.8581267E-01
          2   -1    0    0  502    0  0.00000000000E+00  0.00000000000E+00  0.99037053040E+03  0.99037053040E+03  0.00000000000E+00 0.  1.
         -2   -1    0    0    0  501 -0.00000000000E+00 -0.00000000000E+00 -0.18664154405E+04  0.18664154405E+04  0.00000000000E+00 0. -1.
    9000010    2    1    2  502    0  0.69568168027E+03  0.23707545735E+03 -0.10386453174E+04  0.16168768690E+04  0.99766173687E+03 0.  0.
   -9000010    2    1    2    0  501 -0.69568168027E+03 -0.23707545735E+03  0.16260040729E+03  0.12399091020E+04  0.98527047859E+03 0.  0.
        -13    1    3    3    0    0  0.38336491621E+03 -0.17941841487E+03 -0.10104575465E+04  0.10955291375E+04  0.10566000000E+00 0.  1.
         13    1    4    4    0    0  0.24200910384E+03 -0.85168645851E+02 -0.61695519408E+02  0.26387203879E+03  0.10566000000E+00 0. -1.
          4    1    3    3  502    0  0.31231676406E+03  0.41649387222E+03 -0.28187770927E+02  0.52134773150E+03  0.00000000000E+00 0.  1.
         -4    1    4    4    0  501 -0.93769078411E+03 -0.15190681150E+03  0.22429592670E+03  0.97603706319E+03  0.00000000000E+00 0. -1.
</event>
<event>
 8    1  0.7446554E-006  0.1274268E+04  0.7818608E-02  0.8552641E-01
         -2   -1    0    0    0  501 -0.00000000000E+00  0.00000000000E+00  0.36433783588E+04  0.36433783588E+04  0.00000000000E+00 0. -1.
          2   -1    0    0  502    0  0.00000000000E+00 -0.00000000000E+00 -0.58185407142E+03  0.58185407142E+03  0.00000000000E+00 0.  1.
    9000010    2    1    2  502    0 -0.47266020944E+03 -0.63213937989E+03  0.25530835808E+04  0.28535520066E+04  0.10007574206E+04 0.  0.
   -9000010    2    1    2    0  501  0.47266020944E+03  0.63213937989E+03  0.50844070655E+03  0.13716804236E+04  0.99999368152E+03 0.  0.
        -13    1    3    3    0    0 -0.63299640913E+03 -0.72352826830E+03  0.14806980053E+04  0.17654019948E+04  0.10566000000E+00 0.  1.
         13    1    4    4    0    0 -0.10716066053E+03  0.23847516914E+03 -0.23388467808E+03  0.35079319729E+03  0.10566000000E+00 0. -1.
          4    1    3    3  502    0  0.16033619968E+03  0.91388888418E+02  0.10723855754E+04  0.10881500118E+04  0.00000000000E+00 0.  1.
         -4    1    4    4    0  501  0.57982086998E+03  0.39366421075E+03  0.74232538463E+03  0.10208872263E+04  0.00000000000E+00 0. -1.
</event>
<event>
 8    1  0.7446554E-006  0.1078702E+04  0.7818608E-02  0.8703967E-01
         -4   -1    0    0    0  501 -0.00000000000E+00  0.00000000000E+00  0.22225758100E+04  0.22225758100E+04  0.00000000000E+00 0. -1.
          4   -1    0    0  502    0  0.00000000000E+00 -0.00000000000E+00 -0.10153051693E+04  0.10153051693E+04  0.00000000000E+00 0.  1.
    9000010    2    1    2  502    0  0.35926037789E+03  0.18728783639E+03 -0.52416473996E+03  0.11958945904E+04  0.99562565458E+03 0.  0.
   -9000010    2    1    2    0  501 -0.35926037789E+03 -0.18728783639E+03  0.17314353807E+04  0.20419863889E+04  0.10038402173E+04 0.  0.
        -13    1    3    3    0    0  0.54759597365E+03 -0.62529172558E+02  0.38079394961E+02  0.55246836947E+03  0.10566000000E+00 0.  1.
         13    1    4    4    0    0 -0.34155246365E+03 -0.56800726010E+03  0.13438270293E+04  0.14983862749E+04  0.10566000000E+00 0. -1.
          4    1    3    3  502    0 -0.18833559576E+03  0.24981700895E+03 -0.56224413492E+03  0.64342622098E+03  0.00000000000E+00 0.  1.
         -4    1    4    4    0  501 -0.17707914241E+02  0.38071942371E+03  0.38760835142E+03  0.54360011397E+03  0.00000000000E+00 0. -1.
</event>
<event>
 8    1  0.7446554E-006  0.2609958E+04  0.7818608E-02  0.7957274E-01
         -2   -1    0    0    0  501 -0.00000000000E+00  0.00000000000E+00  0.26608125403E+04  0.26608125403E+04  0.00000000000E+00 0.  1.
          2   -1    0    0  502    0  0.00000000000E+00 -0.00000000000E+00 -0.25620210330E+04  0.25620210330E+04  0.00000000000E+00 0. -1.
    9000010    2    1    2  502    0 -0.18699276244E+04  0.15435138107E+04 -0.21891345115E+02  0.26186106570E+04  0.98872561303E+03 0.  0.
   -9000010    2    1    2    0  501  0.18699276244E+04 -0.15435138107E+04  0.12068285247E+03  0.26042229163E+04  0.94252238324E+03 0.  0.
        -13    1    3    3    0    0 -0.93647088155E+03  0.10455950284E+04 -0.45482267935E+03  0.14755034247E+04  0.10566000000E+00 0.  1.
         13    1    4    4    0    0  0.41922701780E+02 -0.41534478791E+02 -0.20743459636E+03  0.21566582665E+03  0.10566000000E+00 0. -1.
          4    1    3    3  502    0 -0.93345674281E+03  0.49791878229E+03  0.43293133424E+03  0.11431072323E+04  0.00000000000E+00 0.  1.
         -4    1    4    4    0  501  0.18280049226E+04 -0.15019793319E+04  0.32811744883E+03  0.23885570897E+04  0.00000000000E+00 0. -1.
</event>
<event>
 8    1  0.7446554E-006  0.1390146E+04  0.7818608E-02  0.8475667E-01
          2   -1    0    0  502    0  0.00000000000E+00  0.00000000000E+00  0.34452045506E+04  0.34452045506E+04  0.00000000000E+00 0. -1.
         -2   -1    0    0    0  501 -0.00000000000E+00 -0.00000000000E+00 -0.61349502661E+03  0.61349502661E+03  0.00000000000E+00 0.  1.
    9000010    2    1    2  502    0  0.90973495075E+03 -0.31948486867E+03  0.20148849074E+04  0.24509958114E+04  0.10089256740E+04 0.  0.
   -9000010    2    1    2    0  501 -0.90973495075E+03  0.31948486867E+03  0.81682461661E+03  0.16077037658E+04  0.99389168544E+03 0.  0.
        -13    1    3    3    0    0  0.10328447915E+04 -0.15715401313E+03  0.19875989388E+04  0.22454432302E+04  0.10566000000E+00 0.  1.
         13    1    4    4    0    0 -0.63045886116E+03  0.30101308887E+03 -0.46465845061E+02  0.70017593590E+03  0.10566000000E+00 0. -1.
          4    1    3    3  502    0 -0.12310984079E+03 -0.16233085554E+03  0.27285968561E+02  0.20555258120E+03  0.00000000000E+00 0.  1.
         -4    1    4    4    0  501 -0.27927608959E+03  0.18471779794E+02  0.86329046167E+03  0.90752782991E+03  0.00000000000E+00 0. -1.
</event>
<event>
 8    1  0.7446554E-006  0.1057287E+04  0.7818608E-02  0.8722551E-01
         -1   -1    0    0    0  501 -0.00000000000E+00  0.00000000000E+00  0.87188495813E+03  0.87188495813E+03  0.00000000000E+00 0.  1.
          1   -1    0    0  502    0  0.00000000000E+00 -0.00000000000E+00 -0.12883374398E+04  0.12883374398E+04  0.00000000000E+00 0. -1.
    9000010    2    1    2  502    0 -0.20207208155E+03  0.34646358288E+03 -0.13936994494E+03  0.10853045617E+04  0.99879520907E+03 0.  0.
   -9000010    2    1    2    0  501  0.20207208155E+03 -0.34646358288E+03 -0.27708253673E+03  0.10749178362E+04  0.95802060630E+03 0.  0.
        -13    1    3    3    0    0  0.14001657422E+03  0.21327708158E+03 -0.50587292517E+03  0.56656789723E+03  0.10566000000E+00 0.  1.
         13    1    4    4    0    0  0.30163526129E+02  0.13946775276E+03 -0.49510786412E+03  0.51526003207E+03  0.10566000000E+00 0. -1.
          4    1    3    3  502    0 -0.34208865577E+03  0.13318650130E+03  0.36650298023E+03  0.51873666446E+03  0.00000000000E+00 0.  1.
         -4    1    4    4    0  501  0.17190855543E+03 -0.48593133564E+03  0.21802532740E+03  0.55965780417E+03  0.00000000000E+00 0. -1.
</event>
<event>
 8    1  0.7446554E-006  0.1261522E+04  0.7818608E-02  0.8561621E-01
         -2   -1    0    0    0  501 -0.00000000000E+00  0.00000000000E+00  0.57372607809E+03  0.57372607809E+03  0.00000000000E+00 0. -1.
          2   -1    0    0  502    0  0.00000000000E+00 -0.00000000000E+00 -0.27867744188E+04  0.27867744188E+04  0.00000000000E+00 0.  1.
    9000010    2    1    2  502    0  0.69695123194E+03  0.30213982830E+03 -0.12225418521E+04  0.17580881999E+04  0.10095722079E+04 0.  0.
   -9000010    2    1    2    0  501 -0.69695123194E+03 -0.30213982830E+03 -0.99050648864E+03  0.16024122970E+04  0.10047848377E+04 0.  0.
        -13    1    3    3    0    0 -0.48103401649E+02  0.42124306432E+03 -0.76793600179E+03  0.87720315235E+03  0.10566000000E+00 0.  1.
         13    1    4    4    0    0  0.22410836877E+03 -0.21961962928E+03 -0.38671085780E+03  0.49799863576E+03  0.10566000000E+00 0. -1.
          4    1    3    3  502    0  0.74505463359E+03 -0.11910323602E+03 -0.45460585030E+03  0.88088504755E+03  0.00000000000E+00 0.  1.
         -4    1    4    4    0  501 -0.92105960071E+03 -0.82520199022E+02 -0.60379563084E+03  0.11044136612E+04  0.00000000000E+00 0. -1.
</event>
<event>
 8    1  0.7446554E-006  0.1031038E+04  0.7818608E-02  0.8745963E-01
         -2   -1    0    0    0  501 -0.00000000000E+00  0.00000000000E+00  0.88603035848E+03  0.88603035848E+03  0.00000000000E+00 0.  1.
          2   -1    0    0  502    0  0.00000000000E+00 -0.00000000000E+00 -0.12071750329E+04  0.12071750329E+04  0.00000000000E+00 0. -1.
    9000010    2    1    2  502    0  0.12599391812E+03  0.31336595758E+03 -0.88853709327E+02  0.10646316820E+04  0.10057201131E+04 0.  0.
   -9000010    2    1    2    0  501 -0.12599391812E+03 -0.31336595758E+03 -0.23229096505E+03  0.10285737093E+04  0.94336212152E+03 0.  0.
        -13    1    3    3    0    0 -0.57032238176E+02  0.46574951490E+03 -0.43807085708E+03  0.64193564616E+03  0.10566000000E+00 0.  1.
         13    1    4    4    0    0 -0.35204323909E+03  0.84124031152E+02 -0.40189624334E+03  0.54086217873E+03  0.10566000000E+00 0. -1.
          4    1    3    3  502    0  0.18302615630E+03 -0.15238355732E+03  0.34921714775E+03  0.42269603584E+03  0.00000000000E+00 0.  1.
         -4    1    4    4    0  501  0.22604932097E+03 -0.39748998873E+03  0.16960527829E+03  0.48771153060E+03  0.00000000000E+00 0. -1.
</event>
<event>
 8    1  0.7446554E-006  0.1908043E+04  0.7818608E-02  0.8206895E-01
          2   -1    0    0  502    0  0.00000000000E+00  0.00000000000E+00  0.16089283931E+04  0.16089283931E+04  0.00000000000E+00 0.  1.
         -2   -1    0    0    0  501 -0.00000000000E+00 -0.00000000000E+00 -0.22653250186E+04  0.22653250186E+04  0.00000000000E+00 0. -1.
    9000010    2    1    2  502    0  0.16488404527E+04  0.38686563693E+03 -0.30802585779E+03  0.19898504698E+04  0.99814082366E+03 0.  0.
   -9000010    2    1    2    0  501 -0.16488404527E+04 -0.38686563693E+03 -0.34837076777E+03  0.18844029419E+04  0.74918115033E+03 0.  0.
        -13    1    3    3    0    0  0.11503781806E+04  0.80776875932E+02  0.25158266750E+03  0.11803341526E+04  0.10566000000E+00 0.  1.
         13    1    4    4    0    0 -0.93547949349E+03 -0.17561714077E+03 -0.56833043518E+03  0.11085859270E+04  0.10566000000E+00 0. -1.
          4    1    3    3  502    0  0.49846227211E+03  0.30608876100E+03 -0.55960852529E+03  0.80951631726E+03  0.00000000000E+00 0.  1.
         -4    1    4    4    0  501 -0.71336095919E+03 -0.21124849616E+03  0.21995966740E+03  0.77581701483E+03  0.00000000000E+00 0. -1.
</event>
<event>
 8    1  0.7446554E-006  0.1554717E+04  0.7818608E-02  0.8378687E-01
          1   -1    0    0  502    0  0.00000000000E+00  0.00000000000E+00  0.76340027117E+03  0.76340027117E+03  0.00000000000E+00 0.  1.
         -1   -1    0    0    0  501 -0.00000000000E+00 -0.00000000000E+00 -0.34675840775E+04  0.34675840775E+04  0.00000000000E+00 0. -1.
    9000010    2    1    2  502    0  0.11435640993E+04  0.28151313869E+03 -0.72265476392E+03  0.17077003475E+04  0.10035048942E+04 0.  0.
   -9000010    2    1    2    0  501 -0.11435640993E+04 -0.28151313869E+03 -0.19815290424E+04  0.25232840011E+04  0.10264094251E+04 0.  0.
        -13    1    3    3    0    0  0.12906303886E+04  0.37601342926E+03 -0.52328733792E+03  0.14425472429E+04  0.10566000000E+00 0.  1.
         13    1    4    4    0    0 -0.80073252821E+03  0.15572377538E+03 -0.53971439104E+03  0.97811763659E+03  0.10566000000E+00 0. -1.
          4    1    3    3  502    0 -0.14706628922E+03 -0.94500290576E+02 -0.19936742599E+03  0.26515310462E+03  0.00000000000E+00 0.  1.
         -4    1    4    4    0  501 -0.34283157112E+03 -0.43723691407E+03 -0.14418146514E+04  0.15451663645E+04  0.00000000000E+00 0. -1.
</event>
<event>
 8    1  0.7446554E-006  0.1369750E+04  0.7818608E-02  0.8488643E-01
          2   -1    0    0  502    0  0.00000000000E+00  0.00000000000E+00  0.33268191986E+04  0.33268191986E+04  0.00000000000E+00 0.  1.
         -2   -1    0    0    0  501 -0.00000000000E+00 -0.00000000000E+00 -0.64105235671E+03  0.64105235671E+03  0.00000000000E+00 0. -1.
    9000010    2    1    2  502    0  0.84388793890E+03  0.37413443099E+03  0.20383809499E+04  0.24608266613E+04  0.10239861007E+04 0.  0.
   -9000010    2    1    2    0  501 -0.84388793890E+03 -0.37413443099E+03  0.64738589196E+03  0.15070448939E+04  0.99997619640E+03 0.  0.
        -13    1    3    3    0    0  0.15463296399E+03 -0.26172776040E+03  0.12248669501E+03  0.32774346025E+03  0.10566000000E+00 0.  1.
         13    1    4    4    0    0 -0.30158787828E+03  0.10825134909E+03  0.70959130495E+03  0.77858424986E+03  0.10566000000E+00 0. -1.
          4    1    3    3  502    0  0.68925497491E+03  0.63586219139E+03  0.19158942549E+04  0.21330832011E+04  0.00000000000E+00 0.  1.
         -4    1    4    4    0  501 -0.54230006062E+03 -0.48238578008E+03 -0.62205412988E+02  0.72846064408E+03  0.00000000000E+00 0. -1.
</event>
<event>
 8    1  0.7446554E-006  0.1359757E+04  0.7818608E-02  0.8495086E-01
          2   -1    0    0  502    0  0.00000000000E+00  0.00000000000E+00  0.35674271539E+04  0.35674271539E+04  0.00000000000E+00 0.  1.
         -2   -1    0    0    0  501 -0.00000000000E+00 -0.00000000000E+00 -0.52493097969E+03  0.52493097969E+03  0.00000000000E+00 0. -1.
    9000010    2    1    2  502    0 -0.90465267025E+03 -0.93858288802E+02  0.17616888865E+04  0.22313328689E+04  0.10237640387E+04 0.  0.
   -9000010    2    1    2    0  501  0.90465267025E+03  0.93858288802E+02  0.12808072877E+04  0.18610252647E+04  0.99786867640E+03 0.  0.
        -13    1    3    3    0    0 -0.79237878500E+03  0.37953657954E+03  0.12169147225E+04  0.15009309135E+04  0.10566000000E+00 0.  1.
         13    1    4    4    0    0 -0.39369589909E+02  0.19099292704E+03 -0.72571428501E+02  0.20807423239E+03  0.10566000000E+00 0. -1.
          4    1    3    3  502    0 -0.11227388525E+03 -0.47339486835E+03  0.54477416398E+03  0.73040195538E+03  0.00000000000E+00 0.  1.
         -4    1    4    4    0  501  0.94402226016E+03 -0.97134638235E+02  0.13533787162E+04  0.16529510323E+04  0.00000000000E+00 0. -1.
</event>
<event>
 8    1  0.7446554E-006  0.1365957E+04  0.7818608E-02  0.8491082E-01
          2   -1    0    0  502    0  0.00000000000E+00  0.00000000000E+00  0.18614050458E+04  0.18614050458E+04  0.00000000000E+00 0. -1.
         -2   -1    0    0    0  501 -0.00000000000E+00 -0.00000000000E+00 -0.12185128883E+04  0.12185128883E+04  0.00000000000E+00 0.  1.
    9000010    2    1    2  502    0  0.82859490414E+03  0.43502837400E+03  0.97085252136E+03  0.16794652375E+04  0.10011142115E+04 0.  0.
   -9000010    2    1    2    0  501 -0.82859490414E+03 -0.43502837400E+03 -0.32796036381E+03  0.14004526966E+04  0.98888348844E+03 0.  0.
        -13    1    3    3    0    0  0.58129950255E+02  0.49320389037E+03  0.70499105374E+03  0.86234654612E+03  0.10566000000E+00 0.  1.
         13    1    4    4    0    0 -0.35534237301E+02  0.23290932490E+03 -0.27515890802E+03  0.36224559552E+03  0.10566000000E+00 0. -1.
          4    1    3    3  502    0  0.77046495389E+03 -0.58175516368E+02  0.26586146762E+03  0.81711869140E+03  0.00000000000E+00 0.  1.
         -4    1    4    4    0  501 -0.79306066684E+03 -0.66793769891E+03 -0.52801455788E+02  0.10382071010E+04  0.00000000000E+00 0. -1.
</event>
<event>
 8    1  0.7446554E-006  0.1201906E+04  0.7818608E-02  0.8605129E-01
         -2   -1    0    0    0  501 -0.00000000000E+00  0.00000000000E+00  0.11768068465E+04  0.11768068465E+04  0.00000000000E+00 0. -1.
          2   -1    0    0  502    0  0.00000000000E+00 -0.00000000000E+00 -0.12570315256E+04  0.12570315256E+04  0.00000000000E+00 0.  1.
    9000010    2    1    2  502    0  0.63530562657E+03  0.16950584454E+03  0.14637297931E+03  0.12031424873E+04  0.99688581354E+03 0.  0.
   -9000010    2    1    2    0  501 -0.63530562657E+03 -0.16950584454E+03 -0.22659765839E+03  0.12306958848E+04  0.10153424997E+04 0.  0.
        -13    1    3    3    0    0  0.79963747199E+03 -0.51079371141E+02  0.33618917402E+03  0.86893748950E+03  0.10566000000E+00 0.  1.
         13    1    4    4    0    0 -0.80884064748E+03  0.78313525926E+02  0.58851208505E+02  0.81475129780E+03  0.10566000000E+00 0. -1.
          4    1    3    3  502    0 -0.16433184542E+03  0.22058521568E+03 -0.18981619471E+03  0.33420499782E+03  0.00000000000E+00 0.  1.
         -4    1    4    4    0  501  0.17353502091E+03 -0.24781937047E+03 -0.28544886689E+03  0.41594458702E+03  0.00000000000E+00 0. -1.
</event>
<event>
 8    1  0.7446554E-006  0.1553388E+04  0.7818608E-02  0.8379420E-01
          2   -1    0    0  502    0  0.00000000000E+00  0.00000000000E+00  0.47131635848E+04  0.47131635848E+04  0.00000000000E+00 0. -1.
         -2   -1    0    0    0  501 -0.00000000000E+00 -0.00000000000E+00 -0.54799216228E+03  0.54799216228E+03  0.00000000000E+00 0.  1.
    9000010    2    1    2  502    0 -0.11170564917E+04 -0.31927020749E+03  0.13878689114E+04  0.20707354275E+04  0.10059902705E+04 0.  0.
   -9000010    2    1    2    0  501  0.11170564917E+04  0.31927020749E+03  0.27773025111E+04  0.31904203196E+04  0.10562309911E+04 0.  0.
        -13    1    3    3    0    0  0.10273502820E+03 -0.85291614966E+02 -0.73856596621E+02  0.15259080455E+03  0.10566000000E+00 0.  1.
         13    1    4    4    0    0  0.86451350399E+03  0.35564352162E+03  0.27823830207E+04  0.29352208091E+04  0.10566000000E+00 0. -1.
          4    1    3    3  502    0 -0.12197915199E+04 -0.23397859253E+03  0.14617255080E+04  0.19181446229E+04  0.00000000000E+00 0.  1.
         -4    1    4    4    0  501  0.25254298767E+03 -0.36373314122E+02 -0.50805095470E+01  0.25519951054E+03  0.00000000000E+00 0. -1.
</event>
<event>
 8    1  0.7446554E-006  0.1178585E+04  0.7818608E-02  0.8622865E-01
          2   -1    0    0  502    0  0.00000000000E+00  0.00000000000E+00  0.84673002692E+03  0.84673002692E+03  0.00000000000E+00 0. -1.
         -2   -1    0    0    0  501 -0.00000000000E+00 -0.00000000000E+00 -0.16792596222E+04  0.16792596222E+04  0.00000000000E+00 0.  1.
    9000010    2    1    2  502    0  0.61848824810E+03  0.11095758604E+03 -0.60949871522E+03  0.13304838524E+04  0.10019277912E+04 0.  0.
   -9000010    2    1    2    0  501 -0.61848824810E+03 -0.11095758604E+03 -0.22303088008E+03  0.11955057967E+04  0.99229634566E+03 0.  0.
        -13    1    3    3    0    0  0.16077340880E+03  0.53059598953E+03 -0.36129237245E+03  0.66174948632E+03  0.10566000000E+00 0.  1.
         13    1    4    4    0    0 -0.30688290390E+03  0.31385737342E+03 -0.44385636490E+03  0.62425319493E+03  0.10566000000E+00 0. -1.
          4    1    3    3  502    0  0.45771483930E+03 -0.41963840350E+03 -0.24820634277E+03  0.66873436609E+03  0.00000000000E+00 0.  1.
         -4    1    4    4    0  501 -0.31160534420E+03 -0.42481495946E+03  0.22082548482E+03  0.57125260180E+03  0.00000000000E+00 0. -1.
</event>
<event>
 8    1  0.7446554E-006  0.1586867E+04  0.7818608E-02  0.8361190E-01
          2   -1    0    0  502    0  0.00000000000E+00  0.00000000000E+00  0.27569484937E+04  0.27569484937E+04  0.00000000000E+00 0. -1.
         -2   -1    0    0    0  501 -0.00000000000E+00 -0.00000000000E+00 -0.92364972836E+03  0.92364972836E+03  0.00000000000E+00 0.  1.
    9000010    2    1    2  502    0  0.53038054261E+03  0.11064901928E+04  0.11129101654E+04  0.19415034772E+04  0.10125426653E+04 0.  0.
   -9000010    2    1    2    0  501 -0.53038054261E+03 -0.11064901928E+04  0.72038859992E+03  0.17390947448E+04  0.99993336262E+03 0.  0.
        -13    1    3    3    0    0  0.39739436231E+03  0.27043752370E+03  0.97053706553E+03  0.10830516794E+04  0.10566000000E+00 0.  1.
         13    1    4    4    0    0  0.10072653488E+03  0.10017075929E+03 -0.76479077605E+02  0.16133529162E+03  0.10566000000E+00 0. -1.
          4    1    3    3  502    0  0.13298618029E+03  0.83605266915E+03  0.14237309987E+03  0.85845179789E+03  0.00000000000E+00 0.  1.
         -4    1    4    4    0  501 -0.63110707748E+03 -0.12066609521E+04  0.79686767752E+03  0.15777594532E+04  0.00000000000E+00 0. -1.
</event>
<event>
 8    1  0.7446554E-006  0.1361310E+04  0.7818608E-02  0.8494081E-01
         -2   -1    0    0    0  501 -0.00000000000E+00  0.00000000000E+00  0.16847595891E+04  0.16847595891E+04  0.00000000000E+00 0. -1.
          2   -1    0    0  502    0  0.00000000000E+00 -0.00000000000E+00 -0.12283924823E+04  0.12283924823E+04  0.00000000000E+00 0.  1.
    9000010    2    1    2  502    0  0.65758493187E+03 -0.60823890778E+03 -0.24389004515E+03  0.13753891157E+04  0.10148105015E+04 0.  0.
   -9000010    2    1    2    0  501 -0.65758493187E+03  0.60823890778E+03  0.70025715197E+03  0.15377629556E+04  0.10353657891E+04 0.  0.
        -13    1    3    3    0    0 -0.22600519528E+03 -0.10937790743E+03  0.14358167313E+03  0.28923620615E+03  0.10566000000E+00 0.  1.
         13    1    4    4    0    0  0.16592920979E+03  0.51348832478E+03  0.25602625272E+03  0.59728738108E+03  0.10566000000E+00 0. -1.
          4    1    3    3  502    0  0.88359012715E+03 -0.49886100035E+03 -0.38747171828E+03  0.10861529096E+04  0.00000000000E+00 0.  1.
         -4    1    4    4    0  501 -0.82351414166E+03  0.94750582993E+02  0.44423089924E+03  0.94047557455E+03  0.00000000000E+00 0. -1.
</event>
<event>
 8    1  0.7446554E-006  0.1370872E+04  0.7818608E-02  0.8487923E-01
         -2   -1    0    0    0  501 -0.00000000000E+00  0.00000000000E+00  0.90540834799E+03  0.90540834799E+03  0.00000000000E+00 0. -1.
          2   -1    0    0  502    0  0.00000000000E+00 -0.00000000000E+00 -0.21234416614E+04  0.21234416614E+04  0.00000000000E+00 0.  1.
    9000010    2    1    2  502    0  0.73942904517E+03  0.55604434075E+03 -0.38004208710E+03  0.14186572880E+04  0.10060894052E+04 0.  0.
   -9000010    2    1    2    0  501 -0.73942904517E+03 -0.55604434075E+03 -0.83799122630E+03  0.16101927213E+04  0.10171286461E+04 0.  0.
        -13    1    3    3    0    0  0.89471161822E+03  0.49435202302E+03 -0.56617968459E+03  0.11685256732E+04  0.10566000000E+00 0.  1.
         13    1    4    4    0    0 -0.67835576805E+03 -0.24987929209E+03 -0.74939671598E+01  0.72295392617E+03  0.10566000000E+00 0. -1.
          4    1    3    3  502    0 -0.15528257306E+03  0.61692317736E+02  0.18613759748E+03  0.25013161487E+03  0.00000000000E+00 0.  1.
         -4    1    4    4    0  501 -0.61073277121E+02 -0.30616504866E+03 -0.83049725914E+03  0.88723879517E+03  0.00000000000E+00 0. -1.
</event>
<event>
 8    1  0.7446554E-006  0.1352457E+04  0.7818608E-02  0.8499828E-01
          1   -1    0    0  502    0  0.00000000000E+00  0.00000000000E+00  0.20401016375E+04  0.20401016375E+04  0.00000000000E+00 0. -1.
         -1   -1    0    0    0  501 -0.00000000000E+00 -0.00000000000E+00 -0.16939276045E+04  0.16939276045E+04  0.00000000000E+00 0.  1.
    9000010    2    1    2  502    0  0.33048555632E+03  0.85685087235E+03 -0.11088818781E+04  0.17348073530E+04  0.96774139739E+03 0.  0.
   -9000010    2    1    2    0  501 -0.33048555632E+03 -0.85685087235E+03  0.14550559111E+04  0.19992218889E+04  0.10179815010E+04 0.  0.
        -13    1    3    3    0    0  0.10251468313E+03  0.10054263061E+04 -0.65096935208E+03  0.12021449271E+04  0.10566000000E+00 0.  1.
         13    1    4    4    0    0 -0.48387094034E+03 -0.42380368501E+03  0.13946798998E+04  0.15358621958E+04  0.10566000000E+00 0. -1.
          4    1    3    3  502    0  0.22797087320E+03 -0.14857543375E+03 -0.45791252598E+03  0.53266242592E+03  0.00000000000E+00 0.  1.
         -4    1    4    4    0  501  0.15338538402E+03 -0.43304718734E+03  0.60376011286E+02  0.46335969315E+03  0.00000000000E+00 0. -1.
</event>
<event>
 8    1  0.7446554E-006  0.1308393E+04  0.7818608E-02  0.8529124E-01
          2   -1    0    0  502    0  0.00000000000E+00  0.00000000000E+00  0.56928687707E+03  0.56928687707E+03  0.00000000000E+00 0.  1.
         -2   -1    0    0    0  501 -0.00000000000E+00 -0.00000000000E+00 -0.36175569887E+04  0.36175569887E+04  0.00000000000E+00 0. -1.
    9000010    2    1    2  502    0  0.60535767321E+03 -0.56732997460E+03 -0.65827229687E+03  0.14591840082E+04  0.10037800258E+04 0.  0.
   -9000010    2    1    2    0  501 -0.60535767321E+03  0.56732997460E+03 -0.23899978148E+04  0.27276598576E+04  0.10196654018E+04 0.  0.
        -13    1    3    3    0    0 -0.69857225095E+02 -0.62100386084E+03 -0.31572654577E+03  0.70014933403E+03  0.10566000000E+00 0.  1.
         13    1    4    4    0    0 -0.24855839857E+03  0.82296097811E+03 -0.17735063230E+04  0.19708807011E+04  0.10566000000E+00 0. -1.
          4    1    3    3  502    0  0.67521489830E+03  0.53673886242E+02 -0.34254575110E+03  0.75903467414E+03  0.00000000000E+00 0.  1.
         -4    1    4    4    0  501 -0.35679927464E+03 -0.25563100351E+03 -0.61649149179E+03  0.75677915655E+03  0.00000000000E+00 0. -1.
</event>
<event>
 8    1  0.7446554E-006  0.1832423E+04  0.7818608E-02  0.8240258E-01
         -2   -1    0    0    0  501 -0.00000000000E+00  0.00000000000E+00  0.40282252186E+04  0.40282252186E+04  0.00000000000E+00 0. -1.
          2   -1    0    0  502    0  0.00000000000E+00 -0.00000000000E+00 -0.83567653508E+03  0.83567653508E+03  0.00000000000E+00 0.  1.
    9000010    2    1    2  502    0 -0.50036544755E+03 -0.14498357290E+04  0.17208337618E+04  0.25156757934E+04  0.10074555271E+04 0.  0.
   -9000010    2    1    2    0  501  0.50036544755E+03  0.14498357290E+04  0.14717149217E+04  0.23482259604E+04  0.99791338690E+03 0.  0.
        -13    1    3    3    0    0 -0.23992645745E+03 -0.13658614665E+04  0.90693477064E+03  0.16570072239E+04  0.10566000000E+00 0.  1.
         13    1    4    4    0    0  0.80510504937E+03  0.11240014811E+04  0.11469663352E+04  0.17964145556E+04  0.10566000000E+00 0. -1.
          4    1    3    3  502    0 -0.26043899009E+03 -0.83974262521E+02  0.81389899119E+03  0.85866856946E+03  0.00000000000E+00 0.  1.
         -4    1    4    4    0  501 -0.30473960183E+03  0.32583424790E+03  0.32474858650E+03  0.55181140480E+03  0.00000000000E+00 0. -1.
</event>
<event>
 8    1  0.7446554E-006  0.1153795E+04  0.7818608E-02  0.8642192E-01
          1   -1    0    0  502    0  0.00000000000E+00  0.00000000000E+00  0.17380374859E+04  0.17380374859E+04  0.00000000000E+00 0.  1.
         -1   -1    0    0    0  501 -0.00000000000E+00 -0.00000000000E+00 -0.78014060239E+03  0.78014060239E+03  0.00000000000E+00 0. -1.
    9000010    2    1    2  502    0  0.59734944123E+03  0.18104216605E+03  0.64270557491E+03  0.13091297787E+04  0.95454057048E+03 0.  0.
   -9000010    2    1    2    0  501 -0.59734944123E+03 -0.18104216605E+03  0.31519130864E+03  0.12090483096E+04  0.98633140125E+03 0.  0.
        -13    1    3    3    0    0  0.42904683049E+03 -0.19092254693E+03 -0.82594973934E+02  0.47681709551E+03  0.10566000000E+00 0.  1.
         13    1    4    4    0    0  0.16276358707E+02  0.85388900095E+02 -0.29257915362E+03  0.30521919404E+03  0.10566000000E+00 0. -1.
          4    1    3    3  502    0  0.16830261073E+03  0.37196471299E+03  0.72530054884E+03  0.83231268321E+03  0.00000000000E+00 0.  1.
         -4    1    4    4    0  501 -0.61362579994E+03 -0.26643106615E+03  0.60777046226E+03  0.90382911557E+03  0.00000000000E+00 0. -1.
</event>
<event>
 8    1  0.7446554E-006  0.1200596E+04  0.7818608E-02  0.8606114E-01
         -4   -1    0    0    0  501 -0.00000000000E+00  0.00000000000E+00  0.82359522664E+03  0.82359522664E+03  0.00000000000E+00 0. -1.
          4   -1    0    0  502    0  0.00000000000E+00 -0.00000000000E+00 -0.18288078536E+04  0.18288078536E+04  0.00000000000E+00 0.  1.
    9000010    2    1    2  502    0 -0.65473332092E+03 -0.60861402232E+02 -0.78062633618E+03  0.14386819594E+04  0.10139272518E+04 0.  0.
   -9000010    2    1    2    0  501  0.65473332092E+03  0.60861402232E+02 -0.22458629080E+03  0.12137211208E+04  0.99513824434E+03 0.  0.
        -13    1    3    3    0    0 -0.18290941845E+03 -0.51797725207E+03 -0.31224492058E+03  0.63186485154E+03  0.10566000000E+00 0.  1.
         13    1    4    4    0    0  0.29781174553E+03  0.52395906573E+03 -0.17164650362E+03  0.62664780516E+03  0.10566000000E+00 0. -1.
          4    1    3    3  502    0 -0.47182390247E+03  0.45711584983E+03 -0.46838141560E+03  0.80681710789E+03  0.00000000000E+00 0.  1.
         -4    1    4    4    0  501  0.35692157539E+03 -0.46309766350E+03 -0.52939787178E+02  0.58707331568E+03  0.00000000000E+00 0. -1.
</event>
<event>
 8    1  0.7446554E-006  0.1139929E+04  0.7818608E-02  0.8653224E-01
         -1   -1    0    0    0  501 -0.00000000000E+00  0.00000000000E+00  0.63621738186E+03  0.63621738186E+03  0.00000000000E+00 0. -1.
          1   -1    0    0  502    0  0.00000000000E+00 -0.00000000000E+00 -0.23862844171E+04  0.23862844171E+04  0.00000000000E+00 0.  1.
    9000010    2    1    2  502    0  0.44548075343E+03 -0.36270657251E+03 -0.14588650188E+04  0.18614180930E+04  0.10032851113E+04 0.  0.
   -9000010    2    1    2    0  501 -0.44548075343E+03  0.36270657251E+03 -0.29120201647E+03  0.11610837060E+04  0.96607846392E+03 0.  0.
        -13    1    3    3    0    0  0.58061314451E+03 -0.39336260855E+02 -0.13863323311E+04  0.15035213029E+04  0.10566000000E+00 0.  1.
         13    1    4    4    0    0 -0.60984502172E+03  0.45865463471E+03  0.56020095588E+02  0.76512305333E+03  0.10566000000E+00 0. -1.
          4    1    3    3  502    0 -0.13513239108E+03 -0.32337031165E+03 -0.72532687717E+02  0.35789679010E+03  0.00000000000E+00 0.  1.
         -4    1    4    4    0  501  0.16436426829E+03 -0.95948062209E+02 -0.34722211206E+03  0.39596065264E+03  0.00000000000E+00 0. -1.
</event>
<event>
 8    1  0.7446554E-006  0.1228449E+04  0.7818608E-02  0.8585442E-01
         -1   -1    0    0    0  501 -0.00000000000E+00  0.00000000000E+00  0.94429735978E+03  0.94429735978E+03  0.00000000000E+00 0. -1.
          1   -1    0    0  502    0  0.00000000000E+00 -0.00000000000E+00 -0.15987728061E+04  0.15987728061E+04  0.00000000000E+00 0.  1.
    9000010    2    1    2  502    0 -0.64443802918E+03  0.23667079607E+03 -0.30669381289E+03  0.12767405702E+04  0.10318391103E+04 0.  0.
   -9000010    2    1    2    0  501  0.64443802918E+03 -0.23667079607E+03 -0.34778163341E+03  0.12663295957E+04  0.10056466284E+04 0.  0.
        -13    1    3    3    0    0 -0.87202323700E+03  0.42310905016E+02 -0.36942356335E+02  0.87383035390E+03  0.10566000000E+00 0.  1.
         13    1    4    4    0    0  0.99120594784E+02  0.13940202865E+03  0.29647503452E+03  0.34227952782E+03  0.10566000000E+00 0. -1.
          4    1    3    3  502    0  0.22758520781E+03  0.19435989106E+03 -0.26975145656E+03  0.40291021628E+03  0.00000000000E+00 0.  1.
         -4    1    4    4    0  501  0.54531743440E+03 -0.37607282473E+03 -0.64425666794E+03  0.92405006788E+03  0.00000000000E+00 0. -1.
</event>
<event>
 8    1  0.7446554E-006  0.1531629E+04  0.7818608E-02  0.8391525E-01
         -4   -1    0    0    0  501 -0.00000000000E+00  0.00000000000E+00  0.89546265265E+03  0.89546265265E+03  0.00000000000E+00 0.  1.
          4   -1    0    0  502    0  0.00000000000E+00 -0.00000000000E+00 -0.32787805246E+04  0.32787805246E+04  0.00000000000E+00 0. -1.
    9000010    2    1    2  502    0 -0.10554384191E+04 -0.47025478279E+03 -0.21271836744E+04  0.26210405592E+04  0.10049146288E+04 0.  0.
   -9000010    2    1    2    0  501  0.10554384191E+04  0.47025478279E+03 -0.25613419752E+03  0.15532026180E+04  0.10058547749E+04 0.  0.
        -13    1    3    3    0    0 -0.74678290322E+03 -0.78041659112E+03 -0.16640965600E+04  0.19839234190E+04  0.10566000000E+00 0.  1.
         13    1    4    4    0    0  0.43955799772E+03 -0.11800113239E+03  0.29166934654E+03  0.54056130039E+03  0.10566000000E+00 0. -1.
          4    1    3    3  502    0 -0.30865551592E+03  0.31016180834E+03 -0.46308711440E+03  0.63711714024E+03  0.00000000000E+00 0.  1.
         -4    1    4    4    0  501  0.61588042142E+03  0.58825591518E+03 -0.54780354407E+03  0.10126413176E+04  0.00000000000E+00 0. -1.
</event>
<event>
 8    1  0.7446554E-006  0.1304777E+04  0.7818608E-02  0.8531581E-01
          2   -1    0    0  502    0  0.00000000000E+00  0.00000000000E+00  0.18413036156E+04  0.18413036156E+04  0.00000000000E+00 0. -1.
         -2   -1    0    0    0  501 -0.00000000000E+00 -0.00000000000E+00 -0.11166753990E+04  0.11166753990E+04  0.00000000000E+00 0.  1.
    9000010    2    1    2  502    0  0.84122574120E+03  0.28570027947E+02  0.97356304552E+03  0.16207392930E+04  0.98513646681E+03 0.  0.
   -9000010    2    1    2    0  501 -0.84122574120E+03 -0.28570027947E+02 -0.24893482889E+03  0.13372397216E+04  0.10088431642E+04 0.  0.
        -13    1    3    3    0    0  0.52984340741E+03  0.30659196802E+03  0.58481337173E+02  0.61494125670E+03  0.10566000000E+00 0.  1.
         13    1    4    4    0    0 -0.96416076246E+03 -0.24780626347E+03 -0.36510923348E+03  0.10603389475E+04  0.10566000000E+00 0. -1.
          4    1    3    3  502    0  0.31138233379E+03 -0.27802194007E+03  0.91508170835E+03  0.10057980363E+04  0.00000000000E+00 0.  1.
         -4    1    4    4    0  501  0.12293502126E+03  0.21923623552E+03  0.11617440459E+03  0.27690077410E+03  0.00000000000E+00 0. -1.
</event>
<event>
 8    1  0.7446554E-006  0.1554046E+04  0.7818608E-02  0.8379058E-01
          2   -1    0    0  502    0  0.00000000000E+00  0.00000000000E+00  0.23980036766E+04  0.23980036766E+04  0.00000000000E+00 0.  1.
         -2   -1    0    0    0  501 -0.00000000000E+00 -0.00000000000E+00 -0.11282062345E+04  0.11282062345E+04  0.00000000000E+00 0. -1.
    9000010    2    1    2  502    0  0.13614794624E+03  0.11848331146E+04  0.73666673318E+02  0.15963441869E+04  0.10585472176E+04 0.  0.
   -9000010    2    1    2    0  501 -0.13614794624E+03 -0.11848331146E+04  0.11961307687E+04  0.19298657241E+04  0.93342762152E+03 0.  0.
        -13    1    3    3    0    0  0.53207403683E+03  0.33615406652E+03 -0.11828204208E+03  0.64038503242E+03  0.10566000000E+00 0.  1.
         13    1    4    4    0    0  0.19811614794E+03 -0.31123622324E+01 -0.22925763772E+02  0.19946251950E+03  0.10566000000E+00 0. -1.
          4    1    3    3  502    0 -0.39592609059E+03  0.84867904803E+03  0.19194871539E+03  0.95595915452E+03  0.00000000000E+00 0.  1.
         -4    1    4    4    0  501 -0.33426409419E+03 -0.11817207523E+04  0.12190565325E+04  0.17304032046E+04  0.00000000000E+00 0. -1.
</event>
<event>
 8    1  0.7446554E-006  0.2300962E+04  0.7818608E-02  0.8055810E-01
         -2   -1    0    0    0  501 -0.00000000000E+00  0.00000000000E+00  0.37950187677E+04  0.37950187677E+04  0.00000000000E+00 0.  1.
          2   -1    0    0  502    0  0.00000000000E+00 -0.00000000000E+00 -0.14009977367E+04  0.14009977367E+04  0.00000000000E+00 0. -1.
    9000010    2    1    2  502    0 -0.13995017507E+04  0.15354552880E+04  0.13622559679E+04  0.26686854641E+04  0.97463464558E+03 0.  0.
   -9000010    2    1    2    0  501  0.13995017507E+04 -0.15354552880E+04  0.10317650631E+04  0.25273310404E+04  0.10033119908E+04 0.  0.
        -13    1    3    3    0    0 -0.93791347447E+03  0.31787267567E+03  0.52884613853E+03  0.11226767001E+04  0.10566000000E+00 0.  1.
         13    1    4    4    0    0  0.64403988566E+02  0.10005292481E+03 -0.77903938783E+02  0.14222340296E+03  0.10566000000E+00 0. -1.
          4    1    3    3  502    0 -0.46158827623E+03  0.12175826123E+04  0.83340982940E+03  0.15460087640E+04  0.00000000000E+00 0.  1.
         -4    1    4    4    0  501  0.13350977621E+04 -0.16355082128E+04  0.11096690018E+04  0.23851076374E+04  0.00000000000E+00 0. -1.
</event>
<event>
 8    1  0.7446554E-006  0.1122092E+04  0.7818608E-02  0.8667658E-01
          1   -1    0    0  502    0  0.00000000000E+00  0.00000000000E+00  0.31766126432E+04  0.31766126432E+04  0.00000000000E+00 0. -1.
         -1   -1    0    0    0  501 -0.00000000000E+00 -0.00000000000E+00 -0.49967157395E+03  0.49967157395E+03  0.00000000000E+00 0.  1.
    9000010    2    1    2  502    0  0.36490376168E+03 -0.31994177780E+03  0.21796593638E+04  0.24541706942E+04  0.10180969293E+04 0.  0.
   -9000010    2    1    2    0  501 -0.36490376168E+03  0.31994177780E+03  0.49728170543E+03  0.12221135230E+04  0.10053630548E+04 0.  0.
        -13    1    3    3    0    0  0.35000442912E+03 -0.19589569586E+03  0.16188687786E+03  0.43253392520E+03  0.10566000000E+00 0.  1.
         13    1    4    4    0    0  0.66270715267E+02  0.59667588202E+03  0.21875675139E+03  0.63895887452E+03  0.10566000000E+00 0. -1.
          4    1    3    3  502    0  0.14899332558E+02 -0.12404608194E+03  0.20177724859E+04  0.20216367690E+04  0.00000000000E+00 0.  1.
         -4    1    4    4    0  501 -0.43117447694E+03 -0.27673410422E+03  0.27852495404E+03  0.58315464847E+03  0.00000000000E+00 0. -1.
</event>
<event>
 8    1  0.7446554E-006  0.1380604E+04  0.7818608E-02  0.8481709E-01
         -2   -1    0    0    0  501 -0.00000000000E+00  0.00000000000E+00  0.62158899316E+03  0.62158899316E+03  0.00000000000E+00 0.  1.
          2   -1    0    0  502    0  0.00000000000E+00 -0.00000000000E+00 -0.31169692623E+04  0.31169692623E+04  0.00000000000E+00 0. -1.
    9000010    2    1    2  502    0 -0.62497117325E+03 -0.72017074203E+03 -0.14873517933E+04  0.20306456606E+04  0.10010352526E+04 0.  0.
   -9000010    2    1    2    0  501  0.62497117325E+03  0.72017074203E+03 -0.10080284759E+04  0.17079125948E+04  0.99579574127E+03 0.  0.
        -13    1    3    3    0    0 -0.35371907946E+03 -0.28453237452E+03 -0.14462455953E+04  0.15158173347E+04  0.10566000000E+00 0.  1.
         13    1    4    4    0    0  0.22383510320E+03  0.35937509489E+03  0.13464140619E+03  0.44427573834E+03  0.10566000000E+00 0. -1.
          4    1    3    3  502    0 -0.27125209379E+03 -0.43563836750E+03 -0.41106198005E+02  0.51482832589E+03  0.00000000000E+00 0.  1.
         -4    1    4    4    0  501  0.40113607005E+03  0.36079564713E+03 -0.11426698821E+04  0.12636368565E+04  0.00000000000E+00 0. -1.
</event>
<event>
 8    1  0.7446554E-006  0.1270032E+04  0.7818608E-02  0.8555613E-01
         -2   -1    0    0    0  501 -0.00000000000E+00  0.00000000000E+00  0.81561808315E+03  0.81561808315E+03  0.00000000000E+00 0.  1.
          2   -1    0    0  502    0  0.00000000000E+00 -0.00000000000E+00 -0.28679225962E+04  0.28679225962E+04  0.00000000000E+00 0. -1.
    9000010    2    1    2  502    0  0.34818557305E+03 -0.70032580789E+03 -0.12233714525E+00  0.12702897531E+04  0.10009728325E+04 0.  0.
   -9000010    2    1    2    0  501 -0.34818557305E+03  0.70032580789E+03 -0.20521821759E+04  0.24132509262E+04  0.10003194087E+04 0.  0.
        -13    1    3    3    0    0  0.23069464015E+03 -0.26246203582E+03 -0.49063892712E+03  0.60235612823E+03  0.10566000000E+00 0.  1.
         13    1    4    4    0    0  0.21935488884E+03 -0.10116851676E+03 -0.71120895647E+03  0.75111239303E+03  0.10566000000E+00 0. -1.
          4    1    3    3  502    0  0.11749093290E+03 -0.43786377207E+03  0.49051658998E+03  0.66793362488E+03  0.00000000000E+00 0.  1.
         -4    1    4    4    0  501 -0.56754046189E+03  0.80149432465E+03 -0.13409732194E+04  0.16621385332E+04  0.00000000000E+00 0. -1.
</event>
<event>
 8    1  0.7446554E-006  0.1044800E+04  0.7818608E-02  0.8733600E-01
         -2   -1    0    0    0  501 -0.00000000000E+00  0.00000000000E+00  0.35628591690E+03  0.35628591690E+03  0.00000000000E+00 0. -1.
          2   -1    0    0  502    0  0.00000000000E+00 -0.00000000000E+00 -0.30657852964E+04  0.30657852964E+04  0.00000000000E+00 0.  1.
    9000010    2    1    2  502    0 -0.12243617305E+03  0.27322981511E+03 -0.13947994596E+04  0.17414330621E+04  0.99873841870E+03 0.  0.
   -9000010    2    1    2    0  501  0.12243617305E+03 -0.27322981511E+03 -0.13146999199E+04  0.16806381512E+04  0.10032265784E+04 0.  0.
        -13    1    3    3    0    0 -0.90175026710E+02  0.57228045503E+03 -0.40480972749E+03  0.70675836131E+03  0.10566000000E+00 0.  1.
         13    1    4    4    0    0 -0.22086009696E+03 -0.52148254639E+03 -0.10129341645E+04  0.11604994017E+04  0.10566000000E+00 0. -1.
          4    1    3    3  502    0 -0.32261146338E+02 -0.29905063992E+03 -0.98998973213E+03  0.10346747008E+04  0.00000000000E+00 0.  1.
         -4    1    4    4    0  501  0.34329627001E+03  0.24825273128E+03 -0.30176575544E+03  0.52013874951E+03  0.00000000000E+00 0. -1.
</event>
<event>
 8    1  0.7446554E-006  0.1224884E+04  0.7818608E-02  0.8588056E-01
          1   -1    0    0  502    0  0.00000000000E+00  0.00000000000E+00  0.20532888693E+04  0.20532888693E+04  0.00000000000E+00 0. -1.
         -1   -1    0    0    0  501 -0.00000000000E+00 -0.00000000000E+00 -0.74613865456E+03  0.74613865456E+03  0.00000000000E+00 0.  1.
    9000010    2    1    2  502    0  0.59171657856E+03  0.38674242955E+03  0.85813074271E+03  0.15008548188E+04  0.10082056334E+04 0.  0.
   -9000010    2    1    2    0  501 -0.59171657856E+03 -0.38674242955E+03  0.44901947206E+03  0.12985727051E+04  0.99245874880E+03 0.  0.
        -13    1    3    3    0    0  0.36730194011E+03 -0.27230711083E+03  0.93393905612E+02  0.46667366605E+03  0.10566000000E+00 0.  1.
         13    1    4    4    0    0 -0.52496942668E+03 -0.98689400014E+02  0.72066761593E+03  0.89704755751E+03  0.10566000000E+00 0. -1.
          4    1    3    3  502    0  0.22441463845E+03  0.65904954038E+03  0.76473683710E+03  0.10341811527E+04  0.00000000000E+00 0.  1.
         -4    1    4    4    0  501 -0.66747151876E+02 -0.28805302953E+03 -0.27164814386E+03  0.40152514762E+03  0.00000000000E+00 0. -1.
</event>
<event>
 8    1  0.7446554E-006  0.1590090E+04  0.7818608E-02  0.8359459E-01
         -2   -1    0    0    0  501 -0.00000000000E+00  0.00000000000E+00  0.14784162636E+04  0.14784162636E+04  0.00000000000E+00 0. -1.
          2   -1    0    0  502    0  0.00000000000E+00 -0.00000000000E+00 -0.17183327959E+04  0.17183327959E+04  0.00000000000E+00 0.  1.
    9000010    2    1    2  502    0  0.11214358421E+04  0.52949064909E+03 -0.23010278548E+03  0.16095020639E+04  0.99978543022E+03 0.  0.
   -9000010    2    1    2    0  501 -0.11214358421E+04 -0.52949064909E+03 -0.98137468182E+01  0.15872469956E+04  0.99059478090E+03 0.  0.
        -13    1    3    3    0    0  0.26455286404E+02  0.32714518547E+03 -0.36148616836E+03  0.48825824687E+03  0.10566000000E+00 0.  1.
         13    1    4    4    0    0 -0.10368454335E+04 -0.11224565395E+03  0.27063031547E+03  0.10774452741E+04  0.10566000000E+00 0. -1.
          4    1    3    3  502    0  0.10949805557E+04  0.20234546361E+03  0.13138338288E+03  0.11212438170E+04  0.00000000000E+00 0.  1.
         -4    1    4    4    0  501 -0.84590408608E+02 -0.41724499514E+03 -0.28044406229E+03  0.50980172152E+03  0.00000000000E+00 0. -1.
</event>
<event>
 8    1  0.7446554E-006  0.1332231E+04  0.7818608E-02  0.8513131E-01
          1   -1    0    0  502    0  0.00000000000E+00  0.00000000000E+00  0.24894939813E+04  0.24894939813E+04  0.00000000000E+00 0. -1.
         -1   -1    0    0    0  501 -0.00000000000E+00 -0.00000000000E+00 -0.73376686717E+03  0.73376686717E+03  0.00000000000E+00 0.  1.
    9000010    2    1    2  502    0 -0.73417719790E+03  0.50080129883E+03  0.60392086401E+03  0.14593032186E+04  0.98743474471E+03 0.  0.
   -9000010    2    1    2    0  501  0.73417719790E+03 -0.50080129883E+03  0.11518062501E+04  0.17639576299E+04  0.99753234699E+03 0.  0.
        -13    1    3    3    0    0 -0.37127314719E+01  0.59098019267E+03  0.30318117651E+03  0.66422150632E+03  0.10566000000E+00 0.  1.
         13    1    4    4    0    0 -0.10671196181E+03  0.14520449390E+03 -0.22662962687E+02  0.18161885608E+03  0.10566000000E+00 0. -1.
          4    1    3    3  502    0 -0.73046446642E+03 -0.90178893835E+02  0.30073968750E+03  0.79508171230E+03  0.00000000000E+00 0.  1.
         -4    1    4    4    0  501  0.84088915971E+03 -0.64600579273E+03  0.11744692128E+04  0.15823387738E+04  0.00000000000E+00 0. -1.
</event>
<event>
 8    1  0.7446554E-006  0.1077556E+04  0.7818608E-02  0.8704950E-01
         -2   -1    0    0    0  501 -0.00000000000E+00  0.00000000000E+00  0.51903656905E+03  0.51903656905E+03  0.00000000000E+00 0. -1.
          2   -1    0    0  502    0  0.00000000000E+00 -0.00000000000E+00 -0.22388757946E+04  0.22388757946E+04  0.00000000000E+00 0.  1.
    9000010    2    1    2  502    0  0.33900796441E+03  0.18355597156E+03 -0.90132095657E+03  0.14073076770E+04  0.10097109668E+04 0.  0.
   -9000010    2    1    2    0  501 -0.33900796441E+03 -0.18355597156E+03 -0.81851826894E+03  0.13506046866E+04  0.10027670059E+04 0.  0.
        -13    1    3    3    0    0  0.56903027075E+03 -0.22422694586E+03 -0.48037221001E+03  0.77770858526E+03  0.10566000000E+00 0.  1.
         13    1    4    4    0    0 -0.52416993971E+03  0.23255733583E+02 -0.42467365545E+02  0.52640140876E+03  0.10566000000E+00 0. -1.
          4    1    3    3  502    0 -0.23002230634E+03  0.40778291742E+03 -0.42094874656E+03  0.62959909179E+03  0.00000000000E+00 0.  1.
         -4    1    4    4    0  501  0.18516197530E+03 -0.20681170514E+03 -0.77605090340E+03  0.82420327781E+03  0.00000000000E+00 0. -1.
</event>
<event>
 8    1  0.7446554E-006  0.1274622E+04  0.7818608E-02  0.8552393E-01
         -1   -1    0    0    0  501 -0.00000000000E+00  0.00000000000E+00  0.14165866853E+04  0.14165866853E+04  0.00000000000E+00 0.  1.
          1   -1    0    0  502    0  0.00000000000E+00 -0.00000000000E+00 -0.11716151504E+04  0.11716151504E+04  0.00000000000E+00 0. -1.
    9000010    2    1    2  502    0 -0.18551392803E+03 -0.78117782313E+03  0.31043797677E+03  0.13112290946E+04  0.98908836418E+03 0.  0.
   -9000010    2    1    2    0  501  0.18551392803E+03  0.78117782313E+03 -0.65466441844E+02  0.12769727412E+04  0.99081749979E+03 0.  0.
        -13    1    3    3    0    0 -0.17672233839E+03 -0.35342877020E+03  0.65292912801E+03  0.76319010598E+03  0.10566000000E+00 0.  1.
         13    1    4    4    0    0 -0.24100653082E+03 -0.95518199973E+02  0.11813332082E+03  0.28489185154E+03  0.10566000000E+00 0. -1.
          4    1    3    3  502    0 -0.87915896433E+01 -0.42774905293E+03 -0.34249115124E+03  0.54803898859E+03  0.00000000000E+00 0.  1.
         -4    1    4    4    0  501  0.42652045885E+03  0.87669602311E+03 -0.18359976267E+03  0.99208088964E+03  0.00000000000E+00 0. -1.
</event>
<event>
 7    1  0.7446554E-006  0.2120106E+04  0.7818608E-02  0.8121169E-01
         -2   -1    0    0    0  501 -0.00000000000E+00  0.00000000000E+00  0.24438495527E+04  0.24438495527E+04  0.00000000000E+00 0.  1.
          2   -1    0    0  502    0  0.00000000000E+00 -0.00000000000E+00 -0.18838903510E+04  0.18838903510E+04  0.00000000000E+00 0. -1.
    9000010    2    1    2  502    0 -0.14760577927E+04 -0.52577789394E+03  0.45902148776E+03  0.19368331013E+04  0.10418410316E+04 0.  0.
        -13    1    3    3    0    0 -0.15589450589E+03  0.17642434966E+02  0.48419433644E+03  0.50897791610E+03  0.10566000000E+00 0.  1.
         13    1    1    2    0    0  0.25611732293E+03 -0.64403870462E+03  0.10308763587E+03  0.70072034935E+03  0.10566000000E+00 0. -1.
          4    1    3    3  502    0 -0.13201632868E+04 -0.54342032891E+03 -0.25172848677E+02  0.14278551852E+04  0.00000000000E+00 0.  1.
         -4    1    1    2    0  501  0.12199404697E+04  0.11698165986E+04 -0.21499220145E+01  0.16901864531E+04  0.00000000000E+00 0. -1.
</event>
<event>
 8    1  0.7446554E-006  0.1427616E+04  0.7818608E-02  0.8452414E-01
         -1   -1    0    0    0  501 -0.00000000000E+00  0.00000000000E+00  0.15250347247E+04  0.15250347247E+04  0.00000000000E+00 0. -1.
          1   -1    0    0  502    0  0.00000000000E+00 -0.00000000000E+00 -0.13364891921E+04  0.13364891921E+04  0.00000000000E+00 0.  1.
    9000010    2    1    2  502    0 -0.54985617141E+03  0.85364927292E+03  0.99780673390E+02  0.14228750422E+04  0.99174508439E+03 0.  0.
   -9000010    2    1    2    0  501  0.54985617141E+03 -0.85364927292E+03  0.88764859260E+02  0.14386488746E+04  0.10152696656E+04 0.  0.
        -13    1    3    3    0    0 -0.65126937405E+03  0.66401258880E+03 -0.29293948133E+03  0.97512976908E+03  0.10566000000E+00 0.  1.
         13    1    4    4    0    0  0.53410364880E+03 -0.12519277681E+03  0.36555520419E+03  0.65921965800E+03  0.10566000000E+00 0. -1.
          4    1    3    3  502    0  0.10141320265E+03  0.18963668413E+03  0.39272015472E+03  0.44774527307E+03  0.00000000000E+00 0.  1.
         -4    1    4    4    0  501  0.15752522604E+02 -0.72845649612E+03 -0.27679034493E+03  0.77942921664E+03  0.00000000000E+00 0. -1.
</event>
<event>
 8    1  0.7446554E-006  0.1672347E+04  0.7818608E-02  0.8316677E-01
          2   -1    0    0  502    0  0.00000000000E+00  0.00000000000E+00  0.31790693012E+04  0.31790693012E+04  0.00000000000E+00 0.  1.
         -2   -1    0    0    0  501 -0.00000000000E+00 -0.00000000000E+00 -0.95499672657E+03  0.95499672657E+03  0.00000000000E+00 0. -1.
    9000010    2    1    2  502    0  0.15184747398E+03  0.13395036351E+04  0.16879157428E+04  0.23711391107E+04  0.97770828136E+03 0.  0.
   -9000010    2    1    2    0  501 -0.15184747398E+03 -0.13395036351E+04  0.53615683181E+03  0.17629269171E+04  0.10015585468E+04 0.  0.
        -13    1    3    3    0    0 -0.30268835348E+03  0.11206717466E+04  0.11793312848E+04  0.16547953630E+04  0.10566000000E+00 0.  1.
         13    1    4    4    0    0  0.29930058223E+02 -0.10632852982E+04 -0.76791749731E+02  0.10664747619E+04  0.10566000000E+00 0. -1.
          4    1    3    3  502    0  0.45453582745E+03  0.21883188852E+03  0.50858445807E+03  0.71634374769E+03  0.00000000000E+00 0.  1.
         -4    1    4    4    0  501 -0.18177753220E+03 -0.27621833696E+03  0.61294858154E+03  0.69645215521E+03  0.00000000000E+00 0. -1.
</event>
<event>
 8    1  0.7446554E-006  0.1645329E+04  0.7818608E-02  0.8330444E-01
          2   -1    0    0  502    0  0.00000000000E+00  0.00000000000E+00  0.25912035724E+04  0.25912035724E+04  0.00000000000E+00 0. -1.
         -2   -1    0    0    0  501 -0.00000000000E+00 -0.00000000000E+00 -0.10840869829E+04  0.10840869829E+04  0.00000000000E+00 0.  1.
    9000010    2    1    2  502    0  0.12312698966E+04 -0.49718570119E+03  0.39911635751E+03  0.16832069462E+04  0.95429166256E+03 0.  0.
   -9000010    2    1    2    0  501 -0.12312698966E+04  0.49718570119E+03  0.11080002320E+04  0.19920836091E+04  0.98869277937E+03 0.  0.
        -13    1    3    3    0    0  0.13078602181E+04 -0.61320879340E+03  0.22740326901E+03  0.14622707110E+04  0.10566000000E+00 0.  1.
         13    1    4    4    0    0 -0.39424161484E+03  0.62383640336E+03  0.23129240721E+03  0.77336569476E+03  0.10566000000E+00 0. -1.
          4    1    3    3  502    0 -0.76590321482E+02  0.11602309220E+03  0.17171308850E+03  0.22093623522E+03  0.00000000000E+00 0.  1.
         -4    1    4    4    0  501 -0.83702828175E+03 -0.12665070216E+03  0.87670782476E+03  0.12187179144E+04  0.00000000000E+00 0. -1.
</event>
<event>
 8    1  0.7446554E-006  0.1200164E+04  0.7818608E-02  0.8606439E-01
         -1   -1    0    0    0  501 -0.00000000000E+00  0.00000000000E+00  0.15907140952E+04  0.15907140952E+04  0.00000000000E+00 0.  1.
          1   -1    0    0  502    0  0.00000000000E+00 -0.00000000000E+00 -0.90643539776E+03  0.90643539776E+03  0.00000000000E+00 0. -1.
    9000010    2    1    2  502    0 -0.97411166817E+02  0.64809005683E+03  0.38189942308E+03  0.12584342101E+04  0.10041413420E+04 0.  0.
   -9000010    2    1    2    0  501  0.97411166817E+02 -0.64809005683E+03  0.30237927432E+03  0.12387152828E+04  0.10067137970E+04 0.  0.
        -13    1    3    3    0    0 -0.50153145828E+03  0.35790001114E+03  0.44060002193E+03  0.75746591482E+03  0.10566000000E+00 0.  1.
         13    1    4    4    0    0  0.12661446835E+03 -0.58341817373E+03  0.65079714116E+03  0.88314490268E+03  0.10566000000E+00 0. -1.
          4    1    3    3  502    0  0.40412029147E+03  0.29019004569E+03 -0.58700598857E+02  0.50096829530E+03  0.00000000000E+00 0.  1.
         -4    1    4    4    0  501 -0.29203301536E+02 -0.64671883108E+02 -0.34841786684E+03  0.35557038012E+03  0.00000000000E+00 0. -1.
</event>
<event>
 8    1  0.7446554E-006  0.1557095E+04  0.7818608E-02  0.8377378E-01
          1   -1    0    0  502    0  0.00000000000E+00  0.00000000000E+00  0.27436882791E+04  0.27436882791E+04  0.00000000000E+00 0. -1.
         -1   -1    0    0    0  501 -0.00000000000E+00 -0.00000000000E+00 -0.11295345596E+04  0.11295345596E+04  0.00000000000E+00 0.  1.
    9000010    2    1    2  502    0  0.58549236430E+03 -0.10365819154E+04 -0.94355434866E+02  0.15650131947E+04  0.10114642730E+04 0.  0.
   -9000010    2    1    2    0  501 -0.58549236430E+03  0.10365819154E+04  0.17085091543E+04  0.23082096440E+04  0.99575341039E+03 0.  0.
        -13    1    3    3    0    0  0.24126909824E+03 -0.62583498882E+03  0.44480518298E+03  0.80481791292E+03  0.10566000000E+00 0.  1.
         13    1    4    4    0    0 -0.26573540433E+03  0.14103870355E+03  0.11852465843E+04  0.12228314266E+04  0.10566000000E+00 0. -1.
          4    1    3    3  502    0  0.34422326606E+03 -0.41074692659E+03 -0.53916061785E+03  0.76019528178E+03  0.00000000000E+00 0.  1.
         -4    1    4    4    0  501 -0.31975695997E+03  0.89554321185E+03  0.52326257003E+03  0.10853782175E+04  0.00000000000E+00 0. -1.
</event>
<event>
 8    1  0.7446554E-006  0.9212390E+03  0.7818608E-02  0.8852335E-01
          2   -1    0    0  502    0  0.00000000000E+00  0.00000000000E+00  0.15836320487E+04  0.15836320487E+04  0.00000000000E+00 0. -1.
         -2   -1    0    0    0  501 -0.00000000000E+00 -0.00000000000E+00 -0.54738823657E+03  0.54738823657E+03  0.00000000000E+00 0.  1.
    9000010    2    1    2  502    0  0.59925985795E+01  0.34869525456E+03  0.50652169466E+03  0.95094471611E+03  0.72533256797E+03 0.  0.
   -9000010    2    1    2    0  501 -0.59925985795E+01 -0.34869525456E+03  0.52972211752E+03  0.11800755692E+04  0.99516256735E+03 0.  0.
        -13    1    3    3    0    0  0.25782487419E+03 -0.21022132587E+02 -0.20710635886E+02  0.25950826078E+03  0.10566000000E+00 0.  1.
         13    1    4    4    0    0 -0.46928992694E+03 -0.18465426039E+03  0.73789606292E+02  0.50968141870E+03  0.10566000000E+00 0. -1.
          4    1    3    3  502    0 -0.25183227561E+03  0.36971738714E+03  0.52723233054E+03  0.69143645534E+03  0.00000000000E+00 0.  1.
         -4    1    4    4    0  501  0.46329732836E+03 -0.16404099416E+03  0.45593251123E+03  0.67039415050E+03  0.00000000000E+00 0. -1.
</event>
<event>
 8    1  0.7446554E-006  0.1148855E+04  0.7818608E-02  0.8646104E-01
          2   -1    0    0  502    0  0.00000000000E+00  0.00000000000E+00  0.13658401458E+04  0.13658401458E+04  0.00000000000E+00 0.  1.
         -2   -1    0    0    0  501 -0.00000000000E+00 -0.00000000000E+00 -0.96736819496E+03  0.96736819496E+03  0.00000000000E+00 0. -1.
    9000010    2    1    2  502    0  0.31753929809E+03 -0.43122283247E+03  0.16426208447E+03  0.11703395590E+04  0.10275837260E+04 0.  0.
   -9000010    2    1    2    0  501 -0.31753929809E+03  0.43122283247E+03  0.23420986639E+03  0.11628687817E+04  0.10052985651E+04 0.  0.
        -13    1    3    3    0    0  0.13026276431E+03 -0.68328456239E+03 -0.16547262823E+03  0.71500166631E+03  0.10566000000E+00 0.  1.
         13    1    4    4    0    0  0.82802117529E+02  0.44458359284E+03  0.50612623486E+03  0.67873009251E+03  0.10566000000E+00 0. -1.
          4    1    3    3  502    0  0.18727653378E+03  0.25206172992E+03  0.32973471270E+03  0.45533789273E+03  0.00000000000E+00 0.  1.
         -4    1    4    4    0  501 -0.40034141562E+03 -0.13360760374E+02 -0.27191636847E+03  0.48413868924E+03  0.00000000000E+00 0. -1.
</event>
<event>
 8    1  0.7446554E-006  0.1286245E+04  0.7818608E-02  0.8544302E-01
         -2   -1    0    0    0  501 -0.00000000000E+00  0.00000000000E+00  0.61094974000E+03  0.61094974000E+03  0.00000000000E+00 0.  1.
          2   -1    0    0  502    0  0.00000000000E+00 -0.00000000000E+00 -0.27103639454E+04  0.27103639454E+04  0.00000000000E+00 0. -1.
    9000010    2    1    2  502    0  0.78109192315E+03 -0.18211887458E+03 -0.10891780900E+04  0.16777640792E+04  0.99262858949E+03 0.  0.
   -9000010    2    1    2    0  501 -0.78109192315E+03  0.18211887458E+03 -0.10102361153E+04  0.16435496062E+04  0.10185315029E+04 0.  0.
        -13    1    3    3    0    0  0.68033174543E+03  0.20896754116E+03 -0.26405389886E+03  0.75910683686E+03  0.10566000000E+00 0.  1.
         13    1    4    4    0    0 -0.64034149824E+03 -0.33356640515E+03 -0.77596833719E+03  0.10599201161E+04  0.10566000000E+00 0. -1.
          4    1    3    3  502    0  0.10076017773E+03 -0.39108641575E+03 -0.82512419117E+03  0.91865724231E+03  0.00000000000E+00 0.  1.
         -4    1    4    4    0  501 -0.14075042492E+03  0.51568527973E+03 -0.23426777814E+03  0.58362949010E+03  0.00000000000E+00 0. -1.
</event>
<event>
 8    1  0.7446554E-006  0.1295433E+04  0.7818608E-02  0.8537967E-01
         -2   -1    0    0    0  501 -0.00000000000E+00  0.00000000000E+00  0.88911781622E+03  0.88911781622E+03  0.00000000000E+00 0. -1.
          2   -1    0    0  502    0  0.00000000000E+00 -0.00000000000E+00 -0.19870113559E+04  0.19870113559E+04  0.00000000000E+00 0.  1.
    9000010    2    1    2  502    0 -0.17419022266E+03 -0.79830611225E+03 -0.87537969295E+03  0.15733380922E+04  0.10205235239E+04 0.  0.
   -9000010    2    1    2    0  501  0.17419022266E+03  0.79830611225E+03 -0.22251384676E+03  0.13027910800E+04  0.99000873915E+03 0.  0.
        -13    1    3    3    0    0  0.94903639853E+02 -0.29970172762E+03 -0.95110766713E+03  0.10017153448E+04  0.10566000000E+00 0.  1.
         13    1    4    4    0    0  0.57149888495E+02 -0.22863947099E+03 -0.11903847822E+03  0.26403084652E+03  0.10566000000E+00 0. -1.
          4    1    3    3  502    0 -0.26909386251E+03 -0.49860438463E+03  0.75727974180E+02  0.57162274735E+03  0.00000000000E+00 0.  1.
         -4    1    4    4    0  501  0.11704033416E+03  0.10269455832E+04 -0.10347536854E+03  0.10387602335E+04  0.00000000000E+00 0. -1.
</event>
<event>
 8    1  0.7446554E-006  0.1523140E+04  0.7818608E-02  0.8396305E-01
         -4   -1    0    0    0  501 -0.00000000000E+00  0.00000000000E+00  0.16185329788E+04  0.16185329788E+04  0.00000000000E+00 0. -1.
          4   -1    0    0  502    0  0.00000000000E+00 -0.00000000000E+00 -0.14345022072E+04  0.14345022072E+04  0.00000000000E+00 0.  1.
    9000010    2    1    2  502    0  0.90836712453E+03 -0.76550702430E+03  0.12119400679E+03  0.15613517416E+04  0.10059818272E+04 0.  0.
   -9000010    2    1    2    0  501 -0.90836712453E+03  0.76550702430E+03  0.62836764827E+02  0.14916834444E+04  0.90002177866E+03 0.  0.
        -13    1    3    3    0    0  0.21027993812E+03 -0.53708373742E+03 -0.36309864500E+03  0.68155500918E+03  0.10566000000E+00 0.  1.
         13    1    4    4    0    0 -0.38911187879E+03  0.58183982184E+03  0.43760137432E+03  0.82549415895E+03  0.10566000000E+00 0. -1.
          4    1    3    3  502    0  0.69808718641E+03 -0.22842328688E+03  0.48429265180E+03  0.87979673244E+03  0.00000000000E+00 0.  1.
         -4    1    4    4    0  501 -0.51925524574E+03  0.18366720246E+03 -0.37476460950E+03  0.66618928543E+03  0.00000000000E+00 0. -1.
</event>
<event>
 8    1  0.7446554E-006  0.1359011E+04  0.7818608E-02  0.8495569E-01
         -2   -1    0    0    0  501 -0.00000000000E+00  0.00000000000E+00  0.10926158091E+04  0.10926158091E+04  0.00000000000E+00 0. -1.
          2   -1    0    0  502    0  0.00000000000E+00 -0.00000000000E+00 -0.18837473214E+04  0.18837473214E+04  0.00000000000E+00 0.  1.
    9000010    2    1    2  502    0 -0.79449367186E+03  0.45362504647E+03  0.79306014186E+02  0.13685693452E+04  0.10147397358E+04 0.  0.
   -9000010    2    1    2    0  501  0.79449367186E+03 -0.45362504647E+03 -0.87043752644E+03  0.16077937853E+04  0.99516003304E+03 0.  0.
        -13    1    3    3    0    0 -0.22171303647E+03 -0.26173806740E+03  0.26508131937E+03  0.43351078823E+03  0.10566000000E+00 0.  1.
         13    1    4    4    0    0  0.82971459827E+03  0.31312759699E+02 -0.71953964041E+03  0.10987011007E+04  0.10566000000E+00 0. -1.
          4    1    3    3  502    0 -0.57278063539E+03  0.71536311386E+03 -0.18577530518E+03  0.93505855697E+03  0.00000000000E+00 0.  1.
         -4    1    4    4    0  501 -0.35220926406E+02 -0.48493780617E+03 -0.15089788604E+03  0.50909268460E+03  0.00000000000E+00 0. -1.
</event>
<event>
 8    1  0.7446554E-006  0.1561925E+04  0.7818608E-02  0.8374727E-01
          2   -1    0    0  502    0  0.00000000000E+00  0.00000000000E+00  0.27053647999E+04  0.27053647999E+04  0.00000000000E+00 0. -1.
         -2   -1    0    0    0  501 -0.00000000000E+00 -0.00000000000E+00 -0.92660995043E+03  0.92660995043E+03  0.00000000000E+00 0.  1.
    9000010    2    1    2  502    0 -0.74354905653E+03  0.94186468085E+03  0.11858918294E+04  0.19599193606E+04  0.99748192586E+03 0.  0.
   -9000010    2    1    2    0  501  0.74354905653E+03 -0.94186468085E+03  0.59286302002E+03  0.16720553897E+04  0.10021518794E+04 0.  0.
        -13    1    3    3    0    0 -0.91919407349E+03  0.10101936932E+04  0.98144402008E+03  0.16818565392E+04  0.10566000000E+00 0.  1.
         13    1    4    4    0    0  0.42984278387E+01 -0.79340998759E+03  0.18460533703E+03  0.81461464909E+03  0.10566000000E+00 0. -1.
          4    1    3    3  502    0  0.17564501695E+03 -0.68329012392E+02  0.20444780936E+03  0.27806282144E+03  0.00000000000E+00 0.  1.
         -4    1    4    4    0  501  0.73925062870E+03 -0.14845469326E+03  0.40825768300E+03  0.85744074064E+03  0.00000000000E+00 0. -1.
</event>
<event>
 8    1  0.7446554E-006  0.1084645E+04  0.7818608E-02  0.8698890E-01
          1   -1    0    0  502    0  0.00000000000E+00  0.00000000000E+00  0.26339691458E+04  0.26339691458E+04  0.00000000000E+00 0. -1.
         -1   -1    0    0    0  501 -0.00000000000E+00 -0.00000000000E+00 -0.44703461089E+03  0.44703461089E+03  0.00000000000E+00 0.  1.
    9000010    2    1    2  502    0 -0.29828789125E+03  0.38511329916E+03  0.11487995726E+04  0.15909003105E+04  0.98688166502E+03 0.  0.
   -9000010    2    1    2    0  501  0.29828789125E+03 -0.38511329916E+03  0.10381349623E+04  0.14901034462E+04  0.95152307437E+03 0.  0.
        -13    1    3    3    0    0 -0.27356926147E+03  0.71209024101E+03  0.89673389422E+03  0.11773038437E+04  0.10566000000E+00 0.  1.
         13    1    4    4    0    0  0.62846981227E+03 -0.24746744580E+03  0.85074634227E+03  0.10862705886E+04  0.10566000000E+00 0. -1.
          4    1    3    3  502    0 -0.24718629783E+02 -0.32697694185E+03  0.25206567840E+03  0.41359646684E+03  0.00000000000E+00 0.  1.
         -4    1    4    4    0  501 -0.33018192101E+03 -0.13764585337E+03  0.18738862004E+03  0.40383285755E+03  0.00000000000E+00 0. -1.
</event>
<event>
 8    1  0.7446554E-006  0.1610578E+04  0.7818608E-02  0.8348558E-01
         -1   -1    0    0    0  501 -0.00000000000E+00  0.00000000000E+00  0.13795290203E+04  0.13795290203E+04  0.00000000000E+00 0.  1.
          1   -1    0    0  502    0  0.00000000000E+00 -0.00000000000E+00 -0.18987584507E+04  0.18987584507E+04  0.00000000000E+00 0. -1.
    9000010    2    1    2  502    0  0.11216099261E+04 -0.55107519333E+03 -0.97520883818E+02  0.16095747471E+04  0.10097167171E+04 0.  0.
   -9000010    2    1    2    0  501 -0.11216099261E+04  0.55107519333E+03 -0.42170854659E+03  0.16687127239E+04  0.10222873185E+04 0.  0.
        -13    1    3    3    0    0  0.10568499590E+04 -0.73212090477E+03  0.15193962642E+03  0.12946113379E+04  0.10566000000E+00 0.  1.
         13    1    4    4    0    0 -0.25888051453E+03  0.61288888185E+03  0.77870205129E+02  0.66986243536E+03  0.10566000000E+00 0. -1.
          4    1    3    3  502    0  0.64759967107E+02  0.18104571145E+03 -0.24946051024E+03  0.31496340921E+03  0.00000000000E+00 0.  1.
         -4    1    4    4    0  501 -0.86272941157E+03 -0.61813688521E+02 -0.49957875172E+03  0.99885028851E+03  0.00000000000E+00 0. -1.
</event>
<event>
 8    1  0.7446554E-006  0.1450772E+04  0.7818608E-02  0.8438407E-01
          2   -1    0    0  502    0  0.00000000000E+00  0.00000000000E+00  0.27622029474E+04  0.27622029474E+04  0.00000000000E+00 0.  1.
         -2   -1    0    0    0  501 -0.00000000000E+00 -0.00000000000E+00 -0.10695871084E+04  0.10695871084E+04  0.00000000000E+00 0. -1.
    9000010    2    1    2  502    0  0.77235944414E+03  0.71789580857E+03 -0.18473119214E+03  0.14538163557E+04  0.98363757540E+03 0.  0.
   -9000010    2    1    2    0  501 -0.77235944414E+03 -0.71789580857E+03  0.18773470311E+04  0.23779737001E+04  0.10091647736E+04 0.  0.
        -13    1    3    3    0    0  0.27668329328E+02  0.49028923923E+03  0.26146790176E+03  0.55634031794E+03  0.10566000000E+00 0.  1.
         13    1    4    4    0    0  0.11742260801E+03 -0.33907902973E+03  0.10351776122E+04  0.10956073007E+04  0.10566000000E+00 0. -1.
          4    1    3    3  502    0  0.74469111482E+03  0.22760656933E+03 -0.44619909390E+03  0.89747603772E+03  0.00000000000E+00 0.  1.
         -4    1    4    4    0  501 -0.88978205216E+03 -0.37881677884E+03  0.84216941891E+03  0.12823663994E+04  0.00000000000E+00 0. -1.
</event>
<event>
 8    1  0.7446554E-006  0.1152442E+04  0.7818608E-02  0.8643261E-01
          4   -1    0    0  502    0  0.00000000000E+00  0.00000000000E+00  0.80928467247E+03  0.80928467247E+03  0.00000000000E+00 0. -1.
         -4   -1    0    0    0  501 -0.00000000000E+00 -0.00000000000E+00 -0.16437013628E+04  0.16437013628E+04  0.00000000000E+00 0.  1.
    9000010    2    1    2  502    0 -0.52046636931E+03 -0.72246633902E+02 -0.46862672327E+03  0.12592611240E+04  0.10440415485E+04 0.  0.
   -9000010    2    1    2    0  501  0.52046636931E+03  0.72246633902E+02 -0.36578996702E+03  0.11937249112E+04  0.10075078391E+04 0.  0.
        -13    1    3    3    0    0 -0.49120327434E+02  0.27109139146E+03  0.22311648920E+03  0.35451985559E+03  0.10566000000E+00 0.  1.
         13    1    4    4    0    0  0.17030158065E+03 -0.83261181534E+02 -0.67516410765E+03  0.70127144256E+03  0.10566000000E+00 0. -1.
          4    1    3    3  502    0 -0.47134604188E+03 -0.34333802536E+03 -0.69174321246E+03  0.90474126845E+03  0.00000000000E+00 0.  1.
         -4    1    4    4    0  501  0.35016478866E+03  0.15550781544E+03  0.30937414063E+03  0.49245346863E+03  0.00000000000E+00 0. -1.
</event>
<event>
 8    1  0.7446554E-006  0.1150919E+04  0.7818608E-02  0.8644467E-01
         -2   -1    0    0    0  501 -0.00000000000E+00  0.00000000000E+00  0.78805761729E+03  0.78805761729E+03  0.00000000000E+00 0. -1.
          2   -1    0    0  502    0  0.00000000000E+00 -0.00000000000E+00 -0.17052822144E+04  0.17052822144E+04  0.00000000000E+00 0.  1.
    9000010    2    1    2  502    0 -0.59329650223E+03 -0.16725463857E+03 -0.61266598951E+03  0.13167170696E+04  0.98914577944E+03 0.  0.
   -9000010    2    1    2    0  501  0.59329650223E+03  0.16725463857E+03 -0.30455860757E+03  0.11766227621E+04  0.95483523451E+03 0.  0.
        -13    1    3    3    0    0 -0.24055977609E+02 -0.48758612349E+03 -0.13191616372E+03  0.50568844489E+03  0.10566000000E+00 0.  1.
         13    1    4    4    0    0  0.65198666573E+03  0.33384103965E+03 -0.51980741427E+03  0.89818495374E+03  0.10566000000E+00 0. -1.
          4    1    3    3  502    0 -0.56924052462E+03  0.32033148492E+03 -0.48074982579E+03  0.81102862471E+03  0.00000000000E+00 0.  1.
         -4    1    4    4    0  501 -0.58690163497E+02 -0.16658640108E+03  0.21524880669E+03  0.27843780831E+03  0.00000000000E+00 0. -1.
</event>
<event>
 8    1  0.7446554E-006  0.2023012E+04  0.7818608E-02  0.8159087E-01
         -2   -1    0    0    0  501 -0.00000000000E+00  0.00000000000E+00  0.12996457781E+04  0.12996457781E+04  0.00000000000E+00 0. -1.
          2   -1    0    0  502    0  0.00000000000E+00 -0.00000000000E+00 -0.41356782140E+04  0.41356782140E+04  0.00000000000E+00 0.  1.
    9000010    2    1    2  502    0  0.16512361336E+04 -0.66114955315E+03 -0.27551658994E+04  0.34292255729E+04  0.10024716436E+04 0.  0.
   -9000010    2    1    2    0  501 -0.16512361336E+04  0.66114955315E+03 -0.80866536509E+02  0.20060984192E+04  0.92422506474E+03 0.  0.
        -13    1    3    3    0    0  0.12564238367E+04 -0.20530182805E+03 -0.24319427888E+04  0.27450128301E+04  0.10566000000E+00 0.  1.
         13    1    4    4    0    0 -0.17241203929E+04  0.45166277511E+03 -0.83920579395E+02  0.17842738205E+04  0.10566000000E+00 0. -1.
          4    1    3    3  502    0  0.39481229687E+03 -0.45584772511E+03 -0.32322311062E+03  0.68421274285E+03  0.00000000000E+00 0.  1.
         -4    1    4    4    0  501  0.72884259295E+02  0.20948677804E+03  0.30540428866E+01  0.22182459874E+03  0.00000000000E+00 0. -1.
</event>
<event>
 8    1  0.7446554E-006  0.1271985E+04  0.7818608E-02  0.8554242E-01
          1   -1    0    0  502    0  0.00000000000E+00  0.00000000000E+00  0.51265327114E+03  0.51265327114E+03  0.00000000000E+00 0.  1.
         -1   -1    0    0    0  501 -0.00000000000E+00 -0.00000000000E+00 -0.38129504219E+04  0.38129504219E+04  0.00000000000E+00 0. -1.
    9000010    2    1    2  502    0  0.10345485156E+03  0.77893663197E+03 -0.25465944947E+04  0.28460602852E+04  0.99873442074E+03 0.  0.
   -9000010    2    1    2    0  501 -0.10345485156E+03 -0.77893663197E+03 -0.75370265600E+03  0.14795434079E+04  0.10017663496E+04 0.  0.
        -13    1    3    3    0    0 -0.31960745770E+03 -0.23113334756E+02 -0.10336604648E+04  0.10821908893E+04  0.10566000000E+00 0.  1.
         13    1    4    4    0    0 -0.49802922016E+03 -0.15907648830E+03 -0.20114512300E+03  0.56017658371E+03  0.10566000000E+00 0. -1.
          4    1    3    3  502    0  0.42306230926E+03  0.80204996673E+03 -0.15129340299E+04  0.17638693958E+04  0.00000000000E+00 0.  1.
         -4    1    4    4    0  501  0.39457436861E+03 -0.61986014368E+03 -0.55255753300E+03  0.91936682416E+03  0.00000000000E+00 0. -1.
</event>
<event>
 8    1  0.7446554E-006  0.1035697E+04  0.7818608E-02  0.8741756E-01
         -1   -1    0    0    0  501 -0.00000000000E+00  0.00000000000E+00  0.91509975556E+03  0.91509975556E+03  0.00000000000E+00 0. -1.
          1   -1    0    0  502    0  0.00000000000E+00 -0.00000000000E+00 -0.11746894745E+04  0.11746894745E+04  0.00000000000E+00 0.  1.
    9000010    2    1    2  502    0  0.18479704745E+03 -0.23049397723E+03 -0.17837984101E+03  0.10556916136E+04  0.99769133158E+03 0.  0.
   -9000010    2    1    2    0  501 -0.18479704745E+03  0.23049397723E+03 -0.81209877884E+02  0.10340976164E+04  0.98766665109E+03 0.  0.
        -13    1    3    3    0    0  0.38022569779E+03 -0.12611200292E+02  0.30702638751E+03  0.48887200515E+03  0.10566000000E+00 0.  1.
         13    1    4    4    0    0 -0.46135179899E+03  0.47423047289E+03 -0.69766010889E+02  0.66528740503E+03  0.10566000000E+00 0. -1.
          4    1    3    3  502    0 -0.19542865033E+03 -0.21788277694E+03 -0.48540622852E+03  0.56681960847E+03  0.00000000000E+00 0.  1.
         -4    1    4    4    0  501  0.27655475154E+03 -0.24373649566E+03 -0.11443866995E+02  0.36881021137E+03  0.00000000000E+00 0. -1.
</event>
<event>
 8    1  0.7446554E-006  0.1517011E+04  0.7818608E-02  0.8399776E-01
         -4   -1    0    0    0  501 -0.00000000000E+00  0.00000000000E+00  0.19779093722E+04  0.19779093722E+04  0.00000000000E+00 0. -1.
          4   -1    0    0  502    0  0.00000000000E+00 -0.00000000000E+00 -0.13482243458E+04  0.13482243458E+04  0.00000000000E+00 0.  1.
    9000010    2    1    2  502    0 -0.35847896317E+03  0.10889451567E+04 -0.30187674433E+03  0.15402370146E+04  0.98330654988E+03 0.  0.
   -9000010    2    1    2    0  501  0.35847896317E+03 -0.10889451567E+04  0.93156177071E+03  0.17858967033E+04  0.10036488335E+04 0.  0.
        -13    1    3    3    0    0 -0.33716404833E+03  0.13769807043E+03 -0.44825472126E+03  0.57755749531E+03  0.10566000000E+00 0.  1.
         13    1    4    4    0    0 -0.20295585927E+03 -0.11502090687E+03  0.55219450532E+03  0.59944947469E+03  0.10566000000E+00 0. -1.
          4    1    3    3  502    0 -0.21314914838E+02  0.95124708628E+03  0.14637797693E+03  0.96267951930E+03  0.00000000000E+00 0.  1.
         -4    1    4    4    0  501  0.56143482244E+03 -0.97392424984E+03  0.37936726539E+03  0.11864472286E+04  0.00000000000E+00 0. -1.
</event>
<event>
 8    1  0.7446554E-006  0.1189792E+04  0.7818608E-02  0.8614289E-01
          2   -1    0    0  502    0  0.00000000000E+00  0.00000000000E+00  0.11406630616E+04  0.11406630616E+04  0.00000000000E+00 0.  1.
         -2   -1    0    0    0  501 -0.00000000000E+00 -0.00000000000E+00 -0.12494636495E+04  0.12494636495E+04  0.00000000000E+00 0. -1.
    9000010    2    1    2  502    0 -0.60840619053E+03  0.18417171000E+03  0.43324511062E+02  0.11962440277E+04  0.10124452820E+04 0.  0.
   -9000010    2    1    2    0  501  0.60840619053E+03 -0.18417171000E+03 -0.15212509898E+03  0.11938826834E+04  0.99906781780E+03 0.  0.
        -13    1    3    3    0    0 -0.70658391407E+03  0.34701942701E+03 -0.26789101708E+03  0.83153407539E+03  0.10566000000E+00 0.  1.
         13    1    4    4    0    0  0.54737027868E+03 -0.42988543452E+03 -0.42987864404E+03  0.81805340202E+03  0.10566000000E+00 0. -1.
          4    1    3    3  502    0  0.98177723544E+02 -0.16284771701E+03  0.31121552814E+03  0.36470995228E+03  0.00000000000E+00 0.  1.
         -4    1    4    4    0  501  0.61035911844E+02  0.24571372451E+03  0.27775354507E+03  0.37582928139E+03  0.00000000000E+00 0. -1.
</event>
<event>
 8    1  0.7446554E-006  0.1053503E+04  0.7818608E-02  0.8725882E-01
          1   -1    0    0  502    0  0.00000000000E+00  0.00000000000E+00  0.24769144573E+04  0.24769144573E+04  0.00000000000E+00 0. -1.
         -1   -1    0    0    0  501 -0.00000000000E+00 -0.00000000000E+00 -0.55488575435E+03  0.55488575435E+03  0.00000000000E+00 0.  1.
    9000010    2    1    2  502    0 -0.47656012475E+03  0.33063994563E+02  0.16042983091E+04  0.19042832074E+04  0.90791997956E+03 0.  0.
   -9000010    2    1    2    0  501  0.47656012475E+03 -0.33063994563E+02  0.31773039393E+03  0.11275170043E+04  0.97063855864E+03 0.  0.
        -13    1    3    3    0    0  0.27113980466E+03  0.55250450295E+02  0.39344417771E+03  0.48100700417E+03  0.10566000000E+00 0.  1.
         13    1    4    4    0    0 -0.91710706344E+02 -0.17283602242E+03  0.48157527694E+03  0.51980563948E+03  0.10566000000E+00 0. -1.
          4    1    3    3  502    0 -0.74769992941E+03 -0.22186455732E+02  0.12108541314E+04  0.14232762032E+04  0.00000000000E+00 0.  1.
         -4    1    4    4    0  501  0.56827083109E+03  0.13977202786E+03 -0.16384488302E+03  0.60771136482E+03  0.00000000000E+00 0. -1.
</event>
<event>
 8    1  0.7446554E-006  0.1215697E+04  0.7818608E-02  0.8594835E-01
          1   -1    0    0  502    0  0.00000000000E+00  0.00000000000E+00  0.15389932804E+04  0.15389932804E+04  0.00000000000E+00 0. -1.
         -1   -1    0    0    0  501 -0.00000000000E+00 -0.00000000000E+00 -0.97856849634E+03  0.97856849634E+03  0.00000000000E+00 0.  1.
    9000010    2    1    2  502    0 -0.18402044767E+03 -0.66421842109E+03  0.10906105210E+03  0.12237996118E+04  0.10053564247E+04 0.  0.
   -9000010    2    1    2    0  501  0.18402044767E+03  0.66421842109E+03  0.45136373192E+03  0.12937621649E+04  0.99751776163E+03 0.  0.
        -13    1    3    3    0    0 -0.55495778286E+03 -0.13543230968E+03  0.84083959564E+02  0.57739949315E+03  0.10566000000E+00 0.  1.
         13    1    4    4    0    0  0.26059500073E+02  0.21683926520E+03  0.71733826849E+03  0.74984836273E+03  0.10566000000E+00 0. -1.
          4    1    3    3  502    0  0.37093733519E+03 -0.52878611141E+03  0.24977092534E+02  0.64640011866E+03  0.00000000000E+00 0.  1.
         -4    1    4    4    0  501  0.15796094760E+03  0.44737915589E+03 -0.26597453657E+03  0.54391380217E+03  0.00000000000E+00 0. -1.
</event>
<event>
 8    1  0.7446554E-006  0.1257698E+04  0.7818608E-02  0.8564336E-01
         -2   -1    0    0    0  501 -0.00000000000E+00  0.00000000000E+00  0.11034893361E+04  0.11034893361E+04  0.00000000000E+00 0. -1.
          2   -1    0    0  502    0  0.00000000000E+00 -0.00000000000E+00 -0.17305619725E+04  0.17305619725E+04  0.00000000000E+00 0.  1.
    9000010    2    1    2  502    0  0.69092970365E+03  0.32873715330E+03  0.27686187293E+03  0.12710174016E+04  0.97641219116E+03 0.  0.
   -9000010    2    1    2    0  501 -0.69092970365E+03 -0.32873715330E+03 -0.90393450929E+03  0.15630339071E+04  0.10200614816E+04 0.  0.
        -13    1    3    3    0    0  0.48951813587E+03  0.52771902139E+03  0.52789385022E+03  0.89262942992E+03  0.10566000000E+00 0.  1.
         13    1    4    4    0    0 -0.15172219227E+03  0.13313484475E+03 -0.82423922183E+03  0.84859579098E+03  0.10566000000E+00 0. -1.
          4    1    3    3  502    0  0.20141156777E+03 -0.19898186809E+03 -0.25103197729E+03  0.37838797164E+03  0.00000000000E+00 0.  1.
         -4    1    4    4    0  501 -0.53920751138E+03 -0.46187199805E+03 -0.79695287462E+02  0.71443811611E+03  0.00000000000E+00 0. -1.
</event>
<event>
 8    1  0.7446554E-006  0.1357494E+04  0.7818608E-02  0.8496552E-01
          4   -1    0    0  502    0  0.00000000000E+00  0.00000000000E+00  0.64500632824E+03  0.64500632824E+03  0.00000000000E+00 0.  1.
         -4   -1    0    0    0  501 -0.00000000000E+00 -0.00000000000E+00 -0.30385669822E+04  0.30385669822E+04  0.00000000000E+00 0. -1.
    9000010    2    1    2  502    0  0.82903027315E+03 -0.40583483481E+03 -0.74244720768E+03  0.15428459984E+04  0.98851040032E+03 0.  0.
   -9000010    2    1    2    0  501 -0.82903027315E+03  0.40583483481E+03 -0.16511134463E+04  0.21407273121E+04  0.10022697767E+04 0.  0.
        -13    1    3    3    0    0  0.28721840888E+03 -0.41397558413E+03 -0.85216435481E+03  0.98997691762E+03  0.10566000000E+00 0.  1.
         13    1    4    4    0    0  0.20310963365E+03 -0.14023867131E+02 -0.49411254257E+03  0.53441314356E+03  0.10566000000E+00 0. -1.
          4    1    3    3  502    0  0.54181186427E+03  0.81407493188E+01  0.10971714713E+03  0.55286908074E+03  0.00000000000E+00 0.  1.
         -4    1    4    4    0  501 -0.10321399068E+04  0.41985870194E+03 -0.11570009038E+04  0.16063141685E+04  0.00000000000E+00 0. -1.
</event>
<event>
 8    1  0.7446554E-006  0.1387756E+04  0.7818608E-02  0.8477176E-01
          2   -1    0    0  502    0  0.00000000000E+00  0.00000000000E+00  0.23898253779E+04  0.23898253779E+04  0.00000000000E+00 0. -1.
         -2   -1    0    0    0  501 -0.00000000000E+00 -0.00000000000E+00 -0.95757962867E+03  0.95757962867E+03  0.00000000000E+00 0.  1.
    9000010    2    1    2  502    0  0.96155683063E+03 -0.70575400052E+01  0.48085918189E+02  0.13843457591E+04  0.99471582770E+03 0.  0.
   -9000010    2    1    2    0  501 -0.96155683063E+03  0.70575400052E+01  0.13841598311E+04  0.19630592475E+04  0.10065097236E+04 0.  0.
        -13    1    3    3    0    0  0.10872591792E+04 -0.21869994097E+02  0.27750460587E+03  0.11223277760E+04  0.10566000000E+00 0.  1.
         13    1    4    4    0    0 -0.10809656071E+04 -0.23693611904E+03  0.12131902762E+04  0.16420889214E+04  0.10566000000E+00 0. -1.
          4    1    3    3  502    0 -0.12570234854E+03  0.14812454091E+02 -0.22941868769E+03  0.26201798313E+03  0.00000000000E+00 0.  1.
         -4    1    4    4    0  501  0.11940877645E+03  0.24399365905E+03  0.17096955485E+03  0.32097032609E+03  0.00000000000E+00 0. -1.
</event>
<event>
 8    1  0.7446554E-006  0.1182771E+04  0.7818608E-02  0.8619651E-01
         -2   -1    0    0    0  501 -0.00000000000E+00  0.00000000000E+00  0.99767742611E+03  0.99767742611E+03  0.00000000000E+00 0.  1.
          2   -1    0    0  502    0  0.00000000000E+00 -0.00000000000E+00 -0.15445143330E+04  0.15445143330E+04  0.00000000000E+00 0. -1.
    9000010    2    1    2  502    0  0.57364630431E+03  0.18754879370E+03 -0.66122860012E+03  0.13639467120E+04  0.10290202812E+04 0.  0.
   -9000010    2    1    2    0  501 -0.57364630431E+03 -0.18754879370E+03  0.11439169325E+03  0.11782450471E+04  0.10054507940E+04 0.  0.
        -13    1    3    3    0    0 -0.22361061652E+03 -0.19928980041E+03 -0.23448104956E+03  0.38039388288E+03  0.10566000000E+00 0.  1.
         13    1    4    4    0    0 -0.66726275511E+03  0.12274366405E+03 -0.21934024235E+03  0.71303277940E+03  0.10566000000E+00 0. -1.
          4    1    3    3  502    0  0.79725692084E+03  0.38683859410E+03 -0.42674755057E+03  0.98355282910E+03  0.00000000000E+00 0.  1.
         -4    1    4    4    0  501  0.93616450795E+02 -0.31029245775E+03  0.33373193560E+03  0.46521226772E+03  0.00000000000E+00 0. -1.
</event>
<event>
 8    1  0.7446554E-006  0.1185929E+04  0.7818608E-02  0.8617234E-01
         -1   -1    0    0    0  501 -0.00000000000E+00  0.00000000000E+00  0.84629789676E+03  0.84629789676E+03  0.00000000000E+00 0.  1.
          1   -1    0    0  502    0  0.00000000000E+00 -0.00000000000E+00 -0.16642650620E+04  0.16642650620E+04  0.00000000000E+00 0. -1.
    9000010    2    1    2  502    0 -0.63111604599E+03 -0.17444722224E+03 -0.36284169008E+03  0.12440865139E+04  0.99365882734E+03 0.  0.
   -9000010    2    1    2    0  501  0.63111604599E+03  0.17444722224E+03 -0.45512547520E+03  0.12664764449E+04  0.98391264371E+03 0.  0.
        -13    1    3    3    0    0 -0.42504929158E+03 -0.58687747881E+03 -0.27311022923E+03  0.77439091154E+03  0.10566000000E+00 0.  1.
         13    1    4    4    0    0  0.25149279407E+03  0.51723312793E+03 -0.48753170514E+03  0.75396678228E+03  0.10566000000E+00 0. -1.
          4    1    3    3  502    0 -0.20606675441E+03  0.41243025657E+03 -0.89731460847E+02  0.46969560235E+03  0.00000000000E+00 0.  1.
         -4    1    4    4    0  501  0.37962325192E+03 -0.34278590569E+03  0.32406229946E+02  0.51250966262E+03  0.00000000000E+00 0. -1.
</event>
<event>
 8    1  0.7446554E-006  0.1015310E+04  0.7818608E-02  0.8760339E-01
          2   -1    0    0  502    0  0.00000000000E+00  0.00000000000E+00  0.18357785841E+04  0.18357785841E+04  0.00000000000E+00 0. -1.
         -2   -1    0    0    0  501 -0.00000000000E+00 -0.00000000000E+00 -0.59392500854E+03  0.59392500854E+03  0.00000000000E+00 0.  1.
    9000010    2    1    2  502    0 -0.11641397055E+03 -0.10732595177E+03  0.33942131519E+03  0.10740967578E+04  0.10066806561E+04 0.  0.
   -9000010    2    1    2    0  501  0.11641397055E+03  0.10732595177E+03  0.90243226039E+03  0.13556068349E+04  0.99910701817E+03 0.  0.
        -13    1    3    3    0    0  0.12061371579E+02 -0.53944098708E+03  0.58062107501E+02  0.54269077264E+03  0.10566000000E+00 0.  1.
         13    1    4    4    0    0 -0.26507907688E+03 -0.14110735560E+03  0.84496432927E+03  0.89674016956E+03  0.10566000000E+00 0. -1.
          4    1    3    3  502    0 -0.12847534213E+03  0.43211503530E+03  0.28135920769E+03  0.53140598512E+03  0.00000000000E+00 0.  1.
         -4    1    4    4    0  501  0.38149304743E+03  0.24843330737E+03  0.57467931127E+02  0.45886666533E+03  0.00000000000E+00 0. -1.
</event>
<event>
 8    1  0.7446554E-006  0.1280163E+04  0.7818608E-02  0.8548525E-01
          2   -1    0    0  502    0  0.00000000000E+00  0.00000000000E+00  0.17374966465E+04  0.17374966465E+04  0.00000000000E+00 0. -1.
         -2   -1    0    0    0  501 -0.00000000000E+00 -0.00000000000E+00 -0.94434581388E+03  0.94434581388E+03  0.00000000000E+00 0.  1.
    9000010    2    1    2  502    0  0.76228341561E+03  0.33909879583E+03  0.34865103840E+03  0.13082249802E+04  0.94542638703E+03 0.  0.
   -9000010    2    1    2    0  501 -0.76228341561E+03 -0.33909879583E+03  0.44449979421E+03  0.13736174801E+04  0.99658462542E+03 0.  0.
        -13    1    3    3    0    0  0.92627837479E+03  0.21576227206E+03  0.47924152197E+03  0.10649964475E+04  0.10566000000E+00 0.  1.
         13    1    4    4    0    0 -0.93196668499E+03 -0.11806674501E+03  0.53445169132E+03  0.10808053848E+04  0.10566000000E+00 0. -1.
          4    1    3    3  502    0 -0.16399495919E+03  0.12333652377E+03 -0.13059048357E+03  0.24322853273E+03  0.00000000000E+00 0.  1.
         -4    1    4    4    0  501  0.16968326938E+03 -0.22103205082E+03 -0.89951897117E+02  0.29281209537E+03  0.00000000000E+00 0. -1.
</event>
<event>
 8    1  0.7446554E-006  0.1404724E+04  0.7818608E-02  0.8466532E-01
         -2   -1    0    0    0  501 -0.00000000000E+00  0.00000000000E+00  0.81601019735E+03  0.81601019735E+03  0.00000000000E+00 0. -1.
          2   -1    0    0  502    0  0.00000000000E+00 -0.00000000000E+00 -0.24326311937E+04  0.24326311937E+04  0.00000000000E+00 0.  1.
    9000010    2    1    2  502    0  0.63693599060E+03 -0.60525114706E+03 -0.94401545925E+03  0.17525775512E+04  0.11867377464E+04 0.  0.
   -9000010    2    1    2    0  501 -0.63693599060E+03  0.60525114706E+03 -0.67260553709E+03  0.14960638398E+04  0.10068725824E+04 0.  0.
        -13    1    3    3    0    0 -0.19757727757E+03 -0.45123984728E+03 -0.12893617182E+02  0.49276813708E+03  0.10566000000E+00 0.  1.
         13    1    4    4    0    0 -0.56281509487E+03  0.44882355106E+03 -0.93604701580E+03  0.11808418344E+04  0.10566000000E+00 0. -1.
          4    1    3    3  502    0  0.83451326817E+03 -0.15401129977E+03 -0.93112184207E+03  0.12598094142E+04  0.00000000000E+00 0.  1.
         -4    1    4    4    0  501 -0.74120895729E+02  0.15642759600E+03  0.26344147871E+03  0.31522200538E+03  0.00000000000E+00 0. -1.
</event>
<event>
 8    1  0.7446554E-006  0.1034159E+04  0.7818608E-02  0.8743142E-01
          1   -1    0    0  502    0  0.00000000000E+00  0.00000000000E+00  0.11655484730E+04  0.11655484730E+04  0.00000000000E+00 0. -1.
         -1   -1    0    0    0  501 -0.00000000000E+00 -0.00000000000E+00 -0.97141946479E+03  0.97141946479E+03  0.00000000000E+00 0.  1.
    9000010    2    1    2  502    0  0.24740269858E+01  0.24146993082E+03  0.34797130202E+03  0.10852179950E+04  0.99914974926E+03 0.  0.
   -9000010    2    1    2    0  501 -0.24740269858E+01 -0.24146993082E+03 -0.15384229381E+03  0.10517499427E+04  0.10120260087E+04 0.  0.
        -13    1    3    3    0    0  0.36297423653E+03  0.90216388648E+02  0.53425151287E+03  0.65216101028E+03  0.10566000000E+00 0.  1.
         13    1    4    4    0    0  0.41960776917E+03  0.64941024029E+02  0.14736478508E+03  0.44944900444E+03  0.10566000000E+00 0. -1.
          4    1    3    3  502    0 -0.36050020954E+03  0.15125354217E+03 -0.18628021086E+03  0.43305698476E+03  0.00000000000E+00 0.  1.
         -4    1    4    4    0  501 -0.42208179616E+03 -0.30641095485E+03 -0.30120707889E+03  0.60230093829E+03  0.00000000000E+00 0. -1.
</event>
<event>
 8    1  0.7446554E-006  0.1090674E+04  0.7818608E-02  0.8693774E-01
         -2   -1    0    0    0  501 -0.00000000000E+00  0.00000000000E+00  0.54500030738E+03  0.54500030738E+03  0.00000000000E+00 0. -1.
          2   -1    0    0  502    0  0.00000000000E+00 -0.00000000000E+00 -0.25313174410E+04  0.25313174410E+04  0.00000000000E+00 0.  1.
    9000010    2    1    2  502    0  0.48072506657E+03  0.29213348398E+03 -0.15979909937E+04  0.19630111989E+04  0.99166485725E+03 0.  0.
   -9000010    2    1    2    0  501 -0.48072506657E+03 -0.29213348398E+03 -0.38832613988E+03  0.11133065494E+04  0.87875805542E+03 0.  0.
        -13    1    3    3    0    0  0.17576403109E+03  0.61810301267E+03 -0.12166020327E+04  0.13758869307E+04  0.10566000000E+00 0.  1.
         13    1    4    4    0    0 -0.53758666384E+02  0.10090249282E+03  0.23519480185E+03  0.26151082817E+03  0.10566000000E+00 0. -1.
          4    1    3    3  502    0  0.30496103548E+03 -0.32596952869E+03 -0.38138896102E+03  0.58712426827E+03  0.00000000000E+00 0.  1.
         -4    1    4    4    0  501 -0.42696640018E+03 -0.39303597680E+03 -0.62352094174E+03  0.85179572124E+03  0.00000000000E+00 0. -1.
</event>
<event>
 8    1  0.7446554E-006  0.1209389E+04  0.7818608E-02  0.8599525E-01
          2   -1    0    0  502    0  0.00000000000E+00  0.00000000000E+00  0.87840279352E+03  0.87840279352E+03  0.00000000000E+00 0. -1.
         -2   -1    0    0    0  501 -0.00000000000E+00 -0.00000000000E+00 -0.17271296717E+04  0.17271296717E+04  0.00000000000E+00 0.  1.
    9000010    2    1    2  502    0  0.14763304732E+03 -0.54572876754E+03 -0.16582254378E+03  0.11646023092E+04  0.10045825094E+04 0.  0.
   -9000010    2    1    2    0  501 -0.14763304732E+03  0.54572876754E+03 -0.68290433437E+03  0.14409301560E+04  0.11359163615E+04 0.  0.
        -13    1    3    3    0    0  0.44162384173E+03 -0.45947142372E+03  0.21794628607E+03  0.67353262844E+03  0.10566000000E+00 0.  1.
         13    1    4    4    0    0  0.32005349051E+03 -0.18012039843E+03 -0.50661836097E+02  0.37073471313E+03  0.10566000000E+00 0. -1.
          4    1    3    3  502    0 -0.29399079441E+03 -0.86257343818E+02 -0.38376882985E+03  0.49106968072E+03  0.00000000000E+00 0.  1.
         -4    1    4    4    0  501 -0.46768653783E+03  0.72584916596E+03 -0.63224249827E+03  0.10701954429E+04  0.00000000000E+00 0. -1.
</event>
<event>
 8    1  0.7446554E-006  0.1154063E+04  0.7818608E-02  0.8641981E-01
         -2   -1    0    0    0  501 -0.00000000000E+00  0.00000000000E+00  0.54343093343E+03  0.54343093343E+03  0.00000000000E+00 0.  1.
          2   -1    0    0  502    0  0.00000000000E+00 -0.00000000000E+00 -0.25006615541E+04  0.25006615541E+04  0.00000000000E+00 0. -1.
    9000010    2    1    2  502    0 -0.32479220285E+03  0.48258849124E+03 -0.11986232621E+04  0.16683694217E+04  0.10041798525E+04 0.  0.
   -9000010    2    1    2    0  501  0.32479220285E+03 -0.48258849124E+03 -0.75860735859E+03  0.13757230658E+04  0.98931653291E+03 0.  0.
        -13    1    3    3    0    0 -0.61498696482E+03  0.14948249500E+03 -0.38017677175E+03  0.73830100376E+03  0.10566000000E+00 0.  1.
         13    1    4    4    0    0  0.40577635135E+03 -0.75431848278E+03 -0.49900949910E+03  0.99129274795E+03  0.10566000000E+00 0. -1.
          4    1    3    3  502    0  0.29019476197E+03  0.33310599624E+03 -0.81844649030E+03  0.93006841796E+03  0.00000000000E+00 0.  1.
         -4    1    4    4    0  501 -0.80984148503E+02  0.27172999154E+03 -0.25959785949E+03  0.38443031783E+03  0.00000000000E+00 0. -1.
</event>
<event>
 8    1  0.7446554E-006  0.1219214E+04  0.7818608E-02  0.8592232E-01
          4   -1    0    0  502    0  0.00000000000E+00  0.00000000000E+00  0.61919391799E+03  0.61919391799E+03  0.00000000000E+00 0. -1.
         -4   -1    0    0    0  501 -0.00000000000E+00 -0.00000000000E+00 -0.27926458683E+04  0.27926458683E+04  0.00000000000E+00 0.  1.
    9000010    2    1    2  502    0 -0.40824818886E+03 -0.56884937324E+03 -0.17303943183E+04  0.21202568793E+04  0.10054693153E+04 0.  0.
   -9000010    2    1    2    0  501  0.40824818886E+03  0.56884937324E+03 -0.44305763202E+03  0.12915829071E+04  0.99077250030E+03 0.  0.
        -13    1    3    3    0    0 -0.73457901626E+03 -0.32408548530E+03 -0.12943728402E+04  0.15231673557E+04  0.10566000000E+00 0.  1.
         13    1    4    4    0    0 -0.22907382867E+03  0.18296892756E+03  0.15915778115E+03  0.33359205311E+03  0.10566000000E+00 0. -1.
          4    1    3    3  502    0  0.32633082741E+03 -0.24476388794E+03 -0.43602147814E+03  0.59708952356E+03  0.00000000000E+00 0.  1.
         -4    1    4    4    0  501  0.63732201753E+03  0.38588044567E+03 -0.60221541317E+03  0.95799085394E+03  0.00000000000E+00 0. -1.
</event>
<event>
 8    1  0.7446554E-006  0.1076083E+04  0.7818608E-02  0.8706216E-01
         -1   -1    0    0    0  501 -0.00000000000E+00  0.00000000000E+00  0.11460288179E+04  0.11460288179E+04  0.00000000000E+00 0.  1.
          1   -1    0    0  502    0  0.00000000000E+00 -0.00000000000E+00 -0.10152737510E+04  0.10152737510E+04  0.00000000000E+00 0. -1.
    9000010    2    1    2  502    0 -0.27160766817E+03  0.31434297679E+03 -0.95752521155E+01  0.10731207778E+04  0.98940097322E+03 0.  0.
   -9000010    2    1    2    0  501  0.27160766817E+03 -0.31434297679E+03  0.14033031900E+03  0.10881817910E+04  0.99592408316E+03 0.  0.
        -13    1    3    3    0    0 -0.58511419471E+03  0.25435075022E+03 -0.23763355531E+03  0.68082497219E+03  0.10566000000E+00 0.  1.
         13    1    4    4    0    0  0.32111440958E+03  0.27340436149E+03  0.24705621094E+03  0.48877519521E+03  0.10566000000E+00 0. -1.
          4    1    3    3  502    0  0.31350652655E+03  0.59992226571E+02  0.22805830319E+03  0.39229580560E+03  0.00000000000E+00 0.  1.
         -4    1    4    4    0  501 -0.49506741416E+02 -0.58774733828E+03 -0.10672589193E+03  0.59940659582E+03  0.00000000000E+00 0. -1.
</event>
<event>
 8    1  0.7446554E-006  0.1309482E+04  0.7818608E-02  0.8528386E-01
         -2   -1    0    0    0  501 -0.00000000000E+00  0.00000000000E+00  0.92381144342E+03  0.92381144342E+03  0.00000000000E+00 0.  1.
          2   -1    0    0  502    0  0.00000000000E+00 -0.00000000000E+00 -0.22129878984E+04  0.22129878984E+04  0.00000000000E+00 0. -1.
    9000010    2    1    2  502    0  0.39865679397E+03 -0.74940049567E+03 -0.12265166968E+02  0.13033153754E+04  0.98891465314E+03 0.  0.
   -9000010    2    1    2    0  501 -0.39865679397E+03  0.74940049567E+03 -0.12769112880E+04  0.18334839664E+04  0.10053022806E+04 0.  0.
        -13    1    3    3    0    0  0.60863083428E+03 -0.30292531538E+03  0.27389637973E+03  0.73294916408E+03  0.10566000000E+00 0.  1.
         13    1    4    4    0    0 -0.81188842436E+02 -0.16289941026E+03  0.53198684356E+02  0.18962583468E+03  0.10566000000E+00 0. -1.
          4    1    3    3  502    0 -0.20997404031E+03 -0.44647518029E+03 -0.28616154670E+03  0.57036621133E+03  0.00000000000E+00 0.  1.
         -4    1    4    4    0  501 -0.31746795153E+03  0.91229990593E+03 -0.13301099724E+04  0.16438581317E+04  0.00000000000E+00 0. -1.
</event>
<event>
 8    1  0.7446554E-006  0.1339266E+04  0.7818608E-02  0.8508476E-01
          2   -1    0    0  502    0  0.00000000000E+00  0.00000000000E+00  0.19556179236E+04  0.19556179236E+04  0.00000000000E+00 0.  1.
         -2   -1    0    0    0  501 -0.00000000000E+00 -0.00000000000E+00 -0.15814876477E+04  0.15814876477E+04  0.00000000000E+00 0. -1.
    9000010    2    1    2  502    0 -0.49811275518E+03  0.73891643042E+03  0.13326909636E+04  0.18843414847E+04  0.99023422409E+03 0.  0.
   -9000010    2    1    2    0  501  0.49811275518E+03 -0.73891643042E+03 -0.95856068762E+03  0.16527640866E+04  0.10092951629E+04 0.  0.
        -13    1    3    3    0    0  0.28827775434E+03  0.33456156974E+03  0.35977874442E+03  0.56962818021E+03  0.10566000000E+00 0.  1.
         13    1    4    4    0    0  0.35608682042E+03  0.38238602326E+02  0.60632927914E+02  0.36323047435E+03  0.10566000000E+00 0. -1.
          4    1    3    3  502    0 -0.78639050952E+03  0.40435486068E+03  0.97291221919E+03  0.13147133045E+04  0.00000000000E+00 0.  1.
         -4    1    4    4    0  501  0.14202593476E+03 -0.77715503275E+03 -0.10191936155E+04  0.12895336122E+04  0.00000000000E+00 0. -1.
</event>
<event>
 8    1  0.7446554E-006  0.1199537E+04  0.7818608E-02  0.8606911E-01
          4   -1    0    0  502    0  0.00000000000E+00  0.00000000000E+00  0.24079759621E+04  0.24079759621E+04  0.00000000000E+00 0.  1.
         -4   -1    0    0    0  501 -0.00000000000E+00 -0.00000000000E+00 -0.63022255997E+03  0.63022255997E+03  0.00000000000E+00 0. -1.
    9000010    2    1    2  502    0 -0.52991297409E+03  0.23957330295E+03  0.12583965832E+04  0.17657642594E+04  0.10936902356E+04 0.  0.
   -9000010    2    1    2    0  501  0.52991297409E+03 -0.23957330295E+03  0.51935681892E+03  0.12724342627E+04  0.10055616937E+04 0.  0.
        -13    1    3    3    0    0 -0.34459605401E+03 -0.29607616609E+03  0.10798123977E+04  0.11714957798E+04  0.10566000000E+00 0.  1.
         13    1    4    4    0    0  0.69544168048E+03  0.15474421016E+03  0.20399878720E+03  0.74108057448E+03  0.10566000000E+00 0. -1.
          4    1    3    3  502    0 -0.18531692008E+03  0.53564946904E+03  0.17858418546E+03  0.59426847961E+03  0.00000000000E+00 0.  1.
         -4    1    4    4    0  501 -0.16552870639E+03 -0.39431751312E+03  0.31535803172E+03  0.53135368820E+03  0.00000000000E+00 0. -1.
</event>
<event>
 8    1  0.7446554E-006  0.1028868E+04  0.7818608E-02  0.8747931E-01
          1   -1    0    0  502    0  0.00000000000E+00  0.00000000000E+00  0.11346015777E+04  0.11346015777E+04  0.00000000000E+00 0.  1.
         -1   -1    0    0    0  501 -0.00000000000E+00 -0.00000000000E+00 -0.93545864289E+03  0.93545864289E+03  0.00000000000E+00 0. -1.
    9000010    2    1    2  502    0 -0.28634282521E+03  0.85563584769E+01  0.15272084422E+03  0.10506628379E+04  0.99925137872E+03 0.  0.
   -9000010    2    1    2    0  501  0.28634282521E+03 -0.85563584769E+01  0.46422090586E+02  0.10193973827E+04  0.97721573285E+03 0.  0.
        -13    1    3    3    0    0 -0.37870397541E+03 -0.15431842445E+03  0.50614569141E+03  0.65070296542E+03  0.10566000000E+00 0.  1.
         13    1    4    4    0    0  0.10935530021E+03  0.12062584968E+03 -0.44903939634E+03  0.47764586037E+03  0.10566000000E+00 0. -1.
          4    1    3    3  502    0  0.92361150201E+02  0.16287478292E+03 -0.35342484719E+03  0.39995987248E+03  0.00000000000E+00 0.  1.
         -4    1    4    4    0  501  0.17698752500E+03 -0.12918220816E+03  0.49546148693E+03  0.54175152232E+03  0.00000000000E+00 0. -1.
</event>
<event>
 8    1  0.7446554E-006  0.1418775E+04  0.7818608E-02  0.8457834E-01
         -2   -1    0    0    0  501 -0.00000000000E+00  0.00000000000E+00  0.67010238769E+03  0.67010238769E+03  0.00000000000E+00 0. -1.
          2   -1    0    0  502    0  0.00000000000E+00 -0.00000000000E+00 -0.30039559789E+04  0.30039559789E+04  0.00000000000E+00 0.  1.
    9000010    2    1    2  502    0  0.98934734796E+03  0.21378189458E+01 -0.11611073078E+04  0.18287104919E+04  0.10085629071E+04 0.  0.
   -9000010    2    1    2    0  501 -0.98934734796E+03 -0.21378189458E+01 -0.11727462834E+04  0.18453478748E+04  0.10252620097E+04 0.  0.
        -13    1    3    3    0    0  0.95711682854E+03  0.31327586793E+03 -0.11311113408E+04  0.15144726044E+04  0.10566000000E+00 0.  1.
         13    1    4    4    0    0 -0.10787396295E+04 -0.27339343887E+03 -0.10642701408E+04  0.15398357394E+04  0.10566000000E+00 0. -1.
          4    1    3    3  502    0  0.32230519419E+02 -0.31113804898E+03 -0.29995967039E+02  0.31423788751E+03  0.00000000000E+00 0.  1.
         -4    1    4    4    0  501  0.89392281518E+02  0.27125561992E+03 -0.10847614260E+03  0.30551213535E+03  0.00000000000E+00 0. -1.
</event>
<event>
 8    1  0.7446554E-006  0.1683387E+04  0.7818608E-02  0.8311129E-01
          2   -1    0    0  502    0  0.00000000000E+00  0.00000000000E+00  0.17594419356E+04  0.17594419356E+04  0.00000000000E+00 0. -1.
         -2   -1    0    0    0  501 -0.00000000000E+00 -0.00000000000E+00 -0.16181881273E+04  0.16181881273E+04  0.00000000000E+00 0.  1.
    9000010    2    1    2  502    0 -0.11839977311E+04  0.67609957316E+03  0.18540549062E+03  0.16847754796E+04  0.97217897567E+03 0.  0.
   -9000010    2    1    2    0  501  0.11839977311E+04 -0.67609957316E+03 -0.44151682281E+02  0.16928545833E+04  0.10024200763E+04 0.  0.
        -13    1    3    3    0    0 -0.96277647131E+03  0.71411438975E+03  0.49958797112E+03  0.12986477765E+04  0.10566000000E+00 0.  1.
         13    1    4    4    0    0 -0.13111344882E+03  0.28632613193E+02  0.13469473540E+03  0.19014006918E+03  0.10566000000E+00 0. -1.
          4    1    3    3  502    0 -0.22122125977E+03 -0.38014816598E+02 -0.31418248050E+03  0.38612770311E+03  0.00000000000E+00 0.  1.
         -4    1    4    4    0  501  0.13151111799E+04 -0.70473218635E+03 -0.17884641768E+03  0.15027145142E+04  0.00000000000E+00 0. -1.
</event>
<event>
 8    1  0.7446554E-006  0.1047840E+04  0.7818608E-02  0.8730895E-01
          2   -1    0    0  502    0  0.00000000000E+00  0.00000000000E+00  0.17933673464E+04  0.17933673464E+04  0.00000000000E+00 0.  1.
         -2   -1    0    0    0  501 -0.00000000000E+00 -0.00000000000E+00 -0.66544958199E+03  0.66544958199E+03  0.00000000000E+00 0. -1.
    9000010    2    1    2  502    0  0.24744391716E+03 -0.23386214458E+03  0.91426301520E+03  0.13947748124E+04  0.99679482422E+03 0.  0.
   -9000010    2    1    2    0  501 -0.24744391716E+03  0.23386214458E+03  0.21365474920E+03  0.10640421159E+04  0.98519910569E+03 0.  0.
        -13    1    3    3    0    0  0.54208679834E+03  0.14692550850E+03  0.39494827191E+03  0.68660712976E+03  0.10566000000E+00 0.  1.
         13    1    4    4    0    0 -0.19578040951E+03 -0.37179974999E+03  0.17428570996E+03  0.45490718031E+03  0.10566000000E+00 0. -1.
          4    1    3    3  502    0 -0.29464288118E+03 -0.38078765308E+03  0.51931474329E+03  0.70816768267E+03  0.00000000000E+00 0.  1.
         -4    1    4    4    0  501 -0.51663507655E+02  0.60566189457E+03  0.39369039242E+02  0.60913493563E+03  0.00000000000E+00 0. -1.
</event>
<event>
 8    1  0.7446554E-006  0.1210372E+04  0.7818608E-02  0.8598793E-01
          2   -1    0    0  502    0  0.00000000000E+00  0.00000000000E+00  0.31400517584E+04  0.31400517584E+04  0.00000000000E+00 0. -1.
         -2   -1    0    0    0  501 -0.00000000000E+00 -0.00000000000E+00 -0.48391083634E+03  0.48391083634E+03  0.00000000000E+00 0.  1.
    9000010    2    1    2  502    0  0.44607241463E+03  0.49514860950E+03  0.98221016434E+03  0.15567799029E+04  0.10073103368E+04 0.  0.
   -9000010    2    1    2    0  501 -0.44607241463E+03 -0.49514860950E+03  0.16739307577E+04  0.20671826918E+04  0.10134334488E+04 0.  0.
        -13    1    3    3    0    0  0.42332116512E+03 -0.19763456186E+03  0.61511791400E+03  0.77241846701E+03  0.10566000000E+00 0.  1.
         13    1    4    4    0    0  0.92512569111E+02 -0.18274954986E+02 -0.10927885350E+03  0.14434136071E+03  0.10566000000E+00 0. -1.
          4    1    3    3  502    0  0.22751249514E+02  0.69278317137E+03  0.36709225034E+03  0.78436143591E+03  0.00000000000E+00 0.  1.
         -4    1    4    4    0  501 -0.53858498374E+03 -0.47687365452E+03  0.17832096112E+04  0.19228413311E+04  0.00000000000E+00 0. -1.
</event>
<event>
 8    1  0.7446554E-006  0.1135514E+04  0.7818608E-02  0.8656771E-01
          1   -1    0    0  502    0  0.00000000000E+00  0.00000000000E+00  0.31255023332E+04  0.31255023332E+04  0.00000000000E+00 0.  1.
         -1   -1    0    0    0  501 -0.00000000000E+00 -0.00000000000E+00 -0.44506797288E+03  0.44506797288E+03  0.00000000000E+00 0. -1.
    9000010    2    1    2  502    0 -0.35300565613E+03  0.42124895293E+03  0.18250723701E+04  0.21505562264E+04  0.99596147178E+03 0.  0.
   -9000010    2    1    2    0  501  0.35300565613E+03 -0.42124895293E+03  0.85536199026E+03  0.14200140797E+04  0.99132849176E+03 0.  0.
        -13    1    3    3    0    0 -0.76448338102E+02 -0.28442918403E+03  0.94123542397E+03  0.98623954677E+03  0.10566000000E+00 0.  1.
         13    1    4    4    0    0  0.43423825951E+03  0.17626221152E+03  0.15008352171E+03  0.49209379989E+03  0.10566000000E+00 0. -1.
          4    1    3    3  502    0 -0.27655731802E+03  0.70567813696E+03  0.88383694615E+03  0.11643166796E+04  0.00000000000E+00 0.  1.
         -4    1    4    4    0  501 -0.81232603387E+02 -0.59751116445E+03  0.70527846855E+03  0.92792027982E+03  0.00000000000E+00 0. -1.
</event>
<event>
 8    1  0.7446554E-006  0.1003527E+04  0.7818608E-02  0.8771285E-01
         -2   -1    0    0    0  501 -0.00000000000E+00  0.00000000000E+00  0.90983218060E+03  0.90983218060E+03  0.00000000000E+00 0.  1.
          2   -1    0    0  502    0  0.00000000000E+00 -0.00000000000E+00 -0.11206728575E+04  0.11206728575E+04  0.00000000000E+00 0. -1.
    9000010    2    1    2  502    0  0.44794778214E+03 -0.93974297796E+02 -0.18241834373E+03  0.11119561528E+04  0.99683581866E+03 0.  0.
   -9000010    2    1    2    0  501 -0.44794778214E+03  0.93974297796E+02 -0.28422333188E+02  0.91854888535E+03  0.79588682712E+03 0.  0.
        -13    1    3    3    0    0  0.32280143780E+03  0.32050526375E+03  0.23373359658E+03  0.51142526108E+03  0.10566000000E+00 0.  1.
         13    1    4    4    0    0  0.54425269191E+02  0.34135396059E+03  0.62402528726E+02  0.35125307556E+03  0.10566000000E+00 0. -1.
          4    1    3    3  502    0  0.12514634434E+03 -0.41447956154E+03 -0.41615194031E+03  0.60053089168E+03  0.00000000000E+00 0.  1.
         -4    1    4    4    0  501 -0.50237305133E+03 -0.24737966279E+03 -0.90824861914E+02  0.56729580979E+03  0.00000000000E+00 0. -1.
</event>
<event>
 8    1  0.7446554E-006  0.1234666E+04  0.7818608E-02  0.8580905E-01
          2   -1    0    0  502    0  0.00000000000E+00  0.00000000000E+00  0.22501486004E+04  0.22501486004E+04  0.00000000000E+00 0. -1.
         -2   -1    0    0    0  501 -0.00000000000E+00 -0.00000000000E+00 -0.70529918615E+03  0.70529918615E+03  0.00000000000E+00 0.  1.
    9000010    2    1    2  502    0 -0.61489903030E+03  0.16986412293E+02  0.10148033429E+04  0.15485945865E+04  0.99495226673E+03 0.  0.
   -9000010    2    1    2    0  501  0.61489903030E+03 -0.16986412293E+02  0.53004607139E+03  0.14068532000E+04  0.11488680224E+04 0.  0.
        -13    1    3    3    0    0 -0.36796456064E+03 -0.37051048463E+03  0.10976644439E+03  0.53359593381E+03  0.10566000000E+00 0.  1.
         13    1    4    4    0    0 -0.19471285962E+03 -0.21246077574E+03  0.49555918193E+03  0.57326398186E+03  0.10566000000E+00 0. -1.
          4    1    3    3  502    0 -0.24693446967E+03  0.38749689692E+03  0.90503689847E+03  0.10149986527E+04  0.00000000000E+00 0.  1.
         -4    1    4    4    0  501  0.80961188993E+03  0.19547436345E+03  0.34486889456E+02  0.83358921815E+03  0.00000000000E+00 0. -1.
</event>
<event>
 8    1  0.7446554E-006  0.1244856E+04  0.7818608E-02  0.8573529E-01
          2   -1    0    0  502    0  0.00000000000E+00  0.00000000000E+00  0.14770686846E+04  0.14770686846E+04  0.00000000000E+00 0. -1.
         -2   -1    0    0    0  501 -0.00000000000E+00 -0.00000000000E+00 -0.10494658395E+04  0.10494658395E+04  0.00000000000E+00 0.  1.
    9000010    2    1    2  502    0  0.77297830813E+03  0.59277074385E+02  0.19317898830E+03  0.12486821874E+04  0.95962484709E+03 0.  0.
   -9000010    2    1    2    0  501 -0.77297830813E+03 -0.59277074385E+02  0.23442385683E+03  0.12778523368E+04  0.98840417520E+03 0.  0.
        -13    1    3    3    0    0 -0.20615684046E+03  0.14239071439E+03  0.52730641583E+02  0.25603962610E+03  0.10566000000E+00 0.  1.
         13    1    4    4    0    0 -0.27435712916E+03  0.42104798530E+03  0.29522486355E+03  0.58284729687E+03  0.10566000000E+00 0. -1.
          4    1    3    3  502    0  0.97913514858E+03 -0.83113640000E+02  0.14044834671E+03  0.99264256127E+03  0.00000000000E+00 0.  1.
         -4    1    4    4    0  501 -0.49862117896E+03 -0.48032505968E+03 -0.60801006717E+02  0.69500503990E+03  0.00000000000E+00 0. -1.
</event>
<event>
 8    1  0.7446554E-006  0.1296694E+04  0.7818608E-02  0.8537102E-01
         -2   -1    0    0    0  501 -0.00000000000E+00  0.00000000000E+00  0.88590181160E+03  0.88590181160E+03  0.00000000000E+00 0. -1.
          2   -1    0    0  502    0  0.00000000000E+00 -0.00000000000E+00 -0.29009157354E+04  0.29009157354E+04  0.00000000000E+00 0.  1.
    9000010    2    1    2  502    0  0.79138586874E+03  0.25754824267E+03 -0.21231270486E+04  0.24901821712E+04  0.10003579812E+04 0.  0.
   -9000010    2    1    2    0  501 -0.79138586874E+03 -0.25754824267E+03  0.10811312485E+03  0.12966353758E+04  0.98840890296E+03 0.  0.
        -13    1    3    3    0    0  0.82622591604E+03 -0.18103967398E+03 -0.15706785421E+04  0.17839438673E+04  0.10566000000E+00 0.  1.
         13    1    4    4    0    0  0.11908554372E+03  0.71308038529E+02  0.28087351427E+03  0.31329881147E+03  0.10566000000E+00 0. -1.
          4    1    3    3  502    0 -0.34840047305E+02  0.43858791665E+03 -0.55244850658E+03  0.70623830394E+03  0.00000000000E+00 0.  1.
         -4    1    4    4    0  501 -0.91047141246E+03 -0.32885628120E+03 -0.17276038942E+03  0.98333656433E+03  0.00000000000E+00 0. -1.
</event>
<event>
 8    1  0.7446554E-006  0.1128645E+04  0.7818608E-02  0.8662323E-01
          2   -1    0    0  502    0  0.00000000000E+00  0.00000000000E+00  0.93475190129E+03  0.93475190129E+03  0.00000000000E+00 0. -1.
         -2   -1    0    0    0  501 -0.00000000000E+00 -0.00000000000E+00 -0.14091393872E+04  0.14091393872E+04  0.00000000000E+00 0.  1.
    9000010    2    1    2  502    0  0.39019544843E+03 -0.31924028989E+03 -0.45057006453E+03  0.12188803190E+04  0.10141444663E+04 0.  0.
   -9000010    2    1    2    0  501 -0.39019544843E+03  0.31924028989E+03 -0.23817421365E+02  0.11250109694E+04  0.10054429676E+04 0.  0.
        -13    1    3    3    0    0  0.13889987173E+03  0.21257250190E+02  0.31455884833E+03  0.34451752536E+03  0.10566000000E+00 0.  1.
         13    1    4    4    0    0 -0.57754674162E+03 -0.10528032031E+03  0.18590226306E+03  0.61579529648E+03  0.10566000000E+00 0. -1.
          4    1    3    3  502    0  0.25129557669E+03 -0.34049754008E+03 -0.76512891287E+03  0.87436279368E+03  0.00000000000E+00 0.  1.
         -4    1    4    4    0  501  0.18735129319E+03  0.42452061020E+03 -0.20971968443E+03  0.50921567295E+03  0.00000000000E+00 0. -1.
</event>
<event>
 8    1  0.7446554E-006  0.1091526E+04  0.7818608E-02  0.8693053E-01
          2   -1    0    0  502    0  0.00000000000E+00  0.00000000000E+00  0.26592742612E+04  0.26592742612E+04  0.00000000000E+00 0. -1.
         -2   -1    0    0    0  501 -0.00000000000E+00 -0.00000000000E+00 -0.59062294758E+03  0.59062294758E+03  0.00000000000E+00 0.  1.
    9000010    2    1    2  502    0 -0.42408640416E+03  0.74146524007E+02  0.18294311116E+04  0.21279743758E+04  0.99805298777E+03 0.  0.
   -9000010    2    1    2    0  501  0.42408640416E+03 -0.74146524007E+02  0.23922020196E+03  0.11219228330E+04  0.10080364840E+04 0.  0.
        -13    1    3    3    0    0  0.27803909190E+03  0.23733025664E+03  0.64794941979E+03  0.74395554243E+03  0.10566000000E+00 0.  1.
         13    1    4    4    0    0 -0.12070197183E+03 -0.35087385440E+03  0.33922959141E+03  0.50275058882E+03  0.10566000000E+00 0. -1.
          4    1    3    3  502    0 -0.70212549606E+03 -0.16318373263E+03  0.11814816919E+04  0.13840188333E+04  0.00000000000E+00 0.  1.
         -4    1    4    4    0  501  0.54478837599E+03  0.27672733039E+03 -0.10000938945E+03  0.61917224419E+03  0.00000000000E+00 0. -1.
</event>
<event>
 8    1  0.7446554E-006  0.1381003E+04  0.7818608E-02  0.8481456E-01
          1   -1    0    0  502    0  0.00000000000E+00  0.00000000000E+00  0.14233483429E+04  0.14233483429E+04  0.00000000000E+00 0. -1.
         -1   -1    0    0    0  501 -0.00000000000E+00 -0.00000000000E+00 -0.16617448651E+04  0.16617448651E+04  0.00000000000E+00 0.  1.
    9000010    2    1    2  502    0  0.76132348542E+03 -0.58859151059E+03  0.56047272638E+03  0.14768860083E+04  0.97005628128E+03 0.  0.
   -9000010    2    1    2    0  501 -0.76132348542E+03  0.58859151059E+03 -0.79886924862E+03  0.16082071996E+04  0.10109821486E+04 0.  0.
        -13    1    3    3    0    0  0.27066053893E+03 -0.22799466833E+03  0.75815626020E+03  0.83668370497E+03  0.10566000000E+00 0.  1.
         13    1    4    4    0    0 -0.29771736736E+03  0.42382772000E+03 -0.95972375095E+03  0.10905664842E+04  0.10566000000E+00 0. -1.
          4    1    3    3  502    0  0.49066294649E+03 -0.36059684226E+03 -0.19768353382E+03  0.64020230338E+03  0.00000000000E+00 0.  1.
         -4    1    4    4    0  501 -0.46360611807E+03  0.16476379059E+03  0.16085450232E+03  0.51764071547E+03  0.00000000000E+00 0. -1.
</event>
<event>
 8    1  0.7446554E-006  0.2057570E+04  0.7818608E-02  0.8145347E-01
          1   -1    0    0  502    0  0.00000000000E+00  0.00000000000E+00  0.12657632743E+04  0.12657632743E+04  0.00000000000E+00 0. -1.
         -1   -1    0    0    0  501 -0.00000000000E+00 -0.00000000000E+00 -0.33450679906E+04  0.33450679906E+04  0.00000000000E+00 0.  1.
    9000010    2    1    2  502    0  0.65319905487E+03  0.16715639283E+04 -0.10645340858E+04  0.23177098244E+04  0.10088364776E+04 0.  0.
   -9000010    2    1    2    0  501 -0.65319905487E+03 -0.16715639283E+04 -0.10147706306E+04  0.22931214406E+04  0.10039180927E+04 0.  0.
        -13    1    3    3    0    0  0.54730134579E+03  0.10988235270E+04 -0.12032810147E+04  0.17189639664E+04  0.10566000000E+00 0.  1.
         13    1    4    4    0    0  0.10763426311E+03 -0.10352082995E+04 -0.69285159414E+03  0.12503138409E+04  0.10566000000E+00 0. -1.
          4    1    3    3  502    0  0.10589770908E+03  0.57274040133E+03  0.13874692890E+03  0.59874585793E+03  0.00000000000E+00 0.  1.
         -4    1    4    4    0  501 -0.76083331798E+03 -0.63635562879E+03 -0.32191903643E+03  0.10428075997E+04  0.00000000000E+00 0. -1.
</event>
<event>
 8    1  0.7446554E-006  0.1371612E+04  0.7818608E-02  0.8487449E-01
         -2   -1    0    0    0  501 -0.00000000000E+00  0.00000000000E+00  0.10123970613E+04  0.10123970613E+04  0.00000000000E+00 0.  1.
          2   -1    0    0  502    0  0.00000000000E+00 -0.00000000000E+00 -0.18882453892E+04  0.18882453892E+04  0.00000000000E+00 0. -1.
    9000010    2    1    2  502    0 -0.29010592147E+03  0.91116657488E+03 -0.60047956561E+03  0.14573093391E+04  0.92129736155E+03 0.  0.
   -9000010    2    1    2    0  501  0.29010592147E+03 -0.91116657488E+03 -0.27536876220E+03  0.14433331113E+04  0.10454647494E+04 0.  0.
        -13    1    3    3    0    0 -0.31548893869E+03  0.45152398600E+02  0.10969525141E+03  0.33705351041E+03  0.10566000000E+00 0.  1.
         13    1    4    4    0    0  0.66721709826E+03 -0.70480578739E+03 -0.88385291193E+02  0.97454698451E+03  0.10566000000E+00 0. -1.
          4    1    3    3  502    0  0.25383017214E+02  0.86601417628E+03 -0.71017481703E+03  0.11202558287E+04  0.00000000000E+00 0.  1.
         -4    1    4    4    0  501 -0.37711117679E+03 -0.20636078749E+03 -0.18698347101E+03  0.46878612683E+03  0.00000000000E+00 0. -1.
</event>
<event>
 8    1  0.7446554E-006  0.9984199E+03  0.7818608E-02  0.8776077E-01
         -2   -1    0    0    0  501 -0.00000000000E+00  0.00000000000E+00  0.14492627937E+04  0.14492627937E+04  0.00000000000E+00 0.  1.
          2   -1    0    0  502    0  0.00000000000E+00 -0.00000000000E+00 -0.74473404971E+03  0.74473404971E+03  0.00000000000E+00 0. -1.
    9000010    2    1    2  502    0 -0.12057706504E+03  0.80215157380E+02  0.65983130775E+03  0.12090188504E+04  0.10026843600E+04 0.  0.
   -9000010    2    1    2    0  501  0.12057706504E+03 -0.80215157380E+02  0.44697436258E+02  0.98497799308E+03  0.97324739196E+03 0.  0.
        -13    1    3    3    0    0 -0.33311136792E+03  0.86122960957E+02 -0.14736155405E+03  0.37429371704E+03  0.10566000000E+00 0.  1.
         13    1    4    4    0    0 -0.40164729237E+03 -0.19411844879E+03  0.60874922703E+02  0.45023137053E+03  0.10566000000E+00 0. -1.
          4    1    3    3  502    0  0.21253430288E+03 -0.59078035762E+01  0.80719286180E+03  0.83472513331E+03  0.00000000000E+00 0.  1.
         -4    1    4    4    0  501  0.52222435741E+03  0.11390329141E+03 -0.16177486445E+02  0.53474662255E+03  0.00000000000E+00 0. -1.
</event>
<event>
 8    1  0.7446554E-006  0.1155859E+04  0.7818608E-02  0.8640564E-01
          1   -1    0    0  502    0  0.00000000000E+00  0.00000000000E+00  0.11456761780E+04  0.11456761780E+04  0.00000000000E+00 0. -1.
         -1   -1    0    0    0  501 -0.00000000000E+00 -0.00000000000E+00 -0.13432737897E+04  0.13432737897E+04  0.00000000000E+00 0.  1.
    9000010    2    1    2  502    0  0.17365593546E+02 -0.60414262721E+03 -0.54985561475E+03  0.12710258490E+04  0.97358904769E+03 0.  0.
   -9000010    2    1    2    0  501 -0.17365593546E+02  0.60414262721E+03  0.35225800301E+03  0.12179241187E+04  0.99697722165E+03 0.  0.
        -13    1    3    3    0    0  0.28576789986E+03 -0.99844148935E+02  0.17379921567E+03  0.34905347040E+03  0.10566000000E+00 0.  1.
         13    1    4    4    0    0  0.25078940994E+03  0.73649533753E+03  0.45551201150E+03  0.90156082110E+03  0.10566000000E+00 0. -1.
          4    1    3    3  502    0 -0.26840230631E+03 -0.50429847827E+03 -0.72365483042E+03  0.92197237855E+03  0.00000000000E+00 0.  1.
         -4    1    4    4    0  501 -0.26815500349E+03 -0.13235271033E+03 -0.10325400850E+03  0.31636329765E+03  0.00000000000E+00 0. -1.
</event>
<event>
 7    1  0.7446554E-006  0.2018542E+04  0.7818608E-02  0.8160885E-01
          2   -1    0    0  502    0  0.00000000000E+00  0.00000000000E+00  0.25173665742E+04  0.25173665742E+04  0.00000000000E+00 0.  1.
         -2   -1    0    0    0  501 -0.00000000000E+00 -0.00000000000E+00 -0.16484894619E+04  0.16484894619E+04  0.00000000000E+00 0. -1.
    9000010    2    1    2  502    0  0.16361389167E+04  0.74540250996E+01  0.67167842368E+03  0.20312651467E+04  0.99893947471E+03 0.  0.
        -13    1    3    3    0    0  0.61539338184E+03 -0.27231933812E+03 -0.15226909433E+03  0.68996574160E+03  0.10566000000E+00 0.  1.
         13    1    1    2    0    0  0.19998070253E+03 -0.11373010588E+03  0.18523024551E+03  0.29535922770E+03  0.10566000000E+00 0. -1.
          4    1    3    3  502    0  0.10207455349E+04  0.27977336322E+03  0.82394751801E+03  0.13412994051E+04  0.00000000000E+00 0.  1.
         -4    1    1    2    0  501 -0.18361196193E+04  0.10627608078E+03  0.11968443192E+02  0.18392316617E+04  0.00000000000E+00 0. -1.
</event>
<event>
 8    1  0.7446554E-006  0.1089775E+04  0.7818608E-02  0.8694534E-01
          2   -1    0    0  502    0  0.00000000000E+00  0.00000000000E+00  0.39171197819E+04  0.39171197819E+04  0.00000000000E+00 0.  1.
         -2   -1    0    0    0  501 -0.00000000000E+00 -0.00000000000E+00 -0.51861215034E+03  0.51861215034E+03  0.00000000000E+00 0. -1.
    9000010    2    1    2  502    0  0.32815477020E+03  0.23616043574E+03  0.31319930245E+04  0.33173710439E+04  0.10159296397E+04 0.  0.
   -9000010    2    1    2    0  501 -0.32815477020E+03 -0.23616043574E+03  0.26651460703E+03  0.11183608883E+04  0.10080891509E+04 0.  0.
        -13    1    3    3    0    0 -0.71433834913E+02  0.43762004378E+03  0.59960681335E+03  0.74574958081E+03  0.10566000000E+00 0.  1.
         13    1    4    4    0    0  0.15498831477E+03 -0.34140553776E+03 -0.21161090500E+03  0.43053258322E+03  0.10566000000E+00 0. -1.
          4    1    3    3  502    0  0.39958860511E+03 -0.20145960804E+03  0.25323862112E+04  0.25716214631E+04  0.00000000000E+00 0.  1.
         -4    1    4    4    0  501 -0.48314308498E+03  0.10524510202E+03  0.47812551202E+03  0.68782830510E+03  0.00000000000E+00 0. -1.
</event>
<event>
 8    1  0.7446554E-006  0.1081460E+04  0.7818608E-02  0.8701607E-01
          1   -1    0    0  502    0  0.00000000000E+00  0.00000000000E+00  0.16400680867E+04  0.16400680867E+04  0.00000000000E+00 0. -1.
         -1   -1    0    0    0  501 -0.00000000000E+00 -0.00000000000E+00 -0.72088236498E+03  0.72088236498E+03  0.00000000000E+00 0.  1.
    9000010    2    1    2  502    0  0.34542733982E+03 -0.21513971821E+03  0.33740394476E+03  0.11336683253E+04  0.10028745208E+04 0.  0.
   -9000010    2    1    2    0  501 -0.34542733982E+03  0.21513971821E+03  0.58178177692E+03  0.12272821264E+04  0.10010725430E+04 0.  0.
        -13    1    3    3    0    0  0.11251283699E+03 -0.27506307397E+03  0.66435192906E+03  0.72779277954E+03  0.10566000000E+00 0.  1.
         13    1    4    4    0    0 -0.55904622617E+03  0.75013386191E+02 -0.29432241778E+02  0.56482383017E+03  0.10566000000E+00 0. -1.
          4    1    3    3  502    0  0.23291450283E+03  0.59923355760E+02 -0.32694798430E+03  0.40587554574E+03  0.00000000000E+00 0.  1.
         -4    1    4    4    0  501  0.21361888635E+03  0.14012633201E+03  0.61121401870E+03  0.66245829619E+03  0.00000000000E+00 0. -1.
</event>
<event>
 8    1  0.7446554E-006  0.1047086E+04  0.7818608E-02  0.8731565E-01
          2   -1    0    0  502    0  0.00000000000E+00  0.00000000000E+00  0.17980017423E+04  0.17980017423E+04  0.00000000000E+00 0. -1.
         -2   -1    0    0    0  501 -0.00000000000E+00 -0.00000000000E+00 -0.79192131137E+03  0.79192131137E+03  0.00000000000E+00 0.  1.
    9000010    2    1    2  502    0 -0.23967677844E+03 -0.24629212776E+03 -0.12162968290E+03  0.10441010280E+04  0.97839072289E+03 0.  0.
   -9000010    2    1    2    0  501  0.23967677844E+03  0.24629212776E+03  0.11277101139E+04  0.15458220257E+04  0.99986542286E+03 0.  0.
        -13    1    3    3    0    0 -0.12158403061E+03  0.37980420321E+03 -0.69878647114E+02  0.40486657773E+03  0.10566000000E+00 0.  1.
         13    1    4    4    0    0  0.21757364949E+03  0.57803716992E+03  0.37400745380E+03  0.72204352322E+03  0.10566000000E+00 0. -1.
          4    1    3    3  502    0 -0.11809274783E+03 -0.62609633096E+03 -0.51751035787E+02  0.63923445029E+03  0.00000000000E+00 0.  1.
         -4    1    4    4    0  501  0.22103128951E+02 -0.33174504217E+03  0.75370266008E+03  0.82377850246E+03  0.00000000000E+00 0. -1.
</event>
<event>
 8    1  0.7446554E-006  0.1585798E+04  0.7818608E-02  0.8361765E-01
         -4   -1    0    0    0  501 -0.00000000000E+00  0.00000000000E+00  0.19347194617E+04  0.19347194617E+04  0.00000000000E+00 0. -1.
          4   -1    0    0  502    0  0.00000000000E+00 -0.00000000000E+00 -0.12999988456E+04  0.12999988456E+04  0.00000000000E+00 0.  1.
    9000010    2    1    2  502    0 -0.69179121627E+03 -0.10057871275E+04  0.29718758652E+03  0.16104320759E+04  0.10074662163E+04 0.  0.
   -9000010    2    1    2    0  501  0.69179121627E+03  0.10057871275E+04  0.33753302962E+03  0.16242862314E+04  0.10169534811E+04 0.  0.
        -13    1    3    3    0    0 -0.89963554821E+03 -0.63601856912E+03  0.16658870863E+02  0.11018807871E+04  0.10566000000E+00 0.  1.
         13    1    4    4    0    0  0.65478421300E+03  0.90160004888E+02  0.23806751754E+03  0.70252924932E+03  0.10566000000E+00 0. -1.
          4    1    3    3  502    0  0.20784433194E+03 -0.36976855835E+03  0.28052871566E+03  0.50855128883E+03  0.00000000000E+00 0.  1.
         -4    1    4    4    0  501  0.37007003267E+02  0.91562712258E+03  0.99465512076E+02  0.92175698207E+03  0.00000000000E+00 0. -1.
</event>
<event>
 8    1  0.7446554E-006  0.1343861E+04  0.7818608E-02  0.8505452E-01
          2   -1    0    0  502    0  0.00000000000E+00  0.00000000000E+00  0.20409857162E+04  0.20409857162E+04  0.00000000000E+00 0.  1.
         -2   -1    0    0    0  501 -0.00000000000E+00 -0.00000000000E+00 -0.88594350556E+03  0.88594350556E+03  0.00000000000E+00 0. -1.
    9000010    2    1    2  502    0  0.59150184059E+03 -0.66197987870E+03  0.62495445810E+03  0.14750745078E+04  0.99859147883E+03 0.  0.
   -9000010    2    1    2    0  501 -0.59150184059E+03  0.66197987870E+03  0.53008775253E+03  0.14518547140E+04  0.10192140589E+04 0.  0.
        -13    1    3    3    0    0 -0.28428816914E+03 -0.15416099493E+03  0.16643163436E+03  0.36370987827E+03  0.10566000000E+00 0.  1.
         13    1    4    4    0    0 -0.56941158173E+02  0.50283180758E+02 -0.28865433669E+03  0.29848288228E+03  0.10566000000E+00 0. -1.
          4    1    3    3  502    0  0.87579000973E+03 -0.50781888377E+03  0.45852282374E+03  0.11113646295E+04  0.00000000000E+00 0.  1.
         -4    1    4    4    0  501 -0.53456068242E+03  0.61169669794E+03  0.81874208923E+03  0.11533718317E+04  0.00000000000E+00 0. -1.
</event>
<event>
 8    1  0.7446554E-006  0.1742065E+04  0.7818608E-02  0.8282358E-01
          2   -1    0    0  502    0  0.00000000000E+00  0.00000000000E+00  0.24689324253E+04  0.24689324253E+04  0.00000000000E+00 0. -1.
         -2   -1    0    0    0  501 -0.00000000000E+00 -0.00000000000E+00 -0.14805367537E+04  0.14805367537E+04  0.00000000000E+00 0.  1.
    9000010    2    1    2  502    0 -0.14269299298E+04  0.45392010221E+02  0.13093218961E+04  0.21843851654E+04  0.10094678124E+04 0.  0.
   -9000010    2    1    2    0  501  0.14269299298E+04 -0.45392010221E+02 -0.32092622448E+03  0.17650840135E+04  0.98708584940E+03 0.  0.
        -13    1    3    3    0    0 -0.53439435420E+03 -0.16524718599E+03  0.11143116950E+04  0.12468257789E+04  0.10566000000E+00 0.  1.
         13    1    4    4    0    0  0.63841785437E+03  0.41561800785E+01 -0.64829382829E+03  0.90987885434E+03  0.10566000000E+00 0. -1.
          4    1    3    3  502    0 -0.89253557560E+03  0.21063919621E+03  0.19501020110E+03  0.93755938651E+03  0.00000000000E+00 0.  1.
         -4    1    4    4    0  501  0.78851207544E+03 -0.49548190300E+02  0.32736760381E+03  0.85520515919E+03  0.00000000000E+00 0. -1.
</event>
<event>
 8    1  0.7446554E-006  0.1291589E+04  0.7818608E-02  0.8540611E-01
         -2   -1    0    0    0  501 -0.00000000000E+00  0.00000000000E+00  0.95565216304E+03  0.95565216304E+03  0.00000000000E+00 0. -1.
          2   -1    0    0  502    0  0.00000000000E+00 -0.00000000000E+00 -0.17482029618E+04  0.17482029618E+04  0.00000000000E+00 0.  1.
    9000010    2    1    2  502    0 -0.30644731112E+03  0.76167504288E+03 -0.44930418988E+03  0.13711413295E+04  0.10020456401E+04 0.  0.
   -9000010    2    1    2    0  501  0.30644731112E+03 -0.76167504288E+03 -0.34324660890E+03  0.13327137954E+04  0.99209324183E+03 0.  0.
        -13    1    3    3    0    0 -0.31513615019E+03 -0.63137544404E+02  0.14689474636E+03  0.35337688145E+03  0.10566000000E+00 0.  1.
         13    1    4    4    0    0  0.41253089168E+03 -0.89292505784E+03 -0.38509565484E+02  0.98436776324E+03  0.10566000000E+00 0. -1.
          4    1    3    3  502    0  0.86888390672E+01  0.82481258728E+03 -0.59619893624E+03  0.10177644480E+04  0.00000000000E+00 0.  1.
         -4    1    4    4    0  501 -0.10608358056E+03  0.13125001496E+03 -0.30473704341E+03  0.34834603216E+03  0.00000000000E+00 0. -1.
</event>
<event>
 8    1  0.7446554E-006  0.1400838E+04  0.7818608E-02  0.8468956E-01
         -2   -1    0    0    0  501 -0.00000000000E+00  0.00000000000E+00  0.63404720614E+03  0.63404720614E+03  0.00000000000E+00 0.  1.
          2   -1    0    0  502    0  0.00000000000E+00 -0.00000000000E+00 -0.34862591080E+04  0.34862591080E+04  0.00000000000E+00 0. -1.
    9000010    2    1    2  502    0  0.88351417930E+03  0.26616293240E+03 -0.20863132437E+04  0.24957555234E+04  0.10122512880E+04 0.  0.
   -9000010    2    1    2    0  501 -0.88351417930E+03 -0.26616293240E+03 -0.76589865813E+03  0.16245507907E+04  0.10959582590E+04 0.  0.
        -13    1    3    3    0    0  0.33110199669E+03 -0.32172465339E+03 -0.12556819535E+04  0.13378611529E+04  0.10566000000E+00 0.  1.
         13    1    4    4    0    0 -0.75423482785E+03 -0.22854426212E+03 -0.10484137474E+04  0.13115921821E+04  0.10566000000E+00 0. -1.
          4    1    3    3  502    0  0.55241218261E+03  0.58788758579E+03 -0.83063129020E+03  0.11578943705E+04  0.00000000000E+00 0.  1.
         -4    1    4    4    0  501 -0.12927935145E+03 -0.37618670275E+02  0.28251508924E+03  0.31295860863E+03  0.00000000000E+00 0. -1.
</event>
<event>
 8    1  0.7446554E-006  0.1778877E+04  0.7818608E-02  0.8264896E-01
          2   -1    0    0  502    0  0.00000000000E+00  0.00000000000E+00  0.14854185210E+04  0.14854185210E+04  0.00000000000E+00 0. -1.
         -2   -1    0    0    0  501 -0.00000000000E+00 -0.00000000000E+00 -0.21435349414E+04  0.21435349414E+04  0.00000000000E+00 0.  1.
    9000010    2    1    2  502    0  0.10590995433E+04  0.10156784056E+04 -0.47096201026E+03  0.18371549792E+04  0.10000193680E+04 0.  0.
   -9000010    2    1    2    0  501 -0.10590995433E+04 -0.10156784056E+04 -0.18715441013E+03  0.17917984832E+04  0.10110492398E+04 0.  0.
        -13    1    3    3    0    0  0.10263111307E+04  0.72406205859E+03  0.30219639274E+02  0.12563811681E+04  0.10566000000E+00 0.  1.
         13    1    4    4    0    0 -0.85758628584E+03 -0.11873391937E+04  0.50407026864E+01  0.14646685695E+04  0.10566000000E+00 0. -1.
          4    1    3    3  502    0  0.32788412526E+02  0.29161634697E+03 -0.50118164954E+03  0.58077381109E+03  0.00000000000E+00 0.  1.
         -4    1    4    4    0  501 -0.20151325742E+03  0.17166078813E+03 -0.19219511282E+03  0.32712991378E+03  0.00000000000E+00 0. -1.
</event>
<event>
 8    1  0.7446554E-006  0.1315515E+04  0.7818608E-02  0.8524309E-01
         -2   -1    0    0    0  501 -0.00000000000E+00  0.00000000000E+00  0.13897581362E+04  0.13897581362E+04  0.00000000000E+00 0.  1.
          2   -1    0    0  502    0  0.00000000000E+00 -0.00000000000E+00 -0.12499031257E+04  0.12499031257E+04  0.00000000000E+00 0. -1.
    9000010    2    1    2  502    0  0.72128532803E+03  0.37017419370E+03 -0.94851777277E+01  0.13259246213E+04  0.10491447348E+04 0.  0.
   -9000010    2    1    2    0  501 -0.72128532803E+03 -0.37017419370E+03  0.14934018826E+03  0.13137366406E+04  0.10228978497E+04 0.  0.
        -13    1    3    3    0    0 -0.49143896841E+02 -0.20484185143E+03 -0.25789436319E+03  0.33299372431E+03  0.10566000000E+00 0.  1.
         13    1    4    4    0    0  0.24776485686E+03 -0.57911555754E+02 -0.86344744491E+02  0.26869424752E+03  0.10566000000E+00 0. -1.
          4    1    3    3  502    0  0.77042922487E+03  0.57501604513E+03  0.24840918547E+03  0.99293089695E+03  0.00000000000E+00 0.  1.
         -4    1    4    4    0  501 -0.96905018488E+03 -0.31226263794E+03  0.23568493276E+03  0.10450423931E+04  0.00000000000E+00 0. -1.
</event>
<event>
 8    1  0.7446554E-006  0.1166265E+04  0.7818608E-02  0.8632408E-01
          2   -1    0    0  502    0  0.00000000000E+00  0.00000000000E+00  0.83151369735E+03  0.83151369735E+03  0.00000000000E+00 0.  1.
         -2   -1    0    0    0  501 -0.00000000000E+00 -0.00000000000E+00 -0.16372937693E+04  0.16372937693E+04  0.00000000000E+00 0. -1.
    9000010    2    1    2  502    0 -0.41120613645E+03 -0.37917836843E+03 -0.43902460277E+03  0.12429204193E+04  0.10194321190E+04 0.  0.
   -9000010    2    1    2    0  501  0.41120613645E+03  0.37917836843E+03 -0.36675546916E+03  0.12258870473E+04  0.10273377034E+04 0.  0.
        -13    1    3    3    0    0  0.29337523586E+03  0.65215657284E+02  0.16096814421E+01  0.30054070142E+03  0.10566000000E+00 0.  1.
         13    1    4    4    0    0  0.43562618379E+03 -0.27268374195E+03 -0.20870964165E+03  0.55469479970E+03  0.10566000000E+00 0. -1.
          4    1    3    3  502    0 -0.70458137231E+03 -0.44439402571E+03 -0.44063428421E+03  0.94237971791E+03  0.00000000000E+00 0.  1.
         -4    1    4    4    0  501 -0.24420047344E+02  0.65186211038E+03 -0.15804582751E+03  0.67119224761E+03  0.00000000000E+00 0. -1.
</event>
<event>
 8    1  0.7446554E-006  0.1180766E+04  0.7818608E-02  0.8621189E-01
         -2   -1    0    0    0  501 -0.00000000000E+00  0.00000000000E+00  0.66629887051E+03  0.66629887051E+03  0.00000000000E+00 0. -1.
          2   -1    0    0  502    0  0.00000000000E+00 -0.00000000000E+00 -0.22376857653E+04  0.22376857653E+04  0.00000000000E+00 0.  1.
    9000010    2    1    2  502    0  0.54771988569E+03 -0.32666127795E+03 -0.41508808868E+03  0.12505200980E+04  0.99236975487E+03 0.  0.
   -9000010    2    1    2    0  501 -0.54771988569E+03  0.32666127795E+03 -0.11562988061E+04  0.16534645378E+04  0.99509466142E+03 0.  0.
        -13    1    3    3    0    0  0.24054420858E+03 -0.66087362306E+03 -0.13205786391E+03  0.71558001127E+03  0.10566000000E+00 0.  1.
         13    1    4    4    0    0 -0.74028042819E+03  0.34683091722E+03 -0.47563325423E+03  0.94579797060E+03  0.10566000000E+00 0. -1.
          4    1    3    3  502    0  0.30717567711E+03  0.33421234511E+03 -0.28303022477E+03  0.53494008671E+03  0.00000000000E+00 0.  1.
         -4    1    4    4    0  501  0.19256054249E+03 -0.20169639274E+02 -0.68066555187E+03  0.70766656723E+03  0.00000000000E+00 0. -1.
</event>
<event>
 8    1  0.7446554E-006  0.1231208E+04  0.7818608E-02  0.8583425E-01
          2   -1    0    0  502    0  0.00000000000E+00  0.00000000000E+00  0.23776398735E+04  0.23776398735E+04  0.00000000000E+00 0. -1.
         -2   -1    0    0    0  501 -0.00000000000E+00 -0.00000000000E+00 -0.71363482222E+03  0.71363482222E+03  0.00000000000E+00 0.  1.
    9000010    2    1    2  502    0 -0.64247589407E+03 -0.26477781993E+03  0.31836830988E+03  0.12568396740E+04  0.99769986318E+03 0.  0.
   -9000010    2    1    2    0  501  0.64247589407E+03  0.26477781993E+03  0.13456367414E+04  0.18344350217E+04  0.10351478352E+04 0.  0.
        -13    1    3    3    0    0 -0.82841877021E+03 -0.27430040314E+03  0.49239646324E+03  0.10019843602E+04  0.10566000000E+00 0.  1.
         13    1    4    4    0    0  0.16349336565E+03 -0.32110655789E+03  0.94970280754E+02  0.37263771618E+03  0.10566000000E+00 0. -1.
          4    1    3    3  502    0  0.18594287615E+03  0.95225832073E+01 -0.17402815336E+03  0.25485531374E+03  0.00000000000E+00 0.  1.
         -4    1    4    4    0  501  0.47898252842E+03  0.58588437782E+03  0.12506664607E+04  0.14617973056E+04  0.00000000000E+00 0. -1.
</event>
<event>
 8    1  0.7446554E-006  0.1357247E+04  0.7818608E-02  0.8496713E-01
         -1   -1    0    0    0  501 -0.00000000000E+00  0.00000000000E+00  0.11352106819E+04  0.11352106819E+04  0.00000000000E+00 0. -1.
          1   -1    0    0  502    0  0.00000000000E+00 -0.00000000000E+00 -0.16674693763E+04  0.16674693763E+04  0.00000000000E+00 0.  1.
    9000010    2    1    2  502    0  0.49260906632E+03 -0.79801666312E+03 -0.49809713851E+03  0.14602489928E+04  0.10023632449E+04 0.  0.
   -9000010    2    1    2    0  501 -0.49260906632E+03  0.79801666312E+03 -0.34161555940E+02  0.13424310654E+04  0.95992701109E+03 0.  0.
        -13    1    3    3    0    0  0.15749999708E+03 -0.83266616637E+03 -0.67161076677E+03  0.10812956242E+04  0.10566000000E+00 0.  1.
         13    1    4    4    0    0  0.14882867196E+02 -0.66039295478E+02  0.28330179064E+03  0.29127753780E+03  0.10566000000E+00 0. -1.
          4    1    3    3  502    0  0.33510906925E+03  0.34649503251E+02  0.17351362826E+03  0.37895336858E+03  0.00000000000E+00 0.  1.
         -4    1    4    4    0  501 -0.50749193352E+03  0.86405595860E+03 -0.31746334658E+03  0.10511535276E+04  0.00000000000E+00 0. -1.
</event>
<event>
 8    1  0.7446554E-006  0.1565462E+04  0.7818608E-02  0.8372791E-01
         -2   -1    0    0    0  501 -0.00000000000E+00  0.00000000000E+00  0.10944261102E+04  0.10944261102E+04  0.00000000000E+00 0.  1.
          2   -1    0    0  502    0  0.00000000000E+00 -0.00000000000E+00 -0.25403411219E+04  0.25403411219E+04  0.00000000000E+00 0. -1.
    9000010    2    1    2  502    0 -0.36882831498E+03  0.11493314544E+04 -0.96159776309E+02  0.15656994145E+04  0.99255772436E+03 0.  0.
   -9000010    2    1    2    0  501  0.36882831498E+03 -0.11493314544E+04 -0.13497552354E+04  0.20690678175E+04  0.10011020528E+04 0.  0.
        -13    1    3    3    0    0  0.62806940271E+02  0.23625397129E+03 -0.43620083380E+03  0.50003182826E+03  0.10566000000E+00 0.  1.
         13    1    4    4    0    0  0.52650238779E+03 -0.11987586830E+04 -0.89695350722E+03  0.15870578911E+04  0.10566000000E+00 0. -1.
          4    1    3    3  502    0 -0.43163525525E+03  0.91307748307E+03  0.34004105750E+03  0.10656675863E+04  0.00000000000E+00 0.  1.
         -4    1    4    4    0  501 -0.15767407280E+03  0.49427228599E+02 -0.45280172819E+03  0.48200992647E+03  0.00000000000E+00 0. -1.
</event>
<event>
 8    1  0.7446554E-006  0.1332152E+04  0.7818608E-02  0.8513183E-01
         -2   -1    0    0    0  501 -0.00000000000E+00  0.00000000000E+00  0.54111971974E+03  0.54111971974E+03  0.00000000000E+00 0. -1.
          2   -1    0    0  502    0  0.00000000000E+00 -0.00000000000E+00 -0.36091290403E+04  0.36091290403E+04  0.00000000000E+00 0.  1.
    9000010    2    1    2  502    0 -0.83202780521E+03 -0.27868433329E+01 -0.21791882509E+04  0.25635490476E+04  0.10633175686E+04 0.  0.
   -9000010    2    1    2    0  501  0.83202780521E+03  0.27868433329E+01 -0.88882106961E+03  0.15866997124E+04  0.10175141514E+04 0.  0.
        -13    1    3    3    0    0 -0.34740319164E+03  0.45223897801E+03 -0.15364799472E+04  0.16388958814E+04  0.10566000000E+00 0.  1.
         13    1    4    4    0    0  0.29452587067E+03  0.36173999413E+03  0.25294398599E+02  0.46716285128E+03  0.10566000000E+00 0. -1.
          4    1    3    3  502    0 -0.48462461356E+03 -0.45502582135E+03 -0.64270830369E+03  0.92465316622E+03  0.00000000000E+00 0.  1.
         -4    1    4    4    0  501  0.53750193453E+03 -0.35895315080E+03 -0.91411546821E+03  0.11195368611E+04  0.00000000000E+00 0. -1.
</event>
<event>
 8    1  0.7446554E-006  0.1368630E+04  0.7818608E-02  0.8489362E-01
          2   -1    0    0  502    0  0.00000000000E+00  0.00000000000E+00  0.22725885308E+04  0.22725885308E+04  0.00000000000E+00 0. -1.
         -2   -1    0    0    0  501 -0.00000000000E+00 -0.00000000000E+00 -0.83498605429E+03  0.83498605429E+03  0.00000000000E+00 0.  1.
    9000010    2    1    2  502    0 -0.92240129477E+03 -0.12512464045E+03  0.54145916118E+03  0.14699574930E+04  0.10005581861E+04 0.  0.
   -9000010    2    1    2    0  501  0.92240129477E+03  0.12512464045E+03  0.89614331533E+03  0.16376170921E+04  0.10060996841E+04 0.  0.
        -13    1    3    3    0    0 -0.72725668522E+03  0.30249769495E+03  0.60826988337E+03  0.99518812484E+03  0.10566000000E+00 0.  1.
         13    1    4    4    0    0  0.45616209114E+03 -0.25674770697E+03 -0.39212069147E+02  0.52491983765E+03  0.10566000000E+00 0. -1.
          4    1    3    3  502    0 -0.19514460956E+03 -0.42762233539E+03 -0.66810722181E+02  0.47476936818E+03  0.00000000000E+00 0.  1.
         -4    1    4    4    0  501  0.46623920364E+03  0.38187234742E+03  0.93535538448E+03  0.11126972544E+04  0.00000000000E+00 0. -1.
</event>
<event>
 8    1  0.7446554E-006  0.1508450E+04  0.7818608E-02  0.8404653E-01
          1   -1    0    0  502    0  0.00000000000E+00  0.00000000000E+00  0.19423381574E+04  0.19423381574E+04  0.00000000000E+00 0. -1.
         -1   -1    0    0    0  501 -0.00000000000E+00 -0.00000000000E+00 -0.13339394571E+04  0.13339394571E+04  0.00000000000E+00 0.  1.
    9000010    2    1    2  502    0  0.69443835690E+03 -0.82215177540E+03  0.87230507665E+03  0.17268441211E+04  0.10309686215E+04 0.  0.
   -9000010    2    1    2    0  501 -0.69443835690E+03  0.82215177540E+03 -0.26390637641E+03  0.15494334934E+04  0.10830140357E+04 0.  0.
        -13    1    3    3    0    0  0.86552842500E+03 -0.42825148143E+03  0.86636023441E+03  0.12973507054E+04  0.10566000000E+00 0.  1.
         13    1    4    4    0    0 -0.45038892308E+03  0.35948426004E+03  0.40201324619E+03  0.70263345816E+03  0.10566000000E+00 0. -1.
          4    1    3    3  502    0 -0.17109006810E+03 -0.39390029397E+03  0.59448422409E+01  0.42949341571E+03  0.00000000000E+00 0.  1.
         -4    1    4    4    0  501 -0.24404943382E+03  0.46266751535E+03 -0.66591962260E+03  0.84680003523E+03  0.00000000000E+00 0. -1.
</event>
<event>
 8    1  0.7446554E-006  0.1490271E+04  0.7818608E-02  0.8415120E-01
         -2   -1    0    0    0  501 -0.00000000000E+00  0.00000000000E+00  0.81779608926E+03  0.81779608926E+03  0.00000000000E+00 0.  1.
          2   -1    0    0  502    0  0.00000000000E+00 -0.00000000000E+00 -0.28980346862E+04  0.28980346862E+04  0.00000000000E+00 0. -1.
    9000010    2    1    2  502    0 -0.11066996724E+04  0.16043686022E+03 -0.15102651483E+04  0.21262905389E+04  0.99482987841E+03 0.  0.
   -9000010    2    1    2    0  501  0.11066996724E+04 -0.16043686022E+03 -0.56997344870E+03  0.15895402365E+04  0.97531752803E+03 0.  0.
        -13    1    3    3    0    0  0.15555238991E+03  0.17096092775E+03 -0.18489144091E+03  0.29598824454E+03  0.10566000000E+00 0.  1.
         13    1    4    4    0    0  0.20410034877E+03  0.36789672590E+03 -0.56709226715E+02  0.42452432304E+03  0.10566000000E+00 0. -1.
          4    1    3    3  502    0 -0.12622520623E+04 -0.10524067534E+02 -0.13253737073E+04  0.18303022944E+04  0.00000000000E+00 0.  1.
         -4    1    4    4    0  501  0.90259932358E+03 -0.52833358612E+03 -0.51326422199E+03  0.11650159135E+04  0.00000000000E+00 0. -1.
</event>
<event>
 8    1  0.7446554E-006  0.1745046E+04  0.7818608E-02  0.8280927E-01
          4   -1    0    0  502    0  0.00000000000E+00  0.00000000000E+00  0.12836105944E+04  0.12836105944E+04  0.00000000000E+00 0.  1.
         -4   -1    0    0    0  501 -0.00000000000E+00 -0.00000000000E+00 -0.23814828556E+04  0.23814828556E+04  0.00000000000E+00 0. -1.
    9000010    2    1    2  502    0 -0.22713104778E+03  0.14117542634E+04 -0.43631684607E+03  0.18011712261E+04  0.10045928441E+04 0.  0.
   -9000010    2    1    2    0  501  0.22713104778E+03 -0.14117542634E+04 -0.66155541513E+03  0.18639222239E+04  0.99594772771E+03 0.  0.
        -13    1    3    3    0    0 -0.39761955354E+03  0.58765615582E+03  0.21012630630E+03  0.73999604228E+03  0.10566000000E+00 0.  1.
         13    1    4    4    0    0  0.65074116075E+02 -0.41943810780E+03 -0.74244468615E+03  0.85521172233E+03  0.10566000000E+00 0. -1.
          4    1    3    3  502    0  0.17048850576E+03  0.82409810760E+03 -0.64644315238E+03  0.10611751838E+04  0.00000000000E+00 0.  1.
         -4    1    4    4    0  501  0.16205693170E+03 -0.99231615562E+03  0.80889271019E+02  0.10087105016E+04  0.00000000000E+00 0. -1.
</event>
<event>
 8    1  0.7446554E-006  0.2133827E+04  0.7818608E-02  0.8115978E-01
         -2   -1    0    0    0  501 -0.00000000000E+00  0.00000000000E+00  0.13490287210E+04  0.13490287210E+04  0.00000000000E+00 0.  1.
          2   -1    0    0  502    0  0.00000000000E+00 -0.00000000000E+00 -0.34984256340E+04  0.34984256340E+04  0.00000000000E+00 0. -1.
    9000010    2    1    2  502    0  0.25547763772E+03 -0.19028116379E+04 -0.63329463442E+03  0.22507660673E+04  0.98940630850E+03 0.  0.
   -9000010    2    1    2    0  501 -0.25547763772E+03  0.19028116379E+04 -0.15161022786E+04  0.25966882876E+04  0.87078297591E+03 0.  0.
        -13    1    3    3    0    0  0.30245107551E+02 -0.17648402095E+04 -0.24626458924E+03  0.17821958340E+04  0.10566000000E+00 0.  1.
         13    1    4    4    0    0 -0.47727026295E+03  0.11038952215E+04 -0.54672692951E+03  0.13210911818E+04  0.10566000000E+00 0. -1.
          4    1    3    3  502    0  0.22523253016E+03 -0.13797142833E+03 -0.38703004517E+03  0.46857023331E+03  0.00000000000E+00 0.  1.
         -4    1    4    4    0  501  0.22179262523E+03  0.79891641640E+03 -0.96937534908E+03  0.12755971058E+04  0.00000000000E+00 0. -1.
</event>
<event>
 8    1  0.7446554E-006  0.1153505E+04  0.7818608E-02  0.8642422E-01
         -2   -1    0    0    0  501 -0.00000000000E+00  0.00000000000E+00  0.95909038044E+03  0.95909038044E+03  0.00000000000E+00 0.  1.
          2   -1    0    0  502    0  0.00000000000E+00 -0.00000000000E+00 -0.16474725443E+04  0.16474725443E+04  0.00000000000E+00 0. -1.
    9000010    2    1    2  502    0  0.49318826516E+03  0.29814639031E+03  0.17383081178E+03  0.11660046393E+04  0.99861090155E+03 0.  0.
   -9000010    2    1    2    0  501 -0.49318826516E+03 -0.29814639031E+03 -0.86221297569E+03  0.14405582855E+04  0.99983549827E+03 0.  0.
        -13    1    3    3    0    0  0.57727782154E+02  0.45338822962E+03  0.43842801112E+03  0.63333444221E+03  0.10566000000E+00 0.  1.
         13    1    4    4    0    0 -0.46945821769E+03 -0.67585993826E+01  0.59805264142E+02  0.47330051511E+03  0.10566000000E+00 0. -1.
          4    1    3    3  502    0  0.43546048301E+03 -0.15524183931E+03 -0.26459719933E+03  0.53267019705E+03  0.00000000000E+00 0.  1.
         -4    1    4    4    0  501 -0.23730047475E+02 -0.29138779093E+03 -0.92201823983E+03  0.96725777042E+03  0.00000000000E+00 0. -1.
</event>
<event>
 8    1  0.7446554E-006  0.1263216E+04  0.7818608E-02  0.8560421E-01
         -2   -1    0    0    0  501 -0.00000000000E+00  0.00000000000E+00  0.12359761471E+04  0.12359761471E+04  0.00000000000E+00 0.  1.
          2   -1    0    0  502    0  0.00000000000E+00 -0.00000000000E+00 -0.13618748258E+04  0.13618748258E+04  0.00000000000E+00 0. -1.
    9000010    2    1    2  502    0  0.16473214180E+03  0.75218403381E+03  0.23325956314E+03  0.12844567540E+04  0.10012500337E+04 0.  0.
   -9000010    2    1    2    0  501 -0.16473214180E+03 -0.75218403381E+03 -0.35915824186E+03  0.13133942189E+04  0.10015449227E+04 0.  0.
        -13    1    3    3    0    0 -0.65908213971E+01  0.12400768512E+03 -0.37401835856E+03  0.39409527858E+03  0.10566000000E+00 0.  1.
         13    1    4    4    0    0  0.40412561080E+03 -0.28338111038E+03 -0.38552845646E+00  0.49358132342E+03  0.10566000000E+00 0. -1.
          4    1    3    3  502    0  0.17132296319E+03  0.62817634869E+03  0.60727792171E+03  0.89036147545E+03  0.00000000000E+00 0.  1.
         -4    1    4    4    0  501 -0.56885775260E+03 -0.46880292343E+03 -0.35877271341E+03  0.81981289548E+03  0.00000000000E+00 0. -1.
</event>
<event>
 8    1  0.7446554E-006  0.1606558E+04  0.7818608E-02  0.8350683E-01
         -2   -1    0    0    0  501 -0.00000000000E+00  0.00000000000E+00  0.82769925794E+03  0.82769925794E+03  0.00000000000E+00 0.  1.
          2   -1    0    0  502    0  0.00000000000E+00 -0.00000000000E+00 -0.31602972657E+04  0.31602972657E+04  0.00000000000E+00 0. -1.
    9000010    2    1    2  502    0 -0.12609953645E+04 -0.11788695017E+03 -0.93481227462E+03  0.18567024790E+04  0.98461335786E+03 0.  0.
   -9000010    2    1    2    0  501  0.12609953645E+04  0.11788695017E+03 -0.13977857332E+04  0.21312940446E+04  0.99227148824E+03 0.  0.
        -13    1    3    3    0    0 -0.11527819653E+04  0.26480512524E+03 -0.83142693803E+03  0.14457865604E+04  0.10566000000E+00 0.  1.
         13    1    4    4    0    0  0.65767834188E+03 -0.38467070892E+03 -0.98162387819E+03  0.12426173204E+04  0.10566000000E+00 0. -1.
          4    1    3    3  502    0 -0.10821339927E+03 -0.38269207541E+03 -0.10338533659E+03  0.41091591863E+03  0.00000000000E+00 0.  1.
         -4    1    4    4    0  501  0.60331702266E+03  0.50255765909E+03 -0.41616185497E+03  0.88867672417E+03  0.00000000000E+00 0. -1.
</event>
<event>
 8    1  0.7446554E-006  0.1101702E+04  0.7818608E-02  0.8684503E-01
          1   -1    0    0  502    0  0.00000000000E+00  0.00000000000E+00  0.31368632952E+04  0.31368632952E+04  0.00000000000E+00 0. -1.
         -1   -1    0    0    0  501 -0.00000000000E+00 -0.00000000000E+00 -0.38790354837E+03  0.38790354837E+03  0.00000000000E+00 0.  1.
    9000010    2    1    2  502    0  0.42151976921E+03 -0.19808157272E+03  0.12804278833E+04  0.16859526397E+04  0.99298817406E+03 0.  0.
   -9000010    2    1    2    0  501 -0.42151976921E+03  0.19808157272E+03  0.14685318636E+04  0.18388142039E+04  0.10038608553E+04 0.  0.
        -13    1    3    3    0    0  0.65631613575E+03  0.14969477243E+03  0.85765254467E+03  0.10902877113E+04  0.10566000000E+00 0.  1.
         13    1    4    4    0    0 -0.20629906633E+03 -0.56425085147E+02 -0.99400503079E+02  0.23584648859E+03  0.10566000000E+00 0. -1.
          4    1    3    3  502    0 -0.23479636654E+03 -0.34777634515E+03  0.42277533863E+03  0.59566492841E+03  0.00000000000E+00 0.  1.
         -4    1    4    4    0  501 -0.21522070288E+03  0.25450665787E+03  0.15679323666E+04  0.16029677153E+04  0.00000000000E+00 0. -1.
</event>
<event>
 8    1  0.7446554E-006  0.1342761E+04  0.7818608E-02  0.8506175E-01
         -2   -1    0    0    0  501 -0.00000000000E+00  0.00000000000E+00  0.85339038735E+03  0.85339038735E+03  0.00000000000E+00 0. -1.
          2   -1    0    0  502    0  0.00000000000E+00 -0.00000000000E+00 -0.21130448909E+04  0.21130448909E+04  0.00000000000E+00 0.  1.
    9000010    2    1    2  502    0  0.45678206225E+03  0.76755155206E+03 -0.64774518696E+03  0.14922167671E+04  0.10046650264E+04 0.  0.
   -9000010    2    1    2    0  501 -0.45678206225E+03 -0.76755155206E+03 -0.61190931663E+03  0.14742185112E+04  0.10005508331E+04 0.  0.
        -13    1    3    3    0    0  0.51275396264E+03  0.65142791270E+02 -0.59124165276E+03  0.78531962447E+03  0.10566000000E+00 0.  1.
         13    1    4    4    0    0 -0.25082643123E+03 -0.94018919795E+03 -0.69171839423E+03  0.11938777051E+04  0.10566000000E+00 0. -1.
          4    1    3    3  502    0 -0.55971900386E+02  0.70240876079E+03 -0.56503534202E+02  0.70689714262E+03  0.00000000000E+00 0.  1.
         -4    1    4    4    0  501 -0.20595563102E+03  0.17263764589E+03  0.79809077598E+02  0.28034080615E+03  0.00000000000E+00 0. -1.
</event>
<event>
 8    1  0.7446554E-006  0.1517516E+04  0.7818608E-02  0.8399489E-01
          1   -1    0    0  502    0  0.00000000000E+00  0.00000000000E+00  0.32609743210E+04  0.32609743210E+04  0.00000000000E+00 0.  1.
         -1   -1    0    0    0  501 -0.00000000000E+00 -0.00000000000E+00 -0.70681446352E+03  0.70681446352E+03  0.00000000000E+00 0. -1.
    9000010    2    1    2  502    0  0.10263947019E+04  0.49497487978E+03  0.13356486268E+04  0.20210834849E+04  0.10011668108E+04 0.  0.
   -9000010    2    1    2    0  501 -0.10263947019E+04 -0.49497487978E+03  0.12185112307E+04  0.19467052996E+04  0.10031977316E+04 0.  0.
        -13    1    3    3    0    0  0.54222306240E+03  0.45467005330E+03  0.13616490861E+04  0.15345419354E+04  0.10566000000E+00 0.  1.
         13    1    4    4    0    0 -0.10330423209E+04 -0.63974838846E+03  0.13008073636E+04  0.17800433269E+04  0.10566000000E+00 0. -1.
          4    1    3    3  502    0  0.48417163946E+03  0.40304826478E+02 -0.26000459287E+02  0.48654154949E+03  0.00000000000E+00 0.  1.
         -4    1    4    4    0  501  0.66476189953E+01  0.14477350868E+03 -0.82296132926E+02  0.16666197272E+03  0.00000000000E+00 0. -1.
</event>
<event>
 8    1  0.7446554E-006  0.1805956E+04  0.7818608E-02  0.8252327E-01
          2   -1    0    0  502    0  0.00000000000E+00  0.00000000000E+00  0.15626216581E+04  0.15626216581E+04  0.00000000000E+00 0. -1.
         -2   -1    0    0    0  501 -0.00000000000E+00 -0.00000000000E+00 -0.30633942388E+04  0.30633942388E+04  0.00000000000E+00 0.  1.
    9000010    2    1    2  502    0 -0.52358701181E+03 -0.13973870027E+04 -0.20583895573E+04  0.27437721998E+04  0.10317385912E+04 0.  0.
   -9000010    2    1    2    0  501  0.52358701181E+03  0.13973870027E+04  0.55761697662E+03  0.18822436971E+04  0.10025322182E+04 0.  0.
        -13    1    3    3    0    0 -0.24049685235E+03 -0.11709805103E+04 -0.81044985198E+03  0.14442517320E+04  0.10566000000E+00 0.  1.
         13    1    4    4    0    0  0.69520476069E+03  0.49965598040E+03  0.43424855430E+03  0.95996748700E+03  0.10566000000E+00 0. -1.
          4    1    3    3  502    0 -0.28309015946E+03 -0.22640649238E+03 -0.12479397053E+04  0.12995204678E+04  0.00000000000E+00 0.  1.
         -4    1    4    4    0  501 -0.17161774887E+03  0.89773102232E+03  0.12336842232E+03  0.92227621014E+03  0.00000000000E+00 0. -1.
</event>
<event>
 8    1  0.7446554E-006  0.1430704E+04  0.7818608E-02  0.8450530E-01
         -2   -1    0    0    0  501 -0.00000000000E+00  0.00000000000E+00  0.96336997276E+03  0.96336997276E+03  0.00000000000E+00 0.  1.
          2   -1    0    0  502    0  0.00000000000E+00 -0.00000000000E+00 -0.23288473523E+04  0.23288473523E+04  0.00000000000E+00 0. -1.
    9000010    2    1    2  502    0  0.18262385034E+03 -0.10018341715E+04 -0.11666504760E+04  0.18401689671E+04  0.99404492683E+03 0.  0.
   -9000010    2    1    2    0  501 -0.18262385034E+03  0.10018341715E+04 -0.19882690349E+03  0.14520483579E+04  0.10158194319E+04 0.  0.
        -13    1    3    3    0    0 -0.35706976176E+03 -0.11976416890E+03 -0.20877452703E+03  0.43061477589E+03  0.10566000000E+00 0.  1.
         13    1    4    4    0    0  0.31091519212E+03  0.58618375791E+03 -0.40170252352E+03  0.77565751676E+03  0.10566000000E+00 0. -1.
          4    1    3    3  502    0  0.53969361210E+03 -0.88207000260E+03 -0.95787594899E+03  0.14095541913E+04  0.00000000000E+00 0.  1.
         -4    1    4    4    0  501 -0.49353904246E+03  0.41565041358E+03  0.20287562004E+03  0.67639084112E+03  0.00000000000E+00 0. -1.
</event>
<event>
 8    1  0.7446554E-006  0.1214685E+04  0.7818608E-02  0.8595586E-01
          1   -1    0    0  502    0  0.00000000000E+00  0.00000000000E+00  0.17058914931E+04  0.17058914931E+04  0.00000000000E+00 0. -1.
         -1   -1    0    0    0  501 -0.00000000000E+00 -0.00000000000E+00 -0.86563273979E+03  0.86563273979E+03  0.00000000000E+00 0.  1.
    9000010    2    1    2  502    0 -0.69518960957E+03 -0.23302541667E+02  0.45741160760E+03  0.12990409117E+04  0.99722129432E+03 0.  0.
   -9000010    2    1    2    0  501  0.69518960957E+03  0.23302541667E+02  0.38284714573E+03  0.12724833212E+04  0.99438939254E+03 0.  0.
        -13    1    3    3    0    0 -0.76011616049E+03  0.23329113472E+03  0.29218813953E+02  0.79564758607E+03  0.10566000000E+00 0.  1.
         13    1    4    4    0    0 -0.95694717856E+02  0.28336034508E+03 -0.93426518178E+02  0.31333542674E+03  0.10566000000E+00 0. -1.
          4    1    3    3  502    0  0.64926550914E+02 -0.25659367638E+03  0.42819279365E+03  0.50339332565E+03  0.00000000000E+00 0.  1.
         -4    1    4    4    0  501  0.79088432743E+03 -0.26005780341E+03  0.47627366391E+03  0.95914789445E+03  0.00000000000E+00 0. -1.
</event>
<event>
 8    1  0.7446554E-006  0.1040937E+04  0.7818608E-02  0.8737051E-01
          2   -1    0    0  502    0  0.00000000000E+00  0.00000000000E+00  0.11048982434E+04  0.11048982434E+04  0.00000000000E+00 0.  1.
         -2   -1    0    0    0  501 -0.00000000000E+00 -0.00000000000E+00 -0.10099211514E+04  0.10099211514E+04  0.00000000000E+00 0. -1.
    9000010    2    1    2  502    0 -0.14724811340E+03 -0.27730175438E+03 -0.13228102869E+03  0.10523786589E+04  0.99570291819E+03 0.  0.
   -9000010    2    1    2    0  501  0.14724811340E+03  0.27730175438E+03  0.22725812069E+03  0.10624407359E+04  0.98921979058E+03 0.  0.
        -13    1    3    3    0    0  0.78862842234E+02 -0.36636369958E+03 -0.49187258831E+03  0.61836911513E+03  0.10566000000E+00 0.  1.
         13    1    4    4    0    0 -0.18776272196E+03 -0.11684338787E+03  0.44832225828E+03  0.49990006550E+03  0.10566000000E+00 0. -1.
          4    1    3    3  502    0 -0.22611095564E+03  0.89061945206E+02  0.35959155962E+03  0.43400954378E+03  0.00000000000E+00 0.  1.
         -4    1    4    4    0  501  0.33501083537E+03  0.39414514224E+03 -0.22106413759E+03  0.56254067044E+03  0.00000000000E+00 0. -1.
</event>
<event>
 8    1  0.7446554E-006  0.1545588E+04  0.7818608E-02  0.8383736E-01
         -4   -1    0    0    0  501 -0.00000000000E+00  0.00000000000E+00  0.26543432112E+04  0.26543432112E+04  0.00000000000E+00 0.  1.
          4   -1    0    0  502    0  0.00000000000E+00 -0.00000000000E+00 -0.90025614739E+03  0.90025614739E+03  0.00000000000E+00 0. -1.
    9000010    2    1    2  502    0  0.85637630967E+03  0.78310251959E+03  0.87865141045E+03  0.17572976668E+04  0.98459984190E+03 0.  0.
   -9000010    2    1    2    0  501 -0.85637630967E+03 -0.78310251959E+03  0.87543565340E+03  0.17973016918E+04  0.10570127002E+04 0.  0.
        -13    1    3    3    0    0  0.57832562453E+03  0.86380927217E+03  0.25594891287E+03  0.10705778084E+04  0.10566000000E+00 0.  1.
         13    1    4    4    0    0 -0.88683577637E+03 -0.42018673152E+03  0.15972189701E+03  0.99425634478E+03  0.10566000000E+00 0. -1.
          4    1    3    3  502    0  0.27805068515E+03 -0.80706752578E+02  0.62270249758E+03  0.68671985839E+03  0.00000000000E+00 0.  1.
         -4    1    4    4    0  501  0.30459466697E+02 -0.36291578808E+03  0.71571375639E+03  0.80304534706E+03  0.00000000000E+00 0. -1.
</event>
<event>
 8    1  0.7446554E-006  0.1200499E+04  0.7818608E-02  0.8606187E-01
         -2   -1    0    0    0  501 -0.00000000000E+00  0.00000000000E+00  0.15398052595E+04  0.15398052595E+04  0.00000000000E+00 0. -1.
          2   -1    0    0  502    0  0.00000000000E+00 -0.00000000000E+00 -0.14066610245E+04  0.14066610245E+04  0.00000000000E+00 0.  1.
    9000010    2    1    2  502    0  0.93960113745E+02  0.66094288790E+03 -0.78577758334E+03  0.14314451375E+04  0.99293240813E+03 0.  0.
   -9000010    2    1    2    0  501 -0.93960113745E+02 -0.66094288790E+03  0.91892181831E+03  0.15150211465E+04  0.10025955128E+04 0.  0.
        -13    1    3    3    0    0  0.75554468357E+02 -0.22340924244E+03 -0.40449012218E+03  0.46822263658E+03  0.10566000000E+00 0.  1.
         13    1    4    4    0    0  0.40276005742E+03 -0.35375670303E+02  0.27441155549E+03  0.48863975980E+03  0.10566000000E+00 0. -1.
          4    1    3    3  502    0  0.18405645388E+02  0.88435213034E+03 -0.38128746116E+03  0.96322250091E+03  0.00000000000E+00 0.  1.
         -4    1    4    4    0  501 -0.49672017117E+03 -0.62556721760E+03  0.64451026281E+03  0.10263813867E+04  0.00000000000E+00 0. -1.
</event>
<event>
 8    1  0.7446554E-006  0.1301800E+04  0.7818608E-02  0.8533609E-01
         -1   -1    0    0    0  501 -0.00000000000E+00  0.00000000000E+00  0.88096723982E+03  0.88096723982E+03  0.00000000000E+00 0.  1.
          1   -1    0    0  502    0  0.00000000000E+00 -0.00000000000E+00 -0.19390607279E+04  0.19390607279E+04  0.00000000000E+00 0. -1.
    9000010    2    1    2  502    0  0.72343179601E+03 -0.22121676501E+03 -0.62553418097E+03  0.14033848672E+04  0.10029484799E+04 0.  0.
   -9000010    2    1    2    0  501 -0.72343179601E+03  0.22121676501E+03 -0.43255930711E+03  0.14166431006E+04  0.11169063074E+04 0.  0.
        -13    1    3    3    0    0  0.65134638601E+03 -0.56335168405E+03 -0.26469471412E+03  0.90093314809E+03  0.10566000000E+00 0.  1.
         13    1    4    4    0    0 -0.88956588169E+03 -0.14792215684E+03 -0.45726543588E+03  0.10110885779E+04  0.10566000000E+00 0. -1.
          4    1    3    3  502    0  0.72085409994E+02  0.34213491904E+03 -0.36083946686E+03  0.50245171908E+03  0.00000000000E+00 0.  1.
         -4    1    4    4    0  501  0.16613408568E+03  0.36913892184E+03  0.24706128772E+02  0.40555452265E+03  0.00000000000E+00 0. -1.
</event>
<event>
 8    1  0.7446554E-006  0.1141292E+04  0.7818608E-02  0.8652132E-01
         -2   -1    0    0    0  501 -0.00000000000E+00  0.00000000000E+00  0.10490251014E+04  0.10490251014E+04  0.00000000000E+00 0. -1.
          2   -1    0    0  502    0  0.00000000000E+00 -0.00000000000E+00 -0.13649996958E+04  0.13649996958E+04  0.00000000000E+00 0.  1.
    9000010    2    1    2  502    0 -0.20494353974E+03 -0.33947013908E+03 -0.51365885974E+03  0.12171047427E+04  0.10296876714E+04 0.  0.
   -9000010    2    1    2    0  501  0.20494353974E+03  0.33947013908E+03  0.19768426538E+03  0.11969200546E+04  0.11118888067E+04 0.  0.
        -13    1    3    3    0    0 -0.30574423859E+03  0.23061538235E+03 -0.51048479291E+03  0.63816747721E+03  0.10566000000E+00 0.  1.
         13    1    4    4    0    0  0.39407109556E+03 -0.27156344194E+02  0.53431322201E+03  0.66446980801E+03  0.10566000000E+00 0. -1.
          4    1    3    3  502    0  0.10080069885E+03 -0.57008552143E+03 -0.31740668300E+01  0.57893726546E+03  0.00000000000E+00 0.  1.
         -4    1    4    4    0  501 -0.18912755582E+03  0.36662648328E+03 -0.33662895662E+03  0.53245024655E+03  0.00000000000E+00 0. -1.
</event>
<event>
 8    1  0.7446554E-006  0.1146204E+04  0.7818608E-02  0.8648212E-01
         -2   -1    0    0    0  501 -0.00000000000E+00  0.00000000000E+00  0.94907068534E+03  0.94907068534E+03  0.00000000000E+00 0.  1.
          2   -1    0    0  502    0  0.00000000000E+00 -0.00000000000E+00 -0.17072595311E+04  0.17072595311E+04  0.00000000000E+00 0. -1.
    9000010    2    1    2  502    0 -0.63611152246E+02 -0.50094719472E+03  0.19544836185E+03  0.11738204217E+04  0.10414700427E+04 0.  0.
   -9000010    2    1    2    0  501  0.63611152246E+02  0.50094719472E+03 -0.95363720764E+03  0.14825097947E+04  0.10165711471E+04 0.  0.
        -13    1    3    3    0    0  0.35628988476E+03 -0.60439508466E+03  0.23414865152E+03  0.73963606086E+03  0.10566000000E+00 0.  1.
         13    1    4    4    0    0 -0.39729313312E+03  0.43691624971E+03 -0.79613598781E+03  0.99124677308E+03  0.10566000000E+00 0. -1.
          4    1    3    3  502    0 -0.41990103701E+03  0.10344788995E+03 -0.38700289674E+02  0.43418436088E+03  0.00000000000E+00 0.  1.
         -4    1    4    4    0  501  0.46090428537E+03  0.64030945007E+02 -0.15750121982E+03  0.49126302165E+03  0.00000000000E+00 0. -1.
</event>
<event>
 8    1  0.7446554E-006  0.1377509E+04  0.7818608E-02  0.8483680E-01
         -2   -1    0    0    0  501 -0.00000000000E+00  0.00000000000E+00  0.71157557990E+03  0.71157557990E+03  0.00000000000E+00 0.  1.
          2   -1    0    0  502    0  0.00000000000E+00 -0.00000000000E+00 -0.27473602213E+04  0.27473602213E+04  0.00000000000E+00 0. -1.
    9000010    2    1    2  502    0 -0.79542326691E+03 -0.45610371168E+03 -0.13254027048E+04  0.19235878307E+04  0.10501281080E+04 0.  0.
   -9000010    2    1    2    0  501  0.79542326691E+03  0.45610371168E+03 -0.71038193657E+03  0.15353479705E+04  0.10059434007E+04 0.  0.
        -13    1    3    3    0    0 -0.95782629276E+03 -0.63707936939E+03 -0.11149231758E+04  0.16019847156E+04  0.10566000000E+00 0.  1.
         13    1    4    4    0    0  0.59485187685E+03  0.76068526677E+03 -0.36282649743E+03  0.10315686642E+04  0.10566000000E+00 0. -1.
          4    1    3    3  502    0  0.16240302586E+03  0.18097565771E+03 -0.21047952901E+03  0.32160311507E+03  0.00000000000E+00 0.  1.
         -4    1    4    4    0  501  0.20057139006E+03 -0.30458155509E+03 -0.34755543914E+03  0.50377930633E+03  0.00000000000E+00 0. -1.
</event>
<event>
 8    1  0.7446554E-006  0.1499475E+04  0.7818608E-02  0.8409801E-01
          2   -1    0    0  502    0  0.00000000000E+00  0.00000000000E+00  0.38367867584E+04  0.38367867584E+04  0.00000000000E+00 0.  1.
         -2   -1    0    0    0  501 -0.00000000000E+00 -0.00000000000E+00 -0.67504039837E+03  0.67504039837E+03  0.00000000000E+00 0. -1.
    9000010    2    1    2  502    0  0.88024348316E+03  0.68334204448E+03  0.76102380855E+03  0.16809404435E+04  0.10023066388E+04 0.  0.
   -9000010    2    1    2    0  501 -0.88024348316E+03 -0.68334204448E+03  0.24007225515E+04  0.28308867132E+04  0.10043235906E+04 0.  0.
        -13    1    3    3    0    0 -0.17270869486E+03 -0.44231551331E+02 -0.23397332679E+02  0.17981148393E+03  0.10566000000E+00 0.  1.
         13    1    4    4    0    0 -0.44443472584E+03  0.16134956033E+03  0.12616513619E+04  0.13473381447E+04  0.10566000000E+00 0. -1.
          4    1    3    3  502    0  0.10529521780E+04  0.72757359581E+03  0.78442114123E+03  0.15011289596E+04  0.00000000000E+00 0.  1.
         -4    1    4    4    0  501 -0.43580875732E+03 -0.84469160480E+03  0.11390711896E+04  0.14835485685E+04  0.00000000000E+00 0. -1.
</event>
<event>
 8    1  0.7446554E-006  0.1239950E+04  0.7818608E-02  0.8577071E-01
          1   -1    0    0  502    0  0.00000000000E+00  0.00000000000E+00  0.10258857447E+04  0.10258857447E+04  0.00000000000E+00 0.  1.
         -1   -1    0    0    0  501 -0.00000000000E+00 -0.00000000000E+00 -0.15925273219E+04  0.15925273219E+04  0.00000000000E+00 0. -1.
    9000010    2    1    2  502    0  0.57204140362E+03 -0.48502037641E+03  0.33670683654E+02  0.12441168583E+04  0.99207706819E+03 0.  0.
   -9000010    2    1    2    0  501 -0.57204140362E+03  0.48502037641E+03 -0.60031226092E+03  0.13742962082E+04  0.98277114549E+03 0.  0.
        -13    1    3    3    0    0  0.68133591618E+03 -0.55467700166E+03  0.31583160085E+03  0.93361384850E+03  0.10566000000E+00 0.  1.
         13    1    4    4    0    0  0.59755942523E+02  0.57472884780E+03 -0.16192091454E+03  0.60008533968E+03  0.10566000000E+00 0. -1.
          4    1    3    3  502    0 -0.10929451256E+03  0.69656625246E+02 -0.28216091720E+03  0.31050300982E+03  0.00000000000E+00 0.  1.
         -4    1    4    4    0  501 -0.63179734615E+03 -0.89708471393E+02 -0.43839134638E+03  0.77421086857E+03  0.00000000000E+00 0. -1.
</event>
<event>
 8    1  0.7446554E-006  0.1010075E+04  0.7818608E-02  0.8765183E-01
          1   -1    0    0  502    0  0.00000000000E+00  0.00000000000E+00  0.14041176508E+04  0.14041176508E+04  0.00000000000E+00 0.  1.
         -1   -1    0    0    0  501 -0.00000000000E+00 -0.00000000000E+00 -0.11263445541E+04  0.11263445541E+04  0.00000000000E+00 0. -1.
    9000010    2    1    2  502    0 -0.19472311766E+03  0.22632752920E+02  0.89307400845E+03  0.13523428698E+04  0.99640389349E+03 0.  0.
   -9000010    2    1    2    0  501  0.19472311766E+03 -0.22632752920E+02 -0.61530091168E+03  0.11781193350E+04  0.98536319275E+03 0.  0.
        -13    1    3    3    0    0 -0.35461912799E+03 -0.33691358581E+03  0.81598412694E+03  0.95136512277E+03  0.10566000000E+00 0.  1.
         13    1    4    4    0    0  0.46303598852E+03  0.36850112198E+02  0.41290132013E+02  0.46633158117E+03  0.10566000000E+00 0. -1.
          4    1    3    3  502    0  0.15989601033E+03  0.35954633873E+03  0.77089881515E+02  0.40097774707E+03  0.00000000000E+00 0.  1.
         -4    1    4    4    0  501 -0.26831287085E+03 -0.59482865118E+02 -0.65659104369E+03  0.71178775387E+03  0.00000000000E+00 0. -1.
</event>
<event>
 8    1  0.7446554E-006  0.1087243E+04  0.7818608E-02  0.8696681E-01
         -1   -1    0    0    0  501 -0.00000000000E+00  0.00000000000E+00  0.10018436642E+04  0.10018436642E+04  0.00000000000E+00 0.  1.
          1   -1    0    0  502    0  0.00000000000E+00 -0.00000000000E+00 -0.11824304516E+04  0.11824304516E+04  0.00000000000E+00 0. -1.
    9000010    2    1    2  502    0  0.27180463702E+03  0.30773011772E+03 -0.40274329696E+02  0.10906584994E+04  0.10096228774E+04 0.  0.
   -9000010    2    1    2    0  501 -0.27180463702E+03 -0.30773011772E+03 -0.14031245765E+03  0.10936156164E+04  0.10038585282E+04 0.  0.
        -13    1    3    3    0    0  0.27684522904E+03 -0.55073494909E+02 -0.45759944147E+03  0.53765568042E+03  0.10566000000E+00 0.  1.
         13    1    4    4    0    0 -0.94377630776E+02  0.36770032150E+03 -0.10729153760E+03  0.39448973222E+03  0.10566000000E+00 0. -1.
          4    1    3    3  502    0 -0.50405920262E+01  0.36280361263E+03  0.41732511177E+03  0.55300281900E+03  0.00000000000E+00 0.  1.
         -4    1    4    4    0  501 -0.17742700624E+03 -0.67543043922E+03 -0.33020920056E+02  0.69912588418E+03  0.00000000000E+00 0. -1.
</event>
<event>
 8    1  0.7446554E-006  0.1624328E+04  0.7818608E-02  0.8341334E-01
          2   -1    0    0  502    0  0.00000000000E+00  0.00000000000E+00  0.17302054152E+04  0.17302054152E+04  0.00000000000E+00 0. -1.
         -2   -1    0    0    0  501 -0.00000000000E+00 -0.00000000000E+00 -0.15363398177E+04  0.15363398177E+04  0.00000000000E+00 0.  1.
    9000010    2    1    2  502    0 -0.40293357312E+03 -0.12156082501E+04  0.23783542846E+03  0.16447104049E+04  0.10042149884E+04 0.  0.
   -9000010    2    1    2    0  501  0.40293357312E+03  0.12156082501E+04 -0.43969830978E+02  0.16218348280E+04  0.99416094324E+03 0.  0.
        -13    1    3    3    0    0 -0.35168217704E+03  0.17878490834E+02  0.20968442126E+03  0.40983845814E+03  0.10566000000E+00 0.  1.
         13    1    4    4    0    0  0.63045777696E+03  0.36753891487E+03 -0.12364029403E+03  0.74016808628E+03  0.10566000000E+00 0. -1.
          4    1    3    3  502    0 -0.51251396080E+02 -0.12334867409E+04  0.28151007194E+02  0.12348719468E+04  0.00000000000E+00 0.  1.
         -4    1    4    4    0  501 -0.22752420384E+03  0.84806933524E+03  0.79670463055E+02  0.88166674168E+03  0.00000000000E+00 0. -1.
</event>
<event>
 8    1  0.7446554E-006  0.1150965E+04  0.7818608E-02  0.8644430E-01
         -2   -1    0    0    0  501 -0.00000000000E+00  0.00000000000E+00  0.66688089383E+03  0.66688089383E+03  0.00000000000E+00 0. -1.
          2   -1    0    0  502    0  0.00000000000E+00 -0.00000000000E+00 -0.19922493487E+04  0.19922493487E+04  0.00000000000E+00 0.  1.
    9000010    2    1    2  502    0 -0.50428625419E+03 -0.57380223885E+02 -0.70848744258E+03  0.13265380763E+04  0.10000758447E+04 0.  0.
   -9000010    2    1    2    0  501  0.50428625419E+03  0.57380223885E+02 -0.61688101231E+03  0.13325921663E+04  0.10666126673E+04 0.  0.
        -13    1    3    3    0    0 -0.94824360844E+02 -0.41440772910E+03  0.10670967964E+02  0.42525205005E+03  0.10566000000E+00 0.  1.
         13    1    4    4    0    0  0.70743575693E+03  0.37230773633E+03 -0.48636289731E+03  0.93574958176E+03  0.10566000000E+00 0. -1.
          4    1    3    3  502    0 -0.40946189334E+03  0.35702750521E+03 -0.71915841055E+03  0.90128602621E+03  0.00000000000E+00 0.  1.
         -4    1    4    4    0  501 -0.20314950274E+03 -0.31492751245E+03 -0.13051811501E+03  0.39684258454E+03  0.00000000000E+00 0. -1.
</event>
<event>
 8    1  0.7446554E-006  0.1103378E+04  0.7818608E-02  0.8683104E-01
          1   -1    0    0  502    0  0.00000000000E+00  0.00000000000E+00  0.22094920292E+04  0.22094920292E+04  0.00000000000E+00 0. -1.
         -1   -1    0    0    0  501 -0.00000000000E+00 -0.00000000000E+00 -0.80619955183E+03  0.80619955183E+03  0.00000000000E+00 0.  1.
    9000010    2    1    2  502    0 -0.36015445229E+03  0.35629923720E+03 -0.13957068339E+03  0.11279802337E+04  0.99809771865E+03 0.  0.
   -9000010    2    1    2    0  501  0.36015445229E+03 -0.35629923720E+03  0.15428631608E+04  0.18877113474E+04  0.96247962168E+03 0.  0.
        -13    1    3    3    0    0 -0.36003769360E+03 -0.53505767995E+02  0.33936100141E+03  0.49765038779E+03  0.10566000000E+00 0.  1.
         13    1    4    4    0    0 -0.16024076423E+03 -0.48988083620E+03  0.51903500705E+03  0.73147637413E+03  0.10566000000E+00 0. -1.
          4    1    3    3  502    0 -0.11675869213E+00  0.40980500520E+03 -0.47893168480E+03  0.63032984589E+03  0.00000000000E+00 0.  1.
         -4    1    4    4    0  501  0.52039521653E+03  0.13358159900E+03  0.10238281537E+04  0.11562349732E+04  0.00000000000E+00 0. -1.
</event>
<event>
 8    1  0.7446554E-006  0.1134712E+04  0.7818608E-02  0.8657417E-01
          1   -1    0    0  502    0  0.00000000000E+00  0.00000000000E+00  0.12775230212E+04  0.12775230212E+04  0.00000000000E+00 0.  1.
         -1   -1    0    0    0  501 -0.00000000000E+00 -0.00000000000E+00 -0.10082068960E+04  0.10082068960E+04  0.00000000000E+00 0. -1.
    9000010    2    1    2  502    0 -0.39812374852E+03  0.38289919606E+03  0.11434822638E+03  0.11440368152E+04  0.99530417667E+03 0.  0.
   -9000010    2    1    2    0  501  0.39812374852E+03 -0.38289919606E+03  0.15496789885E+03  0.11416931021E+04  0.98708346970E+03 0.  0.
        -13    1    3    3    0    0 -0.67504304834E+02  0.65712191121E+03  0.22952591932E+03  0.69931980965E+03  0.10566000000E+00 0.  1.
         13    1    4    4    0    0  0.57194358808E+03 -0.19054143886E+03  0.44751652484E+03  0.75079728225E+03  0.10566000000E+00 0. -1.
          4    1    3    3  502    0 -0.33061944368E+03 -0.27422271515E+03 -0.11517769294E+03  0.44471700552E+03  0.00000000000E+00 0.  1.
         -4    1    4    4    0  501 -0.17381983956E+03 -0.19235775719E+03 -0.29254862599E+03  0.39089581981E+03  0.00000000000E+00 0. -1.
</event>
<event>
 8    1  0.7446554E-006  0.1466254E+04  0.7818608E-02  0.8429189E-01
         -2   -1    0    0    0  501 -0.00000000000E+00  0.00000000000E+00  0.13207170050E+04  0.13207170050E+04  0.00000000000E+00 0.  1.
          2   -1    0    0  502    0  0.00000000000E+00 -0.00000000000E+00 -0.18039199140E+04  0.18039199140E+04  0.00000000000E+00 0. -1.
    9000010    2    1    2  502    0 -0.76163137584E+03 -0.75876084229E+03 -0.72826165584E+03  0.16289599826E+04  0.98353709485E+03 0.  0.
   -9000010    2    1    2    0  501  0.76163137584E+03  0.75876084229E+03  0.24505874682E+03  0.14956769364E+04  0.10105421021E+04 0.  0.
        -13    1    3    3    0    0 -0.85758605776E+03 -0.61014927114E+03 -0.19928846117E+03  0.10711918042E+04  0.10566000000E+00 0.  1.
         13    1    4    4    0    0  0.60939614880E+02  0.55228594437E+03  0.47380165203E+03  0.73022011589E+03  0.10566000000E+00 0. -1.
          4    1    3    3  502    0  0.95954681925E+02 -0.14861157115E+03 -0.52897319467E+03  0.55776817832E+03  0.00000000000E+00 0.  1.
         -4    1    4    4    0  501  0.70069176096E+03  0.20647489791E+03 -0.22874290521E+03  0.76545682049E+03  0.00000000000E+00 0. -1.
</event>
<event>
 8    1  0.7446554E-006  0.1068738E+04  0.7818608E-02  0.8712558E-01
          2   -1    0    0  502    0  0.00000000000E+00  0.00000000000E+00  0.34535559413E+03  0.34535559413E+03  0.00000000000E+00 0.  1.
         -2   -1    0    0    0  501 -0.00000000000E+00 -0.00000000000E+00 -0.33191625076E+04  0.33191625076E+04  0.00000000000E+00 0. -1.
    9000010    2    1    2  502    0  0.35444674440E+03 -0.24276768137E+03 -0.14347816201E+04  0.18081984899E+04  0.10131213351E+04 0.  0.
   -9000010    2    1    2    0  501 -0.35444674440E+03  0.24276768137E+03 -0.15390252934E+04  0.18563196119E+04  0.94485713522E+03 0.  0.
        -13    1    3    3    0    0  0.70494786174E+03 -0.66451262188E+02 -0.92893262807E+03  0.11680252980E+04  0.10566000000E+00 0.  1.
         13    1    4    4    0    0  0.16656292842E+03 -0.14804908827E+03 -0.95781160680E+03  0.98339454287E+03  0.10566000000E+00 0. -1.
          4    1    3    3  502    0 -0.35050111734E+03 -0.17631641918E+03 -0.50584899203E+03  0.64017319193E+03  0.00000000000E+00 0.  1.
         -4    1    4    4    0  501 -0.52100967282E+03  0.39081676964E+03 -0.58121368661E+03  0.87292506901E+03  0.00000000000E+00 0. -1.
</event>
<event>
 8    1  0.7446554E-006  0.1287915E+04  0.7818608E-02  0.8543147E-01
          2   -1    0    0  502    0  0.00000000000E+00  0.00000000000E+00  0.36203858603E+04  0.36203858603E+04  0.00000000000E+00 0.  1.
         -2   -1    0    0    0  501 -0.00000000000E+00 -0.00000000000E+00 -0.46109392253E+03  0.46109392253E+03  0.00000000000E+00 0. -1.
    9000010    2    1    2  502    0 -0.75331118868E+03 -0.36315568376E+03  0.17030865839E+04  0.21189978491E+04  0.94355083303E+03 0.  0.
   -9000010    2    1    2    0  501  0.75331118868E+03  0.36315568376E+03  0.14562053539E+04  0.19624819337E+04  0.10155990892E+04 0.  0.
        -13    1    3    3    0    0 -0.55889989773E+03 -0.67149257424E+03  0.13721307581E+04  0.16266573706E+04  0.10566000000E+00 0.  1.
         13    1    4    4    0    0  0.39399060339E+02  0.23288118968E+03 -0.91335355858E+02  0.25323525200E+03  0.10566000000E+00 0. -1.
          4    1    3    3  502    0 -0.19441129095E+03  0.30833689049E+03  0.33095582577E+03  0.49234047842E+03  0.00000000000E+00 0.  1.
         -4    1    4    4    0  501  0.71391212834E+03  0.13027449408E+03  0.15475407097E+04  0.17092466817E+04  0.00000000000E+00 0. -1.
</event>
<event>
 8    1  0.7446554E-006  0.1677499E+04  0.7818608E-02  0.8314082E-01
         -1   -1    0    0    0  501 -0.00000000000E+00  0.00000000000E+00  0.32794924533E+04  0.32794924533E+04  0.00000000000E+00 0. -1.
          1   -1    0    0  502    0  0.00000000000E+00 -0.00000000000E+00 -0.90707207822E+03  0.90707207822E+03  0.00000000000E+00 0.  1.
    9000010    2    1    2  502    0  0.12308848529E+04 -0.52207244672E+03  0.16712120192E+04  0.23662393255E+04  0.10092084879E+04 0.  0.
   -9000010    2    1    2    0  501 -0.12308848529E+04  0.52207244672E+03  0.70120835594E+03  0.18203252060E+04  0.10169825645E+04 0.  0.
        -13    1    3    3    0    0  0.31136967432E+03  0.30197159362E+03  0.34497788196E+03  0.55420904689E+03  0.10566000000E+00 0.  1.
         13    1    4    4    0    0  0.11139560154E+03  0.17185652216E+03  0.32303470779E+03  0.38248539560E+03  0.10566000000E+00 0. -1.
          4    1    3    3  502    0  0.91951517859E+03 -0.82404404034E+03  0.13262341372E+04  0.18120302787E+04  0.00000000000E+00 0.  1.
         -4    1    4    4    0  501 -0.13422804544E+04  0.35021592456E+03  0.37817364815E+03  0.14378398104E+04  0.00000000000E+00 0. -1.
</event>
<event>
 8    1  0.7446554E-006  0.1026316E+04  0.7818608E-02  0.8750252E-01
         -2   -1    0    0    0  501 -0.00000000000E+00  0.00000000000E+00  0.40394635069E+03  0.40394635069E+03  0.00000000000E+00 0. -1.
          2   -1    0    0  502    0  0.00000000000E+00 -0.00000000000E+00 -0.26589175983E+04  0.26589175983E+04  0.00000000000E+00 0.  1.
    9000010    2    1    2  502    0  0.15275249249E+03  0.15588091599E+03 -0.13430674561E+04  0.16919086730E+04  0.10055309952E+04 0.  0.
   -9000010    2    1    2    0  501 -0.15275249249E+03 -0.15588091599E+03 -0.91190379154E+03  0.13709552760E+04  0.10001588172E+04 0.  0.
        -13    1    3    3    0    0 -0.87682616742E+01  0.27312095392E+03  0.55778367460E+02  0.27889635230E+03  0.10566000000E+00 0.  1.
         13    1    4    4    0    0  0.36120527000E+02 -0.18997713483E+03  0.17887262885E+03  0.26342253652E+03  0.10566000000E+00 0. -1.
          4    1    3    3  502    0  0.16152075416E+03 -0.11724003793E+03 -0.13988458235E+04  0.14130123207E+04  0.00000000000E+00 0.  1.
         -4    1    4    4    0  501 -0.18887301949E+03  0.34096218840E+02 -0.10907764204E+04  0.11075327394E+04  0.00000000000E+00 0. -1.
</event>
<event>
 8    1  0.7446554E-006  0.1149030E+04  0.7818608E-02  0.8645965E-01
         -1   -1    0    0    0  501 -0.00000000000E+00  0.00000000000E+00  0.88125882961E+03  0.88125882961E+03  0.00000000000E+00 0.  1.
          1   -1    0    0  502    0  0.00000000000E+00 -0.00000000000E+00 -0.14982229190E+04  0.14982229190E+04  0.00000000000E+00 0. -1.
    9000010    2    1    2  502    0  0.27607090749E+03 -0.49897089761E+03 -0.30103391153E+03  0.11845682781E+04  0.99367675170E+03 0.  0.
   -9000010    2    1    2    0  501 -0.27607090749E+03  0.49897089761E+03 -0.31593017781E+03  0.11949134705E+04  0.10014086190E+04 0.  0.
        -13    1    3    3    0    0 -0.40228850768E+02 -0.70291870913E+03 -0.23104332642E+01  0.70407273867E+03  0.10566000000E+00 0.  1.
         13    1    4    4    0    0 -0.39982474968E+03  0.37541937402E+03 -0.63009689144E+03  0.83535719342E+03  0.10566000000E+00 0. -1.
          4    1    3    3  502    0  0.31629975826E+03  0.20394781152E+03 -0.29872347827E+03  0.48049553939E+03  0.00000000000E+00 0.  1.
         -4    1    4    4    0  501  0.12375384219E+03  0.12355152359E+03  0.31416671363E+03  0.35955627708E+03  0.00000000000E+00 0. -1.
</event>
<event>
 8    1  0.7446554E-006  0.1326837E+04  0.7818608E-02  0.8516719E-01
         -2   -1    0    0    0  501 -0.00000000000E+00  0.00000000000E+00  0.54872948125E+03  0.54872948125E+03  0.00000000000E+00 0. -1.
          2   -1    0    0  502    0  0.00000000000E+00 -0.00000000000E+00 -0.33887880476E+04  0.33887880476E+04  0.00000000000E+00 0.  1.
    9000010    2    1    2  502    0 -0.29196271936E+03 -0.81679576768E+03 -0.18665815091E+04  0.22857636781E+04  0.99407821934E+03 0.  0.
   -9000010    2    1    2    0  501  0.29196271936E+03  0.81679576768E+03 -0.97347705727E+03  0.16517538508E+04  0.10140195496E+04 0.  0.
        -13    1    3    3    0    0 -0.14838477440E+03 -0.92529540555E+03 -0.18847669442E+04  0.21048838623E+04  0.10566000000E+00 0.  1.
         13    1    4    4    0    0  0.50277059149E+03  0.23635914067E+02 -0.27200702684E+03  0.57212302690E+03  0.10566000000E+00 0. -1.
          4    1    3    3  502    0 -0.14357794496E+03  0.10849963786E+03  0.18185435067E+02  0.18087981574E+03  0.00000000000E+00 0.  1.
         -4    1    4    4    0  501 -0.21080787213E+03  0.79315985362E+03 -0.70147003043E+03  0.10796308239E+04  0.00000000000E+00 0. -1.
</event>
<event>
 8    1  0.7446554E-006  0.1250101E+04  0.7818608E-02  0.8569761E-01
          1   -1    0    0  502    0  0.00000000000E+00  0.00000000000E+00  0.21664754683E+04  0.21664754683E+04  0.00000000000E+00 0.  1.
         -1   -1    0    0    0  501 -0.00000000000E+00 -0.00000000000E+00 -0.72210906537E+03  0.72210906537E+03  0.00000000000E+00 0. -1.
    9000010    2    1    2  502    0  0.32059300904E+02 -0.75770307651E+03  0.77373143767E+03  0.14783879255E+04  0.10058969975E+04 0.  0.
   -9000010    2    1    2    0  501 -0.32059300904E+02  0.75770307651E+03  0.67063496528E+03  0.14101966082E+04  0.98171353575E+03 0.  0.
        -13    1    3    3    0    0  0.11996678231E+03  0.12773562697E+03 -0.12379248090E+03  0.21455304413E+03  0.10566000000E+00 0.  1.
         13    1    4    4    0    0 -0.35603727527E+03 -0.55513844544E+02  0.14020876323E+03  0.38665596693E+03  0.10566000000E+00 0. -1.
          4    1    3    3  502    0 -0.87907481406E+02 -0.88543870347E+03  0.89752391857E+03  0.12638348813E+04  0.00000000000E+00 0.  1.
         -4    1    4    4    0  501  0.32397797436E+03  0.81321692105E+03  0.53042620205E+03  0.10235406413E+04  0.00000000000E+00 0. -1.
</event>
<event>
 8    1  0.7446554E-006  0.1106782E+04  0.7818608E-02  0.8680271E-01
          2   -1    0    0  502    0  0.00000000000E+00  0.00000000000E+00  0.18732876520E+04  0.18732876520E+04  0.00000000000E+00 0. -1.
         -2   -1    0    0    0  501 -0.00000000000E+00 -0.00000000000E+00 -0.86390118855E+03  0.86390118855E+03  0.00000000000E+00 0.  1.
    9000010    2    1    2  502    0  0.52697756073E+02 -0.44173175587E+03 -0.16311953473E+03  0.11376707507E+04  0.10343030295E+04 0.  0.
   -9000010    2    1    2    0  501 -0.52697756073E+02  0.44173175587E+03  0.11725059982E+04  0.15995180899E+04  0.99286645950E+03 0.  0.
        -13    1    3    3    0    0  0.42583541164E+03 -0.26601154144E+03 -0.41758025383E+03  0.65304763803E+03  0.10566000000E+00 0.  1.
         13    1    4    4    0    0 -0.21461262961E+03 -0.27744801409E+03  0.37265486991E+03  0.51176913207E+03  0.10566000000E+00 0. -1.
          4    1    3    3  502    0 -0.37313765557E+03 -0.17572021444E+03  0.25446071910E+03  0.48462311267E+03  0.00000000000E+00 0.  1.
         -4    1    4    4    0  501  0.16191487354E+03  0.71917976996E+03  0.79985112830E+03  0.10877489578E+04  0.00000000000E+00 0. -1.
</event>
<event>
 8    1  0.7446554E-006  0.1252960E+04  0.7818608E-02  0.8567714E-01
         -2   -1    0    0    0  501 -0.00000000000E+00  0.00000000000E+00  0.88283178973E+03  0.88283178973E+03  0.00000000000E+00 0. -1.
          2   -1    0    0  502    0  0.00000000000E+00 -0.00000000000E+00 -0.17844769085E+04  0.17844769085E+04  0.00000000000E+00 0.  1.
    9000010    2    1    2  502    0 -0.73495441530E+03  0.24950704375E+03 -0.37351397506E+03  0.13108748672E+04  0.98816419201E+03 0.  0.
   -9000010    2    1    2    0  501  0.73495441530E+03 -0.24950704375E+03 -0.52813114366E+03  0.13564338310E+04  0.97907020972E+03 0.  0.
        -13    1    3    3    0    0 -0.45360536226E+03  0.52165660323E+03 -0.54815597861E+03  0.88224623797E+03  0.10566000000E+00 0.  1.
         13    1    4    4    0    0  0.21882310084E+03  0.15088414844E+03  0.23297122543E+03  0.35344756153E+03  0.10566000000E+00 0. -1.
          4    1    3    3  502    0 -0.28134905304E+03 -0.27214955948E+03  0.17464200354E+03  0.42862862921E+03  0.00000000000E+00 0.  1.
         -4    1    4    4    0  501  0.51613131446E+03 -0.40039119218E+03 -0.76110236908E+03  0.10029862695E+04  0.00000000000E+00 0. -1.
</event>
<event>
 8    1  0.7446554E-006  0.1293960E+04  0.7818608E-02  0.8538979E-01
          1   -1    0    0  502    0  0.00000000000E+00  0.00000000000E+00  0.30267452692E+04  0.30267452692E+04  0.00000000000E+00 0.  1.
         -1   -1    0    0    0  501 -0.00000000000E+00 -0.00000000000E+00 -0.71539390517E+03  0.71539390517E+03  0.00000000000E+00 0. -1.
    9000010    2    1    2  502    0 -0.61957078038E+03  0.43520451737E+03  0.20683773365E+04  0.24577988896E+04  0.10905593298E+04 0.  0.
   -9000010    2    1    2    0  501  0.61957078038E+03 -0.43520451737E+03  0.24297402749E+03  0.12843402847E+04  0.10085745709E+04 0.  0.
        -13    1    3    3    0    0 -0.68013922368E+03  0.29872842117E+03  0.53083731375E+03  0.91302590218E+03  0.10566000000E+00 0.  1.
         13    1    4    4    0    0  0.41670568153E+03 -0.29188098329E+02  0.58301245098E+03  0.71721621514E+03  0.10566000000E+00 0. -1.
          4    1    3    3  502    0  0.60568443305E+02  0.13647609620E+03  0.15375400228E+04  0.15447729874E+04  0.00000000000E+00 0.  1.
         -4    1    4    4    0  501  0.20286509885E+03 -0.40601641904E+03 -0.34003842349E+03  0.56712406959E+03  0.00000000000E+00 0. -1.
</event>
<event>
 8    1  0.7446554E-006  0.1482924E+04  0.7818608E-02  0.8419395E-01
         -2   -1    0    0    0  501 -0.00000000000E+00  0.00000000000E+00  0.12923679304E+04  0.12923679304E+04  0.00000000000E+00 0.  1.
          2   -1    0    0  502    0  0.00000000000E+00 -0.00000000000E+00 -0.17712909681E+04  0.17712909681E+04  0.00000000000E+00 0. -1.
    9000010    2    1    2  502    0 -0.14860580185E+03  0.10875908613E+04 -0.54418284856E+03  0.15849613700E+04  0.10054998786E+04 0.  0.
   -9000010    2    1    2    0  501  0.14860580185E+03 -0.10875908613E+04  0.65259810792E+02  0.14786975285E+04  0.98861012132E+03 0.  0.
        -13    1    3    3    0    0  0.35648057638E+03  0.21550802901E+03 -0.38007653568E+03  0.56389741624E+03  0.10566000000E+00 0.  1.
         13    1    4    4    0    0 -0.69824189906E+02 -0.74620213067E+03 -0.40985052663E+03  0.85420752903E+03  0.10566000000E+00 0. -1.
          4    1    3    3  502    0 -0.50508637823E+03  0.87208283224E+03 -0.16410631288E+03  0.10210639538E+04  0.00000000000E+00 0.  1.
         -4    1    4    4    0  501  0.21842999176E+03 -0.34138873059E+03  0.47511033743E+03  0.62448999944E+03  0.00000000000E+00 0. -1.
</event>
<event>
 8    1  0.7446554E-006  0.1315022E+04  0.7818608E-02  0.8524642E-01
         -2   -1    0    0    0  501 -0.00000000000E+00  0.00000000000E+00  0.77402366646E+03  0.77402366646E+03  0.00000000000E+00 0.  1.
          2   -1    0    0  502    0  0.00000000000E+00 -0.00000000000E+00 -0.22356777566E+04  0.22356777566E+04  0.00000000000E+00 0. -1.
    9000010    2    1    2  502    0 -0.41904921868E+03  0.75730211294E+03 -0.68747411333E+03  0.14745381368E+04  0.97597813624E+03 0.  0.
   -9000010    2    1    2    0  501  0.41904921868E+03 -0.75730211294E+03 -0.77417997681E+03  0.15351632863E+04  0.10041229711E+04 0.  0.
        -13    1    3    3    0    0 -0.42705292858E+02  0.30014644050E+03  0.23140608512E+03  0.38139273089E+03  0.10566000000E+00 0.  1.
         13    1    4    4    0    0  0.52295806782E+03 -0.47811846553E+03 -0.31471974263E+01  0.70858473297E+03  0.10566000000E+00 0. -1.
          4    1    3    3  502    0 -0.37634392582E+03  0.45715567244E+03 -0.91888019845E+03  0.10931454059E+04  0.00000000000E+00 0.  1.
         -4    1    4    4    0  501 -0.10390884914E+03 -0.27918364741E+03 -0.77103277939E+03  0.82657855331E+03  0.00000000000E+00 0. -1.
</event>
<event>
 8    1  0.7446554E-006  0.1189808E+04  0.7818608E-02  0.8614277E-01
          1   -1    0    0  502    0  0.00000000000E+00  0.00000000000E+00  0.32999262297E+04  0.32999262297E+04  0.00000000000E+00 0. -1.
         -1   -1    0    0    0  501 -0.00000000000E+00 -0.00000000000E+00 -0.44267604284E+03  0.44267604284E+03  0.00000000000E+00 0.  1.
    9000010    2    1    2  502    0  0.34260645549E+03 -0.58383943556E+03  0.10924396175E+04  0.16106411190E+04  0.97082069748E+03 0.  0.
   -9000010    2    1    2    0  501 -0.34260645549E+03  0.58383943556E+03  0.17648105694E+04  0.21319611535E+04  0.98613099754E+03 0.  0.
        -13    1    3    3    0    0 -0.20974776866E+03 -0.58695926356E+03  0.67121276847E+03  0.91599230087E+03  0.10566000000E+00 0.  1.
         13    1    4    4    0    0 -0.14008082608E+01  0.59655394470E+03  0.38376554323E+03  0.70933389496E+03  0.10566000000E+00 0. -1.
          4    1    3    3  502    0  0.55235422415E+03  0.31198280006E+01  0.42122684900E+03  0.69464881817E+03  0.00000000000E+00 0.  1.
         -4    1    4    4    0  501 -0.34120564723E+03 -0.12714509148E+02  0.13810450261E+04  0.14226272585E+04  0.00000000000E+00 0. -1.
</event>
<event>
 8    1  0.7446554E-006  0.9630981E+03  0.7818608E-02  0.8810058E-01
         -2   -1    0    0    0  501 -0.00000000000E+00  0.00000000000E+00  0.94410093342E+03  0.94410093342E+03  0.00000000000E+00 0.  1.
          2   -1    0    0  502    0  0.00000000000E+00 -0.00000000000E+00 -0.12157181452E+04  0.12157181452E+04  0.00000000000E+00 0. -1.
    9000010    2    1    2  502    0 -0.12099176554E+03 -0.23427265011E+03  0.32610142894E+03  0.10742029626E+04  0.98896267929E+03 0.  0.
   -9000010    2    1    2    0  501  0.12099176554E+03  0.23427265011E+03 -0.59771864072E+03  0.10856161160E+04  0.86704792020E+03 0.  0.
        -13    1    3    3    0    0  0.15614548982E+03 -0.23967353286E+03 -0.28461652379E+03  0.40352372064E+03  0.10566000000E+00 0.  1.
         13    1    4    4    0    0  0.18609923023E+03 -0.16954840942E+03  0.10479884096E+03  0.27269469166E+03  0.10566000000E+00 0. -1.
          4    1    3    3  502    0 -0.27713725536E+03  0.54008827499E+01  0.61071795273E+03  0.67067924198E+03  0.00000000000E+00 0.  1.
         -4    1    4    4    0  501 -0.65107464691E+02  0.40382105953E+03 -0.70251748168E+03  0.81292142433E+03  0.00000000000E+00 0. -1.
</event>
<event>
 8    1  0.7446554E-006  0.1177910E+04  0.7818608E-02  0.8623385E-01
         -1   -1    0    0    0  501 -0.00000000000E+00  0.00000000000E+00  0.17182892710E+04  0.17182892710E+04  0.00000000000E+00 0.  1.
          1   -1    0    0  502    0  0.00000000000E+00 -0.00000000000E+00 -0.81248349745E+03  0.81248349745E+03  0.00000000000E+00 0. -1.
    9000010    2    1    2  502    0 -0.18767058497E+03  0.62840419732E+03  0.34890633533E+03  0.12132618994E+04  0.95924799813E+03 0.  0.
   -9000010    2    1    2    0  501  0.18767058497E+03 -0.62840419732E+03  0.55689943826E+03  0.13175108691E+04  0.99779047014E+03 0.  0.
        -13    1    3    3    0    0  0.26401330476E+03 -0.11499440381E+03  0.42916620312E+02  0.29115045159E+03  0.10566000000E+00 0.  1.
         13    1    4    4    0    0 -0.26198089252E+03 -0.51919504142E+03 -0.15148356944E+02  0.58174475757E+03  0.10566000000E+00 0. -1.
          4    1    3    3  502    0 -0.45168388973E+03  0.74339860113E+03  0.30598971502E+03  0.92211144777E+03  0.00000000000E+00 0.  1.
         -4    1    4    4    0  501  0.44965147749E+03 -0.10920915590E+03  0.57204779520E+03  0.73576611157E+03  0.00000000000E+00 0. -1.
</event>
<event>
 8    1  0.7446554E-006  0.1360615E+04  0.7818608E-02  0.8494530E-01
         -2   -1    0    0    0  501 -0.00000000000E+00  0.00000000000E+00  0.11033900448E+04  0.11033900448E+04  0.00000000000E+00 0.  1.
          2   -1    0    0  502    0  0.00000000000E+00 -0.00000000000E+00 -0.19183167656E+04  0.19183167656E+04  0.00000000000E+00 0. -1.
    9000010    2    1    2  502    0  0.88851920436E+03 -0.22119533061E+03  0.12510004599E+03  0.13752008094E+04  0.10183975127E+04 0.  0.
   -9000010    2    1    2    0  501 -0.88851920436E+03  0.22119533061E+03 -0.94002676682E+03  0.16465060010E+04  0.99445358767E+03 0.  0.
        -13    1    3    3    0    0 -0.77537694561E+02 -0.18048953305E+03 -0.26728071193E+03  0.33170401830E+03  0.10566000000E+00 0.  1.
         13    1    4    4    0    0 -0.17256386056E+03  0.27559251559E+03  0.13637421344E+03  0.35260098961E+03  0.10566000000E+00 0. -1.
          4    1    3    3  502    0  0.96605689893E+03 -0.40705797563E+02  0.39238075793E+03  0.10434967911E+04  0.00000000000E+00 0.  1.
         -4    1    4    4    0  501 -0.71595534381E+03 -0.54397184978E+02 -0.10764009803E+04  0.12939050113E+04  0.00000000000E+00 0. -1.
</event>
<event>
 8    1  0.7446554E-006  0.1161427E+04  0.7818608E-02  0.8636189E-01
          2   -1    0    0  502    0  0.00000000000E+00  0.00000000000E+00  0.14243904043E+04  0.14243904043E+04  0.00000000000E+00 0.  1.
         -2   -1    0    0    0  501 -0.00000000000E+00 -0.00000000000E+00 -0.11412211537E+04  0.11412211537E+04  0.00000000000E+00 0. -1.
    9000010    2    1    2  502    0 -0.39489750536E+03 -0.34022779003E+03  0.67296445138E+03  0.13738950030E+04  0.10784281792E+04 0.  0.
   -9000010    2    1    2    0  501  0.39489750536E+03  0.34022779003E+03 -0.38979520081E+03  0.11917165549E+04  0.99827303871E+03 0.  0.
        -13    1    3    3    0    0 -0.24459077014E+03 -0.66068612316E+03  0.11602795999E+03  0.71399810703E+03  0.10566000000E+00 0.  1.
         13    1    4    4    0    0 -0.17479234606E+03  0.41720291347E+02 -0.50705393986E+03  0.53795599823E+03  0.10566000000E+00 0. -1.
          4    1    3    3  502    0 -0.15030673521E+03  0.32045833313E+03  0.55693649139E+03  0.65989689601E+03  0.00000000000E+00 0.  1.
         -4    1    4    4    0  501  0.56968985141E+03  0.29850749868E+03  0.11725873905E+03  0.65376055667E+03  0.00000000000E+00 0. -1.
</event>
<event>
 8    1  0.7446554E-006  0.1463759E+04  0.7818608E-02  0.8430667E-01
         -2   -1    0    0    0  501 -0.00000000000E+00  0.00000000000E+00  0.81312906344E+03  0.81312906344E+03  0.00000000000E+00 0.  1.
          2   -1    0    0  502    0  0.00000000000E+00 -0.00000000000E+00 -0.26350549270E+04  0.26350549270E+04  0.00000000000E+00 0. -1.
    9000010    2    1    2  502    0  0.54283348235E+03  0.92598673917E+03 -0.90174271635E+03  0.17159422569E+04  0.98954447700E+03 0.  0.
   -9000010    2    1    2    0  501 -0.54283348235E+03 -0.92598673917E+03 -0.92018314717E+03  0.17322417335E+04  0.10009019773E+04 0.  0.
        -13    1    3    3    0    0  0.33322552875E+03 -0.10092706867E+03 -0.46402194403E+03  0.58012231633E+03  0.10566000000E+00 0.  1.
         13    1    4    4    0    0  0.10584664069E+03 -0.34841557887E+03 -0.76869632220E+03  0.85058272606E+03  0.10566000000E+00 0. -1.
          4    1    3    3  502    0  0.20960795360E+03  0.10269138078E+04 -0.43772077231E+03  0.11358199406E+04  0.00000000000E+00 0.  1.
         -4    1    4    4    0  501 -0.64868012304E+03 -0.57757116029E+03 -0.15148682498E+03  0.88165900742E+03  0.00000000000E+00 0. -1.
</event>
<event>
 8    1  0.7446554E-006  0.1152594E+04  0.7818608E-02  0.8643141E-01
         -2   -1    0    0    0  501 -0.00000000000E+00  0.00000000000E+00  0.93330547089E+03  0.93330547089E+03  0.00000000000E+00 0. -1.
          2   -1    0    0  502    0  0.00000000000E+00 -0.00000000000E+00 -0.14444468139E+04  0.14444468139E+04  0.00000000000E+00 0.  1.
    9000010    2    1    2  502    0 -0.52820129026E+03  0.18981322345E+03 -0.12158285041E+03  0.11882214638E+04  0.10402221852E+04 0.  0.
   -9000010    2    1    2    0  501  0.52820129026E+03 -0.18981322345E+03 -0.38955849263E+03  0.11895308210E+04  0.97375669042E+03 0.  0.
        -13    1    3    3    0    0 -0.56327735753E+03 -0.25967386763E+03  0.17994949652E+03  0.64582794264E+03  0.10566000000E+00 0.  1.
         13    1    4    4    0    0  0.18024930030E+03 -0.13352824512E+03  0.32376036690E+03  0.39387864735E+03  0.10566000000E+00 0. -1.
          4    1    3    3  502    0  0.35076067265E+02  0.44948709108E+03 -0.30153234693E+03  0.54239352115E+03  0.00000000000E+00 0.  1.
         -4    1    4    4    0  501  0.34795198996E+03 -0.56284978332E+02 -0.71331885953E+03  0.79565217367E+03  0.00000000000E+00 0. -1.
</event>
<event>
 8    1  0.7446554E-006  0.1525678E+04  0.7818608E-02  0.8394873E-01
          2   -1    0    0  502    0  0.00000000000E+00  0.00000000000E+00  0.28070942003E+04  0.28070942003E+04  0.00000000000E+00 0.  1.
         -2   -1    0    0    0  501 -0.00000000000E+00 -0.00000000000E+00 -0.11175763893E+04  0.11175763893E+04  0.00000000000E+00 0. -1.
    9000010    2    1    2  502    0 -0.11424483957E+03 -0.11058727916E+04  0.18316676384E+04  0.23692758656E+04  0.10111653054E+04 0.  0.
   -9000010    2    1    2    0  501  0.11424483957E+03  0.11058727916E+04 -0.14214982736E+03  0.15553947240E+04  0.10784431647E+04 0.  0.
        -13    1    3    3    0    0 -0.50988522896E+03 -0.41479746275E+03  0.53452014958E+03  0.84720226822E+03  0.10566000000E+00 0.  1.
         13    1    4    4    0    0 -0.10507365102E+02  0.72788285206E+03  0.43968028523E+03  0.85043672042E+03  0.10566000000E+00 0. -1.
          4    1    3    3  502    0  0.39564038939E+03 -0.69107532886E+03  0.12971474888E+04  0.15220735973E+04  0.00000000000E+00 0.  1.
         -4    1    4    4    0  501  0.12475220467E+03  0.37798993955E+03 -0.58183011259E+03  0.70495800363E+03  0.00000000000E+00 0. -1.
</event>
<event>
 8    1  0.7446554E-006  0.1181691E+04  0.7818608E-02  0.8620478E-01
         -2   -1    0    0    0  501 -0.00000000000E+00  0.00000000000E+00  0.12161126627E+04  0.12161126627E+04  0.00000000000E+00 0. -1.
          2   -1    0    0  502    0  0.00000000000E+00 -0.00000000000E+00 -0.11548498008E+04  0.11548498008E+04  0.00000000000E+00 0.  1.
    9000010    2    1    2  502    0  0.29065040926E+03 -0.63759740542E+03  0.11917698677E+03  0.12041871070E+04  0.97203668797E+03 0.  0.
   -9000010    2    1    2    0  501 -0.29065040926E+03  0.63759740542E+03 -0.57914124885E+02  0.11667753564E+04  0.93112973034E+03 0.  0.
        -13    1    3    3    0    0 -0.24626620143E+03 -0.44024968365E+03 -0.20748461174E+03  0.54545091547E+03  0.10566000000E+00 0.  1.
         13    1    4    4    0    0 -0.12146960861E+03  0.57639318121E+03  0.37477771865E+03  0.69817069168E+03  0.10566000000E+00 0. -1.
          4    1    3    3  502    0  0.53691661069E+03 -0.19734772178E+03  0.32666159851E+03  0.65873619156E+03  0.00000000000E+00 0.  1.
         -4    1    4    4    0  501 -0.16918080065E+03  0.61204224211E+02 -0.43269184353E+03  0.46860466475E+03  0.00000000000E+00 0. -1.
</event>
<event>
 8    1  0.7446554E-006  0.1070109E+04  0.7818608E-02  0.8711370E-01
          2   -1    0    0  502    0  0.00000000000E+00  0.00000000000E+00  0.37352334833E+04  0.37352334833E+04  0.00000000000E+00 0.  1.
         -2   -1    0    0    0  501 -0.00000000000E+00 -0.00000000000E+00 -0.30661677002E+03  0.30661677002E+03  0.00000000000E+00 0. -1.
    9000010    2    1    2  502    0 -0.39216991123E+03 -0.13224712477E+03  0.16871142078E+04  0.19918119203E+04  0.97451210066E+03 0.  0.
   -9000010    2    1    2    0  501  0.39216991123E+03  0.13224712477E+03  0.17415025055E+04  0.20500383330E+04  0.99926955775E+03 0.  0.
        -13    1    3    3    0    0 -0.53035012830E+03 -0.42109556532E+03  0.14260557621E+04  0.15786791256E+04  0.10566000000E+00 0.  1.
         13    1    4    4    0    0  0.34366872147E+03 -0.19704185792E+03  0.16610166175E+04  0.17076035543E+04  0.10566000000E+00 0. -1.
          4    1    3    3  502    0  0.13818021707E+03  0.28884844055E+03  0.26105844571E+03  0.41313279472E+03  0.00000000000E+00 0.  1.
         -4    1    4    4    0  501  0.48501189759E+02  0.32928898269E+03  0.80485887996E+02  0.34243477875E+03  0.00000000000E+00 0. -1.
</event>
<event>
 8    1  0.7446554E-006  0.1077766E+04  0.7818608E-02  0.8704770E-01
          1   -1    0    0  502    0  0.00000000000E+00  0.00000000000E+00  0.14419818406E+04  0.14419818406E+04  0.00000000000E+00 0.  1.
         -1   -1    0    0    0  501 -0.00000000000E+00 -0.00000000000E+00 -0.81931413186E+03  0.81931413186E+03  0.00000000000E+00 0. -1.
    9000010    2    1    2  502    0 -0.15727689649E+03 -0.34839764640E+03  0.17352359335E+03  0.11151141944E+04  0.10330790323E+04 0.  0.
   -9000010    2    1    2    0  501  0.15727689649E+03  0.34839764640E+03  0.44914411536E+03  0.11461817780E+04  0.98279463251E+03 0.  0.
        -13    1    3    3    0    0 -0.81913941000E+02 -0.22334540532E+03 -0.43149468565E+03  0.49272785462E+03  0.10566000000E+00 0.  1.
         13    1    4    4    0    0  0.46115592531E+03  0.16094502902E+03 -0.92822163545E+02  0.49717608050E+03  0.10566000000E+00 0. -1.
          4    1    3    3  502    0 -0.75362955490E+02 -0.12505224108E+03  0.60501827900E+03  0.62238633981E+03  0.00000000000E+00 0.  1.
         -4    1    4    4    0  501 -0.30387902882E+03  0.18745261738E+03  0.54196627891E+03  0.64900569750E+03  0.00000000000E+00 0. -1.
</event>
<event>
 8    1  0.7446554E-006  0.2116076E+04  0.7818608E-02  0.8122701E-01
          1   -1    0    0  502    0  0.00000000000E+00  0.00000000000E+00  0.16725354024E+04  0.16725354024E+04  0.00000000000E+00 0.  1.
         -1   -1    0    0    0  501 -0.00000000000E+00 -0.00000000000E+00 -0.28092487313E+04  0.28092487313E+04  0.00000000000E+00 0. -1.
    9000010    2    1    2  502    0  0.14311932558E+04 -0.11933655484E+04 -0.10543781575E+04  0.23651079361E+04  0.10047819579E+04 0.  0.
   -9000010    2    1    2    0  501 -0.14311932558E+04  0.11933655484E+04 -0.82335171501E+02  0.21166761976E+04  0.10005516367E+04 0.  0.
        -13    1    3    3    0    0  0.10553105462E+04 -0.12109405577E+04 -0.11516444191E+04  0.19764468782E+04  0.10566000000E+00 0.  1.
         13    1    4    4    0    0 -0.83373192605E+02 -0.44220411429E+02 -0.26159443089E+03  0.27809744959E+03  0.10566000000E+00 0. -1.
          4    1    3    3  502    0  0.37588270952E+03  0.17575009302E+02  0.97266261601E+02  0.38866105788E+03  0.00000000000E+00 0.  1.
         -4    1    4    4    0  501 -0.13478200632E+04  0.12375859598E+04  0.17925925939E+03  0.18385787480E+04  0.00000000000E+00 0. -1.
</event>
<event>
 8    1  0.7446554E-006  0.1753566E+04  0.7818608E-02  0.8276855E-01
          2   -1    0    0  502    0  0.00000000000E+00  0.00000000000E+00  0.14771534463E+04  0.14771534463E+04  0.00000000000E+00 0.  1.
         -2   -1    0    0    0  501 -0.00000000000E+00 -0.00000000000E+00 -0.22866805253E+04  0.22866805253E+04  0.00000000000E+00 0. -1.
    9000010    2    1    2  502    0  0.74942205093E+03  0.12376651561E+04  0.16160496571E+03  0.17461269271E+04  0.96405115600E+03 0.  0.
   -9000010    2    1    2    0  501 -0.74942205093E+03 -0.12376651561E+04 -0.97113204464E+03  0.20177070445E+04  0.10171508346E+04 0.  0.
        -13    1    3    3    0    0  0.30905859658E+03  0.12578798904E+04  0.79579658666E+02  0.12977333963E+04  0.10566000000E+00 0.  1.
         13    1    4    4    0    0 -0.60506561010E+02 -0.78448532284E+03 -0.60405052182E+02  0.78913056409E+03  0.10566000000E+00 0. -1.
          4    1    3    3  502    0  0.44036345435E+03 -0.20214734257E+02  0.82025307047E+02  0.44839353073E+03  0.00000000000E+00 0.  1.
         -4    1    4    4    0  501 -0.68891548992E+03 -0.45317983326E+03 -0.91072699246E+03  0.12285764804E+04  0.00000000000E+00 0. -1.
</event>
<event>
 8    1  0.7446554E-006  0.1438461E+04  0.7818608E-02  0.8445820E-01
         -2   -1    0    0    0  501 -0.00000000000E+00  0.00000000000E+00  0.15184752197E+04  0.15184752197E+04  0.00000000000E+00 0.  1.
          2   -1    0    0  502    0  0.00000000000E+00 -0.00000000000E+00 -0.13937366168E+04  0.13937366168E+04  0.00000000000E+00 0. -1.
    9000010    2    1    2  502    0 -0.90947279665E+03  0.32120228484E+03  0.27815654473E+03  0.15015719250E+04  0.11167074401E+04 0.  0.
   -9000010    2    1    2    0  501  0.90947279665E+03 -0.32120228484E+03 -0.15341794178E+03  0.14106399116E+04  0.10178684687E+04 0.  0.
        -13    1    3    3    0    0 -0.55053571042E+03  0.74107729213E+03  0.17228025916E+03  0.93913024668E+03  0.10566000000E+00 0.  1.
         13    1    4    4    0    0  0.33250517988E+03 -0.63417632262E+03 -0.22447213826E+03  0.75041792012E+03  0.10566000000E+00 0. -1.
          4    1    3    3  502    0 -0.35893708623E+03 -0.41987500730E+03  0.10587628557E+03  0.56244167828E+03  0.00000000000E+00 0.  1.
         -4    1    4    4    0  501  0.57696761678E+03  0.31297403779E+03  0.71054196473E+02  0.66022199143E+03  0.00000000000E+00 0. -1.
</event>
<event>
 8    1  0.7446554E-006  0.1175043E+04  0.7818608E-02  0.8625596E-01
          4   -1    0    0  502    0  0.00000000000E+00  0.00000000000E+00  0.20366821733E+04  0.20366821733E+04  0.00000000000E+00 0. -1.
         -4   -1    0    0    0  501 -0.00000000000E+00 -0.00000000000E+00 -0.68419614991E+03  0.68419614991E+03  0.00000000000E+00 0.  1.
    9000010    2    1    2  502    0  0.20336517127E+03 -0.58545839255E+03  0.79740444156E+03  0.14085165428E+04  0.98180756037E+03 0.  0.
   -9000010    2    1    2    0  501 -0.20336517127E+03  0.58545839255E+03  0.55508158185E+03  0.13123617804E+04  0.10149182026E+04 0.  0.
        -13    1    3    3    0    0  0.66661776538E+02 -0.76469625973E+03  0.23522862179E+03  0.80283041657E+03  0.10566000000E+00 0.  1.
         13    1    4    4    0    0 -0.38919524571E+03 -0.15939751289E+03  0.22145630765E+03  0.47531401595E+03  0.10566000000E+00 0. -1.
          4    1    3    3  502    0  0.13670339473E+03  0.17923786718E+03  0.56217581977E+03  0.60568612622E+03  0.00000000000E+00 0.  1.
         -4    1    4    4    0  501  0.18583007444E+03  0.74485590544E+03  0.33362527420E+03  0.83704776448E+03  0.00000000000E+00 0. -1.
</event>
<event>
 8    1  0.7446554E-006  0.1192675E+04  0.7818608E-02  0.8612099E-01
         -2   -1    0    0    0  501 -0.00000000000E+00  0.00000000000E+00  0.21212295569E+04  0.21212295569E+04  0.00000000000E+00 0. -1.
          2   -1    0    0  502    0  0.00000000000E+00 -0.00000000000E+00 -0.67189496385E+03  0.67189496385E+03  0.00000000000E+00 0.  1.
    9000010    2    1    2  502    0 -0.48405766132E+02 -0.60234894537E+03  0.68337553642E+03  0.13307112312E+04  0.96882551935E+03 0.  0.
   -9000010    2    1    2    0  501  0.48405766132E+02  0.60234894537E+03  0.76595905666E+03  0.14624132896E+04  0.10893998269E+04 0.  0.
        -13    1    3    3    0    0  0.29081171767E+03 -0.64424307545E+03  0.19253628991E+03  0.73259185738E+03  0.10566000000E+00 0.  1.
         13    1    4    4    0    0 -0.35730645814E+03 -0.14125018742E+03  0.13911677934E+03  0.40862331055E+03  0.10566000000E+00 0. -1.
          4    1    3    3  502    0 -0.33921748380E+03  0.41894130085E+02  0.49083924651E+03  0.59811937385E+03  0.00000000000E+00 0.  1.
         -4    1    4    4    0  501  0.40571222427E+03  0.74359913279E+03  0.62684227732E+03  0.10537899790E+04  0.00000000000E+00 0. -1.
</event>
<event>
 8    1  0.7446554E-006  0.1142803E+04  0.7818608E-02  0.8650924E-01
          2   -1    0    0  502    0  0.00000000000E+00  0.00000000000E+00  0.37603454260E+03  0.37603454260E+03  0.00000000000E+00 0.  1.
         -2   -1    0    0    0  501 -0.00000000000E+00 -0.00000000000E+00 -0.36945418833E+04  0.36945418833E+04  0.00000000000E+00 0. -1.
    9000010    2    1    2  502    0  0.17104174868E+03  0.53236291156E+03 -0.11577251592E+04  0.16250866701E+04  0.99393842456E+03 0.  0.
   -9000010    2    1    2    0  501 -0.17104174868E+03 -0.53236291156E+03 -0.21607821815E+04  0.24454897557E+04  0.99938729241E+03 0.  0.
        -13    1    3    3    0    0  0.13377929053E+02 -0.28885686342E+03 -0.18942497617E+03  0.34568640310E+03  0.10566000000E+00 0.  1.
         13    1    4    4    0    0 -0.41184864270E+03 -0.70403204059E+03 -0.18191529575E+04  0.19936393638E+04  0.10566000000E+00 0. -1.
          4    1    3    3  502    0  0.15766381963E+03  0.82121977498E+03 -0.96830018304E+03  0.12794002670E+04  0.00000000000E+00 0.  1.
         -4    1    4    4    0  501  0.24080689402E+03  0.17166912903E+03 -0.34162922393E+03  0.45185039196E+03  0.00000000000E+00 0. -1.
</event>
<event>
 8    1  0.7446554E-006  0.1427724E+04  0.7818608E-02  0.8452348E-01
         -2   -1    0    0    0  501 -0.00000000000E+00  0.00000000000E+00  0.24572039050E+04  0.24572039050E+04  0.00000000000E+00 0.  1.
          2   -1    0    0  502    0  0.00000000000E+00 -0.00000000000E+00 -0.84775631882E+03  0.84775631882E+03  0.00000000000E+00 0. -1.
    9000010    2    1    2  502    0  0.45245614688E+03  0.91350703456E+03  0.10541329880E+04  0.17862678721E+04  0.10199729836E+04 0.  0.
   -9000010    2    1    2    0  501 -0.45245614688E+03 -0.91350703456E+03  0.55531459818E+03  0.15186923518E+04  0.97920400806E+03 0.  0.
        -13    1    3    3    0    0  0.30882493329E+03  0.11201718672E+04  0.99007937336E+03  0.15265696932E+04  0.10566000000E+00 0.  1.
         13    1    4    4    0    0 -0.57432080063E+03 -0.10614985853E+04  0.39842969656E+03  0.12709720150E+04  0.10566000000E+00 0. -1.
          4    1    3    3  502    0  0.14363121359E+03 -0.20666483261E+03  0.64053614667E+02  0.25969817887E+03  0.00000000000E+00 0.  1.
         -4    1    4    4    0  501  0.12186465375E+03  0.14799155072E+03  0.15688490161E+03  0.24772033682E+03  0.00000000000E+00 0. -1.
</event>
<event>
 8    1  0.7446554E-006  0.1387730E+04  0.7818608E-02  0.8477193E-01
          1   -1    0    0  502    0  0.00000000000E+00  0.00000000000E+00  0.12140023688E+04  0.12140023688E+04  0.00000000000E+00 0.  1.
         -1   -1    0    0    0  501 -0.00000000000E+00 -0.00000000000E+00 -0.16142319890E+04  0.16142319890E+04  0.00000000000E+00 0. -1.
    9000010    2    1    2  502    0 -0.93443004780E+03  0.97066861820E+01 -0.38411316280E+03  0.14290599917E+04  0.10106511782E+04 0.  0.
   -9000010    2    1    2    0  501  0.93443004780E+03 -0.97066861820E+01 -0.16116457407E+02  0.13991743662E+04  0.10412374526E+04 0.  0.
        -13    1    3    3    0    0 -0.69543438787E+03  0.35191720482E+03  0.10455799668E+03  0.78638863974E+03  0.10566000000E+00 0.  1.
         13    1    4    4    0    0 -0.14489285230E+03 -0.25034905164E+03 -0.46306419074E+02  0.29293835856E+03  0.10566000000E+00 0. -1.
          4    1    3    3  502    0 -0.23899565993E+03 -0.34221051864E+03 -0.48867115948E+03  0.64267135197E+03  0.00000000000E+00 0.  1.
         -4    1    4    4    0  501  0.10793229001E+04  0.24064236545E+03  0.30189961668E+02  0.11062360076E+04  0.00000000000E+00 0. -1.
</event>
<event>
 8    1  0.7446554E-006  0.1552170E+04  0.7818608E-02  0.8380093E-01
          2   -1    0    0  502    0  0.00000000000E+00  0.00000000000E+00  0.35210432961E+04  0.35210432961E+04  0.00000000000E+00 0.  1.
         -2   -1    0    0    0  501 -0.00000000000E+00 -0.00000000000E+00 -0.69017884507E+03  0.69017884507E+03  0.00000000000E+00 0. -1.
    9000010    2    1    2  502    0 -0.15451854896E+03 -0.11724490721E+04  0.12219388278E+04  0.19770470747E+04  0.10084978077E+04 0.  0.
   -9000010    2    1    2    0  501  0.15451854896E+03  0.11724490721E+04  0.16089256233E+04  0.22341750665E+04  0.10021894821E+04 0.  0.
        -13    1    3    3    0    0 -0.45330196969E+03 -0.10212425272E+04  0.12027182570E+04  0.16416303457E+04  0.10566000000E+00 0.  1.
         13    1    4    4    0    0  0.27905659679E+03  0.12607884431E+04  0.16305747311E+04  0.20799601072E+04  0.10566000000E+00 0. -1.
          4    1    3    3  502    0  0.29878342073E+03 -0.15120654486E+03  0.19220570739E+02  0.33541672894E+03  0.00000000000E+00 0.  1.
         -4    1    4    4    0  501 -0.12453804783E+03 -0.88339371021E+02 -0.21649107799E+02  0.15421495938E+03  0.00000000000E+00 0. -1.
</event>
<event>
 8    1  0.7446554E-006  0.1652424E+04  0.7818608E-02  0.8326803E-01
          2   -1    0    0  502    0  0.00000000000E+00  0.00000000000E+00  0.31234058678E+04  0.31234058678E+04  0.00000000000E+00 0.  1.
         -2   -1    0    0    0  501 -0.00000000000E+00 -0.00000000000E+00 -0.10218131401E+04  0.10218131401E+04  0.00000000000E+00 0. -1.
    9000010    2    1    2  502    0  0.12729795848E+04 -0.20346890489E+03  0.18263565216E+04  0.24486269864E+04  0.99915932450E+03 0.  0.
   -9000010    2    1    2    0  501 -0.12729795848E+04  0.20346890489E+03  0.27523620607E+03  0.16965920216E+04  0.10680790701E+04 0.  0.
        -13    1    3    3    0    0  0.26736559420E+03 -0.51302861213E+03  0.62514887601E+03  0.85175926538E+03  0.10566000000E+00 0.  1.
         13    1    4    4    0    0 -0.36039206805E+03 -0.38893624761E+03 -0.11160971402E+03  0.54185845647E+03  0.10566000000E+00 0. -1.
          4    1    3    3  502    0  0.10056139907E+04  0.30955970724E+03  0.12012076456E+04  0.15968677210E+04  0.00000000000E+00 0.  1.
         -4    1    4    4    0  501 -0.91258751680E+03  0.59240515250E+03  0.38684592010E+03  0.11547335651E+04  0.00000000000E+00 0. -1.
</event>
<event>
 8    1  0.7446554E-006  0.9463020E+03  0.7818608E-02  0.8826749E-01
         -2   -1    0    0    0  501 -0.00000000000E+00  0.00000000000E+00  0.56114805775E+03  0.56114805775E+03  0.00000000000E+00 0. -1.
          2   -1    0    0  502    0  0.00000000000E+00 -0.00000000000E+00 -0.16575820415E+04  0.16575820415E+04  0.00000000000E+00 0.  1.
    9000010    2    1    2  502    0  0.19123089473E+02 -0.35994149343E+03 -0.31380196038E+03  0.90232431179E+03  0.76537175416E+03 0.  0.
   -9000010    2    1    2    0  501 -0.19123089473E+02  0.35994149343E+03 -0.78263202340E+03  0.13164057875E+04  0.99523250651E+03 0.  0.
        -13    1    3    3    0    0  0.29023142592E+03  0.34640465214E+02 -0.30649606494E+03  0.42352578601E+03  0.10566000000E+00 0.  1.
         13    1    4    4    0    0 -0.42683635076E+03 -0.90041895809E+02 -0.43813082504E+03  0.61826810071E+03  0.10566000000E+00 0. -1.
          4    1    3    3  502    0 -0.27110833645E+03 -0.39458195865E+03 -0.73058954343E+01  0.47879852578E+03  0.00000000000E+00 0.  1.
         -4    1    4    4    0  501  0.40771326129E+03  0.44998338924E+03 -0.34450119836E+03  0.69813768678E+03  0.00000000000E+00 0. -1.
</event>
<event>
 8    1  0.7446554E-006  0.1391660E+04  0.7818608E-02  0.8474713E-01
          2   -1    0    0  502    0  0.00000000000E+00  0.00000000000E+00  0.25106917296E+04  0.25106917296E+04  0.00000000000E+00 0.  1.
         -2   -1    0    0    0  501 -0.00000000000E+00 -0.00000000000E+00 -0.77523717427E+03  0.77523717427E+03  0.00000000000E+00 0. -1.
    9000010    2    1    2  502    0 -0.66331276979E+03 -0.70566836331E+03  0.75431574724E+03  0.15861712978E+04  0.10044876653E+04 0.  0.
   -9000010    2    1    2    0  501  0.66331276979E+03  0.70566836331E+03  0.98113880808E+03  0.16997576061E+04  0.99427908015E+03 0.  0.
        -13    1    3    3    0    0 -0.42382088844E+03  0.19140151288E+03  0.29009514161E+03  0.54810025266E+03  0.10566000000E+00 0.  1.
         13    1    4    4    0    0 -0.15378561459E+03  0.20772736994E+03 -0.80338764664E+02  0.27065661594E+03  0.10566000000E+00 0. -1.
          4    1    3    3  502    0 -0.23949188134E+03 -0.89706987619E+03  0.46422060563E+03  0.10380710451E+04  0.00000000000E+00 0.  1.
         -4    1    4    4    0  501  0.81709838438E+03  0.49794099337E+03  0.10614775727E+04  0.14291009902E+04  0.00000000000E+00 0. -1.
</event>
<event>
 8    1  0.7446554E-006  0.1320995E+04  0.7818608E-02  0.8520625E-01
          2   -1    0    0  502    0  0.00000000000E+00  0.00000000000E+00  0.19842392456E+04  0.19842392456E+04  0.00000000000E+00 0. -1.
         -2   -1    0    0    0  501 -0.00000000000E+00 -0.00000000000E+00 -0.89116574477E+03  0.89116574477E+03  0.00000000000E+00 0.  1.
    9000010    2    1    2  502    0 -0.19812246440E+03 -0.85649723577E+03  0.71285054927E+03  0.15042556049E+04  0.99085265983E+03 0.  0.
   -9000010    2    1    2    0  501  0.19812246440E+03  0.85649723577E+03  0.38022295159E+03  0.13711493855E+04  0.98114276161E+03 0.  0.
        -13    1    3    3    0    0  0.33739358663E+03 -0.27742766031E+03  0.54397692603E+03  0.69764707856E+03  0.10566000000E+00 0.  1.
         13    1    4    4    0    0 -0.17992201074E+03  0.80452358252E+03  0.50844889859E+03  0.96858165295E+03  0.10566000000E+00 0. -1.
          4    1    3    3  502    0 -0.53551605104E+03 -0.57906957547E+03  0.16887362324E+03  0.80660852635E+03  0.00000000000E+00 0.  1.
         -4    1    4    4    0  501  0.37804447514E+03  0.51973653248E+02 -0.12822594699E+03  0.40256773256E+03  0.00000000000E+00 0. -1.
</event>
<event>
 8    1  0.7446554E-006  0.1160130E+04  0.7818608E-02  0.8637205E-01
         -2   -1    0    0    0  501 -0.00000000000E+00  0.00000000000E+00  0.75534168331E+03  0.75534168331E+03  0.00000000000E+00 0. -1.
          2   -1    0    0  502    0  0.00000000000E+00 -0.00000000000E+00 -0.18107879388E+04  0.18107879388E+04  0.00000000000E+00 0.  1.
    9000010    2    1    2  502    0  0.59863744624E+03  0.33613499667E+02 -0.36574707372E+03  0.12169166315E+04  0.99378997112E+03 0.  0.
   -9000010    2    1    2    0  501 -0.59863744624E+03 -0.33613499667E+02 -0.68969918182E+03  0.13492129907E+04  0.99256943000E+03 0.  0.
        -13    1    3    3    0    0 -0.14947702775E+03  0.30564110944E+03  0.15271039852E+01  0.34023846463E+03  0.10566000000E+00 0.  1.
         13    1    4    4    0    0 -0.48876152406E+02 -0.25427687009E+03  0.16665593121E+03  0.30792826358E+03  0.10566000000E+00 0. -1.
          4    1    3    3  502    0  0.74811447398E+03 -0.27202760977E+03 -0.36727417770E+03  0.87667816687E+03  0.00000000000E+00 0.  1.
         -4    1    4    4    0  501 -0.54976129383E+03  0.22066337042E+03 -0.85635511303E+03  0.10412847271E+04  0.00000000000E+00 0. -1.
</event>
<event>
 8    1  0.7446554E-006  0.1216087E+04  0.7818608E-02  0.8594546E-01
          4   -1    0    0  502    0  0.00000000000E+00  0.00000000000E+00  0.76529276901E+03  0.76529276901E+03  0.00000000000E+00 0. -1.
         -4   -1    0    0    0  501 -0.00000000000E+00 -0.00000000000E+00 -0.21489041753E+04  0.21489041753E+04  0.00000000000E+00 0.  1.
    9000010    2    1    2  502    0  0.55257913016E+03  0.43408088205E+03 -0.11620620130E+04  0.16936971827E+04  0.10121522205E+04 0.  0.
   -9000010    2    1    2    0  501 -0.55257913016E+03 -0.43408088205E+03 -0.22154939333E+03  0.12204997616E+04  0.97301882155E+03 0.  0.
        -13    1    3    3    0    0 -0.83116923437E+02 -0.26952718507E+03 -0.22821091757E+03  0.36281339627E+03  0.10566000000E+00 0.  1.
         13    1    4    4    0    0 -0.48050902525E+03  0.22111489525E+03 -0.12840005456E+02  0.52909885386E+03  0.10566000000E+00 0. -1.
          4    1    3    3  502    0  0.63569605360E+03  0.70360806712E+03 -0.93385109540E+03  0.13308837865E+04  0.00000000000E+00 0.  1.
         -4    1    4    4    0  501 -0.72070104914E+02 -0.65519577731E+03 -0.20870938787E+03  0.69140090773E+03  0.00000000000E+00 0. -1.
</event>
<event>
 8    1  0.7446554E-006  0.1712242E+04  0.7818608E-02  0.8296832E-01
          1   -1    0    0  502    0  0.00000000000E+00  0.00000000000E+00  0.31733528402E+04  0.31733528402E+04  0.00000000000E+00 0. -1.
         -1   -1    0    0    0  501 -0.00000000000E+00 -0.00000000000E+00 -0.99913187388E+03  0.99913187388E+03  0.00000000000E+00 0.  1.
    9000010    2    1    2  502    0 -0.52885692886E+03  0.12565597628E+04  0.16445771347E+04  0.23566831508E+04  0.99533382971E+03 0.  0.
   -9000010    2    1    2    0  501  0.52885692886E+03 -0.12565597628E+04  0.52964383165E+03  0.18158015633E+04  0.10760950888E+04 0.  0.
        -13    1    3    3    0    0 -0.57368148214E+03  0.66528641111E+03  0.37443624657E+03  0.95494448303E+03  0.10566000000E+00 0.  1.
         13    1    4    4    0    0 -0.12543707157E+03  0.78021597583E+02 -0.12324983526E+03  0.19238597057E+03  0.10566000000E+00 0. -1.
          4    1    3    3  502    0  0.44824553280E+02  0.59127335169E+03  0.12701408881E+04  0.14017386678E+04  0.00000000000E+00 0.  1.
         -4    1    4    4    0  501  0.65429400043E+03 -0.13345813604E+04  0.65289366691E+03  0.16234155927E+04  0.00000000000E+00 0. -1.
</event>
<event>
 8    1  0.7446554E-006  0.1070483E+04  0.7818608E-02  0.8711046E-01
          2   -1    0    0  502    0  0.00000000000E+00  0.00000000000E+00  0.12610943190E+04  0.12610943190E+04  0.00000000000E+00 0. -1.
         -2   -1    0    0    0  501 -0.00000000000E+00 -0.00000000000E+00 -0.91693293207E+03  0.91693293207E+03  0.00000000000E+00 0.  1.
    9000010    2    1    2  502    0  0.19981053961E+03  0.30000339714E+03  0.67900410370E+02  0.10656062375E+04  0.10004898289E+04 0.  0.
   -9000010    2    1    2    0  501 -0.19981053961E+03 -0.30000339714E+03  0.27626097659E+03  0.11124210136E+04  0.10154969691E+04 0.  0.
        -13    1    3    3    0    0 -0.36192564292E+03  0.34438038445E+03  0.45873238540E+02  0.50168953086E+03  0.10566000000E+00 0.  1.
         13    1    4    4    0    0 -0.26611633106E+03 -0.64775080272E+03  0.29043828905E+03  0.75812493363E+03  0.10566000000E+00 0. -1.
          4    1    3    3  502    0  0.56173618253E+03 -0.44376987302E+02  0.22027171830E+02  0.56391670667E+03  0.00000000000E+00 0.  1.
         -4    1    4    4    0  501  0.66305791453E+02  0.34774740558E+03 -0.14177312459E+02  0.35429607993E+03  0.00000000000E+00 0. -1.
</event>
<event>
 8    1  0.7446554E-006  0.1928392E+04  0.7818608E-02  0.8198186E-01
         -4   -1    0    0    0  501 -0.00000000000E+00  0.00000000000E+00  0.14347860786E+04  0.14347860786E+04  0.00000000000E+00 0. -1.
          4   -1    0    0  502    0  0.00000000000E+00 -0.00000000000E+00 -0.26717518506E+04  0.26717518506E+04  0.00000000000E+00 0.  1.
    9000010    2    1    2  502    0 -0.12981548700E+04  0.98451655204E+03 -0.26463089502E+03  0.19505547159E+04  0.10393051918E+04 0.  0.
   -9000010    2    1    2    0  501  0.12981548700E+04 -0.98451655204E+03 -0.97233487702E+03  0.21559832132E+04  0.10238894447E+04 0.  0.
        -13    1    3    3    0    0 -0.13471671517E+04  0.10790746767E+04 -0.68548856993E+02  0.17274143827E+04  0.10566000000E+00 0.  1.
         13    1    4    4    0    0 -0.12955114585E+03 -0.21660796696E+03 -0.32236985548E+03  0.40942013340E+03  0.10566000000E+00 0. -1.
          4    1    3    3  502    0  0.49012281740E+02 -0.94558124644E+02 -0.19608203803E+03  0.22314033328E+03  0.00000000000E+00 0.  1.
         -4    1    4    4    0  501  0.14277060158E+04 -0.76790858508E+03 -0.64996502154E+03  0.17465630798E+04  0.00000000000E+00 0. -1.
</event>
<event>
 8    1  0.7446554E-006  0.1368398E+04  0.7818608E-02  0.8489512E-01
          1   -1    0    0  502    0  0.00000000000E+00  0.00000000000E+00  0.23989802928E+04  0.23989802928E+04  0.00000000000E+00 0.  1.
         -1   -1    0    0    0  501 -0.00000000000E+00 -0.00000000000E+00 -0.78553825153E+03  0.78553825153E+03  0.00000000000E+00 0. -1.
    9000010    2    1    2  502    0  0.72297422874E+02  0.94811446164E+03  0.94153926089E+03  0.16740563374E+04  0.10058928826E+04 0.  0.
   -9000010    2    1    2    0  501 -0.72297422874E+02 -0.94811446164E+03  0.67190278042E+03  0.15104622070E+04  0.96223426599E+03 0.  0.
        -13    1    3    3    0    0  0.26506388362E+03  0.43952338857E+03  0.10029998119E+04  0.11266979655E+04  0.10566000000E+00 0.  1.
         13    1    4    4    0    0  0.33226494370E+03 -0.11766854452E+02  0.15135015233E+03  0.36530169921E+03  0.10566000000E+00 0. -1.
          4    1    3    3  502    0 -0.19276646074E+03  0.50859107307E+03 -0.61460551020E+02  0.54735837194E+03  0.00000000000E+00 0.  1.
         -4    1    4    4    0  501 -0.40456236657E+03 -0.93634760719E+03  0.52055262810E+03  0.11451605078E+04  0.00000000000E+00 0. -1.
</event>
<event>
 8    1  0.7446554E-006  0.1547251E+04  0.7818608E-02  0.8382813E-01
         -2   -1    0    0    0  501 -0.00000000000E+00  0.00000000000E+00  0.92736718147E+03  0.92736718147E+03  0.00000000000E+00 0.  1.
          2   -1    0    0  502    0  0.00000000000E+00 -0.00000000000E+00 -0.28814248917E+04  0.28814248917E+04  0.00000000000E+00 0. -1.
    9000010    2    1    2  502    0  0.10660518790E+04 -0.51121418783E+03 -0.37049404890E+03  0.16042316476E+04  0.10190617176E+04 0.  0.
   -9000010    2    1    2    0  501 -0.10660518790E+04  0.51121418783E+03 -0.15835636613E+04  0.22045604256E+04  0.97703953142E+03 0.  0.
        -13    1    3    3    0    0  0.11827325468E+04 -0.39749319624E+03 -0.54766669306E+02  0.12489421594E+04  0.10566000000E+00 0.  1.
         13    1    4    4    0    0 -0.21678668171E+03 -0.29076662054E+03 -0.31831655417E+03  0.48256308687E+03  0.10566000000E+00 0. -1.
          4    1    3    3  502    0 -0.11668066783E+03 -0.11372099159E+03 -0.31572737959E+03  0.35528948816E+03  0.00000000000E+00 0.  1.
         -4    1    4    4    0  501 -0.84926519728E+03  0.80198080837E+03 -0.12652471072E+04  0.17219973387E+04  0.00000000000E+00 0. -1.
</event>
<event>
 8    1  0.7446554E-006  0.1079939E+04  0.7818608E-02  0.8702908E-01
         -2   -1    0    0    0  501 -0.00000000000E+00  0.00000000000E+00  0.77522510751E+03  0.77522510751E+03  0.00000000000E+00 0.  1.
          2   -1    0    0  502    0  0.00000000000E+00 -0.00000000000E+00 -0.15110772727E+04  0.15110772727E+04  0.00000000000E+00 0. -1.
    9000010    2    1    2  502    0 -0.22402059472E+03  0.31911115882E+03 -0.29691448306E+03  0.11310646832E+04  0.10193782167E+04 0.  0.
   -9000010    2    1    2    0  501  0.22402059472E+03 -0.31911115882E+03 -0.43893768217E+03  0.11552376971E+04  0.99493250496E+03 0.  0.
        -13    1    3    3    0    0 -0.48394424358E+03  0.46107124158E+03 -0.44192771378E+03  0.80130445904E+03  0.10566000000E+00 0.  1.
         13    1    4    4    0    0  0.14222513453E+03 -0.79650498501E+02 -0.74241739007E+03  0.76010248193E+03  0.10566000000E+00 0. -1.
          4    1    3    3  502    0  0.25992364885E+03 -0.14196008275E+03  0.14501323072E+03  0.32976022412E+03  0.00000000000E+00 0.  1.
         -4    1    4    4    0  501  0.81795460198E+02 -0.23946066032E+03  0.30347970790E+03  0.39513521516E+03  0.00000000000E+00 0. -1.
</event>
<event>
 8    1  0.7446554E-006  0.1038326E+04  0.7818608E-02  0.8739391E-01
          2   -1    0    0  502    0  0.00000000000E+00  0.00000000000E+00  0.26230570479E+03  0.26230570479E+03  0.00000000000E+00 0. -1.
         -2   -1    0    0    0  501 -0.00000000000E+00 -0.00000000000E+00 -0.42479900989E+04  0.42479900989E+04  0.00000000000E+00 0.  1.
    9000010    2    1    2  502    0  0.71499248898E+02 -0.25704767257E+03 -0.16220748449E+04  0.19358208439E+04  0.10222963801E+04 0.  0.
   -9000010    2    1    2    0  501 -0.71499248898E+02  0.25704767257E+03 -0.23636095492E+04  0.25744749597E+04  0.98492922014E+03 0.  0.
        -13    1    3    3    0    0 -0.37345098568E+02 -0.31859686516E+03 -0.12109154430E+02  0.32100663804E+03  0.10566000000E+00 0.  1.
         13    1    4    4    0    0  0.16345085292E+03 -0.31914120867E+03 -0.12313900904E+04  0.12825322055E+04  0.10566000000E+00 0. -1.
          4    1    3    3  502    0  0.10884434747E+03  0.61549192594E+02 -0.16099656904E+04  0.16148142059E+04  0.00000000000E+00 0.  1.
         -4    1    4    4    0  501 -0.23495010182E+03  0.57618888124E+03 -0.11322194588E+04  0.12919427542E+04  0.00000000000E+00 0. -1.
</event>
<event>
 8    1  0.7446554E-006  0.1325961E+04  0.7818608E-02  0.8517304E-01
         -1   -1    0    0    0  501 -0.00000000000E+00  0.00000000000E+00  0.15798205949E+04  0.15798205949E+04  0.00000000000E+00 0.  1.
          1   -1    0    0  502    0  0.00000000000E+00 -0.00000000000E+00 -0.11322217636E+04  0.11322217636E+04  0.00000000000E+00 0. -1.
    9000010    2    1    2  502    0  0.34818538134E+03 -0.81163514772E+03  0.40157377498E+03  0.13891787336E+04  0.99426927148E+03 0.  0.
   -9000010    2    1    2    0  501 -0.34818538134E+03  0.81163514772E+03  0.46025056265E+02  0.13228636250E+04  0.98380139851E+03 0.  0.
        -13    1    3    3    0    0  0.61340322225E+03 -0.86378297843E+03  0.31157130835E+03  0.11042921888E+04  0.10566000000E+00 0.  1.
         13    1    4    4    0    0 -0.95501691525E+00 -0.18814881027E+03 -0.15718146684E+03  0.24516710942E+03  0.10566000000E+00 0. -1.
          4    1    3    3  502    0 -0.26521784091E+03  0.52147830705E+02  0.90002466628E+02  0.28488654476E+03  0.00000000000E+00 0.  1.
         -4    1    4    4    0  501 -0.34723036442E+03  0.99978395799E+03  0.20320652310E+03  0.10776965156E+04  0.00000000000E+00 0. -1.
</event>
<event>
 8    1  0.7446554E-006  0.1073472E+04  0.7818608E-02  0.8708464E-01
         -2   -1    0    0    0  501 -0.00000000000E+00  0.00000000000E+00  0.86028089633E+03  0.86028089633E+03  0.00000000000E+00 0.  1.
          2   -1    0    0  502    0  0.00000000000E+00 -0.00000000000E+00 -0.14609311379E+04  0.14609311379E+04  0.00000000000E+00 0. -1.
    9000010    2    1    2  502    0  0.20105226213E+02  0.37217831809E+03 -0.63400074631E+03  0.12436508547E+04  0.10028906130E+04 0.  0.
   -9000010    2    1    2    0  501 -0.20105226213E+02 -0.37217831809E+03  0.33350504771E+02  0.10775611795E+04  0.10104973621E+04 0.  0.
        -13    1    3    3    0    0 -0.58016078616E+02  0.70902729271E+03 -0.51390057561E+03  0.87759864400E+03  0.10566000000E+00 0.  1.
         13    1    4    4    0    0  0.17251084781E+03  0.27228343238E+03 -0.18341781885E+03  0.37086435202E+03  0.10566000000E+00 0. -1.
          4    1    3    3  502    0  0.78121304829E+02 -0.33684897461E+03 -0.12010017070E+03  0.36605221072E+03  0.00000000000E+00 0.  1.
         -4    1    4    4    0  501 -0.19261607403E+03 -0.64446175048E+03  0.21676832362E+03  0.70669682745E+03  0.00000000000E+00 0. -1.
</event>
<event>
 8    1  0.7446554E-006  0.1580472E+04  0.7818608E-02  0.8364636E-01
         -1   -1    0    0    0  501 -0.00000000000E+00  0.00000000000E+00  0.74346374405E+03  0.74346374405E+03  0.00000000000E+00 0.  1.
          1   -1    0    0  502    0  0.00000000000E+00 -0.00000000000E+00 -0.34458100418E+04  0.34458100418E+04  0.00000000000E+00 0. -1.
    9000010    2    1    2  502    0  0.97179244641E+03  0.75273819560E+03 -0.10182237517E+04  0.18780200947E+04  0.98953752713E+03 0.  0.
   -9000010    2    1    2    0  501 -0.97179244641E+03 -0.75273819560E+03 -0.16841225461E+04  0.23112536911E+04  0.99731114733E+03 0.  0.
        -13    1    3    3    0    0 -0.10750223881E+03 -0.10964797280E+03  0.12946073537E+02  0.15410068550E+03  0.10566000000E+00 0.  1.
         13    1    4    4    0    0 -0.27783664841E+03  0.23407885334E+03 -0.52347751338E+03  0.63719293072E+03  0.10566000000E+00 0. -1.
          4    1    3    3  502    0  0.10792946852E+04  0.86238616841E+03 -0.10311698252E+04  0.17239194092E+04  0.00000000000E+00 0.  1.
         -4    1    4    4    0  501 -0.69395579800E+03 -0.98681704894E+03 -0.11606450327E+04  0.16740607604E+04  0.00000000000E+00 0. -1.
</event>
<event>
 8    1  0.7446554E-006  0.1698204E+04  0.7818608E-02  0.8303751E-01
          1   -1    0    0  502    0  0.00000000000E+00  0.00000000000E+00  0.73429011697E+03  0.73429011697E+03  0.00000000000E+00 0.  1.
         -1   -1    0    0    0  501 -0.00000000000E+00 -0.00000000000E+00 -0.39300448448E+04  0.39300448448E+04  0.00000000000E+00 0. -1.
    9000010    2    1    2  502    0  0.12812128802E+04 -0.50598904206E+03 -0.16630170166E+04  0.23814477936E+04  0.10040600784E+04 0.  0.
   -9000010    2    1    2    0  501 -0.12812128802E+04  0.50598904206E+03 -0.15327377113E+04  0.22828871682E+04  0.98222073704E+03 0.  0.
        -13    1    3    3    0    0  0.17005401675E+03 -0.40480844018E+03 -0.97837861289E+03  0.10723865736E+04  0.10566000000E+00 0.  1.
         13    1    4    4    0    0 -0.10150345192E+04 -0.22267101233E+02 -0.12945853465E+04  0.16452179580E+04  0.10566000000E+00 0. -1.
          4    1    3    3  502    0  0.11111588634E+04 -0.10118060188E+03 -0.68463840372E+03  0.13090612200E+04  0.00000000000E+00 0.  1.
         -4    1    4    4    0  501 -0.26617836100E+03  0.52825614330E+03 -0.23815236481E+03  0.63766921022E+03  0.00000000000E+00 0. -1.
</event>
<event>
 8    1  0.7446554E-006  0.1068776E+04  0.7818608E-02  0.8712525E-01
         -2   -1    0    0    0  501 -0.00000000000E+00  0.00000000000E+00  0.12275386253E+04  0.12275386253E+04  0.00000000000E+00 0. -1.
          2   -1    0    0  502    0  0.00000000000E+00 -0.00000000000E+00 -0.93420266545E+03  0.93420266545E+03  0.00000000000E+00 0.  1.
    9000010    2    1    2  502    0 -0.71413949077E+02  0.41814223379E+03  0.21251958024E+03  0.10811815743E+04  0.97151744442E+03 0.  0.
   -9000010    2    1    2    0  501  0.71413949077E+02 -0.41814223379E+03  0.80816379631E+02  0.10805597165E+04  0.99052265690E+03 0.  0.
        -13    1    3    3    0    0  0.13047990616E+03  0.68470499136E+03  0.24281365930E+02  0.69744930066E+03  0.10566000000E+00 0.  1.
         13    1    4    4    0    0 -0.38121747711E+03 -0.38694495303E+03 -0.16085382713E+03  0.56650430395E+03  0.10566000000E+00 0. -1.
          4    1    3    3  502    0 -0.20189385524E+03 -0.26656275756E+03  0.18823821431E+03  0.38373227364E+03  0.00000000000E+00 0.  1.
         -4    1    4    4    0  501  0.45263142619E+03 -0.31197280764E+02  0.24167020677E+03  0.51405541252E+03  0.00000000000E+00 0. -1.
</event>
<event>
 8    1  0.7446554E-006  0.1209202E+04  0.7818608E-02  0.8599665E-01
         -2   -1    0    0    0  501 -0.00000000000E+00  0.00000000000E+00  0.76166076370E+03  0.76166076370E+03  0.00000000000E+00 0. -1.
          2   -1    0    0  502    0  0.00000000000E+00 -0.00000000000E+00 -0.19324061172E+04  0.19324061172E+04  0.00000000000E+00 0.  1.
    9000010    2    1    2  502    0  0.17258801408E+03 -0.66172857578E+03 -0.47496739559E+03  0.12966901598E+04  0.99405231902E+03 0.  0.
   -9000010    2    1    2    0  501 -0.17258801408E+03  0.66172857578E+03 -0.69577795793E+03  0.13973767212E+04  0.10004416042E+04 0.  0.
        -13    1    3    3    0    0  0.40227945107E+03 -0.42848776611E+03 -0.68896557235E+03  0.90559598801E+03  0.10566000000E+00 0.  1.
         13    1    4    4    0    0  0.35947368008E+03  0.48127373626E+03 -0.16142841226E+03  0.62201678381E+03  0.10566000000E+00 0. -1.
          4    1    3    3  502    0 -0.22969143699E+03 -0.23324080966E+03  0.21399817676E+03  0.39109417175E+03  0.00000000000E+00 0.  1.
         -4    1    4    4    0  501 -0.53206169416E+03  0.18045483951E+03 -0.53434954567E+03  0.77535993735E+03  0.00000000000E+00 0. -1.
</event>
<event>
 8    1  0.7446554E-006  0.1418699E+04  0.7818608E-02  0.8457881E-01
         -2   -1    0    0    0  501 -0.00000000000E+00  0.00000000000E+00  0.10961269215E+04  0.10961269215E+04  0.00000000000E+00 0. -1.
          2   -1    0    0  502    0  0.00000000000E+00 -0.00000000000E+00 -0.18383392844E+04  0.18383392844E+04  0.00000000000E+00 0.  1.
    9000010    2    1    2  502    0  0.46383629924E+03  0.85142396305E+03 -0.41915382234E+03  0.15067354189E+04  0.10744742056E+04 0.  0.
   -9000010    2    1    2    0  501 -0.46383629924E+03 -0.85142396305E+03 -0.32305854064E+03  0.14277307870E+04  0.99698620958E+03 0.  0.
        -13    1    3    3    0    0  0.34001924003E+03  0.90153692997E+03 -0.70320515734E+03  0.11928450965E+04  0.10566000000E+00 0.  1.
         13    1    4    4    0    0 -0.40768985980E+03 -0.10720096713E+04 -0.34849982829E+03  0.11986942474E+04  0.10566000000E+00 0. -1.
          4    1    3    3  502    0  0.12381705921E+03 -0.50112966922E+02  0.28405133499E+03  0.31389032243E+03  0.00000000000E+00 0.  1.
         -4    1    4    4    0  501 -0.56146439444E+02  0.22058570828E+03  0.25441287646E+02  0.22903653961E+03  0.00000000000E+00 0. -1.
</event>
<event>
 8    1  0.7446554E-006  0.1297196E+04  0.7818608E-02  0.8536758E-01
          2   -1    0    0  502    0  0.00000000000E+00  0.00000000000E+00  0.26579563051E+04  0.26579563051E+04  0.00000000000E+00 0.  1.
         -2   -1    0    0    0  501 -0.00000000000E+00 -0.00000000000E+00 -0.64597786173E+03  0.64597786173E+03  0.00000000000E+00 0. -1.
    9000010    2    1    2  502    0 -0.82576597464E+03 -0.10691591362E+03  0.12267199681E+04  0.17741999716E+04  0.97448612195E+03 0.  0.
   -9000010    2    1    2    0  501  0.82576597464E+03  0.10691591362E+03  0.78525847528E+03  0.15297341952E+04  0.10149558500E+04 0.  0.
        -13    1    3    3    0    0 -0.71356387430E+02  0.12175314504E+03 -0.13850066815E+03  0.19773216379E+03  0.10566000000E+00 0.  1.
         13    1    4    4    0    0 -0.19692843367E+03 -0.15286495908E+03  0.22107409855E+03  0.33320004790E+03  0.10566000000E+00 0. -1.
          4    1    3    3  502    0 -0.75440958721E+03 -0.22866905866E+03  0.13652206362E+04  0.15764678079E+04  0.00000000000E+00 0.  1.
         -4    1    4    4    0  501  0.10226944083E+04  0.25978087270E+03  0.56418437673E+03  0.11965341473E+04  0.00000000000E+00 0. -1.
</event>
<event>
 8    1  0.7446554E-006  0.1343546E+04  0.7818608E-02  0.8505659E-01
         -1   -1    0    0    0  501 -0.00000000000E+00  0.00000000000E+00  0.10905172893E+04  0.10905172893E+04  0.00000000000E+00 0. -1.
          1   -1    0    0  502    0  0.00000000000E+00 -0.00000000000E+00 -0.19239123755E+04  0.19239123755E+04  0.00000000000E+00 0.  1.
    9000010    2    1    2  502    0  0.46391504330E+03  0.73663907711E+03 -0.97692236274E+03  0.16525917321E+04  0.10093700178E+04 0.  0.
   -9000010    2    1    2    0  501 -0.46391504330E+03 -0.73663907711E+03  0.14352727651E+03  0.13618379327E+04  0.10373756207E+04 0.  0.
        -13    1    3    3    0    0  0.35700104766E+03  0.29474631430E+03 -0.10898774881E+04  0.11841275641E+04  0.10566000000E+00 0.  1.
         13    1    4    4    0    0 -0.44783037102E+03  0.14138911240E+03 -0.13107156249E+02  0.46980286400E+03  0.10566000000E+00 0. -1.
          4    1    3    3  502    0  0.10691399564E+03  0.44189276281E+03  0.11295512541E+03  0.46846416794E+03  0.00000000000E+00 0.  1.
         -4    1    4    4    0  501 -0.16084672273E+02 -0.87802818951E+03  0.15663443276E+03  0.89203506869E+03  0.00000000000E+00 0. -1.
</event>
<event>
 8    1  0.7446554E-006  0.1575481E+04  0.7818608E-02  0.8367337E-01
         -2   -1    0    0    0  501 -0.00000000000E+00  0.00000000000E+00  0.79881905372E+03  0.79881905372E+03  0.00000000000E+00 0. -1.
          2   -1    0    0  502    0  0.00000000000E+00 -0.00000000000E+00 -0.31856666631E+04  0.31856666631E+04  0.00000000000E+00 0.  1.
    9000010    2    1    2  502    0  0.67024035051E+03  0.87228510663E+03 -0.15501389324E+04  0.22740140493E+04  0.12482410632E+04 0.  0.
   -9000010    2    1    2    0  501 -0.67024035051E+03 -0.87228510663E+03 -0.83670867689E+03  0.17104716674E+04  0.10077343303E+04 0.  0.
        -13    1    3    3    0    0  0.86627027494E+03  0.57866336741E+03 -0.16082880408E+04  0.19162113442E+04  0.10566000000E+00 0.  1.
         13    1    4    4    0    0 -0.88600374297E+03 -0.50469494968E+03 -0.38638962321E+03  0.10904203671E+04  0.10566000000E+00 0. -1.
          4    1    3    3  502    0 -0.19602992443E+03  0.29362173922E+03  0.58149108399E+02  0.35780270516E+03  0.00000000000E+00 0.  1.
         -4    1    4    4    0  501  0.21576339247E+03 -0.36759015695E+03 -0.45031905367E+03  0.62005130039E+03  0.00000000000E+00 0. -1.
</event>
<event>
 8    1  0.7446554E-006  0.1150169E+04  0.7818608E-02  0.8645061E-01
         -1   -1    0    0    0  501 -0.00000000000E+00  0.00000000000E+00  0.25097121860E+04  0.25097121860E+04  0.00000000000E+00 0.  1.
          1   -1    0    0  502    0  0.00000000000E+00 -0.00000000000E+00 -0.56276974156E+03  0.56276974156E+03  0.00000000000E+00 0. -1.
    9000010    2    1    2  502    0 -0.53584068985E+03  0.10346957218E+03  0.58615671122E+03  0.12902472591E+04  0.10115963138E+04 0.  0.
   -9000010    2    1    2    0  501  0.53584068985E+03 -0.10346957218E+03  0.13607857332E+04  0.17822346685E+04  0.10133071620E+04 0.  0.
        -13    1    3    3    0    0 -0.54315214956E+03  0.47487952457E+03  0.18771274580E+03  0.74549373339E+03  0.10566000000E+00 0.  1.
         13    1    4    4    0    0 -0.29649754450E+03 -0.82251269774E+02  0.26546214846E+03  0.40638187546E+03  0.10566000000E+00 0. -1.
          4    1    3    3  502    0  0.73114597086E+01 -0.37140995239E+03  0.39844396542E+03  0.54475352569E+03  0.00000000000E+00 0.  1.
         -4    1    4    4    0  501  0.83233823435E+03 -0.21218302407E+02  0.10953235848E+04  0.13758527930E+04  0.00000000000E+00 0. -1.
</event>
<event>
 8    1  0.7446554E-006  0.1140465E+04  0.7818608E-02  0.8652795E-01
         -2   -1    0    0    0  501 -0.00000000000E+00  0.00000000000E+00  0.16562028429E+04  0.16562028429E+04  0.00000000000E+00 0. -1.
          2   -1    0    0  502    0  0.00000000000E+00 -0.00000000000E+00 -0.99728429666E+03  0.99728429666E+03  0.00000000000E+00 0.  1.
    9000010    2    1    2  502    0 -0.47001932758E+02 -0.57615856036E+03 -0.28308165899E+03  0.11712029672E+04  0.97847498507E+03 0.  0.
   -9000010    2    1    2    0  501  0.47001932758E+02  0.57615856036E+03  0.94200020522E+03  0.14822841723E+04  0.98774192610E+03 0.  0.
        -13    1    3    3    0    0 -0.26915544281E+03 -0.37987797570E+02 -0.48415319664E+03  0.55524053719E+03  0.10566000000E+00 0.  1.
         13    1    4    4    0    0  0.19549010707E+03  0.79980674049E+03  0.49449510507E+03  0.96043356054E+03  0.10566000000E+00 0. -1.
          4    1    3    3  502    0  0.22215351005E+03 -0.53817076279E+03  0.20107153765E+03  0.61596243003E+03  0.00000000000E+00 0.  1.
         -4    1    4    4    0  501 -0.14848817431E+03 -0.22364818013E+03  0.44750510015E+03  0.52185061181E+03  0.00000000000E+00 0. -1.
</event>
<event>
 8    1  0.7446554E-006  0.2219898E+04  0.7818608E-02  0.8084312E-01
          1   -1    0    0  502    0  0.00000000000E+00  0.00000000000E+00  0.15433659603E+04  0.15433659603E+04  0.00000000000E+00 0.  1.
         -1   -1    0    0    0  501 -0.00000000000E+00 -0.00000000000E+00 -0.33674578937E+04  0.33674578937E+04  0.00000000000E+00 0. -1.
    9000010    2    1    2  502    0  0.17187688673E+04  0.98089031324E+03 -0.14704877257E+04  0.26617781384E+04  0.10032031104E+04 0.  0.
   -9000010    2    1    2    0  501 -0.17187688673E+04 -0.98089031324E+03 -0.35360420769E+03  0.22490457156E+04  0.10083940051E+04 0.  0.
        -13    1    3    3    0    0  0.92363807886E+03  0.47978395474E+02 -0.31452163028E+03  0.97689973602E+03  0.10566000000E+00 0.  1.
         13    1    4    4    0    0 -0.13994150882E+04 -0.65505169087E+03  0.17010514128E+03  0.15544745341E+04  0.10566000000E+00 0. -1.
          4    1    3    3  502    0  0.79513078845E+03  0.93291191777E+03 -0.11559660954E+04  0.16848784024E+04  0.00000000000E+00 0.  1.
         -4    1    4    4    0  501 -0.31935377910E+03 -0.32583862237E+03 -0.52370934897E+03  0.69457118156E+03  0.00000000000E+00 0. -1.
</event>
<event>
 8    1  0.7446554E-006  0.1218447E+04  0.7818608E-02  0.8592799E-01
         -2   -1    0    0    0  501 -0.00000000000E+00  0.00000000000E+00  0.44179932771E+03  0.44179932771E+03  0.00000000000E+00 0.  1.
          2   -1    0    0  502    0  0.00000000000E+00 -0.00000000000E+00 -0.34889502851E+04  0.34889502851E+04  0.00000000000E+00 0. -1.
    9000010    2    1    2  502    0 -0.58989735198E+03 -0.35219282368E+03 -0.18943256642E+04  0.22494701518E+04  0.99981376813E+03 0.  0.
   -9000010    2    1    2    0  501  0.58989735198E+03  0.35219282368E+03 -0.11528252933E+04  0.16812794611E+04  0.10127565347E+04 0.  0.
        -13    1    3    3    0    0  0.16001779027E+03  0.19938808981E+03 -0.23711073423E+03  0.34868727395E+03  0.10566000000E+00 0.  1.
         13    1    4    4    0    0  0.26325018527E+03  0.61982450115E+03 -0.31584132048E+03  0.74380025757E+03  0.10566000000E+00 0. -1.
          4    1    3    3  502    0 -0.74991514225E+03 -0.55158091349E+03 -0.16572149299E+04  0.19007828778E+04  0.00000000000E+00 0.  1.
         -4    1    4    4    0  501  0.32664716670E+03 -0.26763167747E+03 -0.83698397278E+03  0.93747920350E+03  0.00000000000E+00 0. -1.
</event>
<event>
 8    1  0.7446554E-006  0.1221048E+04  0.7818608E-02  0.8590879E-01
          2   -1    0    0  502    0  0.00000000000E+00  0.00000000000E+00  0.23984449382E+04  0.23984449382E+04  0.00000000000E+00 0.  1.
         -2   -1    0    0    0  501 -0.00000000000E+00 -0.00000000000E+00 -0.64260272612E+03  0.64260272612E+03  0.00000000000E+00 0. -1.
    9000010    2    1    2  502    0  0.67581364665E+03  0.17021913776E+03  0.11581060263E+04  0.16888976194E+04  0.10126534259E+04 0.  0.
   -9000010    2    1    2    0  501 -0.67581364665E+03 -0.17021913776E+03  0.59773618579E+03  0.13521500449E+04  0.99263415020E+03 0.  0.
        -13    1    3    3    0    0  0.62135665767E+03 -0.24479939734E+03  0.29589690369E+03  0.73045590541E+03  0.10566000000E+00 0.  1.
         13    1    4    4    0    0 -0.65174583523E+03 -0.36914326709E+02  0.84645548033E+03  0.10689350741E+04  0.10566000000E+00 0. -1.
          4    1    3    3  502    0  0.54456988986E+02  0.41501853510E+03  0.86220912258E+03  0.95844171403E+03  0.00000000000E+00 0.  1.
         -4    1    4    4    0  501 -0.24067811424E+02 -0.13330481105E+03 -0.24871929454E+03  0.28321497078E+03  0.00000000000E+00 0. -1.
</event>
<event>
 8    1  0.7446554E-006  0.1259350E+04  0.7818608E-02  0.8563162E-01
          2   -1    0    0  502    0  0.00000000000E+00  0.00000000000E+00  0.27279077995E+04  0.27279077995E+04  0.00000000000E+00 0. -1.
         -2   -1    0    0    0  501 -0.00000000000E+00 -0.00000000000E+00 -0.58584204300E+03  0.58584204300E+03  0.00000000000E+00 0.  1.
    9000010    2    1    2  502    0  0.33708306194E+03  0.68460681040E+03  0.92849017434E+03  0.15664940666E+04  0.10047378670E+04 0.  0.
   -9000010    2    1    2    0  501 -0.33708306194E+03 -0.68460681040E+03  0.12135755822E+04  0.17472557759E+04  0.99891219693E+03 0.  0.
        -13    1    3    3    0    0  0.38197579949E+03  0.89490284492E+03  0.93763599597E+03  0.13512652905E+04  0.10566000000E+00 0.  1.
         13    1    4    4    0    0  0.30878691229E+03 -0.37907394090E+03  0.75088438670E+03  0.89603224453E+03  0.10566000000E+00 0. -1.
          4    1    3    3  502    0 -0.44892737545E+02 -0.21029603452E+03 -0.91458216293E+01  0.21522877613E+03  0.00000000000E+00 0.  1.
         -4    1    4    4    0  501 -0.64586997423E+03 -0.30553286950E+03  0.46269119549E+03  0.85122353136E+03  0.00000000000E+00 0. -1.
</event>
<event>
 8    1  0.7446554E-006  0.1343103E+04  0.7818608E-02  0.8505950E-01
          2   -1    0    0  502    0  0.00000000000E+00  0.00000000000E+00  0.93364027309E+03  0.93364027309E+03  0.00000000000E+00 0.  1.
         -2   -1    0    0    0  501 -0.00000000000E+00 -0.00000000000E+00 -0.21985259689E+04  0.21985259689E+04  0.00000000000E+00 0. -1.
    9000010    2    1    2  502    0 -0.80956311053E+03 -0.39311426480E+03 -0.84845452886E+02  0.13397435461E+04  0.98882898586E+03 0.  0.
   -9000010    2    1    2    0  501  0.80956311053E+03  0.39311426480E+03 -0.11800402429E+04  0.17924226959E+04  0.10051631165E+04 0.  0.
        -13    1    3    3    0    0 -0.91897922051E+02 -0.31291735727E+03  0.36459293863E+03  0.48917330531E+03  0.10566000000E+00 0.  1.
         13    1    4    4    0    0 -0.22988781844E+02  0.36659914010E+03 -0.24747448020E+02  0.36815195363E+03  0.10566000000E+00 0. -1.
          4    1    3    3  502    0 -0.71766518848E+03 -0.80196907531E+02 -0.44943839152E+03  0.85057024078E+03  0.00000000000E+00 0.  1.
         -4    1    4    4    0  501  0.83255189237E+03  0.26515124707E+02 -0.11552927949E+04  0.14242707422E+04  0.00000000000E+00 0. -1.
</event>
<event>
 8    1  0.7446554E-006  0.1495353E+04  0.7818608E-02  0.8412178E-01
          2   -1    0    0  502    0  0.00000000000E+00  0.00000000000E+00  0.24404062468E+04  0.24404062468E+04  0.00000000000E+00 0. -1.
         -2   -1    0    0    0  501 -0.00000000000E+00 -0.00000000000E+00 -0.10534299922E+04  0.10534299922E+04  0.00000000000E+00 0.  1.
    9000010    2    1    2  502    0 -0.11294314812E+04  0.23925181605E+02  0.13271635978E+04  0.20057066936E+04  0.99262693915E+03 0.  0.
   -9000010    2    1    2    0  501  0.11294314812E+04 -0.23925181605E+02  0.59812656791E+02  0.14881295455E+04  0.96683199425E+03 0.  0.
        -13    1    3    3    0    0 -0.84124742532E+01  0.12533404450E+03 -0.11906216120E+03  0.17307571126E+03  0.10566000000E+00 0.  1.
         13    1    4    4    0    0  0.84069893405E+03 -0.25733559483E+03 -0.33987145008E+03  0.94260751101E+03  0.10566000000E+00 0. -1.
          4    1    3    3  502    0 -0.11210190069E+04 -0.10140886290E+03  0.14462257590E+04  0.18326309823E+04  0.00000000000E+00 0.  1.
         -4    1    4    4    0  501  0.28873254715E+03  0.23341041322E+03  0.39968410687E+03  0.54552203444E+03  0.00000000000E+00 0. -1.
</event>
<event>
 8    1  0.7446554E-006  0.1129291E+04  0.7818608E-02  0.8661799E-01
         -1   -1    0    0    0  501 -0.00000000000E+00  0.00000000000E+00  0.75732126892E+03  0.75732126892E+03  0.00000000000E+00 0.  1.
          1   -1    0    0  502    0  0.00000000000E+00 -0.00000000000E+00 -0.17842097486E+04  0.17842097486E+04  0.00000000000E+00 0. -1.
    9000010    2    1    2  502    0  0.46438012720E+03  0.14394131983E+03 -0.81973024099E+03  0.14056952831E+04  0.10332732237E+04 0.  0.
   -9000010    2    1    2    0  501 -0.46438012720E+03 -0.14394131983E+03 -0.20715823871E+03  0.11358357345E+04  0.10054055270E+04 0.  0.
        -13    1    3    3    0    0 -0.13182849163E+03  0.34844890854E+03 -0.65609870884E+03  0.75449381705E+03  0.10566000000E+00 0.  1.
         13    1    4    4    0    0  0.20743706156E+02 -0.11315837143E+03  0.36637683742E+03  0.38401447438E+03  0.10566000000E+00 0. -1.
          4    1    3    3  502    0  0.59620861883E+03 -0.20450758871E+03 -0.16363153215E+03  0.65120146600E+03  0.00000000000E+00 0.  1.
         -4    1    4    4    0  501 -0.48512383335E+03 -0.30782948398E+02 -0.57353507614E+03  0.75182126011E+03  0.00000000000E+00 0. -1.
</event>
<event>
 8    1  0.7446554E-006  0.1272945E+04  0.7818608E-02  0.8553568E-01
         -2   -1    0    0    0  501 -0.00000000000E+00  0.00000000000E+00  0.19243426038E+04  0.19243426038E+04  0.00000000000E+00 0.  1.
          2   -1    0    0  502    0  0.00000000000E+00 -0.00000000000E+00 -0.85465056967E+03  0.85465056967E+03  0.00000000000E+00 0. -1.
    9000010    2    1    2  502    0 -0.35602414439E+03 -0.58369351726E+03  0.48594550816E+03  0.14853714825E+04  0.12258605510E+04 0.  0.
   -9000010    2    1    2    0  501  0.35602414439E+03  0.58369351726E+03  0.58374652598E+03  0.12936216910E+04  0.93018587356E+03 0.  0.
        -13    1    3    3    0    0 -0.26573074111E+03 -0.49764843629E+03 -0.33425703846E+03  0.65573971348E+03  0.10566000000E+00 0.  1.
         13    1    4    4    0    0  0.21164946759E+03 -0.23844575278E+03  0.13899779902E+03  0.34781068622E+03  0.10566000000E+00 0. -1.
          4    1    3    3  502    0 -0.90293403275E+02 -0.86045080972E+02  0.82020254662E+03  0.82963176899E+03  0.00000000000E+00 0.  1.
         -4    1    4    4    0  501  0.14437467680E+03  0.82213927004E+03  0.44474872696E+03  0.94581100479E+03  0.00000000000E+00 0. -1.
</event>
<event>
 8    1  0.7446554E-006  0.1418588E+04  0.7818608E-02  0.8457949E-01
          1   -1    0    0  502    0  0.00000000000E+00  0.00000000000E+00  0.22337540017E+04  0.22337540017E+04  0.00000000000E+00 0. -1.
         -1   -1    0    0    0  501 -0.00000000000E+00 -0.00000000000E+00 -0.91240125082E+03  0.91240125082E+03  0.00000000000E+00 0.  1.
    9000010    2    1    2  502    0 -0.74803533534E+03  0.68318246624E+03  0.84349615634E+03  0.16636344592E+04  0.10148392498E+04 0.  0.
   -9000010    2    1    2    0  501  0.74803533534E+03 -0.68318246624E+03  0.47785659450E+03  0.14825207933E+04  0.97119814274E+03 0.  0.
        -13    1    3    3    0    0 -0.73386522778E+03 -0.10847845935E+02  0.50825703943E+03  0.89274916835E+03  0.10566000000E+00 0.  1.
         13    1    4    4    0    0  0.72589627777E+03 -0.34905413794E+03 -0.10303585502E+03  0.81202253409E+03  0.10566000000E+00 0. -1.
          4    1    3    3  502    0 -0.14170107568E+02  0.69403031217E+03  0.33523911691E+03  0.77088529086E+03  0.00000000000E+00 0.  1.
         -4    1    4    4    0  501  0.22139057573E+02 -0.33412832830E+03  0.58089244952E+03  0.67049825917E+03  0.00000000000E+00 0. -1.
</event>
<event>
 8    1  0.7446554E-006  0.1497091E+04  0.7818608E-02  0.8411175E-01
          2   -1    0    0  502    0  0.00000000000E+00  0.00000000000E+00  0.15190648576E+04  0.15190648576E+04  0.00000000000E+00 0.  1.
         -2   -1    0    0    0  501 -0.00000000000E+00 -0.00000000000E+00 -0.14977098947E+04  0.14977098947E+04  0.00000000000E+00 0. -1.
    9000010    2    1    2  502    0  0.14283236557E+03  0.11079550615E+04  0.19463511595E+03  0.15109276352E+04  0.99852590727E+03 0.  0.
   -9000010    2    1    2    0  501 -0.14283236557E+03 -0.11079550615E+04 -0.17328015301E+03  0.15058471171E+04  0.99477838008E+03 0.  0.
        -13    1    3    3    0    0  0.46797305558E+03  0.10119930532E+04  0.30234218500E+03  0.11552227181E+04  0.10566000000E+00 0.  1.
         13    1    4    4    0    0  0.34187288191E+03 -0.90738557212E+03 -0.78865929998E+02  0.97285430048E+03  0.10566000000E+00 0. -1.
          4    1    3    3  502    0 -0.32514069000E+03  0.95962008364E+02 -0.10770706905E+03  0.35570491713E+03  0.00000000000E+00 0.  1.
         -4    1    4    4    0  501 -0.48470524748E+03 -0.20056948943E+03 -0.94414223013E+02  0.53299281659E+03  0.00000000000E+00 0. -1.
</event>
<event>
 8    1  0.7446554E-006  0.1082867E+04  0.7818608E-02  0.8700405E-01
         -1   -1    0    0    0  501 -0.00000000000E+00  0.00000000000E+00  0.69385319708E+03  0.69385319708E+03  0.00000000000E+00 0.  1.
          1   -1    0    0  502    0  0.00000000000E+00 -0.00000000000E+00 -0.17039466502E+04  0.17039466502E+04  0.00000000000E+00 0. -1.
    9000010    2    1    2  502    0  0.36681449004E+03 -0.16334167800E+03 -0.61437805493E+03  0.12465639759E+04  0.10075852211E+04 0.  0.
   -9000010    2    1    2    0  501 -0.36681449004E+03  0.16334167800E+03 -0.39571539819E+03  0.11512358713E+04  0.10037529483E+04 0.  0.
        -13    1    3    3    0    0  0.59163861318E+03  0.17449178486E+03 -0.56729398334E+03  0.83803705544E+03  0.10566000000E+00 0.  1.
         13    1    4    4    0    0 -0.22704961684E+03  0.37455006608E+03 -0.65553913512E+03  0.78839764672E+03  0.10566000000E+00 0. -1.
          4    1    3    3  502    0 -0.22482412314E+03 -0.33783346286E+03 -0.47084071591E+02  0.40852692050E+03  0.00000000000E+00 0.  1.
         -4    1    4    4    0  501 -0.13976487320E+03 -0.21120838808E+03  0.25982373693E+03  0.36283822462E+03  0.00000000000E+00 0. -1.
</event>
<event>
 8    1  0.7446554E-006  0.1611654E+04  0.7818608E-02  0.8347990E-01
          2   -1    0    0  502    0  0.00000000000E+00  0.00000000000E+00  0.19880539472E+04  0.19880539472E+04  0.00000000000E+00 0.  1.
         -2   -1    0    0    0  501 -0.00000000000E+00 -0.00000000000E+00 -0.13527184698E+04  0.13527184698E+04  0.00000000000E+00 0. -1.
    9000010    2    1    2  502    0  0.36168508024E+03  0.12137274944E+04  0.62561840638E+03  0.17252797025E+04  0.99057616245E+03 0.  0.
   -9000010    2    1    2    0  501 -0.36168508024E+03 -0.12137274944E+04  0.97170710178E+01  0.16154927144E+04  0.10028817283E+04 0.  0.
        -13    1    3    3    0    0  0.24738253951E+03  0.12386020907E+04  0.81464132169E+03  0.15029882747E+04  0.10566000000E+00 0.  1.
         13    1    4    4    0    0  0.25637110462E+03 -0.14316706820E+02 -0.62518219060E+02  0.26427192484E+03  0.10566000000E+00 0. -1.
          4    1    3    3  502    0  0.11430254073E+03 -0.24874596250E+02 -0.18902291531E+03  0.22229142779E+03  0.00000000000E+00 0.  1.
         -4    1    4    4    0  501 -0.61805618486E+03 -0.11994107876E+04  0.72235290078E+02  0.13512207896E+04  0.00000000000E+00 0. -1.
</event>
<event>
 8    1  0.7446554E-006  0.1044457E+04  0.7818608E-02  0.8733905E-01
         -1   -1    0    0    0  501 -0.00000000000E+00  0.00000000000E+00  0.15581584673E+04  0.15581584673E+04  0.00000000000E+00 0.  1.
          1   -1    0    0  502    0  0.00000000000E+00 -0.00000000000E+00 -0.83501318536E+03  0.83501318536E+03  0.00000000000E+00 0. -1.
    9000010    2    1    2  502    0  0.10164506203E+03  0.33306208120E+03 -0.12212762253E+03  0.10417595133E+04  0.97421027446E+03 0.  0.
   -9000010    2    1    2    0  501 -0.10164506203E+03 -0.33306208120E+03  0.84527290446E+03  0.13514121393E+04  0.99527203253E+03 0.  0.
        -13    1    3    3    0    0 -0.56340193791E+02  0.38277228095E+03 -0.49822685105E+03  0.63080808711E+03  0.10566000000E+00 0.  1.
         13    1    4    4    0    0  0.10768848174E+03 -0.17037431125E+03 -0.19346207973E+03  0.27937752682E+03  0.10566000000E+00 0. -1.
          4    1    3    3  502    0  0.15798525582E+03 -0.49710199749E+02  0.37609922852E+03  0.41095142621E+03  0.00000000000E+00 0.  1.
         -4    1    4    4    0  501 -0.20933354377E+03 -0.16268776995E+03  0.10387349842E+04  0.10720346125E+04  0.00000000000E+00 0. -1.
</event>
<event>
 8    1  0.7446554E-006  0.1169811E+04  0.7818608E-02  0.8629649E-01
         -2   -1    0    0    0  501 -0.00000000000E+00  0.00000000000E+00  0.10932386377E+04  0.10932386377E+04  0.00000000000E+00 0.  1.
          2   -1    0    0  502    0  0.00000000000E+00 -0.00000000000E+00 -0.13593642167E+04  0.13593642167E+04  0.00000000000E+00 0. -1.
    9000010    2    1    2  502    0  0.25977325716E+03  0.54782655338E+03  0.21230403185E+03  0.11857081452E+04  0.99661162237E+03 0.  0.
   -9000010    2    1    2    0  501 -0.25977325716E+03 -0.54782655338E+03 -0.47842961087E+03  0.12668947093E+04  0.10042565579E+04 0.  0.
        -13    1    3    3    0    0 -0.11736317042E+03  0.49221491582E+03 -0.26792309869E+03  0.57256653334E+03  0.10566000000E+00 0.  1.
         13    1    4    4    0    0 -0.12966778192E+03  0.23249287463E+03  0.10266210520E+03  0.28531769911E+03  0.10566000000E+00 0. -1.
          4    1    3    3  502    0  0.37713642758E+03  0.55611637562E+02  0.48022713054E+03  0.61314161183E+03  0.00000000000E+00 0.  1.
         -4    1    4    4    0  501 -0.13010547525E+03 -0.78031942801E+03 -0.58109171607E+03  0.98157701017E+03  0.00000000000E+00 0. -1.
</event>
<event>
 8    1  0.7446554E-006  0.1177018E+04  0.7818608E-02  0.8624072E-01
         -2   -1    0    0    0  501 -0.00000000000E+00  0.00000000000E+00  0.60830696512E+03  0.60830696512E+03  0.00000000000E+00 0.  1.
          2   -1    0    0  502    0  0.00000000000E+00 -0.00000000000E+00 -0.22777751000E+04  0.22777751000E+04  0.00000000000E+00 0. -1.
    9000010    2    1    2  502    0  0.48264767029E+03  0.30792840328E+03 -0.85008750284E+03  0.14493474215E+04  0.10247880320E+04 0.  0.
   -9000010    2    1    2    0  501 -0.48264767029E+03 -0.30792840328E+03 -0.81938063203E+03  0.14367346436E+04  0.10320141186E+04 0.  0.
        -13    1    3    3    0    0  0.26206090175E+03 -0.22637267197E+03  0.78929989751E+02  0.35517665645E+03  0.10566000000E+00 0.  1.
         13    1    4    4    0    0  0.10596807435E+03 -0.52786363869E+03 -0.27110002577E+03  0.60279722044E+03  0.10566000000E+00 0. -1.
          4    1    3    3  502    0  0.22058676854E+03  0.53430107525E+03 -0.92901749259E+03  0.10941707650E+04  0.00000000000E+00 0.  1.
         -4    1    4    4    0  501 -0.58861574463E+03  0.21993523541E+03 -0.54828060625E+03  0.83393742319E+03  0.00000000000E+00 0. -1.
</event>
<event>
 8    1  0.7446554E-006  0.1379329E+04  0.7818608E-02  0.8482520E-01
         -2   -1    0    0    0  501 -0.00000000000E+00  0.00000000000E+00  0.14731574007E+04  0.14731574007E+04  0.00000000000E+00 0.  1.
          2   -1    0    0  502    0  0.00000000000E+00 -0.00000000000E+00 -0.13562458613E+04  0.13562458613E+04  0.00000000000E+00 0. -1.
    9000010    2    1    2  502    0  0.71324590124E+03 -0.67890992308E+03 -0.25090733192E+03  0.13859400701E+04  0.94246325626E+03 0.  0.
   -9000010    2    1    2    0  501 -0.71324590124E+03  0.67890992308E+03  0.36781887134E+03  0.14434631919E+04  0.98927087543E+03 0.  0.
        -13    1    3    3    0    0 -0.41367525964E+02  0.16019067074E+03  0.11283378365E+03  0.20025932461E+03  0.10566000000E+00 0.  1.
         13    1    4    4    0    0 -0.33520636633E+02 -0.24385848944E+03  0.10506748147E+03  0.26763740915E+03  0.10566000000E+00 0. -1.
          4    1    3    3  502    0  0.75461342720E+03 -0.83910059381E+03 -0.36374111557E+03  0.11856807455E+04  0.00000000000E+00 0.  1.
         -4    1    4    4    0  501 -0.67972526460E+03  0.92276841252E+03  0.26275138987E+03  0.11758257827E+04  0.00000000000E+00 0. -1.
</event>
<event>
 8    1  0.7446554E-006  0.1112259E+04  0.7818608E-02  0.8675735E-01
          2   -1    0    0  502    0  0.00000000000E+00  0.00000000000E+00  0.13729222143E+04  0.13729222143E+04  0.00000000000E+00 0. -1.
         -2   -1    0    0    0  501 -0.00000000000E+00 -0.00000000000E+00 -0.90342618032E+03  0.90342618032E+03  0.00000000000E+00 0.  1.
    9000010    2    1    2  502    0  0.41274163608E+03 -0.33043166120E+03  0.19055418114E+03  0.11567716917E+04  0.10110732465E+04 0.  0.
   -9000010    2    1    2    0  501 -0.41274163608E+03  0.33043166120E+03  0.27894185288E+03  0.11195767030E+04  0.94662700982E+03 0.  0.
        -13    1    3    3    0    0  0.44814759276E+03  0.27995801133E+03  0.62490001414E+02  0.53208811718E+03  0.10566000000E+00 0.  1.
         13    1    4    4    0    0  0.17180108297E+03  0.41987624975E+03  0.27046519697E+03  0.52816958560E+03  0.10566000000E+00 0. -1.
          4    1    3    3  502    0 -0.35405956685E+02 -0.61038967253E+03  0.12806417972E+03  0.62468357448E+03  0.00000000000E+00 0.  1.
         -4    1    4    4    0  501 -0.58454271905E+03 -0.89444588543E+02  0.84766559106E+01  0.59140711739E+03  0.00000000000E+00 0. -1.
</event>
<event>
 8    1  0.7446554E-006  0.1226571E+04  0.7818608E-02  0.8586818E-01
          1   -1    0    0  502    0  0.00000000000E+00  0.00000000000E+00  0.21714545829E+04  0.21714545829E+04  0.00000000000E+00 0.  1.
         -1   -1    0    0    0  501 -0.00000000000E+00 -0.00000000000E+00 -0.72814708451E+03  0.72814708451E+03  0.00000000000E+00 0. -1.
    9000010    2    1    2  502    0 -0.55825168630E+03 -0.43669224328E+03  0.40285056015E+03  0.12917701657E+04  0.10020162307E+04 0.  0.
   -9000010    2    1    2    0  501  0.55825168630E+03  0.43669224328E+03  0.10404569382E+04  0.16078315017E+04  0.10001132120E+04 0.  0.
        -13    1    3    3    0    0  0.19542912693E+03 -0.24999276432E+03 -0.13746800749E+03  0.34581265175E+03  0.10566000000E+00 0.  1.
         13    1    4    4    0    0  0.54550831308E+03  0.42335285136E+03  0.13673345533E+03  0.70391974356E+03  0.10566000000E+00 0. -1.
          4    1    3    3  502    0 -0.75368081323E+03 -0.18669947896E+03  0.54031856764E+03  0.94595751396E+03  0.00000000000E+00 0.  1.
         -4    1    4    4    0  501  0.12743373220E+02  0.13339391926E+02  0.90372348291E+03  0.90391175814E+03  0.00000000000E+00 0. -1.
</event>
<event>
 8    1  0.7446554E-006  0.1341764E+04  0.7818608E-02  0.8506831E-01
         -2   -1    0    0    0  501 -0.00000000000E+00  0.00000000000E+00  0.84884684538E+03  0.84884684538E+03  0.00000000000E+00 0. -1.
          2   -1    0    0  502    0  0.00000000000E+00 -0.00000000000E+00 -0.22054204162E+04  0.22054204162E+04  0.00000000000E+00 0.  1.
    9000010    2    1    2  502    0  0.92458064765E+03 -0.23391464697E+02 -0.39044132368E+03  0.14176230912E+04  0.10009067223E+04 0.  0.
   -9000010    2    1    2    0  501 -0.92458064765E+03  0.23391464697E+02 -0.96613224715E+03  0.16366441704E+04  0.94329003335E+03 0.  0.
        -13    1    3    3    0    0  0.88379504166E+03  0.83975200726E+02 -0.67207117654E+03  0.11134743767E+04  0.10566000000E+00 0.  1.
         13    1    4    4    0    0 -0.85053934360E+03  0.22949896665E+03 -0.29240767568E+03  0.92821829903E+03  0.10566000000E+00 0. -1.
          4    1    3    3  502    0  0.40785605985E+02 -0.10736666542E+03  0.28162985286E+03  0.30414871449E+03  0.00000000000E+00 0.  1.
         -4    1    4    4    0  501 -0.74041304049E+02 -0.20610750196E+03 -0.67372457147E+03  0.70842587141E+03  0.00000000000E+00 0. -1.
</event>
<event>
 8    1  0.7446554E-006  0.1691125E+04  0.7818608E-02  0.8307266E-01
         -2   -1    0    0    0  501 -0.00000000000E+00  0.00000000000E+00  0.20670420611E+04  0.20670420611E+04  0.00000000000E+00 0.  1.
          2   -1    0    0  502    0  0.00000000000E+00 -0.00000000000E+00 -0.13987310823E+04  0.13987310823E+04  0.00000000000E+00 0. -1.
    9000010    2    1    2  502    0  0.13417137238E+04  0.23624718235E+03  0.51508875247E+03  0.17705962117E+04  0.10068197823E+04 0.  0.
   -9000010    2    1    2    0  501 -0.13417137238E+04 -0.23624718235E+03  0.15322222633E+03  0.16951769317E+04  0.99706535957E+03 0.  0.
        -13    1    3    3    0    0  0.37755806300E+03  0.44099791315E+03 -0.12696841525E+03  0.59426445289E+03  0.10566000000E+00 0.  1.
         13    1    4    4    0    0 -0.11483846070E+03 -0.38116577069E+03  0.22575180692E+03  0.45764517510E+03  0.10566000000E+00 0. -1.
          4    1    3    3  502    0  0.96415566084E+03 -0.20475073080E+03  0.64205716772E+03  0.11763317588E+04  0.00000000000E+00 0.  1.
         -4    1    4    4    0  501 -0.12268752631E+04  0.14491858834E+03 -0.72529580590E+02  0.12375317566E+04  0.00000000000E+00 0. -1.
</event>
<event>
 8    1  0.7446554E-006  0.1173310E+04  0.7818608E-02  0.8626936E-01
         -1   -1    0    0    0  501 -0.00000000000E+00  0.00000000000E+00  0.13253116155E+04  0.13253116155E+04  0.00000000000E+00 0.  1.
          1   -1    0    0  502    0  0.00000000000E+00 -0.00000000000E+00 -0.13233476402E+04  0.13233476402E+04  0.00000000000E+00 0. -1.
    9000010    2    1    2  502    0 -0.45412253921E+03  0.40121518835E+03 -0.61284592808E+03  0.13073758135E+04  0.98308213202E+03 0.  0.
   -9000010    2    1    2    0  501  0.45412253921E+03 -0.40121518835E+03  0.61480990329E+03  0.13412834422E+04  0.10265715499E+04 0.  0.
        -13    1    3    3    0    0 -0.66158214021E+03  0.26312338490E+01 -0.18510161488E+03  0.68699379228E+03  0.10566000000E+00 0.  1.
         13    1    4    4    0    0  0.40501158156E+03 -0.17416909850E+03 -0.20716052245E+03  0.48711882461E+03  0.10566000000E+00 0. -1.
          4    1    3    3  502    0  0.20745960100E+03  0.39858395450E+03 -0.42774431320E+03  0.62038202126E+03  0.00000000000E+00 0.  1.
         -4    1    4    4    0  501  0.49110957657E+02 -0.22704608985E+03  0.82197042574E+03  0.85416461755E+03  0.00000000000E+00 0. -1.
</event>
<event>
 8    1  0.7446554E-006  0.1046285E+04  0.7818608E-02  0.8732277E-01
         -4   -1    0    0    0  501 -0.00000000000E+00  0.00000000000E+00  0.48403617409E+03  0.48403617409E+03  0.00000000000E+00 0. -1.
          4   -1    0    0  502    0  0.00000000000E+00 -0.00000000000E+00 -0.22910301909E+04  0.22910301909E+04  0.00000000000E+00 0.  1.
    9000010    2    1    2  502    0 -0.12239929994E+03 -0.25410772175E+03 -0.10627858913E+04  0.14931590405E+04  0.10101770868E+04 0.  0.
   -9000010    2    1    2    0  501  0.12239929994E+03  0.25410772175E+03 -0.74420812550E+03  0.12819073245E+04  0.10049320035E+04 0.  0.
        -13    1    3    3    0    0 -0.45204703364E+03  0.13654105419E+03 -0.77231670563E+03  0.90524200359E+03  0.10566000000E+00 0.  1.
         13    1    4    4    0    0  0.42430040383E+03 -0.10217731638E+02  0.13357749516E+02  0.42463357776E+03  0.10566000000E+00 0. -1.
          4    1    3    3  502    0  0.32964773370E+03 -0.39064877594E+03 -0.29046918570E+03  0.58791703693E+03  0.00000000000E+00 0.  1.
         -4    1    4    4    0  501 -0.30190110389E+03  0.26432545339E+03 -0.75756587502E+03  0.85727374673E+03  0.00000000000E+00 0. -1.
</event>
<event>
 8    1  0.7446554E-006  0.1038276E+04  0.7818608E-02  0.8739436E-01
          2   -1    0    0  502    0  0.00000000000E+00  0.00000000000E+00  0.15501219763E+04  0.15501219763E+04  0.00000000000E+00 0. -1.
         -2   -1    0    0    0  501 -0.00000000000E+00 -0.00000000000E+00 -0.75902167471E+03  0.75902167471E+03  0.00000000000E+00 0.  1.
    9000010    2    1    2  502    0 -0.99186974316E+02  0.29997259909E+03  0.59478510211E+02  0.10343670350E+04  0.98313572499E+03 0.  0.
   -9000010    2    1    2    0  501  0.99186974316E+02 -0.29997259909E+03  0.73162179136E+03  0.12747766160E+04  0.99496902420E+03 0.  0.
        -13    1    3    3    0    0 -0.22651645987E+03  0.58495557400E+03  0.24250825270E+03  0.67252731836E+03  0.10566000000E+00 0.  1.
         13    1    4    4    0    0 -0.55714355756E+01 -0.55149392767E+03  0.65887230790E+02  0.55544372487E+03  0.10566000000E+00 0. -1.
          4    1    3    3  502    0  0.12732948555E+03 -0.28498297491E+03 -0.18302974249E+03  0.36183971660E+03  0.00000000000E+00 0.  1.
         -4    1    4    4    0  501  0.10475840989E+03  0.25152132858E+03  0.66573456057E+03  0.71933289116E+03  0.00000000000E+00 0. -1.
</event>
<event>
 8    1  0.7446554E-006  0.1546072E+04  0.7818608E-02  0.8383467E-01
          2   -1    0    0  502    0  0.00000000000E+00  0.00000000000E+00  0.29942194448E+04  0.29942194448E+04  0.00000000000E+00 0.  1.
         -2   -1    0    0    0  501 -0.00000000000E+00 -0.00000000000E+00 -0.80049215209E+03  0.80049215209E+03  0.00000000000E+00 0. -1.
    9000010    2    1    2  502    0  0.10615788315E+04 -0.51474454337E+03  0.11952544594E+04  0.19536729850E+04  0.99814495402E+03 0.  0.
   -9000010    2    1    2    0  501 -0.10615788315E+04  0.51474454337E+03  0.99847283337E+03  0.18410386119E+04  0.10002817658E+04 0.  0.
        -13    1    3    3    0    0  0.87878124843E+03 -0.69804741203E+03  0.53260793506E+03  0.12422551653E+04  0.10566000000E+00 0.  1.
         13    1    4    4    0    0 -0.57230697011E+03  0.26899851162E+03  0.11144555148E+04  0.12813690229E+04  0.10566000000E+00 0. -1.
          4    1    3    3  502    0  0.18279758310E+03  0.18330286865E+03  0.66264652430E+03  0.71141781972E+03  0.00000000000E+00 0.  1.
         -4    1    4    4    0  501 -0.48927186142E+03  0.24574603175E+03 -0.11598268138E+03  0.55966958903E+03  0.00000000000E+00 0. -1.
</event>
<event>
 8    1  0.7446554E-006  0.1110388E+04  0.7818608E-02  0.8677282E-01
          1   -1    0    0  502    0  0.00000000000E+00  0.00000000000E+00  0.10355979701E+04  0.10355979701E+04  0.00000000000E+00 0. -1.
         -1   -1    0    0    0  501 -0.00000000000E+00 -0.00000000000E+00 -0.19094721827E+04  0.19094721827E+04  0.00000000000E+00 0.  1.
    9000010    2    1    2  502    0  0.40688035068E+03  0.23878683777E+03 -0.13403587015E+04  0.17402772128E+04  0.10047052081E+04 0.  0.
   -9000010    2    1    2    0  501 -0.40688035068E+03 -0.23878683777E+03  0.46648448886E+03  0.12047929400E+04  0.10056577331E+04 0.  0.
        -13    1    3    3    0    0  0.31445005809E+03 -0.45177431454E+02  0.47005094481E+02  0.32113755529E+03  0.10566000000E+00 0.  1.
         13    1    4    4    0    0 -0.29499015120E+03 -0.60961266697E+03  0.45762328064E+03  0.81735296609E+03  0.10566000000E+00 0. -1.
          4    1    3    3  502    0  0.92430292590E+02  0.28396426923E+03 -0.13873637960E+04  0.14191396575E+04  0.00000000000E+00 0.  1.
         -4    1    4    4    0  501 -0.11189019948E+03  0.37082582920E+03  0.88612082213E+01  0.38743997387E+03  0.00000000000E+00 0. -1.
</event>
<event>
 8    1  0.7446554E-006  0.1163234E+04  0.7818608E-02  0.8634774E-01
          2   -1    0    0  502    0  0.00000000000E+00  0.00000000000E+00  0.22549173719E+04  0.22549173719E+04  0.00000000000E+00 0.  1.
         -2   -1    0    0    0  501 -0.00000000000E+00 -0.00000000000E+00 -0.61307406943E+03  0.61307406943E+03  0.00000000000E+00 0. -1.
    9000010    2    1    2  502    0 -0.42302222616E+03  0.39685794564E+03  0.10194286984E+04  0.15363427240E+04  0.99230542767E+03 0.  0.
   -9000010    2    1    2    0  501  0.42302222616E+03 -0.39685794564E+03  0.62241460407E+03  0.13316487173E+04  0.10244239035E+04 0.  0.
        -13    1    3    3    0    0 -0.64443506624E+03  0.56704892237E+03  0.85850226795E+03  0.12140293202E+04  0.10566000000E+00 0.  1.
         13    1    4    4    0    0 -0.23364282963E+03 -0.46108675805E+03  0.29336612216E+03  0.59435146427E+03  0.10566000000E+00 0. -1.
          4    1    3    3  502    0  0.22141284008E+03 -0.17019097673E+03  0.16092643041E+03  0.32231340387E+03  0.00000000000E+00 0.  1.
         -4    1    4    4    0  501  0.65666505579E+03  0.64228812407E+02  0.32904848191E+03  0.73729725301E+03  0.00000000000E+00 0. -1.
</event>
<event>
 8    1  0.7446554E-006  0.1843848E+04  0.7818608E-02  0.8235112E-01
          1   -1    0    0  502    0  0.00000000000E+00  0.00000000000E+00  0.11632608193E+04  0.11632608193E+04  0.00000000000E+00 0. -1.
         -1   -1    0    0    0  501 -0.00000000000E+00 -0.00000000000E+00 -0.29253339185E+04  0.29253339185E+04  0.00000000000E+00 0.  1.
    9000010    2    1    2  502    0  0.13004668000E+04 -0.83241310558E+03 -0.81759172031E+03  0.20144998504E+04  0.10028100269E+04 0.  0.
   -9000010    2    1    2    0  501 -0.13004668000E+04  0.83241310558E+03 -0.94448137886E+03  0.20740948873E+04  0.10127680141E+04 0.  0.
        -13    1    3    3    0    0  0.13244184469E+04 -0.36597979836E+03 -0.60551771300E+03  0.15015582397E+04  0.10566000000E+00 0.  1.
         13    1    4    4    0    0 -0.84501730746E+03  0.16496758434E+03 -0.40934716887E+02  0.86194211870E+03  0.10566000000E+00 0. -1.
          4    1    3    3  502    0 -0.23951646876E+02 -0.46643330722E+03 -0.21207400730E+03  0.51294161076E+03  0.00000000000E+00 0.  1.
         -4    1    4    4    0  501 -0.45544949255E+03  0.66744552124E+03 -0.90354666197E+03  0.12121527686E+04  0.00000000000E+00 0. -1.
</event>
<event>
 8    1  0.7446554E-006  0.1189390E+04  0.7818608E-02  0.8614595E-01
          1   -1    0    0  502    0  0.00000000000E+00  0.00000000000E+00  0.16627112190E+04  0.16627112190E+04  0.00000000000E+00 0. -1.
         -1   -1    0    0    0  501 -0.00000000000E+00 -0.00000000000E+00 -0.93132818338E+03  0.93132818338E+03  0.00000000000E+00 0.  1.
    9000010    2    1    2  502    0 -0.32042106725E+03  0.56154707202E+03 -0.15079452033E+02  0.11915972348E+04  0.10008355538E+04 0.  0.
   -9000010    2    1    2    0  501  0.32042106725E+03 -0.56154707202E+03  0.74646248768E+03  0.14024421676E+04  0.99580771913E+03 0.  0.
        -13    1    3    3    0    0 -0.18464697176E+03  0.62442129069E+03  0.39052132048E+03  0.75927818708E+03  0.10566000000E+00 0.  1.
         13    1    4    4    0    0  0.38667757956E+03  0.18389846909E+03  0.36400353643E+03  0.56199357929E+03  0.10566000000E+00 0. -1.
          4    1    3    3  502    0 -0.13577409549E+03 -0.62874218672E+02 -0.40560077252E+03  0.43231904775E+03  0.00000000000E+00 0.  1.
         -4    1    4    4    0  501 -0.66256512313E+02 -0.74544554111E+03  0.38245895125E+03  0.84044858830E+03  0.00000000000E+00 0. -1.
</event>
<event>
 8    1  0.7446554E-006  0.1248107E+04  0.7818608E-02  0.8571191E-01
          2   -1    0    0  502    0  0.00000000000E+00  0.00000000000E+00  0.20997647351E+04  0.20997647351E+04  0.00000000000E+00 0. -1.
         -2   -1    0    0    0  501 -0.00000000000E+00 -0.00000000000E+00 -0.10211743409E+04  0.10211743409E+04  0.00000000000E+00 0.  1.
    9000010    2    1    2  502    0  0.46299685449E+03  0.49716559804E+03  0.13434077807E+04  0.18105809412E+04  0.10059419268E+04 0.  0.
   -9000010    2    1    2    0  501 -0.46299685449E+03 -0.49716559804E+03 -0.26481738649E+03  0.13103581348E+04  0.10887472039E+04 0.  0.
        -13    1    3    3    0    0  0.24737783410E+03  0.63097457050E+03  0.13956419038E+04  0.15514963861E+04  0.10566000000E+00 0.  1.
         13    1    4    4    0    0 -0.71581442276E+03 -0.65501420569E+03 -0.11588555545E+03  0.97717110611E+03  0.10566000000E+00 0. -1.
          4    1    3    3  502    0  0.21561902039E+03 -0.13380897246E+03 -0.52234123048E+02  0.25908455507E+03  0.00000000000E+00 0.  1.
         -4    1    4    4    0  501  0.25281756828E+03  0.15784860765E+03 -0.14893183104E+03  0.33318702865E+03  0.00000000000E+00 0. -1.
</event>
<event>
 8    1  0.7446554E-006  0.1573231E+04  0.7818608E-02  0.8368558E-01
         -2   -1    0    0    0  501 -0.00000000000E+00  0.00000000000E+00  0.12804715029E+04  0.12804715029E+04  0.00000000000E+00 0.  1.
          2   -1    0    0  502    0  0.00000000000E+00 -0.00000000000E+00 -0.21519715913E+04  0.21519715913E+04  0.00000000000E+00 0. -1.
    9000010    2    1    2  502    0 -0.92205794633E+03 -0.81670984918E+03  0.11578102582E+03  0.15603344542E+04  0.95080625205E+03 0.  0.
   -9000010    2    1    2    0  501  0.92205794633E+03  0.81670984918E+03 -0.98728111416E+03  0.18721086400E+04  0.10064099202E+04 0.  0.
        -13    1    3    3    0    0  0.28155261902E+01 -0.10889837276E+03  0.35503604765E+03  0.37137230520E+03  0.10566000000E+00 0.  1.
         13    1    4    4    0    0  0.10419934522E+04  0.41580948433E+03 -0.91444179881E+03  0.14473602510E+04  0.10566000000E+00 0. -1.
          4    1    3    3  502    0 -0.92487347252E+03 -0.70781147643E+03 -0.23925502182E+03  0.11889621490E+04  0.00000000000E+00 0.  1.
         -4    1    4    4    0  501 -0.11993550583E+03  0.40090036485E+03 -0.72839315356E+02  0.42474838900E+03  0.00000000000E+00 0. -1.
</event>
<event>
 8    1  0.7446554E-006  0.1254323E+04  0.7818608E-02  0.8566741E-01
          2   -1    0    0  502    0  0.00000000000E+00  0.00000000000E+00  0.30953644017E+04  0.30953644017E+04  0.00000000000E+00 0. -1.
         -2   -1    0    0    0  501 -0.00000000000E+00 -0.00000000000E+00 -0.52789532619E+03  0.52789532619E+03  0.00000000000E+00 0.  1.
    9000010    2    1    2  502    0  0.98941139486E+02 -0.80566675770E+03  0.96928362825E+03  0.16110375385E+04  0.99852036787E+03 0.  0.
   -9000010    2    1    2    0  501 -0.98941139486E+02  0.80566675770E+03  0.15981854472E+04  0.20122221893E+04  0.91430473141E+03 0.  0.
        -13    1    3    3    0    0  0.19745060590E+03 -0.91281695261E+03  0.38716601336E+03  0.10109990424E+04  0.10566000000E+00 0.  1.
         13    1    4    4    0    0  0.20053478702E+03  0.17362012906E+03 -0.26557891275E+01  0.26526442355E+03  0.10566000000E+00 0. -1.
          4    1    3    3  502    0 -0.98509466413E+02  0.10715019491E+03  0.58211761489E+03  0.60003849610E+03  0.00000000000E+00 0.  1.
         -4    1    4    4    0  501 -0.29947592651E+03  0.63204662865E+03  0.16008412364E+04  0.17469577658E+04  0.00000000000E+00 0. -1.
</event>
<event>
 8    1  0.7446554E-006  0.1103434E+04  0.7818608E-02  0.8683058E-01
          2   -1    0    0  502    0  0.00000000000E+00  0.00000000000E+00  0.13439594824E+04  0.13439594824E+04  0.00000000000E+00 0. -1.
         -2   -1    0    0    0  501 -0.00000000000E+00 -0.00000000000E+00 -0.10610600519E+04  0.10610600519E+04  0.00000000000E+00 0.  1.
    9000010    2    1    2  502    0 -0.35924183005E+03 -0.26210316045E+03  0.60122106166E+03  0.12566717183E+04  0.10099526145E+04 0.  0.
   -9000010    2    1    2    0  501  0.35924183005E+03  0.26210316045E+03 -0.31832163121E+03  0.11483478159E+04  0.10097629852E+04 0.  0.
        -13    1    3    3    0    0 -0.37461897551E+03 -0.62881986986E+03  0.45327952932E+03  0.86093910842E+03  0.10566000000E+00 0.  1.
         13    1    4    4    0    0 -0.38440924473E+02 -0.21751338050E+03 -0.45921099555E+03  0.50957288484E+03  0.10566000000E+00 0. -1.
          4    1    3    3  502    0  0.15377145463E+02  0.36671670940E+03  0.14794153234E+03  0.39573260991E+03  0.00000000000E+00 0.  1.
         -4    1    4    4    0  501  0.39768275452E+03  0.47961654096E+03  0.14088936434E+03  0.63877493109E+03  0.00000000000E+00 0. -1.
</event>
<event>
 8    1  0.7446554E-006  0.1280658E+04  0.7818608E-02  0.8548180E-01
          2   -1    0    0  502    0  0.00000000000E+00  0.00000000000E+00  0.40194404822E+04  0.40194404822E+04  0.00000000000E+00 0.  1.
         -2   -1    0    0    0  501 -0.00000000000E+00 -0.00000000000E+00 -0.41060325771E+03  0.41060325771E+03  0.00000000000E+00 0. -1.
    9000010    2    1    2  502    0 -0.54775624144E+03  0.57391784298E+03  0.16286322146E+04  0.20715236316E+04  0.10046634636E+04 0.  0.
   -9000010    2    1    2    0  501  0.54775624144E+03 -0.57391784298E+03  0.19802050098E+04  0.23585201083E+04  0.10059754618E+04 0.  0.
        -13    1    3    3    0    0  0.27018107860E+03  0.11051881188E+03  0.17485817720E+03  0.34027579448E+03  0.10566000000E+00 0.  1.
         13    1    4    4    0    0  0.40111427722E+03 -0.62065103404E+03  0.20575769910E+04  0.21862578655E+04  0.10566000000E+00 0. -1.
          4    1    3    3  502    0 -0.81793732004E+03  0.46339903110E+03  0.14537740374E+04  0.17312478371E+04  0.00000000000E+00 0.  1.
         -4    1    4    4    0  501  0.14664196422E+03  0.46733191064E+02 -0.77371981178E+02  0.17226224279E+03  0.00000000000E+00 0. -1.
</event>
<event>
 8    1  0.7446554E-006  0.1632880E+04  0.7818608E-02  0.8336879E-01
          2   -1    0    0  502    0  0.00000000000E+00  0.00000000000E+00  0.37124321122E+04  0.37124321122E+04  0.00000000000E+00 0. -1.
         -2   -1    0    0    0  501 -0.00000000000E+00 -0.00000000000E+00 -0.71858040396E+03  0.71858040396E+03  0.00000000000E+00 0.  1.
    9000010    2    1    2  502    0 -0.58917005842E+03 -0.11535961095E+04  0.15455714592E+04  0.22469592393E+04  0.99102439236E+03 0.  0.
   -9000010    2    1    2    0  501  0.58917005842E+03  0.11535961095E+04  0.14482802491E+04  0.21840532769E+04  0.99733028369E+03 0.  0.
        -13    1    3    3    0    0 -0.76291413017E+03 -0.11824333303E+04  0.15158823921E+04  0.20683534486E+04  0.10566000000E+00 0.  1.
         13    1    4    4    0    0  0.70343645694E+03  0.10032419802E+04  0.69753251873E+03  0.14099180634E+04  0.10566000000E+00 0. -1.
          4    1    3    3  502    0  0.17374407174E+03  0.28837220845E+02  0.29689067115E+02  0.17860579072E+03  0.00000000000E+00 0.  1.
         -4    1    4    4    0  501 -0.11426639852E+03  0.15035412929E+03  0.75074773039E+03  0.77413521345E+03  0.00000000000E+00 0. -1.
</event>
<event>
 8    1  0.7446554E-006  0.1277090E+04  0.7818608E-02  0.8550668E-01
          2   -1    0    0  502    0  0.00000000000E+00  0.00000000000E+00  0.36990571833E+04  0.36990571833E+04  0.00000000000E+00 0. -1.
         -2   -1    0    0    0  501 -0.00000000000E+00 -0.00000000000E+00 -0.52824603851E+03  0.52824603851E+03  0.00000000000E+00 0.  1.
    9000010    2    1    2  502    0 -0.69056988469E+03  0.37943870685E+03  0.70840975764E+03  0.14453155091E+04  0.98297102615E+03 0.  0.
   -9000010    2    1    2    0  501  0.69056988469E+03 -0.37943870685E+03  0.24624013872E+04  0.27819877127E+04  0.10272168925E+04 0.  0.
        -13    1    3    3    0    0 -0.21310069005E+03  0.98267561861E+02  0.84303725502E+03  0.87508870541E+03  0.10566000000E+00 0.  1.
         13    1    4    4    0    0 -0.22144683860E+02  0.30194241760E+03  0.47222857625E+03  0.56094513989E+03  0.10566000000E+00 0. -1.
          4    1    3    3  502    0 -0.47746919464E+03  0.28117114499E+03 -0.13462749738E+03  0.57022680370E+03  0.00000000000E+00 0.  1.
         -4    1    4    4    0  501  0.71271456855E+03 -0.68138112445E+03  0.19901728109E+04  0.22210425728E+04  0.00000000000E+00 0. -1.
</event>
<event>
 8    1  0.7446554E-006  0.1546548E+04  0.7818608E-02  0.8383203E-01
         -2   -1    0    0    0  501 -0.00000000000E+00  0.00000000000E+00  0.16572611456E+04  0.16572611456E+04  0.00000000000E+00 0. -1.
          2   -1    0    0  502    0  0.00000000000E+00 -0.00000000000E+00 -0.15011314772E+04  0.15011314772E+04  0.00000000000E+00 0.  1.
    9000010    2    1    2  502    0  0.11683426035E+04  0.44206173754E+02 -0.23180418325E+03  0.15686962826E+04  0.10198510787E+04 0.  0.
   -9000010    2    1    2    0  501 -0.11683426035E+04 -0.44206173754E+02  0.38793385167E+03  0.15896963402E+04  0.10048199619E+04 0.  0.
        -13    1    3    3    0    0  0.11773684876E+04 -0.11996721703E+03 -0.47491969503E+03  0.12752009319E+04  0.10566000000E+00 0.  1.
         13    1    4    4    0    0 -0.66875545062E+03 -0.50321016573E+03  0.68230304318E+02  0.83970810954E+03  0.10566000000E+00 0. -1.
          4    1    3    3  502    0 -0.90258840924E+01  0.16417339078E+03  0.24311551178E+03  0.29349535072E+03  0.00000000000E+00 0.  1.
         -4    1    4    4    0  501 -0.49958715288E+03  0.45900399197E+03  0.31970354735E+03  0.74998823068E+03  0.00000000000E+00 0. -1.
</event>
<event>
 8    1  0.7446554E-006  0.1360877E+04  0.7818608E-02  0.8494361E-01
         -2   -1    0    0    0  501 -0.00000000000E+00  0.00000000000E+00  0.13061358743E+04  0.13061358743E+04  0.00000000000E+00 0.  1.
          2   -1    0    0  502    0  0.00000000000E+00 -0.00000000000E+00 -0.14426833338E+04  0.14426833338E+04  0.00000000000E+00 0. -1.
    9000010    2    1    2  502    0 -0.90466091167E+03  0.25157608111E+03  0.11202505716E+03  0.13550485387E+04  0.97051792307E+03 0.  0.
   -9000010    2    1    2    0  501  0.90466091167E+03 -0.25157608111E+03 -0.24857251662E+03  0.13937706694E+04  0.99955314680E+03 0.  0.
        -13    1    3    3    0    0  0.16768939870E+03  0.51917360468E+02 -0.15263474819E+03  0.23262098846E+03  0.10566000000E+00 0.  1.
         13    1    4    4    0    0 -0.19297232057E+03 -0.12325771943E+03 -0.17130328198E+03  0.28596434653E+03  0.10566000000E+00 0. -1.
          4    1    3    3  502    0 -0.10723503104E+04  0.19965872064E+03  0.26465980535E+03  0.11224275502E+04  0.00000000000E+00 0.  1.
         -4    1    4    4    0  501  0.10976332322E+04 -0.12831836168E+03 -0.77269234637E+02  0.11078063229E+04  0.00000000000E+00 0. -1.
</event>
<event>
 8    1  0.7446554E-006  0.1212313E+04  0.7818608E-02  0.8597347E-01
          2   -1    0    0  502    0  0.00000000000E+00  0.00000000000E+00  0.12704967815E+04  0.12704967815E+04  0.00000000000E+00 0.  1.
         -2   -1    0    0    0  501 -0.00000000000E+00 -0.00000000000E+00 -0.14161892090E+04  0.14161892090E+04  0.00000000000E+00 0. -1.
    9000010    2    1    2  502    0  0.17987663755E+03  0.64430056418E+03  0.50234789431E+03  0.13063061737E+04  0.10032963623E+04 0.  0.
   -9000010    2    1    2    0  501 -0.17987663755E+03 -0.64430056418E+03 -0.64804032183E+03  0.13803798168E+04  0.10188294058E+04 0.  0.
        -13    1    3    3    0    0 -0.32223179747E+02  0.85240235902E+03  0.18748361005E+03  0.87337175943E+03  0.10566000000E+00 0.  1.
         13    1    4    4    0    0 -0.47676876468E+03 -0.38761752456E+03 -0.75515433892E+03  0.97355733631E+03  0.10566000000E+00 0. -1.
          4    1    3    3  502    0  0.21209981730E+03 -0.20810179484E+03  0.31486428427E+03  0.43293441422E+03  0.00000000000E+00 0.  1.
         -4    1    4    4    0  501  0.29689212713E+03 -0.25668303962E+03  0.10711401709E+03  0.40682248050E+03  0.00000000000E+00 0. -1.
</event>
<event>
 8    1  0.7446554E-006  0.1294568E+04  0.7818608E-02  0.8538561E-01
         -1   -1    0    0    0  501 -0.00000000000E+00  0.00000000000E+00  0.14570402692E+04  0.14570402692E+04  0.00000000000E+00 0. -1.
          1   -1    0    0  502    0  0.00000000000E+00 -0.00000000000E+00 -0.14269035643E+04  0.14269035643E+04  0.00000000000E+00 0.  1.
    9000010    2    1    2  502    0  0.57265798813E+03 -0.60700659648E+03 -0.61985813912E+03  0.14386937585E+04  0.99459611839E+03 0.  0.
   -9000010    2    1    2    0  501 -0.57265798813E+03  0.60700659648E+03  0.64999484399E+03  0.14452500750E+04  0.98481485698E+03 0.  0.
        -13    1    3    3    0    0  0.19863513503E+03 -0.37933835411E+03  0.22750644214E+03  0.48488420901E+03  0.10566000000E+00 0.  1.
         13    1    4    4    0    0 -0.46099466214E+03  0.90842086362E+02 -0.14420890007E+03  0.49149219852E+03  0.10566000000E+00 0. -1.
          4    1    3    3  502    0  0.37402285310E+03 -0.22766824236E+03 -0.84736458125E+03  0.95380954954E+03  0.00000000000E+00 0.  1.
         -4    1    4    4    0  501 -0.11166332599E+03  0.51616451011E+03  0.79420374406E+03  0.95375787648E+03  0.00000000000E+00 0. -1.
</event>
<event>
 8    1  0.7446554E-006  0.1443658E+04  0.7818608E-02  0.8442681E-01
          4   -1    0    0  502    0  0.00000000000E+00  0.00000000000E+00  0.21504178822E+04  0.21504178822E+04  0.00000000000E+00 0. -1.
         -4   -1    0    0    0  501 -0.00000000000E+00 -0.00000000000E+00 -0.10001643165E+04  0.10001643165E+04  0.00000000000E+00 0.  1.
    9000010    2    1    2  502    0  0.10135796231E+04  0.15148642040E+03  0.85728510675E+03  0.16909172408E+04  0.10363259974E+04 0.  0.
   -9000010    2    1    2    0  501 -0.10135796231E+04 -0.15148642040E+03  0.29296845892E+03  0.14596649580E+04  0.99724594943E+03 0.  0.
        -13    1    3    3    0    0  0.14913709077E+03 -0.19977667902E+03  0.70205851522E+03  0.74500923705E+03  0.10566000000E+00 0.  1.
         13    1    4    4    0    0 -0.48006552283E+03 -0.53674329514E+02  0.65033801272E+03  0.81011319074E+03  0.10566000000E+00 0. -1.
          4    1    3    3  502    0  0.86444253236E+03  0.35126309942E+03  0.15522659152E+03  0.94590800371E+03  0.00000000000E+00 0.  1.
         -4    1    4    4    0  501 -0.53351410030E+03 -0.97812090881E+02 -0.35736955380E+03  0.64955176725E+03  0.00000000000E+00 0. -1.
</event>
<event>
 8    1  0.7446554E-006  0.1314647E+04  0.7818608E-02  0.8524894E-01
          1   -1    0    0  502    0  0.00000000000E+00  0.00000000000E+00  0.18190750269E+04  0.18190750269E+04  0.00000000000E+00 0.  1.
         -1   -1    0    0    0  501 -0.00000000000E+00 -0.00000000000E+00 -0.96517984333E+03  0.96517984333E+03  0.00000000000E+00 0. -1.
    9000010    2    1    2  502    0  0.38033039382E+03  0.76664563786E+03  0.25372343443E+03  0.13413219632E+04  0.10011854400E+04 0.  0.
   -9000010    2    1    2    0  501 -0.38033039382E+03 -0.76664563786E+03  0.60017174918E+03  0.14429329071E+04  0.99471227164E+03 0.  0.
        -13    1    3    3    0    0  0.24423404910E+02  0.36050337646E+03  0.59958281828E+03  0.70004196609E+03  0.10566000000E+00 0.  1.
         13    1    4    4    0    0  0.56832496725E+02 -0.78775707833E+03  0.62109047205E+03  0.10047609331E+04  0.10566000000E+00 0. -1.
          4    1    3    3  502    0  0.35590698891E+03  0.40614226140E+03 -0.34585938386E+03  0.64127999707E+03  0.00000000000E+00 0.  1.
         -4    1    4    4    0  501 -0.43716289054E+03  0.21111440476E+02 -0.20918722865E+02  0.43817197395E+03  0.00000000000E+00 0. -1.
</event>
<event>
 8    1  0.7446554E-006  0.1124936E+04  0.7818608E-02  0.8665337E-01
          2   -1    0    0  502    0  0.00000000000E+00  0.00000000000E+00  0.22918131957E+04  0.22918131957E+04  0.00000000000E+00 0. -1.
         -2   -1    0    0    0  501 -0.00000000000E+00 -0.00000000000E+00 -0.55365679754E+03  0.55365679754E+03  0.00000000000E+00 0.  1.
    9000010    2    1    2  502    0  0.48428780486E+03  0.14920667413E+03  0.94422170367E+03  0.14702649926E+04  0.10066415514E+04 0.  0.
   -9000010    2    1    2    0  501 -0.48428780486E+03 -0.14920667413E+03  0.79393469446E+03  0.13752050007E+04  0.10020275372E+04 0.  0.
        -13    1    3    3    0    0  0.37981192890E+01 -0.39219422414E+03  0.23696797833E+03  0.45824073266E+03  0.10566000000E+00 0.  1.
         13    1    4    4    0    0  0.89218983381E+02  0.35081246465E+03  0.25167526998E+03  0.44087397862E+03  0.10566000000E+00 0. -1.
          4    1    3    3  502    0  0.48048968557E+03  0.54140089826E+03  0.70725372535E+03  0.10120242599E+04  0.00000000000E+00 0.  1.
         -4    1    4    4    0  501 -0.57350678824E+03 -0.50001913877E+03  0.54225942448E+03  0.93433102203E+03  0.00000000000E+00 0. -1.
</event>
<event>
 8    1  0.7446554E-006  0.1132626E+04  0.7818608E-02  0.8659100E-01
         -4   -1    0    0    0  501 -0.00000000000E+00  0.00000000000E+00  0.17941956511E+04  0.17941956511E+04  0.00000000000E+00 0. -1.
          4   -1    0    0  502    0  0.00000000000E+00 -0.00000000000E+00 -0.78823645821E+03  0.78823645821E+03  0.00000000000E+00 0.  1.
    9000010    2    1    2  502    0 -0.48920018230E+03 -0.26307029588E+03  0.11647391351E+03  0.11551215702E+04  0.10060898918E+04 0.  0.
   -9000010    2    1    2    0  501  0.48920018230E+03  0.26307029588E+03  0.88948527938E+03  0.14273105391E+04  0.96825023311E+03 0.  0.
        -13    1    3    3    0    0 -0.30993816835E+03  0.18171693875E+03  0.44641061864E+03  0.57303155727E+03  0.10566000000E+00 0.  1.
         13    1    4    4    0    0  0.71872582914E+03  0.41763487449E+03  0.73936631668E+03  0.11124964123E+04  0.10566000000E+00 0. -1.
          4    1    3    3  502    0 -0.17926201395E+03 -0.44478723463E+03 -0.32993670513E+03  0.58209001291E+03  0.00000000000E+00 0.  1.
         -4    1    4    4    0  501 -0.22952564684E+03 -0.15456457861E+03  0.15011896270E+03  0.31481412688E+03  0.00000000000E+00 0. -1.
</event>
<event>
 8    1  0.7446554E-006  0.1398001E+04  0.7818608E-02  0.8470731E-01
          2   -1    0    0  502    0  0.00000000000E+00  0.00000000000E+00  0.40230276108E+04  0.40230276108E+04  0.00000000000E+00 0.  1.
         -2   -1    0    0    0  501 -0.00000000000E+00 -0.00000000000E+00 -0.49188828384E+03  0.49188828384E+03  0.00000000000E+00 0. -1.
    9000010    2    1    2  502    0  0.73311609908E+03 -0.65153613796E+03  0.15087980706E+04  0.20537356431E+04  0.98964636111E+03 0.  0.
   -9000010    2    1    2    0  501 -0.73311609908E+03  0.65153613796E+03  0.20223412564E+04  0.24611802516E+04  0.10027888710E+04 0.  0.
        -13    1    3    3    0    0  0.93836836515E+03 -0.61982188937E+03  0.10027461751E+04  0.15067230223E+04  0.10566000000E+00 0.  1.
         13    1    4    4    0    0 -0.95248695179E+03  0.65706276633E+03  0.14987684089E+04  0.18934808230E+04  0.10566000000E+00 0. -1.
          4    1    3    3  502    0 -0.20525226607E+03 -0.31714248586E+02  0.50605189555E+03  0.54701262076E+03  0.00000000000E+00 0.  1.
         -4    1    4    4    0  501  0.21937085271E+03 -0.55266283762E+01  0.52357284746E+03  0.56769942860E+03  0.00000000000E+00 0. -1.
</event>
<event>
 8    1  0.7446554E-006  0.1231660E+04  0.7818608E-02  0.8583095E-01
         -1   -1    0    0    0  501 -0.00000000000E+00  0.00000000000E+00  0.26166716075E+04  0.26166716075E+04  0.00000000000E+00 0.  1.
          1   -1    0    0  502    0  0.00000000000E+00 -0.00000000000E+00 -0.58009498136E+03  0.58009498136E+03  0.00000000000E+00 0. -1.
    9000010    2    1    2  502    0  0.46353146090E+02 -0.72542200425E+03  0.10600574916E+04  0.16272001616E+04  0.99783404538E+03 0.  0.
   -9000010    2    1    2    0  501 -0.46353146090E+02  0.72542200425E+03  0.97651913455E+03  0.15695664272E+04  0.99073884096E+03 0.  0.
        -13    1    3    3    0    0 -0.97884517471E+02  0.20979113079E+03  0.43608155298E+03  0.49372140863E+03  0.10566000000E+00 0.  1.
         13    1    4    4    0    0 -0.40571256997E+03  0.24435733470E+03  0.82337998736E+03  0.94987778751E+03  0.10566000000E+00 0. -1.
          4    1    3    3  502    0  0.14423766356E+03 -0.93521313505E+03  0.62397593863E+03  0.11334787530E+04  0.00000000000E+00 0.  1.
         -4    1    4    4    0  501  0.35935942388E+03  0.48106466955E+03  0.15313914719E+03  0.61968863974E+03  0.00000000000E+00 0. -1.
</event>
<event>
 8    1  0.7446554E-006  0.1253530E+04  0.7818608E-02  0.8567307E-01
         -2   -1    0    0    0  501 -0.00000000000E+00  0.00000000000E+00  0.59333847464E+03  0.59333847464E+03  0.00000000000E+00 0. -1.
          2   -1    0    0  502    0  0.00000000000E+00 -0.00000000000E+00 -0.33954623421E+04  0.33954623421E+04  0.00000000000E+00 0.  1.
    9000010    2    1    2  502    0 -0.68635185768E+03 -0.32358473566E+03 -0.23386215424E+04  0.26544823039E+04  0.10006695908E+04 0.  0.
   -9000010    2    1    2    0  501  0.68635185768E+03  0.32358473566E+03 -0.46350232510E+03  0.13343185128E+04  0.99487965832E+03 0.  0.
        -13    1    3    3    0    0  0.15872966066E+03 -0.33103843761E+03 -0.41912497602E+03  0.55717798685E+03  0.10566000000E+00 0.  1.
         13    1    4    4    0    0 -0.15988947410E+03  0.89138927869E+02 -0.41648973908E+03  0.45494406944E+03  0.10566000000E+00 0. -1.
          4    1    3    3  502    0 -0.84508151834E+03  0.74537019461E+01 -0.19194965663E+04  0.20973043171E+04  0.00000000000E+00 0.  1.
         -4    1    4    4    0  501  0.84624133178E+03  0.23444580779E+03 -0.47012586023E+02  0.87937444337E+03  0.00000000000E+00 0. -1.
</event>
<event>
 8    1  0.7446554E-006  0.1334018E+04  0.7818608E-02  0.8511946E-01
         -2   -1    0    0    0  501 -0.00000000000E+00  0.00000000000E+00  0.12009201973E+04  0.12009201973E+04  0.00000000000E+00 0. -1.
          2   -1    0    0  502    0  0.00000000000E+00 -0.00000000000E+00 -0.16436760234E+04  0.16436760234E+04  0.00000000000E+00 0.  1.
    9000010    2    1    2  502    0  0.87068359943E+03 -0.20092610928E+03  0.22497524249E+03  0.13522136082E+04  0.98964971114E+03 0.  0.
   -9000010    2    1    2    0  501 -0.87068359943E+03  0.20092610928E+03 -0.66773106864E+03  0.14923826125E+04  0.99140297073E+03 0.  0.
        -13    1    3    3    0    0  0.13569655774E+03  0.28159980270E+03 -0.20466338581E+03  0.37362965262E+03  0.10566000000E+00 0.  1.
         13    1    4    4    0    0 -0.38462617246E+03 -0.39559321580E+03 -0.38418125474E+03  0.67232918469E+03  0.10566000000E+00 0. -1.
          4    1    3    3  502    0  0.73498704169E+03 -0.48252591198E+03  0.42963862830E+03  0.97858395558E+03  0.00000000000E+00 0.  1.
         -4    1    4    4    0  501 -0.48605742698E+03  0.59651932508E+03 -0.28354981390E+03  0.82005342782E+03  0.00000000000E+00 0. -1.
</event>
<event>
 8    1  0.7446554E-006  0.1198292E+04  0.7818608E-02  0.8607849E-01
          2   -1    0    0  502    0  0.00000000000E+00  0.00000000000E+00  0.14169970056E+04  0.14169970056E+04  0.00000000000E+00 0.  1.
         -2   -1    0    0    0  501 -0.00000000000E+00 -0.00000000000E+00 -0.10611898944E+04  0.10611898944E+04  0.00000000000E+00 0. -1.
    9000010    2    1    2  502    0  0.31197266402E+03  0.55827906567E+03 -0.83267243900E+02  0.12129129148E+04  0.10272399168E+04 0.  0.
   -9000010    2    1    2    0  501 -0.31197266402E+03 -0.55827906567E+03  0.43907435511E+03  0.12652739852E+04  0.99956466030E+03 0.  0.
        -13    1    3    3    0    0 -0.19090152571E+03  0.61177554878E+03  0.14658074115E+03  0.65741816179E+03  0.10566000000E+00 0.  1.
         13    1    4    4    0    0 -0.52049467320E+03 -0.59855925091E+03  0.17706927010E+02  0.79341126039E+03  0.10566000000E+00 0. -1.
          4    1    3    3  502    0  0.50287418973E+03 -0.53496483112E+02 -0.22984798505E+03  0.55549475302E+03  0.00000000000E+00 0.  1.
         -4    1    4    4    0  501  0.20852200918E+03  0.40280185241E+02  0.42136742810E+03  0.47186272484E+03  0.00000000000E+00 0. -1.
</event>
<event>
 8    1  0.7446554E-006  0.1103008E+04  0.7818608E-02  0.8683413E-01
          2   -1    0    0  502    0  0.00000000000E+00  0.00000000000E+00  0.12477119044E+04  0.12477119044E+04  0.00000000000E+00 0. -1.
         -2   -1    0    0    0  501 -0.00000000000E+00 -0.00000000000E+00 -0.97524056137E+03  0.97524056137E+03  0.00000000000E+00 0.  1.
    9000010    2    1    2  502    0  0.23532148556E+03 -0.34326421266E+03  0.14601242127E+03  0.11236470600E+04  0.10334682225E+04 0.  0.
   -9000010    2    1    2    0  501 -0.23532148556E+03  0.34326421266E+03  0.12645892180E+03  0.10993054058E+04  0.10095910039E+04 0.  0.
        -13    1    3    3    0    0 -0.40800379866E+02  0.26429213661E+03 -0.23428693492E+03  0.35553534776E+03  0.10566000000E+00 0.  1.
         13    1    4    4    0    0  0.15029749503E+03 -0.87836376781E+02  0.41711183656E+03  0.45198104104E+03  0.10566000000E+00 0. -1.
          4    1    3    3  502    0  0.27612186543E+03 -0.60755634926E+03  0.38029935619E+03  0.76811171220E+03  0.00000000000E+00 0.  1.
         -4    1    4    4    0  501 -0.38561898059E+03  0.43110058944E+03 -0.29065291476E+03  0.64732436480E+03  0.00000000000E+00 0. -1.
</event>
<event>
 8    1  0.7446554E-006  0.1099449E+04  0.7818608E-02  0.8686388E-01
         -2   -1    0    0    0  501 -0.00000000000E+00  0.00000000000E+00  0.53893447889E+03  0.53893447889E+03  0.00000000000E+00 0.  1.
          2   -1    0    0  502    0  0.00000000000E+00 -0.00000000000E+00 -0.24878574028E+04  0.24878574028E+04  0.00000000000E+00 0. -1.
    9000010    2    1    2  502    0 -0.51619321602E+03 -0.81517695417E+02 -0.14369535407E+04  0.18003454054E+04  0.95042492070E+03 0.  0.
   -9000010    2    1    2    0  501  0.51619321602E+03  0.81517695417E+02 -0.51196938323E+03  0.12264464763E+04  0.98435651002E+03 0.  0.
        -13    1    3    3    0    0 -0.11966756619E+03  0.42256958222E+03 -0.66170802067E+03  0.79419323467E+03  0.10566000000E+00 0.  1.
         13    1    4    4    0    0  0.63993200080E+03  0.40643081343E+03 -0.42065477180E+03  0.86697717384E+03  0.10566000000E+00 0. -1.
          4    1    3    3  502    0 -0.39652564982E+03 -0.50408727764E+03 -0.77524551998E+03  0.10061521707E+04  0.00000000000E+00 0.  1.
         -4    1    4    4    0  501 -0.12373878478E+03 -0.32491311801E+03 -0.91314611424E+02  0.35946930241E+03  0.00000000000E+00 0. -1.
</event>
<event>
 8    1  0.7446554E-006  0.1409106E+04  0.7818608E-02  0.8463808E-01
          2   -1    0    0  502    0  0.00000000000E+00  0.00000000000E+00  0.32177427248E+04  0.32177427248E+04  0.00000000000E+00 0.  1.
         -2   -1    0    0    0  501 -0.00000000000E+00 -0.00000000000E+00 -0.61710258050E+03  0.61710258050E+03  0.00000000000E+00 0. -1.
    9000010    2    1    2  502    0  0.39208746413E+03 -0.90708500491E+03  0.12984625959E+04  0.19097539702E+04  0.99227986387E+03 0.  0.
   -9000010    2    1    2    0  501 -0.39208746413E+03  0.90708500491E+03  0.13021775484E+04  0.19250913351E+04  0.10167470163E+04 0.  0.
        -13    1    3    3    0    0  0.18308568444E+03  0.16228102588E+03  0.50731076358E+03  0.56322262137E+03  0.10566000000E+00 0.  1.
         13    1    4    4    0    0 -0.32981850447E+03  0.99633035916E+03  0.58865056416E+03  0.12033137281E+04  0.10566000000E+00 0. -1.
          4    1    3    3  502    0  0.20900177969E+03 -0.10693660308E+04  0.79115183228E+03  0.13465313489E+04  0.00000000000E+00 0.  1.
         -4    1    4    4    0  501 -0.62268959656E+02 -0.89245354249E+02  0.71352698428E+03  0.72177760694E+03  0.00000000000E+00 0. -1.
</event>
<event>
 7    1  0.7446554E-006  0.1347999E+04  0.7818608E-02  0.8502739E-01
         -2   -1    0    0    0  501 -0.00000000000E+00  0.00000000000E+00  0.10905814517E+04  0.10905814517E+04  0.00000000000E+00 0. -1.
          2   -1    0    0  502    0  0.00000000000E+00 -0.00000000000E+00 -0.17177453654E+04  0.17177453654E+04  0.00000000000E+00 0.  1.
   -9000010    2    1    2    0  501  0.99455853283E+02  0.68286589967E+03 -0.83870524025E+02  0.12227090956E+04  0.10058757200E+04 0.  0.
        -13    1    1    2    0    0  0.41762724235E+03 -0.82117744577E+03 -0.50100021067E+03  0.10486878150E+04  0.10566000000E+00 0.  1.
         13    1    3    3    0    0  0.41587493942E+03  0.15803132298E+03  0.26469512363E+03  0.51767691074E+03  0.10566000000E+00 0. -1.
          4    1    1    2  502    0 -0.51708309563E+03  0.13831154610E+03 -0.42293179000E+02  0.53692990656E+03  0.00000000000E+00 0.  1.
         -4    1    3    3    0  501 -0.31641908614E+03  0.52483457669E+03 -0.34856564765E+03  0.70503218486E+03  0.00000000000E+00 0. -1.
</event>
<event>
 8    1  0.7446554E-006  0.1224925E+04  0.7818608E-02  0.8588026E-01
          1   -1    0    0  502    0  0.00000000000E+00  0.00000000000E+00  0.19800189950E+04  0.19800189950E+04  0.00000000000E+00 0.  1.
         -1   -1    0    0    0  501 -0.00000000000E+00 -0.00000000000E+00 -0.80026180119E+03  0.80026180119E+03  0.00000000000E+00 0. -1.
    9000010    2    1    2  502    0 -0.14005985570E+03 -0.69505243877E+03  0.27198106161E+03  0.12596907157E+04  0.10050534043E+04 0.  0.
   -9000010    2    1    2    0  501  0.14005985570E+03  0.69505243877E+03  0.90777613217E+03  0.15205900804E+04  0.99268425531E+03 0.  0.
        -13    1    3    3    0    0  0.12163108245E+03 -0.74775496743E+03 -0.13840631712E+03  0.77012202366E+03  0.10566000000E+00 0.  1.
         13    1    4    4    0    0 -0.17154754038E+03  0.27385228127E+03 -0.13763325929E+03  0.35123575529E+03  0.10566000000E+00 0. -1.
          4    1    3    3  502    0 -0.26169093815E+03  0.52702528656E+02  0.41038737873E+03  0.48956869207E+03  0.00000000000E+00 0.  1.
         -4    1    4    4    0  501  0.31160739608E+03  0.42120015750E+03  0.10454093915E+04  0.11693543251E+04  0.00000000000E+00 0. -1.
</event>
<event>
 8    1  0.7446554E-006  0.1308267E+04  0.7818608E-02  0.8529210E-01
         -2   -1    0    0    0  501 -0.00000000000E+00  0.00000000000E+00  0.70195688792E+03  0.70195688792E+03  0.00000000000E+00 0. -1.
          2   -1    0    0  502    0  0.00000000000E+00 -0.00000000000E+00 -0.24710964052E+04  0.24710964052E+04  0.00000000000E+00 0.  1.
    9000010    2    1    2  502    0 -0.44638521730E+03  0.73312896412E+03 -0.71695304742E+03  0.15098409587E+04  0.10143274660E+04 0.  0.
   -9000010    2    1    2    0  501  0.44638521730E+03 -0.73312896412E+03 -0.10521864699E+04  0.16632123344E+04  0.96043795305E+03 0.  0.
        -13    1    3    3    0    0 -0.71358702927E+03  0.61058668448E+03 -0.27417019526E+03  0.97836182199E+03  0.10566000000E+00 0.  1.
         13    1    4    4    0    0  0.56684048690E+03 -0.90120473896E+03 -0.77249156400E+03  0.13153787845E+04  0.10566000000E+00 0. -1.
          4    1    3    3  502    0  0.26720181197E+03  0.12254227964E+03 -0.44278285217E+03  0.53147913674E+03  0.00000000000E+00 0.  1.
         -4    1    4    4    0  501 -0.12045526960E+03  0.16807577484E+03 -0.27969490585E+03  0.34783354988E+03  0.00000000000E+00 0. -1.
</event>
<event>
 8    1  0.7446554E-006  0.1123341E+04  0.7818608E-02  0.8666638E-01
         -2   -1    0    0    0  501 -0.00000000000E+00  0.00000000000E+00  0.97412858628E+03  0.97412858628E+03  0.00000000000E+00 0.  1.
          2   -1    0    0  502    0  0.00000000000E+00 -0.00000000000E+00 -0.13842551239E+04  0.13842551239E+04  0.00000000000E+00 0. -1.
    9000010    2    1    2  502    0  0.70480041505E+02  0.44527659039E+03 -0.50719623628E+03  0.12922228718E+04  0.10997059835E+04 0.  0.
   -9000010    2    1    2    0  501 -0.70480041505E+02 -0.44527659039E+03  0.97069698665E+02  0.10661608384E+04  0.96126881188E+03 0.  0.
        -13    1    3    3    0    0 -0.50122533523E+03  0.27596054134E+03 -0.13024159060E+03  0.58680826523E+03  0.10566000000E+00 0.  1.
         13    1    4    4    0    0 -0.20794307121E+03 -0.32145960140E+03 -0.38916624489E+03  0.54591846784E+03  0.10566000000E+00 0. -1.
          4    1    3    3  502    0  0.57170537674E+03  0.16931604905E+03 -0.37695464568E+03  0.70541460657E+03  0.00000000000E+00 0.  1.
         -4    1    4    4    0  501  0.13746302971E+03 -0.12381698899E+03  0.48623594356E+03  0.52024237054E+03  0.00000000000E+00 0. -1.
</event>
<event>
 8    1  0.7446554E-006  0.1454993E+04  0.7818608E-02  0.8435882E-01
          4   -1    0    0  502    0  0.00000000000E+00  0.00000000000E+00  0.10609473572E+04  0.10609473572E+04  0.00000000000E+00 0.  1.
         -4   -1    0    0    0  501 -0.00000000000E+00 -0.00000000000E+00 -0.22916768004E+04  0.22916768004E+04  0.00000000000E+00 0. -1.
    9000010    2    1    2  502    0 -0.10552371195E+04 -0.11705805580E+03 -0.17723619666E+02  0.14684977530E+04  0.10143685510E+04 0.  0.
   -9000010    2    1    2    0  501  0.10552371195E+04  0.11705805580E+03 -0.12130058235E+04  0.18841264047E+04  0.97535696757E+03 0.  0.
        -13    1    3    3    0    0 -0.49539060796E+01 -0.38454404271E+03 -0.63394702597E+01  0.38462821272E+03  0.10566000000E+00 0.  1.
         13    1    4    4    0    0  0.62379364952E+03 -0.63574684957E+02 -0.48147439598E+02  0.62887076959E+03  0.10566000000E+00 0. -1.
          4    1    3    3  502    0 -0.10502832134E+04  0.26748598691E+03 -0.11384149406E+02  0.10838695403E+04  0.00000000000E+00 0.  1.
         -4    1    4    4    0  501  0.43144346994E+03  0.18063274076E+03 -0.11648583839E+04  0.12552556351E+04  0.00000000000E+00 0. -1.
</event>
<event>
 8    1  0.7446554E-006  0.1632045E+04  0.7818608E-02  0.8337313E-01
         -4   -1    0    0    0  501 -0.00000000000E+00  0.00000000000E+00  0.16946837700E+04  0.16946837700E+04  0.00000000000E+00 0. -1.
          4   -1    0    0  502    0  0.00000000000E+00 -0.00000000000E+00 -0.16779114579E+04  0.16779114579E+04  0.00000000000E+00 0.  1.
    9000010    2    1    2  502    0 -0.68105253131E+03  0.11022353537E+04  0.43247781444E+03  0.16803006694E+04  0.97857955952E+03 0.  0.
   -9000010    2    1    2    0  501  0.68105253131E+03 -0.11022353537E+04 -0.41570550233E+03  0.16922945584E+04  0.10061284622E+04 0.  0.
        -13    1    3    3    0    0  0.56089933631E+02  0.81692684952E+03  0.33165930048E+03  0.88346672879E+03  0.10566000000E+00 0.  1.
         13    1    4    4    0    0  0.59258417266E+03 -0.79874403171E+03 -0.73981555661E+03  0.12395463278E+04  0.10566000000E+00 0. -1.
          4    1    3    3  502    0 -0.73714246494E+03  0.28530850418E+03  0.10081851396E+03  0.79683394062E+03  0.00000000000E+00 0.  1.
         -4    1    4    4    0  501  0.88468358643E+02 -0.30349132200E+03  0.32411005428E+03  0.45274823058E+03  0.00000000000E+00 0. -1.
</event>
<event>
 8    1  0.7446554E-006  0.1566549E+04  0.7818608E-02  0.8372197E-01
          2   -1    0    0  502    0  0.00000000000E+00  0.00000000000E+00  0.28794942072E+04  0.28794942072E+04  0.00000000000E+00 0. -1.
         -2   -1    0    0    0  501 -0.00000000000E+00 -0.00000000000E+00 -0.85496091131E+03  0.85496091131E+03  0.00000000000E+00 0.  1.
    9000010    2    1    2  502    0  0.18964829223E+02 -0.12007420854E+04  0.11218136623E+04  0.19331157995E+04  0.10180027412E+04 0.  0.
   -9000010    2    1    2    0  501 -0.18964829223E+02  0.12007420854E+04  0.90271963358E+03  0.18013393190E+04  0.99387090951E+03 0.  0.
        -13    1    3    3    0    0  0.35878300507E+03 -0.57077156182E+03  0.94102078330E+02  0.68070598119E+03  0.10566000000E+00 0.  1.
         13    1    4    4    0    0  0.14297175465E+03  0.12159322376E+04  0.10258997797E+04  0.15973110211E+04  0.10566000000E+00 0. -1.
          4    1    3    3  502    0 -0.33981817585E+03 -0.62997052361E+03  0.10277115840E+04  0.12524098183E+04  0.00000000000E+00 0.  1.
         -4    1    4    4    0  501 -0.16193658387E+03 -0.15190152181E+02 -0.12318014613E+03  0.20402829784E+03  0.00000000000E+00 0. -1.
</event>
<event>
 8    1  0.7446554E-006  0.1040492E+04  0.7818608E-02  0.8737449E-01
         -2   -1    0    0    0  501 -0.00000000000E+00  0.00000000000E+00  0.70518134870E+03  0.70518134870E+03  0.00000000000E+00 0. -1.
          2   -1    0    0  502    0  0.00000000000E+00 -0.00000000000E+00 -0.19894289339E+04  0.19894289339E+04  0.00000000000E+00 0.  1.
    9000010    2    1    2  502    0  0.35639606646E+02  0.32361759155E+03 -0.12807513504E+04  0.16435812261E+04  0.97725979051E+03 0.  0.
   -9000010    2    1    2    0  501 -0.35639606646E+02 -0.32361759155E+03 -0.34962347661E+01  0.10510290565E+04  0.99932543586E+03 0.  0.
        -13    1    3    3    0    0 -0.43949749678E+03 -0.12100941954E+02 -0.44764927617E+03  0.62745068977E+03  0.10566000000E+00 0.  1.
         13    1    4    4    0    0  0.90893654220E+01 -0.58581603061E+03 -0.29537673063E+03  0.65613296095E+03  0.10566000000E+00 0. -1.
          4    1    3    3  502    0  0.47513710343E+03  0.33571853350E+03 -0.83310207425E+03  0.10161305364E+04  0.00000000000E+00 0.  1.
         -4    1    4    4    0  501 -0.44728972068E+02  0.26219843907E+03  0.29188049586E+03  0.39489609552E+03  0.00000000000E+00 0. -1.
</event>
<event>
 8    1  0.7446554E-006  0.1480805E+04  0.7818608E-02  0.8420632E-01
         -1   -1    0    0    0  501 -0.00000000000E+00  0.00000000000E+00  0.95895919594E+03  0.95895919594E+03  0.00000000000E+00 0.  1.
          1   -1    0    0  502    0  0.00000000000E+00 -0.00000000000E+00 -0.22876080362E+04  0.22876080362E+04  0.00000000000E+00 0. -1.
    9000010    2    1    2  502    0 -0.24281743283E+01 -0.11002295250E+04 -0.62841585370E+03  0.16019365368E+04  0.98019553098E+03 0.  0.
   -9000010    2    1    2    0  501  0.24281743283E+01  0.11002295250E+04 -0.70023298657E+03  0.16446306954E+04  0.10019845232E+04 0.  0.
        -13    1    3    3    0    0  0.98527646971E+02 -0.72392833059E+03  0.13674993306E+03  0.74329030695E+03  0.10566000000E+00 0.  1.
         13    1    4    4    0    0  0.13347937815E+03  0.11762790390E+04 -0.30666454177E+03  0.12229032154E+04  0.10566000000E+00 0. -1.
          4    1    3    3  502    0 -0.10095582130E+03 -0.37630119445E+03 -0.76516578677E+03  0.85864622985E+03  0.00000000000E+00 0.  1.
         -4    1    4    4    0  501 -0.13105120382E+03 -0.76049513933E+02 -0.39356844480E+03  0.42172747994E+03  0.00000000000E+00 0. -1.
</event>
<event>
 8    1  0.7446554E-006  0.1077539E+04  0.7818608E-02  0.8704965E-01
         -2   -1    0    0    0  501 -0.00000000000E+00  0.00000000000E+00  0.59162863177E+03  0.59162863177E+03  0.00000000000E+00 0.  1.
          2   -1    0    0  502    0  0.00000000000E+00 -0.00000000000E+00 -0.24767257797E+04  0.24767257797E+04  0.00000000000E+00 0. -1.
    9000010    2    1    2  502    0 -0.36529405411E+03 -0.16634847201E+03 -0.24172866288E+03  0.11017997826E+04  0.99720532208E+03 0.  0.
   -9000010    2    1    2    0  501  0.36529405411E+03  0.16634847201E+03 -0.16433684850E+04  0.19665546288E+04  0.10027789240E+04 0.  0.
        -13    1    3    3    0    0 -0.49763915029E+03 -0.32973179046E+03 -0.49295848572E+03  0.77419368206E+03  0.10566000000E+00 0.  1.
         13    1    4    4    0    0  0.49346491153E+03 -0.31246220572E+03 -0.91515827296E+03  0.10856587515E+04  0.10566000000E+00 0. -1.
          4    1    3    3  502    0  0.13234509618E+03  0.16338331845E+03  0.25122982284E+03  0.32760610054E+03  0.00000000000E+00 0.  1.
         -4    1    4    4    0  501 -0.12817085741E+03  0.47881067774E+03 -0.72821021203E+03  0.88089587734E+03  0.00000000000E+00 0. -1.
</event>
<event>
 8    1  0.7446554E-006  0.1275026E+04  0.7818608E-02  0.8552110E-01
          1   -1    0    0  502    0  0.00000000000E+00  0.00000000000E+00  0.28023926210E+04  0.28023926210E+04  0.00000000000E+00 0.  1.
         -1   -1    0    0    0  501 -0.00000000000E+00 -0.00000000000E+00 -0.58692902415E+03  0.58692902415E+03  0.00000000000E+00 0. -1.
    9000010    2    1    2  502    0 -0.65676602602E+02  0.76991325875E+03  0.91165662390E+03  0.15534882941E+04  0.99253626521E+03 0.  0.
   -9000010    2    1    2    0  501  0.65676602602E+02 -0.76991325875E+03  0.13038069730E+04  0.18358333511E+04  0.10359978900E+04 0.  0.
        -13    1    3    3    0    0  0.38347202002E+02 -0.23666976526E+03  0.23796920588E+03  0.33780532825E+03  0.10566000000E+00 0.  1.
         13    1    4    4    0    0  0.47132447702E+03 -0.60493782426E+02  0.48556564593E+03  0.67939698853E+03  0.10566000000E+00 0. -1.
          4    1    3    3  502    0 -0.10402380460E+03  0.10065830240E+04  0.67368741803E+03  0.12156829658E+04  0.00000000000E+00 0.  1.
         -4    1    4    4    0  501 -0.40564787442E+03 -0.70941947632E+03  0.81824132705E+03  0.11564363626E+04  0.00000000000E+00 0. -1.
</event>
<event>
 8    1  0.7446554E-006  0.1528969E+04  0.7818608E-02  0.8393020E-01
          2   -1    0    0  502    0  0.00000000000E+00  0.00000000000E+00  0.40581886102E+04  0.40581886102E+04  0.00000000000E+00 0.  1.
         -2   -1    0    0    0  501 -0.00000000000E+00 -0.00000000000E+00 -0.57684181366E+03  0.57684181366E+03  0.00000000000E+00 0. -1.
    9000010    2    1    2  502    0  0.11223886740E+04 -0.25198169267E+03  0.18300987548E+04  0.23870485683E+04  0.10126639650E+04 0.  0.
   -9000010    2    1    2    0  501 -0.11223886740E+04  0.25198169267E+03  0.16512480418E+04  0.22479818556E+04  0.10017740357E+04 0.  0.
        -13    1    3    3    0    0  0.93286497151E+03 -0.13516280018E+03  0.19262683483E+04  0.21445316035E+04  0.10566000000E+00 0.  1.
         13    1    4    4    0    0 -0.12219328853E+04 -0.26206917378E+02  0.14143449696E+04  0.18692721800E+04  0.10566000000E+00 0. -1.
          4    1    3    3  502    0  0.18952370253E+03 -0.11681889249E+03 -0.96169593567E+02  0.24251696474E+03  0.00000000000E+00 0.  1.
         -4    1    4    4    0  501  0.99544211306E+02  0.27818861004E+03  0.23690307219E+03  0.37870967558E+03  0.00000000000E+00 0. -1.
</event>
<event>
 8    1  0.7446554E-006  0.1200485E+04  0.7818608E-02  0.8606197E-01
          2   -1    0    0  502    0  0.00000000000E+00  0.00000000000E+00  0.20893441090E+04  0.20893441090E+04  0.00000000000E+00 0.  1.
         -2   -1    0    0    0  501 -0.00000000000E+00 -0.00000000000E+00 -0.87650046413E+03  0.87650046413E+03  0.00000000000E+00 0. -1.
    9000010    2    1    2  502    0  0.51106756816E+03  0.58511630157E+02  0.12693648325E+04  0.17151807563E+04  0.10324457751E+04 0.  0.
   -9000010    2    1    2    0  501 -0.51106756816E+03 -0.58511630157E+02 -0.56521187624E+02  0.12506638169E+04  0.11385744016E+04 0.  0.
        -13    1    3    3    0    0  0.48823752887E+03 -0.52541414327E+02  0.53410838769E+02  0.49395264315E+03  0.10566000000E+00 0.  1.
         13    1    4    4    0    0 -0.30364171002E+03 -0.31214143610E+03 -0.52303552537E+03  0.68058558328E+03  0.10566000000E+00 0. -1.
          4    1    3    3  502    0  0.22830039297E+02  0.11105304448E+03  0.12159539938E+04  0.12212281131E+04  0.00000000000E+00 0.  1.
         -4    1    4    4    0  501 -0.20742585814E+03  0.25362980595E+03  0.46651433775E+03  0.57007823359E+03  0.00000000000E+00 0. -1.
</event>
<event>
 8    1  0.7446554E-006  0.1126198E+04  0.7818608E-02  0.8664311E-01
         -4   -1    0    0    0  501 -0.00000000000E+00  0.00000000000E+00  0.25288594460E+04  0.25288594460E+04  0.00000000000E+00 0. -1.
          4   -1    0    0  502    0  0.00000000000E+00 -0.00000000000E+00 -0.50238656481E+03  0.50238656481E+03  0.00000000000E+00 0.  1.
    9000010    2    1    2  502    0  0.49368958720E+03 -0.96029379045E+02  0.95823502076E+03  0.14842251966E+04  0.10157553983E+04 0.  0.
   -9000010    2    1    2    0  501 -0.49368958720E+03  0.96029379045E+02  0.10682378604E+04  0.15470208142E+04  0.99959502943E+03 0.  0.
        -13    1    3    3    0    0 -0.18257912888E+03  0.23297932619E+03  0.55957725178E+03  0.63304124400E+03  0.10566000000E+00 0.  1.
         13    1    4    4    0    0 -0.67326537975E+03  0.22657295167E+03  0.34353506618E+03  0.78907409466E+03  0.10566000000E+00 0. -1.
          4    1    3    3  502    0  0.67626871608E+03 -0.32900870523E+03  0.39865776898E+03  0.85118395265E+03  0.00000000000E+00 0.  1.
         -4    1    4    4    0  501  0.17957579254E+03 -0.13054357263E+03  0.72470279426E+03  0.75794671952E+03  0.00000000000E+00 0. -1.
</event>
<event>
 8    1  0.7446554E-006  0.1300431E+04  0.7818608E-02  0.8534544E-01
          2   -1    0    0  502    0  0.00000000000E+00  0.00000000000E+00  0.26525756538E+04  0.26525756538E+04  0.00000000000E+00 0.  1.
         -2   -1    0    0    0  501 -0.00000000000E+00 -0.00000000000E+00 -0.10679145901E+04  0.10679145901E+04  0.00000000000E+00 0. -1.
    9000010    2    1    2  502    0 -0.63185452556E+03  0.52762771661E+03 -0.38734107592E+03  0.13601998672E+04  0.10111772451E+04 0.  0.
   -9000010    2    1    2    0  501  0.63185452556E+03 -0.52762771661E+03  0.19720021396E+04  0.23602903767E+04  0.10022709589E+04 0.  0.
        -13    1    3    3    0    0  0.27595529216E+03  0.14653420885E+03 -0.15415108738E+03  0.34840517583E+03  0.10566000000E+00 0.  1.
         13    1    4    4    0    0  0.19984867062E+03 -0.63615812013E+03  0.53218112627E+03  0.85314325132E+03  0.10566000000E+00 0. -1.
          4    1    3    3  502    0 -0.90780981772E+03  0.38109350776E+03 -0.23318998853E+03  0.10117946914E+04  0.00000000000E+00 0.  1.
         -4    1    4    4    0  501  0.43200585493E+03  0.10853040352E+03  0.14398210133E+04  0.15071471254E+04  0.00000000000E+00 0. -1.
</event>
<event>
 8    1  0.7446554E-006  0.1489682E+04  0.7818608E-02  0.8415462E-01
         -2   -1    0    0    0  501 -0.00000000000E+00  0.00000000000E+00  0.86882966611E+03  0.86882966611E+03  0.00000000000E+00 0. -1.
          2   -1    0    0  502    0  0.00000000000E+00 -0.00000000000E+00 -0.26003950811E+04  0.26003950811E+04  0.00000000000E+00 0.  1.
    9000010    2    1    2  502    0 -0.58431040097E+02 -0.11047400486E+04 -0.10982109476E+04  0.18524421283E+04  0.10008045723E+04 0.  0.
   -9000010    2    1    2    0  501  0.58431040097E+02  0.11047400486E+04 -0.63335446737E+03  0.16167826189E+04  0.99447644216E+03 0.  0.
        -13    1    3    3    0    0 -0.21944881599E+03 -0.68679899507E+03 -0.62107742580E+02  0.72367674090E+03  0.10566000000E+00 0.  1.
         13    1    4    4    0    0  0.33795059501E+03 -0.55455617738E+01 -0.91843791689E+02  0.35025226788E+03  0.10566000000E+00 0. -1.
          4    1    3    3  502    0  0.16101777589E+03 -0.41794105351E+03 -0.10361032050E+04  0.11287653874E+04  0.00000000000E+00 0.  1.
         -4    1    4    4    0  501 -0.27951955491E+03  0.11102856104E+04 -0.54151067568E+03  0.12665303510E+04  0.00000000000E+00 0. -1.
</event>
<event>
 8    1  0.7446554E-006  0.1359883E+04  0.7818608E-02  0.8495004E-01
          1   -1    0    0  502    0  0.00000000000E+00  0.00000000000E+00  0.28034142899E+04  0.28034142899E+04  0.00000000000E+00 0. -1.
         -1   -1    0    0    0  501 -0.00000000000E+00 -0.00000000000E+00 -0.98693458350E+03  0.98693458350E+03  0.00000000000E+00 0.  1.
    9000010    2    1    2  502    0 -0.82972249233E+03  0.39625647854E+03  0.20010548794E+04  0.24212557459E+04  0.10063797224E+04 0.  0.
   -9000010    2    1    2    0  501  0.82972249233E+03 -0.39625647854E+03 -0.18457517303E+03  0.13690931275E+04  0.99744141990E+03 0.  0.
        -13    1    3    3    0    0  0.18311293468E+03  0.22372504905E+01  0.71218280877E+03  0.73535006386E+03  0.10566000000E+00 0.  1.
         13    1    4    4    0    0 -0.21541251723E+03 -0.19847511336E+03 -0.40836298474E+02  0.29574065942E+03  0.10566000000E+00 0. -1.
          4    1    3    3  502    0 -0.10128354270E+04  0.39401922805E+03  0.12888720706E+04  0.16859056820E+04  0.00000000000E+00 0.  1.
         -4    1    4    4    0  501  0.10451350096E+04 -0.19778136518E+03 -0.14373887456E+03  0.10733524681E+04  0.00000000000E+00 0. -1.
</event>
<event>
 8    1  0.7446554E-006  0.1069083E+04  0.7818608E-02  0.8712258E-01
          2   -1    0    0  502    0  0.00000000000E+00  0.00000000000E+00  0.15677800808E+04  0.15677800808E+04  0.00000000000E+00 0. -1.
         -2   -1    0    0    0  501 -0.00000000000E+00 -0.00000000000E+00 -0.73074640432E+03  0.73074640432E+03  0.00000000000E+00 0.  1.
    9000010    2    1    2  502    0 -0.27139026455E+02 -0.41069302966E+03  0.47796942667E+03  0.11888171947E+04  0.10076836102E+04 0.  0.
   -9000010    2    1    2    0  501  0.27139026455E+02  0.41069302966E+03  0.35906424982E+03  0.11097092904E+04  0.96598254761E+03 0.  0.
        -13    1    3    3    0    0  0.30172577483E+03  0.57203874005E+02 -0.14802086365E+03  0.34091188544E+03  0.10566000000E+00 0.  1.
         13    1    4    4    0    0 -0.40016441060E+02 -0.27027090533E+03  0.32501300247E+03  0.42459526701E+03  0.10566000000E+00 0. -1.
          4    1    3    3  502    0 -0.32886480128E+03 -0.46789690366E+03  0.62599029032E+03  0.84790530931E+03  0.00000000000E+00 0.  1.
         -4    1    4    4    0  501  0.67155467515E+02  0.68096393499E+03  0.34051247354E+02  0.68511402337E+03  0.00000000000E+00 0. -1.
</event>
<event>
 8    1  0.7446554E-006  0.1528499E+04  0.7818608E-02  0.8393284E-01
         -2   -1    0    0    0  501 -0.00000000000E+00  0.00000000000E+00  0.10350252955E+04  0.10350252955E+04  0.00000000000E+00 0. -1.
          2   -1    0    0  502    0  0.00000000000E+00 -0.00000000000E+00 -0.23223883941E+04  0.23223883941E+04  0.00000000000E+00 0.  1.
    9000010    2    1    2  502    0  0.98417683385E+03 -0.60224808754E+03 -0.92445649923E+03  0.17855419537E+04  0.10011161023E+04 0.  0.
   -9000010    2    1    2    0  501 -0.98417683385E+03  0.60224808754E+03 -0.36290659937E+03  0.15718717359E+04  0.10038788548E+04 0.  0.
        -13    1    3    3    0    0  0.46305186002E+03 -0.26593241300E+03  0.14137914575E+03  0.55238134234E+03  0.10566000000E+00 0.  1.
         13    1    4    4    0    0 -0.26926826901E+02  0.44106457683E+03  0.15914640243E+03  0.46967073947E+03  0.10566000000E+00 0. -1.
          4    1    3    3  502    0  0.52112497383E+03 -0.33631567454E+03 -0.10658356450E+04  0.12331606114E+04  0.00000000000E+00 0.  1.
         -4    1    4    4    0  501 -0.95725000695E+03  0.16118351071E+03 -0.52205300180E+03  0.11022009965E+04  0.00000000000E+00 0. -1.
</event>
<event>
 8    1  0.7446554E-006  0.1034624E+04  0.7818608E-02  0.8742722E-01
         -1   -1    0    0    0  501 -0.00000000000E+00  0.00000000000E+00  0.44382716705E+03  0.44382716705E+03  0.00000000000E+00 0.  1.
          1   -1    0    0  502    0  0.00000000000E+00 -0.00000000000E+00 -0.25033539133E+04  0.25033539133E+04  0.00000000000E+00 0. -1.
    9000010    2    1    2  502    0  0.19985997929E+03  0.24596472276E+03 -0.75779794730E+03  0.12904267635E+04  0.99523909030E+03 0.  0.
   -9000010    2    1    2    0  501 -0.19985997929E+03 -0.24596472276E+03 -0.13017287989E+04  0.16567543168E+04  0.97462523270E+03 0.  0.
        -13    1    3    3    0    0  0.35009392568E+03  0.55826912742E+03 -0.32141215329E+03  0.73316843827E+03  0.10566000000E+00 0.  1.
         13    1    4    4    0    0  0.15122737489E+03  0.18584697125E+03 -0.99059255834E+03  0.10191577127E+04  0.10566000000E+00 0. -1.
          4    1    3    3  502    0 -0.15023394639E+03 -0.31230440466E+03 -0.43638579401E+03  0.55725832523E+03  0.00000000000E+00 0.  1.
         -4    1    4    4    0  501 -0.35108735417E+03 -0.43181169401E+03 -0.31113624060E+03  0.63759660410E+03  0.00000000000E+00 0. -1.
</event>
<event>
 8    1  0.7446554E-006  0.1747510E+04  0.7818608E-02  0.8279747E-01
         -2   -1    0    0    0  501 -0.00000000000E+00  0.00000000000E+00  0.19240872681E+04  0.19240872681E+04  0.00000000000E+00 0.  1.
          2   -1    0    0  502    0  0.00000000000E+00 -0.00000000000E+00 -0.16723506913E+04  0.16723506913E+04  0.00000000000E+00 0. -1.
    9000010    2    1    2  502    0 -0.19751072650E+03  0.14195230955E+04  0.53168156813E+03  0.18252733026E+04  0.99743723283E+03 0.  0.
   -9000010    2    1    2    0  501  0.19751072650E+03 -0.14195230955E+04 -0.27994499128E+03  0.17711646568E+04  0.10022967314E+04 0.  0.
        -13    1    3    3    0    0  0.19580398981E+03  0.38834184716E+03  0.57479168119E+03  0.72078712573E+03  0.10566000000E+00 0.  1.
         13    1    4    4    0    0 -0.87193225793E+02 -0.13721931292E+04 -0.85409225409E+01  0.13749871276E+04  0.10566000000E+00 0. -1.
          4    1    3    3  502    0 -0.39331471631E+03  0.10311812483E+04 -0.43110113061E+02  0.11044861768E+04  0.00000000000E+00 0.  1.
         -4    1    4    4    0  501  0.28470395229E+03 -0.47329966277E+02 -0.27140406874E+03  0.39617752925E+03  0.00000000000E+00 0. -1.
</event>
<event>
 8    1  0.7446554E-006  0.1156866E+04  0.7818608E-02  0.8639771E-01
         -2   -1    0    0    0  501 -0.00000000000E+00  0.00000000000E+00  0.41182327244E+03  0.41182327244E+03  0.00000000000E+00 0. -1.
          2   -1    0    0  502    0  0.00000000000E+00 -0.00000000000E+00 -0.33335747343E+04  0.33335747343E+04  0.00000000000E+00 0.  1.
    9000010    2    1    2  502    0 -0.52709707553E+03  0.26293425761E+03 -0.17558978241E+04  0.21019093338E+04  0.99392148976E+03 0.  0.
   -9000010    2    1    2    0  501  0.52709707553E+03 -0.26293425761E+03 -0.11658536378E+04  0.16434886730E+04  0.99743398915E+03 0.  0.
        -13    1    3    3    0    0  0.14807873033E+03 -0.60306789424E+02  0.32509987442E+02  0.16315982862E+03  0.10566000000E+00 0.  1.
         13    1    4    4    0    0  0.94656201890E+02  0.36821753585E+03 -0.27518492723E+03  0.46933006041E+03  0.10566000000E+00 0. -1.
          4    1    3    3  502    0 -0.67517580586E+03  0.32324104703E+03 -0.17884078115E+04  0.19387495051E+04  0.00000000000E+00 0.  1.
         -4    1    4    4    0  501  0.43244087364E+03 -0.63115179346E+03 -0.89066871054E+03  0.11741586126E+04  0.00000000000E+00 0. -1.
</event>
<event>
 8    1  0.7446554E-006  0.1284905E+04  0.7818608E-02  0.8545230E-01
          4   -1    0    0  502    0  0.00000000000E+00  0.00000000000E+00  0.12865045696E+04  0.12865045696E+04  0.00000000000E+00 0.  1.
         -4   -1    0    0    0  501 -0.00000000000E+00 -0.00000000000E+00 -0.14162875346E+04  0.14162875346E+04  0.00000000000E+00 0. -1.
    9000010    2    1    2  502    0  0.45593391649E+03 -0.66717570172E+03  0.34933027176E+03  0.13286599339E+04  0.99514141106E+03 0.  0.
   -9000010    2    1    2    0  501 -0.45593391649E+03  0.66717570172E+03 -0.47911323677E+03  0.13741321703E+04  0.10028412510E+04 0.  0.
        -13    1    3    3    0    0  0.37874745927E+03 -0.92890889231E+03  0.32595446915E+03  0.10547832456E+04  0.10566000000E+00 0.  1.
         13    1    4    4    0    0 -0.27519760648E+03  0.17373293620E+03 -0.72444119814E+03  0.79418632351E+03  0.10566000000E+00 0. -1.
          4    1    3    3  502    0  0.77186457219E+02  0.26173319059E+03  0.23375802616E+02  0.27387668828E+03  0.00000000000E+00 0.  1.
         -4    1    4    4    0  501 -0.18073631001E+03  0.49344276552E+03  0.24532796137E+03  0.57994584681E+03  0.00000000000E+00 0. -1.
</event>
<event>
 8    1  0.7446554E-006  0.1247759E+04  0.7818608E-02  0.8571441E-01
         -1   -1    0    0    0  501 -0.00000000000E+00  0.00000000000E+00  0.68277606512E+03  0.68277606512E+03  0.00000000000E+00 0. -1.
          1   -1    0    0  502    0  0.00000000000E+00 -0.00000000000E+00 -0.23225711666E+04  0.23225711666E+04  0.00000000000E+00 0.  1.
    9000010    2    1    2  502    0 -0.56960385036E+03  0.50456807083E+03 -0.10290355135E+04  0.16253958630E+04  0.10019781129E+04 0.  0.
   -9000010    2    1    2    0  501  0.56960385036E+03 -0.50456807083E+03 -0.61075958790E+03  0.13799513687E+04  0.97580788137E+03 0.  0.
        -13    1    3    3    0    0 -0.25040888416E+03 -0.30043626841E+03 -0.35174341002E+03  0.52601330620E+03  0.10566000000E+00 0.  1.
         13    1    4    4    0    0  0.71098627987E+03 -0.10390499907E+03 -0.62861318447E+03  0.95470010257E+03  0.10566000000E+00 0. -1.
          4    1    3    3  502    0 -0.31919496620E+03  0.80500433924E+03 -0.67729210351E+03  0.10993825568E+04  0.00000000000E+00 0.  1.
         -4    1    4    4    0  501 -0.14138242950E+03 -0.40066307176E+03  0.17853596566E+02  0.42525126614E+03  0.00000000000E+00 0. -1.
</event>
<event>
 8    1  0.7446554E-006  0.1986859E+04  0.7818608E-02  0.8173763E-01
         -2   -1    0    0    0  501 -0.00000000000E+00  0.00000000000E+00  0.18328861848E+04  0.18328861848E+04  0.00000000000E+00 0.  1.
          2   -1    0    0  502    0  0.00000000000E+00 -0.00000000000E+00 -0.22475135865E+04  0.22475135865E+04  0.00000000000E+00 0. -1.
    9000010    2    1    2  502    0 -0.71274684102E+03  0.15548774491E+04 -0.62335145224E+03  0.20766726130E+04  0.99917474324E+03 0.  0.
   -9000010    2    1    2    0  501  0.71274684102E+03 -0.15548774491E+04  0.20872405052E+03  0.20037271582E+04  0.10225971122E+04 0.  0.
        -13    1    3    3    0    0 -0.67243842022E+02  0.47642472167E+03 -0.66297996692E+03  0.81917317914E+03  0.10566000000E+00 0.  1.
         13    1    4    4    0    0  0.93111395064E+03 -0.99218096868E+03  0.29984207654E+03  0.13933059771E+04  0.10566000000E+00 0. -1.
          4    1    3    3  502    0 -0.64550299900E+03  0.10784527275E+04  0.39628514688E+02  0.12574994339E+04  0.00000000000E+00 0.  1.
         -4    1    4    4    0  501 -0.21836710962E+03 -0.56269648047E+03 -0.91118026026E+02  0.61042118112E+03  0.00000000000E+00 0. -1.
</event>
<event>
 8    1  0.7446554E-006  0.2445204E+04  0.7818608E-02  0.8007959E-01
         -1   -1    0    0    0  501 -0.00000000000E+00  0.00000000000E+00  0.23870075904E+04  0.23870075904E+04  0.00000000000E+00 0. -1.
          1   -1    0    0  502    0  0.00000000000E+00 -0.00000000000E+00 -0.25751412486E+04  0.25751412486E+04  0.00000000000E+00 0.  1.
    9000010    2    1    2  502    0  0.21223061314E+04  0.39568641800E+03  0.31101353010E+03  0.25143955663E+04  0.12508815257E+04 0.  0.
   -9000010    2    1    2    0  501 -0.21223061314E+04 -0.39568641800E+03 -0.49914718838E+03  0.24477532727E+04  0.10399986113E+04 0.  0.
        -13    1    3    3    0    0  0.16641789302E+04  0.81832439293E+03  0.10319357610E+03  0.18573624442E+04  0.10566000000E+00 0.  1.
         13    1    4    4    0    0 -0.19079055331E+04 -0.29856115318E+03 -0.39709940890E+02  0.19315328566E+04  0.10566000000E+00 0. -1.
          4    1    3    3  502    0  0.45812720121E+03 -0.42263797494E+03  0.20781995400E+03  0.65703312217E+03  0.00000000000E+00 0.  1.
         -4    1    4    4    0  501 -0.21440059828E+03 -0.97125264821E+02 -0.45943724749E+03  0.51622041609E+03  0.00000000000E+00 0. -1.
</event>
<event>
 8    1  0.7446554E-006  0.1129444E+04  0.7818608E-02  0.8661675E-01
          2   -1    0    0  502    0  0.00000000000E+00  0.00000000000E+00  0.20231499965E+04  0.20231499965E+04  0.00000000000E+00 0.  1.
         -2   -1    0    0    0  501 -0.00000000000E+00 -0.00000000000E+00 -0.65403879495E+03  0.65403879495E+03  0.00000000000E+00 0. -1.
    9000010    2    1    2  502    0 -0.61958154748E+03 -0.81688424233E+02  0.43895923961E+03  0.12241715147E+04  0.95674259382E+03 0.  0.
   -9000010    2    1    2    0  501  0.61958154748E+03  0.81688424233E+02  0.93015196197E+03  0.14530172767E+04  0.92494445322E+03 0.  0.
        -13    1    3    3    0    0 -0.50563939389E+03 -0.34879052007E+03 -0.89919288888E+02  0.62081520055E+03  0.10566000000E+00 0.  1.
         13    1    4    4    0    0  0.57675072350E+03 -0.10796424570E+03  0.10653161286E+04  0.12162220770E+04  0.10566000000E+00 0. -1.
          4    1    3    3  502    0 -0.11394215359E+03  0.26710209584E+03  0.52887852850E+03  0.60335631420E+03  0.00000000000E+00 0.  1.
         -4    1    4    4    0  501  0.42830823989E+02  0.18965266994E+03 -0.13516416666E+03  0.23679519979E+03  0.00000000000E+00 0. -1.
</event>
<event>
 8    1  0.7446554E-006  0.1047171E+04  0.7818608E-02  0.8731490E-01
         -2   -1    0    0    0  501 -0.00000000000E+00  0.00000000000E+00  0.43213156689E+03  0.43213156689E+03  0.00000000000E+00 0.  1.
          2   -1    0    0  502    0  0.00000000000E+00 -0.00000000000E+00 -0.25985774849E+04  0.25985774849E+04  0.00000000000E+00 0. -1.
    9000010    2    1    2  502    0 -0.29950270282E+03  0.11754887668E+03 -0.13139221315E+04  0.16792616553E+04  0.99499182508E+03 0.  0.
   -9000010    2    1    2    0  501  0.29950270282E+03 -0.11754887668E+03 -0.85252378653E+03  0.13514473965E+04  0.99804491454E+03 0.  0.
        -13    1    3    3    0    0  0.26481499044E+03 -0.24315623090E+03 -0.60681156734E+03  0.70531710684E+03  0.10566000000E+00 0.  1.
         13    1    4    4    0    0  0.16976686127E+02 -0.34145912066E+03 -0.92286329743E+03  0.98415406104E+03  0.10566000000E+00 0. -1.
          4    1    3    3  502    0 -0.56431769326E+03  0.36070510757E+03 -0.70711056414E+03  0.97394454846E+03  0.00000000000E+00 0.  1.
         -4    1    4    4    0  501  0.28252601669E+03  0.22391024399E+03  0.70339510890E+02  0.36729333545E+03  0.00000000000E+00 0. -1.
</event>
<event>
 8    1  0.7446554E-006  0.1030127E+04  0.7818608E-02  0.8746788E-01
         -1   -1    0    0    0  501 -0.00000000000E+00  0.00000000000E+00  0.92095779530E+03  0.92095779530E+03  0.00000000000E+00 0.  1.
          1   -1    0    0  502    0  0.00000000000E+00 -0.00000000000E+00 -0.13579085120E+04  0.13579085120E+04  0.00000000000E+00 0. -1.
    9000010    2    1    2  502    0 -0.41410197316E+03 -0.10467169703E+03 -0.66786054646E+03  0.12794978292E+04  0.10043108967E+04 0.  0.
   -9000010    2    1    2    0  501  0.41410197316E+03  0.10467169703E+03  0.23090982974E+03  0.99936847806E+03  0.87348806354E+03 0.  0.
        -13    1    3    3    0    0 -0.70761487396E+03 -0.40286651959E+02 -0.67522908777E+03  0.97891580655E+03  0.10566000000E+00 0.  1.
         13    1    4    4    0    0  0.40162883554E+03 -0.33700784727E+03  0.18122855527E+03  0.55472859226E+03  0.10566000000E+00 0. -1.
          4    1    3    3  502    0  0.29351290080E+03 -0.64385045072E+02  0.73685413186E+01  0.30058202269E+03  0.00000000000E+00 0.  1.
         -4    1    4    4    0  501  0.12473137621E+02  0.44167954430E+03  0.49681274473E+02  0.44463988581E+03  0.00000000000E+00 0. -1.
</event>
<event>
 8    1  0.7446554E-006  0.1428282E+04  0.7818608E-02  0.8452007E-01
         -2   -1    0    0    0  501 -0.00000000000E+00  0.00000000000E+00  0.79215823352E+03  0.79215823352E+03  0.00000000000E+00 0. -1.
          2   -1    0    0  502    0  0.00000000000E+00 -0.00000000000E+00 -0.25754376005E+04  0.25754376005E+04  0.00000000000E+00 0.  1.
    9000010    2    1    2  502    0 -0.19918879525E+03 -0.10000439629E+04 -0.87599724712E+03  0.16747794067E+04  0.99887475700E+03 0.  0.
   -9000010    2    1    2    0  501  0.19918879525E+03  0.10000439629E+04 -0.90728211987E+03  0.16928164274E+04  0.10013503422E+04 0.  0.
        -13    1    3    3    0    0  0.32821653765E+03 -0.82283202554E+02 -0.73011454051E+02  0.34616080742E+03  0.10566000000E+00 0.  1.
         13    1    4    4    0    0 -0.18319321846E+03  0.10247505338E+04 -0.59908697118E+03  0.12010739452E+04  0.10566000000E+00 0. -1.
          4    1    3    3  502    0 -0.52740533290E+03 -0.91776076035E+03 -0.80298579306E+03  0.13286185992E+04  0.00000000000E+00 0.  1.
         -4    1    4    4    0  501  0.38238201371E+03 -0.24706570853E+02 -0.30819514869E+03  0.49174248213E+03  0.00000000000E+00 0. -1.
</event>
<event>
 8    1  0.7446554E-006  0.1648907E+04  0.7818608E-02  0.8328605E-01
         -2   -1    0    0    0  501 -0.00000000000E+00  0.00000000000E+00  0.11887551024E+04  0.11887551024E+04  0.00000000000E+00 0.  1.
          2   -1    0    0  502    0  0.00000000000E+00 -0.00000000000E+00 -0.23025594721E+04  0.23025594721E+04  0.00000000000E+00 0. -1.
    9000010    2    1    2  502    0 -0.13079781196E+04 -0.30421917092E+02 -0.70086182569E+03  0.17953826562E+04  0.10101778700E+04 0.  0.
   -9000010    2    1    2    0  501  0.13079781196E+04  0.30421917092E+02 -0.41294254398E+03  0.16959319184E+04  0.99696101874E+03 0.  0.
        -13    1    3    3    0    0 -0.40563244430E+03  0.42142107699E+03 -0.34224790399E+02  0.58592213770E+03  0.10566000000E+00 0.  1.
         13    1    4    4    0    0 -0.10608723549E+03  0.84745654509E+02 -0.23266433131E+03  0.26938639483E+03  0.10566000000E+00 0. -1.
          4    1    3    3  502    0 -0.90234567526E+03 -0.45184299408E+03 -0.66663703529E+03  0.12094605185E+04  0.00000000000E+00 0.  1.
         -4    1    4    4    0  501  0.14140653550E+04 -0.54323737417E+02 -0.18027821267E+03  0.14265455236E+04  0.00000000000E+00 0. -1.
</event>
<event>
 8    1  0.7446554E-006  0.1833559E+04  0.7818608E-02  0.8239744E-01
         -2   -1    0    0    0  501 -0.00000000000E+00  0.00000000000E+00  0.36525716081E+04  0.36525716081E+04  0.00000000000E+00 0. -1.
          2   -1    0    0  502    0  0.00000000000E+00 -0.00000000000E+00 -0.10517438385E+04  0.10517438385E+04  0.00000000000E+00 0.  1.
    9000010    2    1    2  502    0  0.14606170879E+04 -0.46387266953E+03  0.47145598355E+03  0.18965660918E+04  0.10129718975E+04 0.  0.
   -9000010    2    1    2    0  501 -0.14606170879E+04  0.46387266953E+03  0.21293717860E+04  0.28077493548E+04  0.10003259996E+04 0.  0.
        -13    1    3    3    0    0  0.14495617988E+04 -0.99101697717E+02  0.48392214016E+03  0.15314147720E+04  0.10566000000E+00 0.  1.
         13    1    4    4    0    0 -0.12289754005E+04  0.75890115649E+03  0.15608210903E+04  0.21266109158E+04  0.10566000000E+00 0. -1.
          4    1    3    3  502    0  0.11055289141E+02 -0.36477097182E+03 -0.12466156604E+02  0.36515131981E+03  0.00000000000E+00 0.  1.
         -4    1    4    4    0  501 -0.23164168744E+03 -0.29502848695E+03  0.56855069569E+03  0.68113843897E+03  0.00000000000E+00 0. -1.
</event>
<event>
 8    1  0.7446554E-006  0.1917150E+04  0.7818608E-02  0.8202984E-01
         -2   -1    0    0    0  501 -0.00000000000E+00  0.00000000000E+00  0.42215169142E+04  0.42215169142E+04  0.00000000000E+00 0. -1.
          2   -1    0    0  502    0  0.00000000000E+00 -0.00000000000E+00 -0.89635561552E+03  0.89635561552E+03  0.00000000000E+00 0.  1.
    9000010    2    1    2  502    0 -0.70534531491E+03  0.14748682486E+04  0.12220505071E+04  0.22661883244E+04  0.98460840731E+03 0.  0.
   -9000010    2    1    2    0  501  0.70534531491E+03 -0.14748682486E+04  0.21031107915E+04  0.28516842053E+04  0.10179781142E+04 0.  0.
        -13    1    3    3    0    0 -0.77204493515E+02  0.96286284359E+03  0.24449601403E+03  0.99641542612E+03  0.10566000000E+00 0.  1.
         13    1    4    4    0    0  0.41054657957E+03 -0.57059713205E+03  0.16594326380E+04  0.18021782022E+04  0.10566000000E+00 0. -1.
          4    1    3    3  502    0 -0.62814082140E+03  0.51200540504E+03  0.97755449310E+03  0.12697728983E+04  0.00000000000E+00 0.  1.
         -4    1    4    4    0  501  0.29479873535E+03 -0.90427111658E+03  0.44367815351E+03  0.10495060031E+04  0.00000000000E+00 0. -1.
</event>
<event>
 8    1  0.7446554E-006  0.1109461E+04  0.7818608E-02  0.8678049E-01
         -2   -1    0    0    0  501 -0.00000000000E+00  0.00000000000E+00  0.58664563041E+03  0.58664563041E+03  0.00000000000E+00 0. -1.
          2   -1    0    0  502    0  0.00000000000E+00 -0.00000000000E+00 -0.25749534741E+04  0.25749534741E+04  0.00000000000E+00 0.  1.
    9000010    2    1    2  502    0 -0.40723355259E+03 -0.19990152578E+03 -0.31214441576E+03  0.11501406863E+04  0.10097473326E+04 0.  0.
   -9000010    2    1    2    0  501  0.40723355259E+03  0.19990152578E+03 -0.16761634279E+04  0.20114584182E+04  0.10152050752E+04 0.  0.
        -13    1    3    3    0    0  0.19684497332E+03 -0.38698462897E+03 -0.28063107524E+03  0.51697084844E+03  0.10566000000E+00 0.  1.
         13    1    4    4    0    0 -0.83220526312E+02 -0.24430345300E+03 -0.11130303694E+04  0.11425613539E+04  0.10566000000E+00 0. -1.
          4    1    3    3  502    0 -0.60407852591E+03  0.18708310319E+03 -0.31513340517E+02  0.63316983788E+03  0.00000000000E+00 0.  1.
         -4    1    4    4    0  501  0.49045407890E+03  0.44420497878E+03 -0.56313305859E+03  0.86889706431E+03  0.00000000000E+00 0. -1.
</event>
<event>
 8    1  0.7446554E-006  0.1121654E+04  0.7818608E-02  0.8668016E-01
          1   -1    0    0  502    0  0.00000000000E+00  0.00000000000E+00  0.79348055628E+03  0.79348055628E+03  0.00000000000E+00 0. -1.
         -1   -1    0    0    0  501 -0.00000000000E+00 -0.00000000000E+00 -0.15865116627E+04  0.15865116627E+04  0.00000000000E+00 0.  1.
    9000010    2    1    2  502    0  0.54102150928E+03 -0.75111006387E+02 -0.42608730501E+03  0.12008823437E+04  0.98092918969E+03 0.  0.
   -9000010    2    1    2    0  501 -0.54102150928E+03  0.75111006387E+02 -0.36694380140E+03  0.11791098753E+04  0.97842036352E+03 0.  0.
        -13    1    3    3    0    0  0.74682008278E+03 -0.21464567943E+03 -0.89174346994E+02  0.78215412743E+03  0.10566000000E+00 0.  1.
         13    1    4    4    0    0 -0.34126264455E+03 -0.28666800560E+03  0.19090992163E+03  0.48485600681E+03  0.10566000000E+00 0. -1.
          4    1    3    3  502    0 -0.20579857350E+03  0.13953467304E+03 -0.33691295801E+03  0.41872821628E+03  0.00000000000E+00 0.  1.
         -4    1    4    4    0  501 -0.19975886473E+03  0.36177901199E+03 -0.55785372303E+03  0.69425386844E+03  0.00000000000E+00 0. -1.
</event>
<event>
 8    1  0.7446554E-006  0.1845034E+04  0.7818608E-02  0.8234580E-01
          2   -1    0    0  502    0  0.00000000000E+00  0.00000000000E+00  0.19986767776E+04  0.19986767776E+04  0.00000000000E+00 0.  1.
         -2   -1    0    0    0  501 -0.00000000000E+00 -0.00000000000E+00 -0.17429461350E+04  0.17429461350E+04  0.00000000000E+00 0. -1.
    9000010    2    1    2  502    0  0.99637464881E+03  0.12072944715E+04 -0.15367037174E+03  0.18624461058E+04  0.99738083608E+03 0.  0.
   -9000010    2    1    2    0  501 -0.99637464881E+03 -0.12072944715E+04  0.40940101434E+03  0.18791768069E+04  0.95570596913E+03 0.  0.
        -13    1    3    3    0    0  0.11867121492E+04  0.11326341079E+04 -0.71298027758E+02  0.16420198438E+04  0.10566000000E+00 0.  1.
         13    1    4    4    0    0 -0.94392799180E+02 -0.84710798208E+03  0.29144592945E+03  0.90080112944E+03  0.10566000000E+00 0. -1.
          4    1    3    3  502    0 -0.19033750037E+03  0.74660363553E+02 -0.82372343985E+02  0.22042626201E+03  0.00000000000E+00 0.  1.
         -4    1    4    4    0  501 -0.90198184963E+03 -0.36018648938E+03  0.11795508490E+03  0.97837567746E+03  0.00000000000E+00 0. -1.
</event>
<event>
 8    1  0.7446554E-006  0.1245493E+04  0.7818608E-02  0.8573070E-01
         -2   -1    0    0    0  501 -0.00000000000E+00  0.00000000000E+00  0.77588784929E+03  0.77588784929E+03  0.00000000000E+00 0. -1.
          2   -1    0    0  502    0  0.00000000000E+00 -0.00000000000E+00 -0.33960812041E+04  0.33960812041E+04  0.00000000000E+00 0.  1.
    9000010    2    1    2  502    0 -0.41998363081E+03  0.60647733510E+03  0.27525727723E+02  0.12460384154E+04  0.10038192361E+04 0.  0.
   -9000010    2    1    2    0  501  0.41998363081E+03 -0.60647733510E+03 -0.26477190825E+04  0.29259306380E+04  0.10032211871E+04 0.  0.
        -13    1    3    3    0    0  0.79130827366E+02  0.35675251335E+03  0.42527297049E+03  0.56070594273E+03  0.10566000000E+00 0.  1.
         13    1    4    4    0    0 -0.13796791660E+03 -0.16171906427E+03 -0.32407338930E+02  0.21503127340E+03  0.10566000000E+00 0. -1.
          4    1    3    3  502    0 -0.49911445818E+03  0.24972482175E+03 -0.39774724277E+03  0.68533247267E+03  0.00000000000E+00 0.  1.
         -4    1    4    4    0  501  0.55795154741E+03 -0.44475827083E+03 -0.26153117436E+04  0.27108993646E+04  0.00000000000E+00 0. -1.
</event>
<event>
 8    1  0.7446554E-006  0.1462534E+04  0.7818608E-02  0.8431393E-01
         -2   -1    0    0    0  501 -0.00000000000E+00  0.00000000000E+00  0.12720877432E+04  0.12720877432E+04  0.00000000000E+00 0. -1.
          2   -1    0    0  502    0  0.00000000000E+00 -0.00000000000E+00 -0.17339252957E+04  0.17339252957E+04  0.00000000000E+00 0.  1.
    9000010    2    1    2  502    0  0.85341577885E+03  0.64445314499E+03  0.30542479559E+02  0.14622042275E+04  0.99672965847E+03 0.  0.
   -9000010    2    1    2    0  501 -0.85341577885E+03 -0.64445314499E+03 -0.49238003205E+03  0.15438088115E+04  0.99863366802E+03 0.  0.
        -13    1    3    3    0    0  0.77655679286E+03  0.88690096569E+03  0.13644626370E+03  0.11866976740E+04  0.10566000000E+00 0.  1.
         13    1    4    4    0    0 -0.20009283381E+03  0.25417672092E+03  0.11890716021E+02  0.32370410545E+03  0.10566000000E+00 0. -1.
          4    1    3    3  502    0  0.76858985987E+02 -0.24244782070E+03 -0.10590378414E+03  0.27550655344E+03  0.00000000000E+00 0.  1.
         -4    1    4    4    0  501 -0.65332294505E+03 -0.89862986590E+03 -0.50427074807E+03  0.12201047061E+04  0.00000000000E+00 0. -1.
</event>
<event>
 8    1  0.7446554E-006  0.2022386E+04  0.7818608E-02  0.8159338E-01
          1   -1    0    0  502    0  0.00000000000E+00  0.00000000000E+00  0.15426786893E+04  0.15426786893E+04  0.00000000000E+00 0.  1.
         -1   -1    0    0    0  501 -0.00000000000E+00 -0.00000000000E+00 -0.26758696432E+04  0.26758696432E+04  0.00000000000E+00 0. -1.
    9000010    2    1    2  502    0 -0.16319148287E+04 -0.67464147669E+03 -0.36370772725E+03  0.20526207653E+04  0.98116337325E+03 0.  0.
   -9000010    2    1    2    0  501  0.16319148287E+04  0.67464147669E+03 -0.76948322665E+03  0.21659275672E+04  0.99037904867E+03 0.  0.
        -13    1    3    3    0    0 -0.13904026816E+04 -0.21506754418E+03  0.19942915082E+02  0.14070790300E+04  0.10566000000E+00 0.  1.
         13    1    4    4    0    0  0.90272921597E+03  0.11933940941E+03 -0.85024167043E+03  0.12458221548E+04  0.10566000000E+00 0. -1.
          4    1    3    3  502    0 -0.24151214707E+03 -0.45957393251E+03 -0.38365064233E+03  0.64554173528E+03  0.00000000000E+00 0.  1.
         -4    1    4    4    0  501  0.72918561273E+03  0.55530206728E+03  0.80758443780E+02  0.92010541243E+03  0.00000000000E+00 0. -1.
</event>
<event>
 8    1  0.7446554E-006  0.1801092E+04  0.7818608E-02  0.8254568E-01
         -2   -1    0    0    0  501 -0.00000000000E+00  0.00000000000E+00  0.16083725241E+04  0.16083725241E+04  0.00000000000E+00 0.  1.
          2   -1    0    0  502    0  0.00000000000E+00 -0.00000000000E+00 -0.31761847869E+04  0.31761847869E+04  0.00000000000E+00 0. -1.
    9000010    2    1    2  502    0 -0.14330015670E+04 -0.44339511471E+03  0.66067708330E+03  0.19208163749E+04  0.10014732242E+04 0.  0.
   -9000010    2    1    2    0  501  0.14330015670E+04  0.44339511471E+03 -0.22284893461E+04  0.28637409361E+04  0.99234805608E+03 0.  0.
        -13    1    3    3    0    0 -0.57518149575E+03 -0.23280581493E+03  0.81480659933E+03  0.10241787471E+04  0.10566000000E+00 0.  1.
         13    1    4    4    0    0  0.13488962226E+04  0.17680956081E+03 -0.12549365988E+04  0.18508507553E+04  0.10566000000E+00 0. -1.
          4    1    3    3  502    0 -0.85782007128E+03 -0.21058929978E+03 -0.15412951603E+03  0.89663762780E+03  0.00000000000E+00 0.  1.
         -4    1    4    4    0  501  0.84105344383E+02  0.26658555390E+03 -0.97355274733E+03  0.10128901808E+04  0.00000000000E+00 0. -1.
</event>
<event>
 8    1  0.7446554E-006  0.1279397E+04  0.7818608E-02  0.8549059E-01
         -1   -1    0    0    0  501 -0.00000000000E+00  0.00000000000E+00  0.30649308412E+04  0.30649308412E+04  0.00000000000E+00 0.  1.
          1   -1    0    0  502    0  0.00000000000E+00 -0.00000000000E+00 -0.53806435652E+03  0.53806435652E+03  0.00000000000E+00 0. -1.
    9000010    2    1    2  502    0  0.58254807966E+03 -0.54220120847E+03  0.11091008702E+04  0.16940434897E+04  0.10031620951E+04 0.  0.
   -9000010    2    1    2    0  501 -0.58254807966E+03  0.54220120847E+03  0.14177656145E+04  0.19089517080E+04  0.10003463752E+04 0.  0.
        -13    1    3    3    0    0  0.27542729682E+03 -0.67638485110E+02  0.10923028857E+04  0.11285214955E+04  0.10566000000E+00 0.  1.
         13    1    4    4    0    0  0.10682154959E+03  0.33563997133E+03  0.39914011813E+02  0.35448296618E+03  0.10566000000E+00 0. -1.
          4    1    3    3  502    0  0.30712078284E+03 -0.47456272336E+03  0.16797984505E+02  0.56552199421E+03  0.00000000000E+00 0.  1.
         -4    1    4    4    0  501 -0.68936962925E+03  0.20656123714E+03  0.13778516027E+04  0.15544687419E+04  0.00000000000E+00 0. -1.
</event>
<event>
 8    1  0.7446554E-006  0.1358817E+04  0.7818608E-02  0.8495695E-01
         -4   -1    0    0    0  501 -0.00000000000E+00  0.00000000000E+00  0.21426433177E+04  0.21426433177E+04  0.00000000000E+00 0. -1.
          4   -1    0    0  502    0  0.00000000000E+00 -0.00000000000E+00 -0.10730035252E+04  0.10730035252E+04  0.00000000000E+00 0.  1.
    9000010    2    1    2  502    0 -0.26328413394E+03 -0.87199098263E+03 -0.17678220981E+03  0.13759572415E+04  0.10160312848E+04 0.  0.
   -9000010    2    1    2    0  501  0.26328413394E+03  0.87199098263E+03  0.12464220024E+04  0.18396896014E+04  0.10006014254E+04 0.  0.
        -13    1    3    3    0    0  0.38169293867E+03 -0.33935127365E+03  0.38606408839E+02  0.51219064061E+03  0.10566000000E+00 0.  1.
         13    1    4    4    0    0  0.61129395087E+03  0.44902300641E+03  0.47980900242E+03  0.89750690505E+03  0.10566000000E+00 0. -1.
          4    1    3    3  502    0 -0.64497707261E+03 -0.53263970898E+03 -0.21538861865E+03  0.86376660090E+03  0.00000000000E+00 0.  1.
         -4    1    4    4    0  501 -0.34800981693E+03  0.42296797622E+03  0.76661299997E+03  0.94218269636E+03  0.00000000000E+00 0. -1.
</event>
<event>
 8    1  0.7446554E-006  0.1237528E+04  0.7818608E-02  0.8578827E-01
          1   -1    0    0  502    0  0.00000000000E+00  0.00000000000E+00  0.54010957148E+03  0.54010957148E+03  0.00000000000E+00 0.  1.
         -1   -1    0    0    0  501 -0.00000000000E+00 -0.00000000000E+00 -0.28722500110E+04  0.28722500110E+04  0.00000000000E+00 0. -1.
    9000010    2    1    2  502    0 -0.68426254672E+03  0.24308143313E+03 -0.13594633649E+04  0.18386407779E+04  0.10025744131E+04 0.  0.
   -9000010    2    1    2    0  501  0.68426254672E+03 -0.24308143313E+03 -0.97267707467E+03  0.15737188046E+04  0.10015919171E+04 0.  0.
        -13    1    3    3    0    0 -0.24664611535E+03 -0.27290989568E+03 -0.10146350964E+04  0.10792583136E+04  0.10566000000E+00 0.  1.
         13    1    4    4    0    0  0.59284073277E+03 -0.59540418472E+03 -0.83499051008E+03  0.11845570652E+04  0.10566000000E+00 0. -1.
          4    1    3    3  502    0 -0.43761643137E+03  0.51599132881E+03 -0.34482826847E+03  0.75938246434E+03  0.00000000000E+00 0.  1.
         -4    1    4    4    0  501  0.91421813952E+02  0.35232275159E+03 -0.13768656459E+03  0.38916173941E+03  0.00000000000E+00 0. -1.
</event>
<event>
 8    1  0.7446554E-006  0.1292220E+04  0.7818608E-02  0.8540176E-01
          2   -1    0    0  502    0  0.00000000000E+00  0.00000000000E+00  0.21142916158E+04  0.21142916158E+04  0.00000000000E+00 0.  1.
         -2   -1    0    0    0  501 -0.00000000000E+00 -0.00000000000E+00 -0.79183439171E+03  0.79183439171E+03  0.00000000000E+00 0. -1.
    9000010    2    1    2  502    0  0.46538448192E+03  0.68934456555E+03  0.58952080838E+03  0.14240879488E+04  0.99434051328E+03 0.  0.
   -9000010    2    1    2    0  501 -0.46538448192E+03 -0.68934456555E+03  0.73293641573E+03  0.14820380587E+04  0.98359665105E+03 0.  0.
        -13    1    3    3    0    0  0.13810792024E+03 -0.24175099012E+03  0.26708617567E+03  0.38581391273E+03  0.10566000000E+00 0.  1.
         13    1    4    4    0    0 -0.29773211668E+03 -0.85810790583E+03  0.24743666883E+03  0.94139179283E+03  0.10566000000E+00 0. -1.
          4    1    3    3  502    0  0.32727656168E+03  0.93109555567E+03  0.32243463271E+03  0.10382740361E+04  0.00000000000E+00 0.  1.
         -4    1    4    4    0  501 -0.16765236524E+03  0.16876334029E+03  0.48549974690E+03  0.54064626590E+03  0.00000000000E+00 0. -1.
</event>
<event>
 8    1  0.7446554E-006  0.1511265E+04  0.7818608E-02  0.8403045E-01
         -2   -1    0    0    0  501 -0.00000000000E+00  0.00000000000E+00  0.98855801607E+03  0.98855801607E+03  0.00000000000E+00 0. -1.
          2   -1    0    0  502    0  0.00000000000E+00 -0.00000000000E+00 -0.27114289893E+04  0.27114289893E+04  0.00000000000E+00 0.  1.
    9000010    2    1    2  502    0 -0.10609308257E+04 -0.15919411110E+03 -0.12700328637E+03  0.14645573463E+04  0.98887886217E+03 0.  0.
   -9000010    2    1    2    0  501  0.10609308257E+04  0.15919411110E+03 -0.15958676869E+04  0.22354296591E+04  0.11399276753E+04 0.  0.
        -13    1    3    3    0    0 -0.72941172028E+03  0.28973243792E+03  0.21022116157E+03  0.81251417908E+03  0.10566000000E+00 0.  1.
         13    1    4    4    0    0  0.97836499460E+03  0.35351234958E+03 -0.56627860212E+03  0.11844156831E+04  0.10566000000E+00 0. -1.
          4    1    3    3  502    0 -0.33151910538E+03 -0.44892654902E+03 -0.33722444795E+03  0.65204316723E+03  0.00000000000E+00 0.  1.
         -4    1    4    4    0  501  0.82565831053E+02 -0.19431823848E+03 -0.10295890848E+04  0.10510139760E+04  0.00000000000E+00 0. -1.
</event>
<event>
 8    1  0.7446554E-006  0.1321739E+04  0.7818608E-02  0.8520127E-01
          2   -1    0    0  502    0  0.00000000000E+00  0.00000000000E+00  0.25870534137E+04  0.25870534137E+04  0.00000000000E+00 0. -1.
         -2   -1    0    0    0  501 -0.00000000000E+00 -0.00000000000E+00 -0.67926865470E+03  0.67926865470E+03  0.00000000000E+00 0.  1.
    9000010    2    1    2  502    0  0.42574326221E+03  0.76166677550E+03  0.82726519029E+03  0.15574459688E+04  0.98988718980E+03 0.  0.
   -9000010    2    1    2    0  501 -0.42574326221E+03 -0.76166677550E+03  0.10805195687E+04  0.17088760995E+04  0.99566127928E+03 0.  0.
        -13    1    3    3    0    0  0.13076396323E+02  0.64108451191E+03  0.18468103573E+02  0.64148376875E+03  0.10566000000E+00 0.  1.
         13    1    4    4    0    0  0.52528221146E+02 -0.32649035723E+03 -0.11464774481E+03  0.34999897705E+03  0.10566000000E+00 0. -1.
          4    1    3    3  502    0  0.41266686588E+03  0.12058226359E+03  0.80879708672E+03  0.91596220008E+03  0.00000000000E+00 0.  1.
         -4    1    4    4    0  501 -0.47827148335E+03 -0.43517641827E+03  0.11951673135E+04  0.13588771225E+04  0.00000000000E+00 0. -1.
</event>
<event>
 8    1  0.7446554E-006  0.1091811E+04  0.7818608E-02  0.8692813E-01
          4   -1    0    0  502    0  0.00000000000E+00  0.00000000000E+00  0.57092469553E+03  0.57092469553E+03  0.00000000000E+00 0. -1.
         -4   -1    0    0    0  501 -0.00000000000E+00 -0.00000000000E+00 -0.25818201171E+04  0.25818201171E+04  0.00000000000E+00 0.  1.
    9000010    2    1    2  502    0  0.36500950831E+03 -0.21187406537E+03 -0.16906693483E+04  0.20095216146E+04  0.10008454995E+04 0.  0.
   -9000010    2    1    2    0  501 -0.36500950831E+03  0.21187406537E+03 -0.32022607327E+03  0.11432231980E+04  0.10130606999E+04 0.  0.
        -13    1    3    3    0    0  0.13727577602E+03 -0.59797507378E+03 -0.76174867102E+03  0.97810013624E+03  0.10566000000E+00 0.  1.
         13    1    4    4    0    0  0.17406180668E+03  0.17888266864E+03  0.25317588736E+03  0.35552012994E+03  0.10566000000E+00 0. -1.
          4    1    3    3  502    0  0.22773373229E+03  0.38610100841E+03 -0.92892067724E+03  0.10314214784E+04  0.00000000000E+00 0.  1.
         -4    1    4    4    0  501 -0.53907131499E+03  0.32991396728E+02 -0.57340196064E+03  0.78770306802E+03  0.00000000000E+00 0. -1.
</event>
<event>
 8    1  0.7446554E-006  0.1254064E+04  0.7818608E-02  0.8566926E-01
          1   -1    0    0  502    0  0.00000000000E+00  0.00000000000E+00  0.32736261049E+04  0.32736261049E+04  0.00000000000E+00 0. -1.
         -1   -1    0    0    0  501 -0.00000000000E+00 -0.00000000000E+00 -0.49159118370E+03  0.49159118370E+03  0.00000000000E+00 0.  1.
    9000010    2    1    2  502    0  0.50322613314E+03 -0.59970406824E+03  0.16876325867E+04  0.21099198123E+04  0.99537749441E+03 0.  0.
   -9000010    2    1    2    0  501 -0.50322613314E+03  0.59970406824E+03  0.10944023345E+04  0.16552974763E+04  0.96406003680E+03 0.  0.
        -13    1    3    3    0    0  0.76657379597E+03 -0.20798487139E+03  0.10489798118E+04  0.13157704010E+04  0.10566000000E+00 0.  1.
         13    1    4    4    0    0 -0.67708764095E+03  0.56952253240E+03  0.46077195110E+03  0.99755420430E+03  0.10566000000E+00 0. -1.
          4    1    3    3  502    0 -0.26334766283E+03 -0.39171919685E+03  0.63865277491E+03  0.79414941138E+03  0.00000000000E+00 0.  1.
         -4    1    4    4    0  501  0.17386150781E+03  0.30181535840E+02  0.63363038344E+03  0.65774327196E+03  0.00000000000E+00 0. -1.
</event>
<event>
 8    1  0.7446554E-006  0.1290646E+04  0.7818608E-02  0.8541261E-01
          1   -1    0    0  502    0  0.00000000000E+00  0.00000000000E+00  0.11961537245E+04  0.11961537245E+04  0.00000000000E+00 0.  1.
         -1   -1    0    0    0  501 -0.00000000000E+00 -0.00000000000E+00 -0.13928104931E+04  0.13928104931E+04  0.00000000000E+00 0. -1.
    9000010    2    1    2  502    0  0.66908037406E+03  0.43794279583E+03 -0.86083767502E+02  0.12826403972E+04  0.99914640271E+03 0.  0.
   -9000010    2    1    2    0  501 -0.66908037406E+03 -0.43794279583E+03 -0.11057300104E+03  0.13063238204E+04  0.10270312049E+04 0.  0.
        -13    1    3    3    0    0  0.54093341680E+02  0.33258856696E+03  0.37698890346E+03  0.50563018994E+03  0.10566000000E+00 0.  1.
         13    1    4    4    0    0  0.21778618532E+03 -0.19734561238E+03  0.17745701057E+03  0.34331780467E+03  0.10566000000E+00 0. -1.
          4    1    3    3  502    0  0.61498703238E+03  0.10535422887E+03 -0.46307267096E+03  0.77701020722E+03  0.00000000000E+00 0.  1.
         -4    1    4    4    0  501 -0.88686655938E+03 -0.24059718346E+03 -0.28803001160E+03  0.96300601578E+03  0.00000000000E+00 0. -1.
</event>
<event>
 8    1  0.7446554E-006  0.1114967E+04  0.7818608E-02  0.8673502E-01
          2   -1    0    0  502    0  0.00000000000E+00  0.00000000000E+00  0.26068960034E+04  0.26068960034E+04  0.00000000000E+00 0.  1.
         -2   -1    0    0    0  501 -0.00000000000E+00 -0.00000000000E+00 -0.53535632875E+03  0.53535632875E+03  0.00000000000E+00 0. -1.
    9000010    2    1    2  502    0 -0.16400011959E+03  0.36372572442E+03  0.15224888750E+04  0.18661988984E+04  0.10027629391E+04 0.  0.
   -9000010    2    1    2    0  501  0.16400011959E+03 -0.36372572442E+03  0.54905079964E+03  0.12760534338E+04  0.10805846304E+04 0.  0.
        -13    1    3    3    0    0  0.30012046403E+03 -0.19115135162E+03  0.50530446564E+03  0.61801597578E+03  0.10566000000E+00 0.  1.
         13    1    4    4    0    0  0.57030279322E+03 -0.46141113891E+03  0.36645159314E+03  0.82001969265E+03  0.10566000000E+00 0. -1.
          4    1    3    3  502    0 -0.46412058362E+03  0.55487707604E+03  0.10171844094E+04  0.12481829226E+04  0.00000000000E+00 0.  1.
         -4    1    4    4    0  501 -0.40630267363E+03  0.97685414491E+02  0.18259920650E+03  0.45603374110E+03  0.00000000000E+00 0. -1.
</event>
<event>
 8    1  0.7446554E-006  0.1141940E+04  0.7818608E-02  0.8651614E-01
          2   -1    0    0  502    0  0.00000000000E+00  0.00000000000E+00  0.99137846067E+03  0.99137846067E+03  0.00000000000E+00 0. -1.
         -2   -1    0    0    0  501 -0.00000000000E+00 -0.00000000000E+00 -0.16656141711E+04  0.16656141711E+04  0.00000000000E+00 0.  1.
    9000010    2    1    2  502    0 -0.41478388091E+03 -0.42117830505E+03  0.26692374590E+03  0.11926313052E+04  0.10008418014E+04 0.  0.
   -9000010    2    1    2    0  501  0.41478388091E+03  0.42117830505E+03 -0.94115945633E+03  0.14643613266E+04  0.95348630830E+03 0.  0.
        -13    1    3    3    0    0 -0.12227599115E+03  0.82934011396E+02 -0.32803032969E+03  0.35976850420E+03  0.10566000000E+00 0.  1.
         13    1    4    4    0    0 -0.16531096557E+03 -0.17915215383E+03 -0.61028620587E+02  0.25129208753E+03  0.10566000000E+00 0. -1.
          4    1    3    3  502    0 -0.29250788976E+03 -0.50411231645E+03  0.59495407559E+03  0.83286280096E+03  0.00000000000E+00 0.  1.
         -4    1    4    4    0  501  0.58009484648E+03  0.60033045889E+03 -0.88013083574E+03  0.12130692391E+04  0.00000000000E+00 0. -1.
</event>
<event>
 8    1  0.7446554E-006  0.1093006E+04  0.7818608E-02  0.8691804E-01
         -2   -1    0    0    0  501 -0.00000000000E+00  0.00000000000E+00  0.81382423332E+03  0.81382423332E+03  0.00000000000E+00 0. -1.
          2   -1    0    0  502    0  0.00000000000E+00 -0.00000000000E+00 -0.14835374072E+04  0.14835374072E+04  0.00000000000E+00 0.  1.
    9000010    2    1    2  502    0 -0.37673732014E+03 -0.17989069764E+03 -0.21814073092E+03  0.11176209779E+04  0.10135085595E+04 0.  0.
   -9000010    2    1    2    0  501  0.37673732014E+03  0.17989069764E+03 -0.45157244299E+03  0.11797406627E+04  0.10067664518E+04 0.  0.
        -13    1    3    3    0    0 -0.44476811351E+03 -0.47866555733E+03 -0.39529559131E+03  0.76367401831E+03  0.10566000000E+00 0.  1.
         13    1    4    4    0    0 -0.26633611570E+03 -0.16348676073E+03  0.17266576203E+02  0.31298720945E+03  0.10566000000E+00 0. -1.
          4    1    3    3  502    0  0.68030793373E+02  0.29877485969E+03  0.17715486039E+03  0.35394695957E+03  0.00000000000E+00 0.  1.
         -4    1    4    4    0  501  0.64307343583E+03  0.34337745837E+03 -0.46883901920E+03  0.86675345325E+03  0.00000000000E+00 0. -1.
</event>
<event>
 8    1  0.7446554E-006  0.1536261E+04  0.7818608E-02  0.8388931E-01
          2   -1    0    0  502    0  0.00000000000E+00  0.00000000000E+00  0.13509104036E+04  0.13509104036E+04  0.00000000000E+00 0. -1.
         -2   -1    0    0    0  501 -0.00000000000E+00 -0.00000000000E+00 -0.18341216323E+04  0.18341216323E+04  0.00000000000E+00 0.  1.
    9000010    2    1    2  502    0 -0.10927732029E+04 -0.40728303646E+03  0.10440500222E+03  0.15459887007E+04  0.10095285599E+04 0.  0.
   -9000010    2    1    2    0  501  0.10927732029E+04  0.40728303646E+03 -0.58761623095E+03  0.16390433352E+04  0.99052383863E+03 0.  0.
        -13    1    3    3    0    0 -0.70908219457E+03  0.26077614800E+03 -0.61192948153E+02  0.75798835485E+03  0.10566000000E+00 0.  1.
         13    1    4    4    0    0  0.12581374431E+04  0.40772561330E+03 -0.63489581127E+03  0.14670523862E+04  0.10566000000E+00 0. -1.
          4    1    3    3  502    0 -0.38369100836E+03 -0.66805918446E+03  0.16559795037E+03  0.78800034582E+03  0.00000000000E+00 0.  1.
         -4    1    4    4    0  501 -0.16536424020E+03 -0.44257684010E+00  0.47279580322E+02  0.17199094897E+03  0.00000000000E+00 0. -1.
</event>
<event>
 8    1  0.7446554E-006  0.1121240E+04  0.7818608E-02  0.8668354E-01
         -2   -1    0    0    0  501 -0.00000000000E+00  0.00000000000E+00  0.14721855785E+04  0.14721855785E+04  0.00000000000E+00 0. -1.
          2   -1    0    0  502    0  0.00000000000E+00 -0.00000000000E+00 -0.87141845336E+03  0.87141845336E+03  0.00000000000E+00 0.  1.
    9000010    2    1    2  502    0  0.40521321892E+03  0.43830409223E+03  0.13331277141E+03  0.11243885278E+04  0.94348769800E+03 0.  0.
   -9000010    2    1    2    0  501 -0.40521321892E+03 -0.43830409223E+03  0.46745435375E+03  0.12192155041E+04  0.95481131257E+03 0.  0.
        -13    1    3    3    0    0  0.23757980562E+03 -0.28638875105E+03  0.28244428827E+02  0.37317615102E+03  0.10566000000E+00 0.  1.
         13    1    4    4    0    0 -0.52993002643E+03 -0.46465568394E+03 -0.30256539765E+02  0.70544043468E+03  0.10566000000E+00 0. -1.
          4    1    3    3  502    0  0.16763341330E+03  0.72469284327E+03  0.10506834259E+03  0.75121237673E+03  0.00000000000E+00 0.  1.
         -4    1    4    4    0  501  0.12471680750E+03  0.26351591710E+02  0.49771089352E+03  0.51377506945E+03  0.00000000000E+00 0. -1.
</event>
<event>
 8    1  0.7446554E-006  0.1431360E+04  0.7818608E-02  0.8450131E-01
          2   -1    0    0  502    0  0.00000000000E+00  0.00000000000E+00  0.21694562595E+04  0.21694562595E+04  0.00000000000E+00 0. -1.
         -2   -1    0    0    0  501 -0.00000000000E+00 -0.00000000000E+00 -0.10718258841E+04  0.10718258841E+04  0.00000000000E+00 0.  1.
    9000010    2    1    2  502    0 -0.67579011047E+03  0.78031618810E+03 -0.87940890372E+01  0.14349937935E+04  0.99676688573E+03 0.  0.
   -9000010    2    1    2    0  501  0.67579011047E+03 -0.78031618810E+03  0.11064244644E+04  0.18062883501E+04  0.98636549093E+03 0.  0.
        -13    1    3    3    0    0 -0.49186286212E+03 -0.56662224859E+02 -0.23592883530E+03  0.54845429103E+03  0.10566000000E+00 0.  1.
         13    1    4    4    0    0 -0.15323023821E+02  0.21519304734E+03  0.15840727180E+03  0.26764849636E+03  0.10566000000E+00 0. -1.
          4    1    3    3  502    0 -0.18392724836E+03  0.83697841296E+03  0.22713474626E+03  0.88653950245E+03  0.00000000000E+00 0.  1.
         -4    1    4    4    0  501  0.69111313429E+03 -0.99550923544E+03  0.94801719257E+03  0.15386398538E+04  0.00000000000E+00 0. -1.
</event>
<event>
 8    1  0.7446554E-006  0.1562911E+04  0.7818608E-02  0.8374186E-01
         -1   -1    0    0    0  501 -0.00000000000E+00  0.00000000000E+00  0.18006180618E+04  0.18006180618E+04  0.00000000000E+00 0.  1.
          1   -1    0    0  502    0  0.00000000000E+00 -0.00000000000E+00 -0.19587745500E+04  0.19587745500E+04  0.00000000000E+00 0. -1.
    9000010    2    1    2  502    0  0.43763815942E+03 -0.11145945901E+04 -0.11210802136E+04  0.19187127746E+04  0.99538415051E+03 0.  0.
   -9000010    2    1    2    0  501 -0.43763815942E+03  0.11145945901E+04  0.96292372542E+03  0.18406798373E+04  0.10134258253E+04 0.  0.
        -13    1    3    3    0    0  0.68956162522E+03 -0.64706877375E+03 -0.40870661469E+03  0.10301622887E+04  0.10566000000E+00 0.  1.
         13    1    4    4    0    0  0.24281678412E+03  0.70130731558E+03  0.64551757255E+03  0.98360809735E+03  0.10566000000E+00 0. -1.
          4    1    3    3  502    0 -0.25192346579E+03 -0.46752581637E+03 -0.71237359890E+03  0.88855048590E+03  0.00000000000E+00 0.  1.
         -4    1    4    4    0  501 -0.68045494354E+03  0.41328727454E+03  0.31740615287E+03  0.85707173991E+03  0.00000000000E+00 0. -1.
</event>
<event>
 8    1  0.7446554E-006  0.1317508E+04  0.7818608E-02  0.8522967E-01
         -2   -1    0    0    0  501 -0.00000000000E+00  0.00000000000E+00  0.11056077064E+04  0.11056077064E+04  0.00000000000E+00 0. -1.
          2   -1    0    0  502    0  0.00000000000E+00 -0.00000000000E+00 -0.18358317770E+04  0.18358317770E+04  0.00000000000E+00 0.  1.
    9000010    2    1    2  502    0  0.84352203868E+03  0.27500600268E+02 -0.92354653924E+03  0.16049398375E+04  0.10052899876E+04 0.  0.
   -9000010    2    1    2    0  501 -0.84352203868E+03 -0.27500600268E+02  0.19332246863E+03  0.13364996459E+04  0.10181218070E+04 0.  0.
        -13    1    3    3    0    0  0.57255378097E+03  0.33963870439E+02 -0.11279889486E+04  0.12654368636E+04  0.10566000000E+00 0.  1.
         13    1    4    4    0    0 -0.40564652245E+02 -0.36776541251E+03  0.27442491947E+03  0.46065815660E+03  0.10566000000E+00 0. -1.
          4    1    3    3  502    0  0.27096825771E+03 -0.64632701710E+01  0.20444240932E+03  0.33950297388E+03  0.00000000000E+00 0.  1.
         -4    1    4    4    0  501 -0.80295738644E+03  0.34026481224E+03 -0.81102450843E+02  0.87584148932E+03  0.00000000000E+00 0. -1.
</event>
<event>
 8    1  0.7446554E-006  0.1457856E+04  0.7818608E-02  0.8434175E-01
          2   -1    0    0  502    0  0.00000000000E+00  0.00000000000E+00  0.26856038514E+04  0.26856038514E+04  0.00000000000E+00 0.  1.
         -2   -1    0    0    0  501 -0.00000000000E+00 -0.00000000000E+00 -0.84987741155E+03  0.84987741155E+03  0.00000000000E+00 0. -1.
    9000010    2    1    2  502    0 -0.77526525518E+03 -0.73581062532E+03  0.13818230801E+04  0.20089204777E+04  0.99190370946E+03 0.  0.
   -9000010    2    1    2    0  501  0.77526525518E+03  0.73581062532E+03  0.45390335980E+03  0.15265607853E+04  0.99091174125E+03 0.  0.
        -13    1    3    3    0    0 -0.63499675754E+03  0.70150434498E+02  0.56468976806E+03  0.85265263200E+03  0.10566000000E+00 0.  1.
         13    1    4    4    0    0 -0.20604976974E+02  0.29936935156E+03  0.53692327983E+03  0.61508795576E+03  0.10566000000E+00 0. -1.
          4    1    3    3  502    0 -0.14026849764E+03 -0.80596105981E+03  0.81713331203E+03  0.11562678457E+04  0.00000000000E+00 0.  1.
         -4    1    4    4    0  501  0.79587023215E+03  0.43644127375E+03 -0.83019920027E+02  0.91147282954E+03  0.00000000000E+00 0. -1.
</event>
<event>
 8    1  0.7446554E-006  0.1499407E+04  0.7818608E-02  0.8409840E-01
          4   -1    0    0  502    0  0.00000000000E+00  0.00000000000E+00  0.13893545034E+04  0.13893545034E+04  0.00000000000E+00 0.  1.
         -4   -1    0    0    0  501 -0.00000000000E+00 -0.00000000000E+00 -0.20054069872E+04  0.20054069872E+04  0.00000000000E+00 0. -1.
    9000010    2    1    2  502    0 -0.42369733103E+03 -0.10414576366E+04  0.43740240822E+03  0.15644248870E+04  0.99596733034E+03 0.  0.
   -9000010    2    1    2    0  501  0.42369733103E+03  0.10414576366E+04 -0.10534548920E+04  0.18303366036E+04  0.98803412689E+03 0.  0.
        -13    1    3    3    0    0 -0.46505483467E+03 -0.40320593453E+03 -0.21387286276E+03  0.65160773283E+03  0.10566000000E+00 0.  1.
         13    1    4    4    0    0 -0.13568928810E+02  0.91658632561E+03 -0.10243931880E+04  0.13746621486E+04  0.10566000000E+00 0. -1.
          4    1    3    3  502    0  0.41357503643E+02 -0.63825170210E+03  0.65127527098E+03  0.91281715416E+03  0.00000000000E+00 0.  1.
         -4    1    4    4    0  501  0.43726625984E+03  0.12487131102E+03 -0.29061704041E+02  0.45567445501E+03  0.00000000000E+00 0. -1.
</event>
<event>
 8    1  0.7446554E-006  0.1126682E+04  0.7818608E-02  0.8663917E-01
          1   -1    0    0  502    0  0.00000000000E+00  0.00000000000E+00  0.12541063110E+04  0.12541063110E+04  0.00000000000E+00 0.  1.
         -1   -1    0    0    0  501 -0.00000000000E+00 -0.00000000000E+00 -0.10129022982E+04  0.10129022982E+04  0.00000000000E+00 0. -1.
    9000010    2    1    2  502    0 -0.47681757710E+03 -0.15743531499E+03  0.14666956325E+03  0.11532933183E+04  0.10278290894E+04 0.  0.
   -9000010    2    1    2    0  501  0.47681757710E+03  0.15743531499E+03  0.94534449516E+02  0.11137152909E+04  0.98958784698E+03 0.  0.
        -13    1    3    3    0    0  0.22656755511E+02  0.17890276054E+03  0.44582521401E+03  0.48091543842E+03  0.10566000000E+00 0.  1.
         13    1    4    4    0    0  0.20150459111E+03 -0.33514906753E+03  0.32073352298E+03  0.50576575768E+03  0.10566000000E+00 0. -1.
          4    1    3    3  502    0 -0.49947433261E+03 -0.33633807553E+03 -0.29915565076E+03  0.67237787989E+03  0.00000000000E+00 0.  1.
         -4    1    4    4    0  501  0.27531298598E+03  0.49258438253E+03 -0.22619907347E+03  0.60794953327E+03  0.00000000000E+00 0. -1.
</event>
<event>
 8    1  0.7446554E-006  0.1162778E+04  0.7818608E-02  0.8635131E-01
         -4   -1    0    0    0  501 -0.00000000000E+00  0.00000000000E+00  0.50841842642E+03  0.50841842642E+03  0.00000000000E+00 0. -1.
          4   -1    0    0  502    0  0.00000000000E+00 -0.00000000000E+00 -0.32513025562E+04  0.32513025562E+04  0.00000000000E+00 0.  1.
    9000010    2    1    2  502    0  0.61337970773E+03 -0.20117987183E+02 -0.21779973272E+04  0.24711349760E+04  0.99307417285E+03 0.  0.
   -9000010    2    1    2    0  501 -0.61337970773E+03  0.20117987183E+02 -0.56488680252E+03  0.12885860066E+04  0.98220028380E+03 0.  0.
        -13    1    3    3    0    0  0.24560014741E+03 -0.50334430483E+03 -0.10310067467E+04  0.11733072252E+04  0.10566000000E+00 0.  1.
         13    1    4    4    0    0 -0.54762868802E+03  0.37006806623E+03 -0.50352876468E+02  0.66285969625E+03  0.10566000000E+00 0. -1.
          4    1    3    3  502    0  0.36777956032E+03  0.48322631765E+03 -0.11469905805E+04  0.12978277508E+04  0.00000000000E+00 0.  1.
         -4    1    4    4    0  501 -0.65751019717E+02 -0.34995007904E+03 -0.51453392605E+03  0.62572631036E+03  0.00000000000E+00 0. -1.
</event>
<event>
 8    1  0.7446554E-006  0.1402801E+04  0.7818608E-02  0.8467731E-01
          2   -1    0    0  502    0  0.00000000000E+00  0.00000000000E+00  0.29903676930E+04  0.29903676930E+04  0.00000000000E+00 0. -1.
         -2   -1    0    0    0  501 -0.00000000000E+00 -0.00000000000E+00 -0.67860261011E+03  0.67860261011E+03  0.00000000000E+00 0.  1.
    9000010    2    1    2  502    0  0.35962881939E+03 -0.91419901891E+03  0.14753527755E+04  0.20360797341E+04  0.10019292078E+04 0.  0.
   -9000010    2    1    2    0  501 -0.35962881939E+03  0.91419901891E+03  0.83641230736E+03  0.16328905690E+04  0.10008263228E+04 0.  0.
        -13    1    3    3    0    0  0.47059762548E+03 -0.91852751978E+03  0.68668942944E+03  0.12396359600E+04  0.10566000000E+00 0.  1.
         13    1    4    4    0    0  0.13604378179E+03 -0.12590552918E+03 -0.34556460549E+02  0.18855840732E+03  0.10566000000E+00 0. -1.
          4    1    3    3  502    0 -0.11096880609E+03  0.43285008688E+01  0.78866334607E+03  0.79644377409E+03  0.00000000000E+00 0.  1.
         -4    1    4    4    0  501 -0.49567260118E+03  0.10401045481E+04  0.87096876790E+03  0.14443321617E+04  0.00000000000E+00 0. -1.
</event>
<event>
 8    1  0.7446554E-006  0.1327910E+04  0.7818608E-02  0.8516004E-01
         -2   -1    0    0    0  501 -0.00000000000E+00  0.00000000000E+00  0.10697869112E+04  0.10697869112E+04  0.00000000000E+00 0.  1.
          2   -1    0    0  502    0  0.00000000000E+00 -0.00000000000E+00 -0.18662790541E+04  0.18662790541E+04  0.00000000000E+00 0. -1.
    9000010    2    1    2  502    0 -0.10007901644E+03 -0.85855178338E+03 -0.89678706863E+03  0.15930261190E+04  0.99316574409E+03 0.  0.
   -9000010    2    1    2    0  501  0.10007901644E+03  0.85855178338E+03  0.10029492571E+03  0.13430398462E+04  0.10230200301E+04 0.  0.
        -13    1    3    3    0    0 -0.49416121340E+03 -0.75249842859E+03 -0.53225418633E+03  0.10458220307E+04  0.10566000000E+00 0.  1.
         13    1    4    4    0    0  0.30071572404E+03  0.89684745341E+03  0.36045889135E+03  0.10122726534E+04  0.10566000000E+00 0. -1.
          4    1    3    3  502    0  0.39408219696E+03 -0.10605335479E+03 -0.36453288230E+03  0.54720408834E+03  0.00000000000E+00 0.  1.
         -4    1    4    4    0  501 -0.20063670760E+03 -0.38295670030E+02 -0.26016396564E+03  0.33076719275E+03  0.00000000000E+00 0. -1.
</event>
<event>
 8    1  0.7446554E-006  0.1770015E+04  0.7818608E-02  0.8269060E-01
          1   -1    0    0  502    0  0.00000000000E+00  0.00000000000E+00  0.21104665143E+04  0.21104665143E+04  0.00000000000E+00 0. -1.
         -1   -1    0    0    0  501 -0.00000000000E+00 -0.00000000000E+00 -0.16651698309E+04  0.16651698309E+04  0.00000000000E+00 0.  1.
    9000010    2    1    2  502    0  0.40517564483E+03 -0.13932208019E+04  0.84424219192E+03  0.19589449322E+04  0.10096974114E+04 0.  0.
   -9000010    2    1    2    0  501 -0.40517564483E+03  0.13932208019E+04 -0.39894550854E+03  0.18166914130E+04  0.10178303714E+04 0.  0.
        -13    1    3    3    0    0  0.14474546181E+03 -0.83818752754E+03 -0.75121020865E+02  0.85390442029E+03  0.10566000000E+00 0.  1.
         13    1    4    4    0    0  0.25386580801E+03  0.96523231960E+02 -0.22320774808E+03  0.35154842163E+03  0.10566000000E+00 0. -1.
          4    1    3    3  502    0  0.26043018301E+03 -0.55503327440E+03  0.91936321279E+03  0.11050405119E+04  0.00000000000E+00 0.  1.
         -4    1    4    4    0  501 -0.65904145284E+03  0.12966975700E+04 -0.17573776046E+03  0.14651429913E+04  0.00000000000E+00 0. -1.
</event>
<event>
 8    1  0.7446554E-006  0.1057916E+04  0.7818608E-02  0.8721999E-01
          2   -1    0    0  502    0  0.00000000000E+00  0.00000000000E+00  0.10031317869E+04  0.10031317869E+04  0.00000000000E+00 0.  1.
         -2   -1    0    0    0  501 -0.00000000000E+00 -0.00000000000E+00 -0.13210919131E+04  0.13210919131E+04  0.00000000000E+00 0. -1.
    9000010    2    1    2  502    0  0.30189669619E+03 -0.16161656407E+03  0.29793353888E+03  0.11082101437E+04  0.10109914935E+04 0.  0.
   -9000010    2    1    2    0  501 -0.30189669619E+03  0.16161656407E+03 -0.61589366510E+03  0.12160135563E+04  0.99101081401E+03 0.  0.
        -13    1    3    3    0    0  0.52371189524E+03 -0.30489963131E+03  0.49193638579E+03  0.78053786149E+03  0.10566000000E+00 0.  1.
         13    1    4    4    0    0  0.12758867278E+03  0.71767727456E+02 -0.74451294744E+03  0.75876809118E+03  0.10566000000E+00 0. -1.
          4    1    3    3  502    0 -0.22181519905E+03  0.14328306725E+03 -0.19400284691E+03  0.32767228216E+03  0.00000000000E+00 0.  1.
         -4    1    4    4    0  501 -0.42948536897E+03  0.89848836609E+02  0.12861928234E+03  0.45724546514E+03  0.00000000000E+00 0. -1.
</event>
<event>
 8    1  0.7446554E-006  0.1517933E+04  0.7818608E-02  0.8399253E-01
          2   -1    0    0  502    0  0.00000000000E+00  0.00000000000E+00  0.21037682818E+04  0.21037682818E+04  0.00000000000E+00 0.  1.
         -2   -1    0    0    0  501 -0.00000000000E+00 -0.00000000000E+00 -0.11526765712E+04  0.11526765712E+04  0.00000000000E+00 0. -1.
    9000010    2    1    2  502    0 -0.74949628623E+03 -0.86477659173E+03  0.83964729580E+03  0.17365523340E+04  0.10005114646E+04 0.  0.
   -9000010    2    1    2    0  501  0.74949628623E+03  0.86477659173E+03  0.11144441481E+03  0.15198925190E+04  0.99401719048E+03 0.  0.
        -13    1    3    3    0    0 -0.17487294731E+03 -0.89374193659E+03  0.68854927332E+03  0.11416896732E+04  0.10566000000E+00 0.  1.
         13    1    4    4    0    0  0.96631116353E+03  0.57537627015E+03 -0.45804253091E+02  0.11255723690E+04  0.10566000000E+00 0. -1.
          4    1    3    3  502    0 -0.57462333892E+03  0.28965344864E+02  0.15109802248E+03  0.59486266082E+03  0.00000000000E+00 0.  1.
         -4    1    4    4    0  501 -0.21681487730E+03  0.28940032158E+03  0.15724866790E+03  0.39432015001E+03  0.00000000000E+00 0. -1.
</event>
<event>
 8    1  0.7446554E-006  0.1333681E+04  0.7818608E-02  0.8512169E-01
          2   -1    0    0  502    0  0.00000000000E+00  0.00000000000E+00  0.12978296671E+04  0.12978296671E+04  0.00000000000E+00 0.  1.
         -2   -1    0    0    0  501 -0.00000000000E+00 -0.00000000000E+00 -0.16432822135E+04  0.16432822135E+04  0.00000000000E+00 0. -1.
    9000010    2    1    2  502    0 -0.57421571407E+03  0.68665300702E+03  0.42692594084E+03  0.13954526297E+04  0.98173634165E+03 0.  0.
   -9000010    2    1    2    0  501  0.57421571407E+03 -0.68665300702E+03 -0.77237848723E+03  0.15456592508E+04  0.99562942597E+03 0.  0.
        -13    1    3    3    0    0 -0.52942387756E+03  0.61214139211E+03  0.72401035334E+03  0.10859087112E+04  0.10566000000E+00 0.  1.
         13    1    4    4    0    0  0.16590092395E+02 -0.31659196936E+03  0.19287857155E+03  0.37109009790E+03  0.10566000000E+00 0. -1.
          4    1    3    3  502    0 -0.44791836517E+02  0.74511614915E+02 -0.29708441250E+03  0.30954391857E+03  0.00000000000E+00 0.  1.
         -4    1    4    4    0  501  0.55762562168E+03 -0.37006103766E+03 -0.96525705878E+03  0.11745691529E+04  0.00000000000E+00 0. -1.
</event>
<event>
 8    1  0.7446554E-006  0.1209668E+04  0.7818608E-02  0.8599317E-01
          2   -1    0    0  502    0  0.00000000000E+00  0.00000000000E+00  0.18065867679E+04  0.18065867679E+04  0.00000000000E+00 0. -1.
         -2   -1    0    0    0  501 -0.00000000000E+00 -0.00000000000E+00 -0.82028931088E+03  0.82028931088E+03  0.00000000000E+00 0.  1.
    9000010    2    1    2  502    0 -0.22398348395E+03 -0.64322929310E+03  0.63869233888E+03  0.13643319273E+04  0.99476689704E+03 0.  0.
   -9000010    2    1    2    0  501  0.22398348395E+03  0.64322929310E+03  0.34760511813E+03  0.12625441515E+04  0.10046272402E+04 0.  0.
        -13    1    3    3    0    0 -0.52407129545E+03 -0.70657388255E+03  0.57536317678E+03  0.10511613437E+04  0.10566000000E+00 0.  1.
         13    1    4    4    0    0  0.24920564645E+02  0.74509379914E+03 -0.10965916784E+03  0.75353231405E+03  0.10566000000E+00 0. -1.
          4    1    3    3  502    0  0.30008781150E+03  0.63344589442E+02  0.63329162104E+02  0.31317058354E+03  0.00000000000E+00 0.  1.
         -4    1    4    4    0  501  0.19906291930E+03 -0.10186450603E+03  0.45726428597E+03  0.50901183744E+03  0.00000000000E+00 0. -1.
</event>
<event>
 8    1  0.7446554E-006  0.1343204E+04  0.7818608E-02  0.8505884E-01
          1   -1    0    0  502    0  0.00000000000E+00  0.00000000000E+00  0.13976815536E+04  0.13976815536E+04  0.00000000000E+00 0.  1.
         -1   -1    0    0    0  501 -0.00000000000E+00 -0.00000000000E+00 -0.13730689942E+04  0.13730689942E+04  0.00000000000E+00 0. -1.
    9000010    2    1    2  502    0  0.83756064453E+03  0.10493843079E+03  0.34917630729E+03  0.13551310713E+04  0.10009676415E+04 0.  0.
   -9000010    2    1    2    0  501 -0.83756064453E+03 -0.10493843079E+03 -0.32456374787E+03  0.14156194766E+04  0.10890899726E+04 0.  0.
        -13    1    3    3    0    0  0.24862455740E+03  0.41659201436E+03  0.47282575612E+03  0.67744171985E+03  0.10566000000E+00 0.  1.
         13    1    4    4    0    0 -0.10068727553E+04 -0.24256708973E+03 -0.13632639214E+02  0.10357689889E+04  0.10566000000E+00 0. -1.
          4    1    3    3  502    0  0.58893608713E+03 -0.31165358357E+03 -0.12364944883E+03  0.67768935145E+03  0.00000000000E+00 0.  1.
         -4    1    4    4    0  501  0.16931211078E+03  0.13762865894E+03 -0.31093110866E+03  0.37985048763E+03  0.00000000000E+00 0. -1.
</event>
<event>
 8    1  0.7446554E-006  0.1822131E+04  0.7818608E-02  0.8244926E-01
         -2   -1    0    0    0  501 -0.00000000000E+00  0.00000000000E+00  0.12115096194E+04  0.12115096194E+04  0.00000000000E+00 0. -1.
          2   -1    0    0  502    0  0.00000000000E+00 -0.00000000000E+00 -0.31334013145E+04  0.31334013145E+04  0.00000000000E+00 0.  1.
    9000010    2    1    2  502    0 -0.61751973204E+03  0.13745676468E+04 -0.17367543895E+04  0.25278701579E+04  0.10502594398E+04 0.  0.
   -9000010    2    1    2    0  501  0.61751973204E+03 -0.13745676468E+04 -0.18513730564E+03  0.18170407760E+04  0.99829581021E+03 0.  0.
        -13    1    3    3    0    0 -0.79227582311E+02  0.15080062958E+03  0.14215146378E+03  0.22186682830E+03  0.10566000000E+00 0.  1.
         13    1    4    4    0    0  0.33533185286E+03 -0.41019040474E+03  0.39127494906E+03  0.65863473687E+03  0.10566000000E+00 0. -1.
          4    1    3    3  502    0 -0.53829214973E+03  0.12237670172E+04 -0.18789058533E+04  0.23060033296E+04  0.00000000000E+00 0.  1.
         -4    1    4    4    0  501  0.28218787918E+03 -0.96437724203E+03 -0.57641225471E+03  0.11584060391E+04  0.00000000000E+00 0. -1.
</event>
<event>
 8    1  0.7446554E-006  0.1700967E+04  0.7818608E-02  0.8302384E-01
          2   -1    0    0  502    0  0.00000000000E+00  0.00000000000E+00  0.35928083534E+04  0.35928083534E+04  0.00000000000E+00 0.  1.
         -2   -1    0    0    0  501 -0.00000000000E+00 -0.00000000000E+00 -0.85156088049E+03  0.85156088049E+03  0.00000000000E+00 0. -1.
    9000010    2    1    2  502    0  0.13001136982E+04  0.43843570479E+03  0.85249806955E+03  0.19024215808E+04  0.10049544353E+04 0.  0.
   -9000010    2    1    2    0  501 -0.13001136982E+04 -0.43843570479E+03  0.18887494034E+04  0.25419476531E+04  0.10057843042E+04 0.  0.
        -13    1    3    3    0    0  0.78768032687E+03  0.60832934876E+03  0.13477599932E+03  0.10043253831E+04  0.10566000000E+00 0.  1.
         13    1    4    4    0    0 -0.69037061431E+03 -0.77762525774E+02  0.21949469482E+03  0.72858529201E+03  0.10566000000E+00 0. -1.
          4    1    3    3  502    0  0.51243337137E+03 -0.16989364397E+03  0.71772207023E+03  0.89809619777E+03  0.00000000000E+00 0.  1.
         -4    1    4    4    0  501 -0.60974308393E+03 -0.36067317902E+03  0.16692547085E+04  0.18133623610E+04  0.00000000000E+00 0. -1.
</event>
<event>
 8    1  0.7446554E-006  0.1358479E+04  0.7818608E-02  0.8495914E-01
         -2   -1    0    0    0  501 -0.00000000000E+00  0.00000000000E+00  0.90870876157E+03  0.90870876157E+03  0.00000000000E+00 0. -1.
          2   -1    0    0  502    0  0.00000000000E+00 -0.00000000000E+00 -0.22848692345E+04  0.22848692345E+04  0.00000000000E+00 0.  1.
    9000010    2    1    2  502    0  0.63190681157E+03  0.67291712230E+03 -0.12221151822E+04  0.18300361904E+04  0.10016702390E+04 0.  0.
   -9000010    2    1    2    0  501 -0.63190681157E+03 -0.67291712230E+03 -0.15404529075E+03  0.13635418057E+04  0.99166155125E+03 0.  0.
        -13    1    3    3    0    0  0.74111760353E+03  0.74573196484E+03 -0.13042148771E+04  0.16752157839E+04  0.10566000000E+00 0.  1.
         13    1    4    4    0    0 -0.75899751264E+03 -0.74261961785E+03 -0.35155657539E+03  0.11185495777E+04  0.10566000000E+00 0. -1.
          4    1    3    3  502    0 -0.10921079196E+03 -0.72814842534E+02  0.82099694925E+02  0.15482040654E+03  0.00000000000E+00 0.  1.
         -4    1    4    4    0  501  0.12709070108E+03  0.69702495546E+02  0.19751128464E+03  0.24499222793E+03  0.00000000000E+00 0. -1.
</event>
<event>
 8    1  0.7446554E-006  0.1040358E+04  0.7818608E-02  0.8737569E-01
          2   -1    0    0  502    0  0.00000000000E+00  0.00000000000E+00  0.41835583936E+04  0.41835583936E+04  0.00000000000E+00 0. -1.
         -2   -1    0    0    0  501 -0.00000000000E+00 -0.00000000000E+00 -0.26076090201E+03  0.26076090201E+03  0.00000000000E+00 0.  1.
    9000010    2    1    2  502    0 -0.28428785253E+03  0.86148478513E+02  0.17491818191E+04  0.20307871883E+04  0.98803766340E+03 0.  0.
   -9000010    2    1    2    0  501  0.28428785253E+03 -0.86148478513E+02  0.21736156725E+04  0.24135321073E+04  0.10061267306E+04 0.  0.
        -13    1    3    3    0    0 -0.18239079852E+03  0.11506939333E+03 -0.55753850098E+02  0.22274620453E+03  0.10566000000E+00 0.  1.
         13    1    4    4    0    0  0.13212163336E+03  0.31474879468E+03  0.18368372695E+04  0.18682864062E+04  0.10566000000E+00 0. -1.
          4    1    3    3  502    0 -0.10189705401E+03 -0.28920914815E+02  0.18049356692E+04  0.18080409837E+04  0.00000000000E+00 0.  1.
         -4    1    4    4    0  501  0.15216621917E+03 -0.40089727319E+03  0.33677840300E+03  0.54524570116E+03  0.00000000000E+00 0. -1.
</event>
<event>
 8    1  0.7446554E-006  0.1373774E+04  0.7818608E-02  0.8486065E-01
         -2   -1    0    0    0  501 -0.00000000000E+00  0.00000000000E+00  0.11769061324E+04  0.11769061324E+04  0.00000000000E+00 0.  1.
          2   -1    0    0  502    0  0.00000000000E+00 -0.00000000000E+00 -0.21720351617E+04  0.21720351617E+04  0.00000000000E+00 0. -1.
    9000010    2    1    2  502    0  0.30873726245E+03 -0.86009142594E+03 -0.13567693673E+04  0.19379130049E+04  0.10390417415E+04 0.  0.
   -9000010    2    1    2    0  501 -0.30873726245E+03  0.86009142594E+03  0.36164033794E+03  0.14110282892E+04  0.10124925386E+04 0.  0.
        -13    1    3    3    0    0  0.59228812818E+03 -0.47818568695E+03 -0.37850247064E+03  0.85013581823E+03  0.10566000000E+00 0.  1.
         13    1    4    4    0    0 -0.49437356724E+03  0.41903230718E+03  0.59396210017E+03  0.87908150137E+03  0.10566000000E+00 0. -1.
          4    1    3    3  502    0 -0.28355086573E+03 -0.38190573899E+03 -0.97826689662E+03  0.10877771867E+04  0.00000000000E+00 0.  1.
         -4    1    4    4    0  501  0.18563630480E+03  0.44105911876E+03 -0.23232176222E+03  0.53194678785E+03  0.00000000000E+00 0. -1.
</event>
<event>
 8    1  0.7446554E-006  0.1064620E+04  0.7818608E-02  0.8716136E-01
         -2   -1    0    0    0  501 -0.00000000000E+00  0.00000000000E+00  0.80415930028E+03  0.80415930028E+03  0.00000000000E+00 0.  1.
          2   -1    0    0  502    0  0.00000000000E+00 -0.00000000000E+00 -0.14382220449E+04  0.14382220449E+04  0.00000000000E+00 0. -1.
    9000010    2    1    2  502    0  0.27555977417E+03 -0.20849990782E+03 -0.15727013534E+03  0.10720423151E+04  0.10025644265E+04 0.  0.
   -9000010    2    1    2    0  501 -0.27555977417E+03  0.20849990782E+03 -0.47679260926E+03  0.11703390301E+04  0.10114132945E+04 0.  0.
        -13    1    3    3    0    0 -0.23587090515E+03 -0.13397435018E+03  0.28379871943E+03  0.39258876030E+03  0.10566000000E+00 0.  1.
         13    1    4    4    0    0 -0.25073899776E+03  0.55778161248E+03 -0.43287755718E+02  0.61307765673E+03  0.10566000000E+00 0. -1.
          4    1    3    3  502    0  0.51143067933E+03 -0.74525557639E+02 -0.44106885477E+03  0.67945355481E+03  0.00000000000E+00 0.  1.
         -4    1    4    4    0  501 -0.24820776413E+02 -0.34928170466E+03 -0.43350485355E+03  0.55726137333E+03  0.00000000000E+00 0. -1.
</event>
<event>
 8    1  0.7446554E-006  0.1153539E+04  0.7818608E-02  0.8642394E-01
         -1   -1    0    0    0  501 -0.00000000000E+00  0.00000000000E+00  0.98279118165E+03  0.98279118165E+03  0.00000000000E+00 0.  1.
          1   -1    0    0  502    0  0.00000000000E+00 -0.00000000000E+00 -0.13616433189E+04  0.13616433189E+04  0.00000000000E+00 0. -1.
    9000010    2    1    2  502    0  0.36111913777E+03 -0.54744012875E+03 -0.10302341239E+03  0.11240905424E+04  0.90712071848E+03 0.  0.
   -9000010    2    1    2    0  501 -0.36111913777E+03  0.54744012875E+03 -0.27582872483E+03  0.12203439581E+04  0.99149390534E+03 0.  0.
        -13    1    3    3    0    0  0.51440377140E+03 -0.26413275027E+03 -0.38606593662E+03  0.69528718410E+03  0.10566000000E+00 0.  1.
         13    1    4    4    0    0 -0.51108890802E+03  0.66700485670E+03  0.50506844580E+02  0.84181845031E+03  0.10566000000E+00 0. -1.
          4    1    3    3  502    0 -0.15328463363E+03 -0.28330737847E+03  0.28304252423E+03  0.42880335835E+03  0.00000000000E+00 0.  1.
         -4    1    4    4    0  501  0.14996977025E+03 -0.11956472795E+03 -0.32633556941E+03  0.37852550776E+03  0.00000000000E+00 0. -1.
</event>
<event>
 8    1  0.7446554E-006  0.1299674E+04  0.7818608E-02  0.8535062E-01
         -2   -1    0    0    0  501 -0.00000000000E+00  0.00000000000E+00  0.11242870922E+04  0.11242870922E+04  0.00000000000E+00 0. -1.
          2   -1    0    0  502    0  0.00000000000E+00 -0.00000000000E+00 -0.23184832964E+04  0.23184832964E+04  0.00000000000E+00 0.  1.
    9000010    2    1    2  502    0 -0.11885344375E+03  0.83683970905E+03 -0.16189031580E+04  0.20771981275E+04  0.98968570057E+03 0.  0.
   -9000010    2    1    2    0  501  0.11885344375E+03 -0.83683970905E+03  0.42470695381E+03  0.13655722611E+04  0.98487804528E+03 0.  0.
        -13    1    3    3    0    0 -0.30319199582E+03  0.98646855401E+03 -0.14729314425E+04  0.17984917681E+04  0.10566000000E+00 0.  1.
         13    1    4    4    0    0 -0.24461800155E+03 -0.82699627308E+03  0.49624425548E+03  0.99499707268E+03  0.10566000000E+00 0. -1.
          4    1    3    3  502    0  0.18433855207E+03 -0.14962884496E+03 -0.14597171551E+03  0.27870635937E+03  0.00000000000E+00 0.  1.
         -4    1    4    4    0  501  0.36347144530E+03 -0.98434359670E+01 -0.71537301674E+02  0.37057518847E+03  0.00000000000E+00 0. -1.
</event>
<event>
 8    1  0.7446554E-006  0.1221913E+04  0.7818608E-02  0.8590242E-01
          2   -1    0    0  502    0  0.00000000000E+00  0.00000000000E+00  0.10036239737E+04  0.10036239737E+04  0.00000000000E+00 0. -1.
         -2   -1    0    0    0  501 -0.00000000000E+00 -0.00000000000E+00 -0.16068230215E+04  0.16068230215E+04  0.00000000000E+00 0.  1.
    9000010    2    1    2  502    0 -0.33109977989E+03 -0.62684687290E+03  0.55135883265E+02  0.12171500865E+04  0.98785135576E+03 0.  0.
   -9000010    2    1    2    0  501  0.33109977989E+03  0.62684687290E+03 -0.65833493098E+03  0.13932969087E+04  0.10026501525E+04 0.  0.
        -13    1    3    3    0    0 -0.40072852574E+03 -0.20356747364E+03  0.44862137167E+03  0.63504662345E+03  0.10566000000E+00 0.  1.
         13    1    4    4    0    0 -0.35754582325E+03  0.14428239863E+03 -0.17527813315E+03  0.42353141725E+03  0.10566000000E+00 0. -1.
          4    1    3    3  502    0  0.69628745857E+02 -0.42327939926E+03 -0.39348548840E+03  0.58210346303E+03  0.00000000000E+00 0.  1.
         -4    1    4    4    0  501  0.68864560313E+03  0.48256447427E+03 -0.48305679783E+03  0.96976549148E+03  0.00000000000E+00 0. -1.
</event>
<event>
 8    1  0.7446554E-006  0.1376231E+04  0.7818608E-02  0.8484495E-01
          2   -1    0    0  502    0  0.00000000000E+00  0.00000000000E+00  0.28727010004E+04  0.28727010004E+04  0.00000000000E+00 0.  1.
         -2   -1    0    0    0  501 -0.00000000000E+00 -0.00000000000E+00 -0.69203431996E+03  0.69203431996E+03  0.00000000000E+00 0. -1.
    9000010    2    1    2  502    0  0.44982389614E+03 -0.85714152238E+03  0.69475087579E+03  0.15319046717E+04  0.96281878706E+03 0.  0.
   -9000010    2    1    2    0  501 -0.44982389614E+03  0.85714152238E+03  0.14859158046E+04  0.20328306487E+04  0.99369086784E+03 0.  0.
        -13    1    3    3    0    0  0.66160269790E+03 -0.90523210197E+03  0.45949036678E+03  0.12117321060E+04  0.10566000000E+00 0.  1.
         13    1    4    4    0    0 -0.46690478544E+03  0.90712335282E+03  0.16054228700E+04  0.19021712485E+04  0.10566000000E+00 0. -1.
          4    1    3    3  502    0 -0.21177880177E+03  0.48090579588E+02  0.23526050900E+03  0.32017256569E+03  0.00000000000E+00 0.  1.
         -4    1    4    4    0  501  0.17080889305E+02 -0.49981830443E+02 -0.11950706543E+03  0.13065940013E+03  0.00000000000E+00 0. -1.
</event>
<event>
 8    1  0.7446554E-006  0.1142718E+04  0.7818608E-02  0.8650992E-01
         -1   -1    0    0    0  501 -0.00000000000E+00  0.00000000000E+00  0.94093981708E+03  0.94093981708E+03  0.00000000000E+00 0. -1.
          1   -1    0    0  502    0  0.00000000000E+00 -0.00000000000E+00 -0.14373844067E+04  0.14373844067E+04  0.00000000000E+00 0.  1.
    9000010    2    1    2  502    0 -0.21437600458E+03  0.51454738401E+03 -0.26719457794E+02  0.11402624554E+04  0.99436837042E+03 0.  0.
   -9000010    2    1    2    0  501  0.21437600458E+03 -0.51454738401E+03 -0.46972513180E+03  0.12380617683E+04  0.10007193218E+04 0.  0.
        -13    1    3    3    0    0 -0.42333451937E+03  0.25794585117E+02 -0.32172507250E+03  0.53233871675E+03  0.10566000000E+00 0.  1.
         13    1    4    4    0    0  0.13166043911E+03  0.21056398073E+03 -0.44288005809E+03  0.50775428922E+03  0.10566000000E+00 0. -1.
          4    1    3    3  502    0  0.20895851480E+03  0.48875279890E+03  0.29500561471E+03  0.60792373867E+03  0.00000000000E+00 0.  1.
         -4    1    4    4    0  501  0.82715565467E+02 -0.72511136474E+03 -0.26845073703E+02  0.73030747910E+03  0.00000000000E+00 0. -1.
</event>
<event>
 8    1  0.7446554E-006  0.1314638E+04  0.7818608E-02  0.8524901E-01
          2   -1    0    0  502    0  0.00000000000E+00  0.00000000000E+00  0.27991416559E+04  0.27991416559E+04  0.00000000000E+00 0.  1.
         -2   -1    0    0    0  501 -0.00000000000E+00 -0.00000000000E+00 -0.10274160033E+04  0.10274160033E+04  0.00000000000E+00 0. -1.
    9000010    2    1    2  502    0  0.69721851888E+03 -0.48465369135E+03 -0.32607439106E+03  0.13464286148E+04  0.99274500380E+03 0.  0.
   -9000010    2    1    2    0  501 -0.69721851888E+03  0.48465369135E+03  0.20978000437E+04  0.24801290444E+04  0.10145305268E+04 0.  0.
        -13    1    3    3    0    0  0.69467262359E+03 -0.41094540618E+03  0.18665340042E+03  0.82842361379E+03  0.10566000000E+00 0.  1.
         13    1    4    4    0    0  0.21864673148E+03  0.63704021252E+02  0.11341188613E+03  0.25441474523E+03  0.10566000000E+00 0. -1.
          4    1    3    3  502    0  0.25458952900E+01 -0.73708285163E+02 -0.51272779148E+03  0.51800500098E+03  0.00000000000E+00 0.  1.
         -4    1    4    4    0  501 -0.91586525036E+03  0.42094967010E+03  0.19843881576E+04  0.22257142991E+04  0.00000000000E+00 0. -1.
</event>
<event>
 8    1  0.7446554E-006  0.1773788E+04  0.7818608E-02  0.8267284E-01
          2   -1    0    0  502    0  0.00000000000E+00  0.00000000000E+00  0.30466997475E+04  0.30466997475E+04  0.00000000000E+00 0. -1.
         -2   -1    0    0    0  501 -0.00000000000E+00 -0.00000000000E+00 -0.10480651584E+04  0.10480651584E+04  0.00000000000E+00 0.  1.
    9000010    2    1    2  502    0  0.75484759952E+03 -0.12458675288E+04  0.75820407469E+03  0.19397401724E+04  0.10323457366E+04 0.  0.
   -9000010    2    1    2    0  501 -0.75484759952E+03  0.12458675288E+04  0.12404305144E+04  0.21550247334E+04  0.99170708523E+03 0.  0.
        -13    1    3    3    0    0  0.31730472777E+03 -0.48344358602E+02 -0.16951590273E+03  0.36298088065E+03  0.10566000000E+00 0.  1.
         13    1    4    4    0    0 -0.22690613443E+02  0.51471940083E+03 -0.30539727997E+02  0.51612363991E+03  0.10566000000E+00 0. -1.
          4    1    3    3  502    0  0.43754287174E+03 -0.11975231702E+04  0.92771997743E+03  0.15767592918E+04  0.00000000000E+00 0.  1.
         -4    1    4    4    0  501 -0.73215698607E+03  0.73114812793E+03  0.12709702424E+04  0.16389010935E+04  0.00000000000E+00 0. -1.
</event>
<event>
 8    1  0.7446554E-006  0.1689568E+04  0.7818608E-02  0.8308042E-01
         -2   -1    0    0    0  501 -0.00000000000E+00  0.00000000000E+00  0.10447156013E+04  0.10447156013E+04  0.00000000000E+00 0.  1.
          2   -1    0    0  502    0  0.00000000000E+00 -0.00000000000E+00 -0.29689620944E+04  0.29689620944E+04  0.00000000000E+00 0. -1.
    9000010    2    1    2  502    0  0.75943238781E+03  0.11275387994E+04 -0.15288033406E+04  0.22789551952E+04  0.10041493076E+04 0.  0.
   -9000010    2    1    2    0  501 -0.75943238781E+03 -0.11275387994E+04 -0.39544315252E+03  0.17347225005E+04  0.10023999058E+04 0.  0.
        -13    1    3    3    0    0  0.17755040383E+03  0.83307988246E+03 -0.32851543359E+03  0.91294503544E+03  0.10566000000E+00 0.  1.
         13    1    4    4    0    0  0.72261811496E+02 -0.11401695775E+03 -0.40154171620E+03  0.42362412239E+03  0.10566000000E+00 0. -1.
          4    1    3    3  502    0  0.58188198399E+03  0.29445891696E+03 -0.12002879070E+04  0.13660101598E+04  0.00000000000E+00 0.  1.
         -4    1    4    4    0  501 -0.83169419931E+03 -0.10135218417E+04  0.60985636845E+01  0.13110983781E+04  0.00000000000E+00 0. -1.
</event>
<event>
 8    1  0.7446554E-006  0.1703289E+04  0.7818608E-02  0.8301237E-01
          1   -1    0    0  502    0  0.00000000000E+00  0.00000000000E+00  0.11360492891E+04  0.11360492891E+04  0.00000000000E+00 0.  1.
         -1   -1    0    0    0  501 -0.00000000000E+00 -0.00000000000E+00 -0.25803863913E+04  0.25803863913E+04  0.00000000000E+00 0. -1.
    9000010    2    1    2  502    0  0.93861116375E+03 -0.10210117124E+04 -0.53980667905E+03  0.18000260046E+04  0.10125445831E+04 0.  0.
   -9000010    2    1    2    0  501 -0.93861116375E+03  0.10210117124E+04 -0.90453042314E+03  0.19164096758E+04  0.96488078305E+03 0.  0.
        -13    1    3    3    0    0  0.47094554404E+03 -0.10746127485E+04 -0.61280243731E+03  0.13236725815E+04  0.10566000000E+00 0.  1.
         13    1    4    4    0    0 -0.77080800189E+03  0.26257317280E+03 -0.78392627133E+03  0.11303229879E+04  0.10566000000E+00 0. -1.
          4    1    3    3  502    0  0.46766561971E+03  0.53601036098E+02  0.72995758264E+02  0.47635342305E+03  0.00000000000E+00 0.  1.
         -4    1    4    4    0  501 -0.16780316186E+03  0.75843853963E+03 -0.12060415182E+03  0.78608668794E+03  0.00000000000E+00 0. -1.
</event>
<event>
 8    1  0.7446554E-006  0.1153320E+04  0.7818608E-02  0.8642568E-01
         -2   -1    0    0    0  501 -0.00000000000E+00  0.00000000000E+00  0.20481406661E+04  0.20481406661E+04  0.00000000000E+00 0. -1.
          2   -1    0    0  502    0  0.00000000000E+00 -0.00000000000E+00 -0.65161706854E+03  0.65161706854E+03  0.00000000000E+00 0.  1.
    9000010    2    1    2  502    0  0.53078524952E+03  0.18602855196E+03  0.61442091342E+03  0.12965445853E+04  0.99356690745E+03 0.  0.
   -9000010    2    1    2    0  501 -0.53078524952E+03 -0.18602855196E+03  0.78210268416E+03  0.14032131494E+04  0.10202857104E+04 0.  0.
        -13    1    3    3    0    0  0.34570021660E+03  0.15530623068E+03  0.88761134359E+03  0.96513344854E+03  0.10566000000E+00 0.  1.
         13    1    4    4    0    0 -0.61146004140E+03  0.18158290554E+03  0.13100591972E+03  0.65116687261E+03  0.10566000000E+00 0. -1.
          4    1    3    3  502    0  0.18508503292E+03  0.30722321282E+02 -0.27319043017E+03  0.33141113677E+03  0.00000000000E+00 0.  1.
         -4    1    4    4    0  501  0.80674791885E+02 -0.36761145750E+03  0.65109676444E+03  0.75204627677E+03  0.00000000000E+00 0. -1.
</event>
<event>
 8    1  0.7446554E-006  0.1173176E+04  0.7818608E-02  0.8627040E-01
         -2   -1    0    0    0  501 -0.00000000000E+00  0.00000000000E+00  0.52096557174E+03  0.52096557174E+03  0.00000000000E+00 0. -1.
          2   -1    0    0  502    0  0.00000000000E+00 -0.00000000000E+00 -0.26679334352E+04  0.26679334352E+04  0.00000000000E+00 0.  1.
    9000010    2    1    2  502    0  0.15250598649E+03 -0.49643990582E+03 -0.11605771223E+04  0.16118235727E+04  0.99061865348E+03 0.  0.
   -9000010    2    1    2    0  501 -0.15250598649E+03  0.49643990582E+03 -0.98639074113E+03  0.15770754343E+04  0.11155669299E+04 0.  0.
        -13    1    3    3    0    0  0.47606222147E+03 -0.60295053219E+02 -0.87575293925E+03  0.99860600535E+03  0.10566000000E+00 0.  1.
         13    1    4    4    0    0  0.36968006010E+03 -0.15002345368E+03 -0.29808239393E+03  0.49801958618E+03  0.10566000000E+00 0. -1.
          4    1    3    3  502    0 -0.32355623498E+03 -0.43614485260E+03 -0.28482418310E+03  0.61321756736E+03  0.00000000000E+00 0.  1.
         -4    1    4    4    0  501 -0.52218604659E+03  0.64646335949E+03 -0.68830834720E+03  0.10790558481E+04  0.00000000000E+00 0. -1.
</event>
<event>
 8    1  0.7446554E-006  0.1161732E+04  0.7818608E-02  0.8635950E-01
          2   -1    0    0  502    0  0.00000000000E+00  0.00000000000E+00  0.32687477311E+03  0.32687477311E+03  0.00000000000E+00 0.  1.
         -2   -1    0    0    0  501 -0.00000000000E+00 -0.00000000000E+00 -0.41628514362E+04  0.41628514362E+04  0.00000000000E+00 0. -1.
    9000010    2    1    2  502    0 -0.59050273495E+03 -0.18384389931E+03 -0.21291534446E+04  0.24279925177E+04  0.98962680629E+03 0.  0.
   -9000010    2    1    2    0  501  0.59050273495E+03  0.18384389931E+03 -0.17068232185E+04  0.20617336917E+04  0.97724523889E+03 0.  0.
        -13    1    3    3    0    0 -0.20582657418E+03  0.36995334602E+03 -0.44667757458E+03  0.61542743168E+03  0.10566000000E+00 0.  1.
         13    1    4    4    0    0  0.20828487176E+03  0.47407051178E+03 -0.13985612542E+04  0.14913413529E+04  0.10566000000E+00 0. -1.
          4    1    3    3  502    0 -0.38467616077E+03 -0.55379724533E+03 -0.16824758701E+04  0.18125650860E+04  0.00000000000E+00 0.  1.
         -4    1    4    4    0  501  0.38221786319E+03 -0.29022661247E+03 -0.30826196431E+03  0.57039233881E+03  0.00000000000E+00 0. -1.
</event>
<event>
 8    1  0.7446554E-006  0.1161060E+04  0.7818608E-02  0.8636477E-01
          1   -1    0    0  502    0  0.00000000000E+00  0.00000000000E+00  0.10973687461E+04  0.10973687461E+04  0.00000000000E+00 0. -1.
         -1   -1    0    0    0  501 -0.00000000000E+00 -0.00000000000E+00 -0.12821075623E+04  0.12821075623E+04  0.00000000000E+00 0.  1.
    9000010    2    1    2  502    0  0.51113028474E+03  0.29257998155E+03 -0.33583831104E+03  0.12095868572E+04  0.10017263999E+04 0.  0.
   -9000010    2    1    2    0  501 -0.51113028474E+03 -0.29257998155E+03  0.15109949479E+03  0.11698894513E+04  0.99947639158E+03 0.  0.
        -13    1    3    3    0    0  0.33886419075E+02  0.39634800358E+03 -0.54795143552E+03  0.67711949920E+03  0.10566000000E+00 0.  1.
         13    1    4    4    0    0 -0.15618355230E+03 -0.59615132606E+03 -0.12288136069E+03  0.62840237550E+03  0.10566000000E+00 0. -1.
          4    1    3    3  502    0  0.47724386567E+03 -0.10376802203E+03  0.21211312448E+03  0.53246735796E+03  0.00000000000E+00 0.  1.
         -4    1    4    4    0  501 -0.35494673244E+03  0.30357134451E+03  0.27398085548E+03  0.54148707579E+03  0.00000000000E+00 0. -1.
</event>
<event>
 8    1  0.7446554E-006  0.1046263E+04  0.7818608E-02  0.8732297E-01
         -2   -1    0    0    0  501 -0.00000000000E+00  0.00000000000E+00  0.88275206137E+03  0.88275206137E+03  0.00000000000E+00 0.  1.
          2   -1    0    0  502    0  0.00000000000E+00 -0.00000000000E+00 -0.12402677736E+04  0.12402677736E+04  0.00000000000E+00 0. -1.
    9000010    2    1    2  502    0  0.23813208027E+03  0.12992650735E+03 -0.19207743788E+03  0.10696425664E+04  0.10166876082E+04 0.  0.
   -9000010    2    1    2    0  501 -0.23813208027E+03 -0.12992650735E+03 -0.16543827431E+03  0.10533772685E+04  0.10043137270E+04 0.  0.
        -13    1    3    3    0    0  0.51722809877E+03 -0.12876047062E+03 -0.37071460064E+03  0.64925610605E+03  0.10566000000E+00 0.  1.
         13    1    4    4    0    0 -0.69546360481E+01  0.27665447989E+03 -0.43349451750E+03  0.51429911148E+03  0.10566000000E+00 0. -1.
          4    1    3    3  502    0 -0.27909601850E+03  0.25868697797E+03  0.17863716276E+03  0.42038646034E+03  0.00000000000E+00 0.  1.
         -4    1    4    4    0  501 -0.23117744422E+03 -0.40658098724E+03  0.26805624319E+03  0.53907815706E+03  0.00000000000E+00 0. -1.
</event>
<event>
 8    1  0.7446554E-006  0.1136940E+04  0.7818608E-02  0.8655624E-01
          1   -1    0    0  502    0  0.00000000000E+00  0.00000000000E+00  0.34205326963E+04  0.34205326963E+04  0.00000000000E+00 0. -1.
         -1   -1    0    0    0  501 -0.00000000000E+00 -0.00000000000E+00 -0.41220427639E+03  0.41220427639E+03  0.00000000000E+00 0.  1.
    9000010    2    1    2  502    0  0.10159441227E+03 -0.53914486235E+03  0.94174704874E+03  0.14701438451E+04  0.98662901549E+03 0.  0.
   -9000010    2    1    2    0  501 -0.10159441227E+03  0.53914486235E+03  0.20665813711E+04  0.23625931276E+04  0.10050318979E+04 0.  0.
        -13    1    3    3    0    0 -0.22775912076E+03 -0.31292845244E+03  0.99446049518E+03  0.10671223552E+04  0.10566000000E+00 0.  1.
         13    1    4    4    0    0  0.33547248122E+03  0.12978290685E+03  0.14845621419E+04  0.15275176440E+04  0.10566000000E+00 0. -1.
          4    1    3    3  502    0  0.32935353303E+03 -0.22621640990E+03 -0.52713446443E+02  0.40302148983E+03  0.00000000000E+00 0.  1.
         -4    1    4    4    0  501 -0.43706689349E+03  0.40936195550E+03  0.58201922927E+03  0.83507548356E+03  0.00000000000E+00 0. -1.
</event>
<event>
 8    1  0.7446554E-006  0.1142257E+04  0.7818608E-02  0.8651360E-01
         -2   -1    0    0    0  501 -0.00000000000E+00  0.00000000000E+00  0.66207717918E+03  0.66207717918E+03  0.00000000000E+00 0. -1.
          2   -1    0    0  502    0  0.00000000000E+00 -0.00000000000E+00 -0.20919896352E+04  0.20919896352E+04  0.00000000000E+00 0.  1.
    9000010    2    1    2  502    0 -0.12185500023E+03  0.48833635711E+03 -0.39806261725E+03  0.12315417557E+04  0.10511518491E+04 0.  0.
   -9000010    2    1    2    0  501  0.12185500023E+03 -0.48833635711E+03 -0.10318498388E+04  0.15225250588E+04  0.10000237127E+04 0.  0.
        -13    1    3    3    0    0 -0.20734405440E+03  0.51400398121E+03 -0.71363694710E+03  0.90358693717E+03  0.10566000000E+00 0.  1.
         13    1    4    4    0    0  0.10925902147E+03  0.29157189442E+03 -0.45947403836E+03  0.55503883331E+03  0.10566000000E+00 0. -1.
          4    1    3    3  502    0  0.85489054168E+02 -0.25667624101E+02  0.31557432986E+03  0.32795481849E+03  0.00000000000E+00 0.  1.
         -4    1    4    4    0  501  0.12595978759E+02 -0.77990825153E+03 -0.57237580045E+03  0.96748622545E+03  0.00000000000E+00 0. -1.
</event>
<event>
 8    1  0.7446554E-006  0.1178240E+04  0.7818608E-02  0.8623131E-01
         -2   -1    0    0    0  501 -0.00000000000E+00  0.00000000000E+00  0.11595988589E+04  0.11595988589E+04  0.00000000000E+00 0.  1.
          2   -1    0    0  502    0  0.00000000000E+00 -0.00000000000E+00 -0.12256845031E+04  0.12256845031E+04  0.00000000000E+00 0. -1.
    9000010    2    1    2  502    0  0.28859950644E+03  0.51313075978E+03 -0.21264609519E+03  0.11739991114E+04  0.99320828634E+03 0.  0.
   -9000010    2    1    2    0  501 -0.28859950644E+03 -0.51313075978E+03  0.14656045095E+03  0.12112842506E+04  0.10483972139E+04 0.  0.
        -13    1    3    3    0    0  0.81756760420E+02  0.40821414488E+03  0.36365314441E+03  0.55278076717E+03  0.10566000000E+00 0.  1.
         13    1    4    4    0    0 -0.43179750383E+02 -0.81338998953E+03  0.93985572917E+02  0.81993967156E+03  0.10566000000E+00 0. -1.
          4    1    3    3  502    0  0.20684274602E+03  0.10491661490E+03 -0.57629923960E+03  0.62121834425E+03  0.00000000000E+00 0.  1.
         -4    1    4    4    0  501 -0.24541975606E+03  0.30025922975E+03  0.52574878030E+02  0.39134457900E+03  0.00000000000E+00 0. -1.
</event>
<event>
 8    1  0.7446554E-006  0.1021055E+04  0.7818608E-02  0.8755057E-01
          2   -1    0    0  502    0  0.00000000000E+00  0.00000000000E+00  0.16609230824E+04  0.16609230824E+04  0.00000000000E+00 0. -1.
         -2   -1    0    0    0  501 -0.00000000000E+00 -0.00000000000E+00 -0.89719767437E+03  0.89719767437E+03  0.00000000000E+00 0.  1.
    9000010    2    1    2  502    0  0.19654274659E+03 -0.20503228310E+03 -0.31466516916E+03  0.10839994632E+04  0.99768400765E+03 0.  0.
   -9000010    2    1    2    0  501 -0.19654274659E+03  0.20503228310E+03  0.10783905772E+04  0.14741212936E+04  0.96407471853E+03 0.  0.
        -13    1    3    3    0    0 -0.90126229836E+02 -0.31907188864E+03  0.26692085148E+03  0.42564816403E+03  0.10566000000E+00 0.  1.
         13    1    4    4    0    0 -0.38527176126E+03 -0.43464925197E+02  0.10950241655E+04  0.11616374064E+04  0.10566000000E+00 0. -1.
          4    1    3    3  502    0  0.28666897643E+03  0.11403960553E+03 -0.58158602064E+03  0.65835129914E+03  0.00000000000E+00 0.  1.
         -4    1    4    4    0  501  0.18872901467E+03  0.24849720830E+03 -0.16633588283E+02  0.31248388722E+03  0.00000000000E+00 0. -1.
</event>
<event>
 8    1  0.7446554E-006  0.1225106E+04  0.7818608E-02  0.8587893E-01
          2   -1    0    0  502    0  0.00000000000E+00  0.00000000000E+00  0.25612895504E+04  0.25612895504E+04  0.00000000000E+00 0.  1.
         -2   -1    0    0    0  501 -0.00000000000E+00 -0.00000000000E+00 -0.69448495202E+03  0.69448495202E+03  0.00000000000E+00 0. -1.
    9000010    2    1    2  502    0 -0.31741020530E+03 -0.63678923825E+03  0.15706520544E+04  0.19861786768E+04  0.98575254894E+03 0.  0.
   -9000010    2    1    2    0  501  0.31741020530E+03  0.63678923825E+03  0.29615254399E+03  0.12695958257E+04  0.10089189555E+04 0.  0.
        -13    1    3    3    0    0 -0.57170029732E+03 -0.35773159904E+03  0.14340029064E+04  0.15846695156E+04  0.10566000000E+00 0.  1.
         13    1    4    4    0    0 -0.16649483301E+03  0.11312632969E+03  0.49081502480E+03  0.53048797877E+03  0.10566000000E+00 0. -1.
          4    1    3    3  502    0  0.25429009202E+03 -0.27905763921E+03  0.13664914805E+03  0.40150916124E+03  0.00000000000E+00 0.  1.
         -4    1    4    4    0  501  0.48390503831E+03  0.52366290855E+03 -0.19466248081E+03  0.73910784689E+03  0.00000000000E+00 0. -1.
</event>
<event>
 8    1  0.7446554E-006  0.1125284E+04  0.7818608E-02  0.8665054E-01
          1   -1    0    0  502    0  0.00000000000E+00  0.00000000000E+00  0.10145495365E+04  0.10145495365E+04  0.00000000000E+00 0. -1.
         -1   -1    0    0    0  501 -0.00000000000E+00 -0.00000000000E+00 -0.13760657951E+04  0.13760657951E+04  0.00000000000E+00 0.  1.
    9000010    2    1    2  502    0 -0.52994635946E+03  0.40206458175E+02 -0.54377359358E+03  0.12414634557E+04  0.98136745797E+03 0.  0.
   -9000010    2    1    2    0  501  0.52994635946E+03 -0.40206458175E+02  0.18225733499E+03  0.11491518758E+04  0.10024333366E+04 0.  0.
        -13    1    3    3    0    0  0.25563753573E+03  0.13160725815E+03 -0.29604289875E+03  0.41268926463E+03  0.10566000000E+00 0.  1.
         13    1    4    4    0    0  0.59854930440E+03  0.27678480785E+03 -0.15901394927E+03  0.67834839639E+03  0.10566000000E+00 0. -1.
          4    1    3    3  502    0 -0.78558389519E+03 -0.91400799976E+02 -0.24773069483E+03  0.82877419107E+03  0.00000000000E+00 0.  1.
         -4    1    4    4    0  501 -0.68602944939E+02 -0.31699126603E+03  0.34127128426E+03  0.47080347944E+03  0.00000000000E+00 0. -1.
</event>
<event>
 8    1  0.7446554E-006  0.1768933E+04  0.7818608E-02  0.8269570E-01
         -2   -1    0    0    0  501 -0.00000000000E+00  0.00000000000E+00  0.23421580831E+04  0.23421580831E+04  0.00000000000E+00 0.  1.
          2   -1    0    0  502    0  0.00000000000E+00 -0.00000000000E+00 -0.14968611077E+04  0.14968611077E+04  0.00000000000E+00 0. -1.
    9000010    2    1    2  502    0 -0.14063554641E+04 -0.32759474300E+03 -0.20309604449E+03  0.17959369362E+04  0.10483260315E+04 0.  0.
   -9000010    2    1    2    0  501  0.14063554641E+04  0.32759474300E+03  0.10483930198E+04  0.20430822546E+04  0.99493877606E+03 0.  0.
        -13    1    3    3    0    0 -0.23496642464E+03 -0.35006416516E+03 -0.43039222130E+03  0.60248785528E+03  0.10566000000E+00 0.  1.
         13    1    4    4    0    0  0.10511195977E+04  0.15698073778E+02  0.19740967816E+03  0.10696118129E+04  0.10566000000E+00 0. -1.
          4    1    3    3  502    0 -0.11713890395E+04  0.22469422163E+02  0.22729617681E+03  0.11934490809E+04  0.00000000000E+00 0.  1.
         -4    1    4    4    0  501  0.35523586640E+03  0.31189666922E+03  0.85098334166E+03  0.97347044168E+03  0.00000000000E+00 0. -1.
</event>
<event>
 8    1  0.7446554E-006  0.1089216E+04  0.7818608E-02  0.8695008E-01
         -1   -1    0    0    0  501 -0.00000000000E+00  0.00000000000E+00  0.90600531219E+03  0.90600531219E+03  0.00000000000E+00 0. -1.
          1   -1    0    0  502    0  0.00000000000E+00 -0.00000000000E+00 -0.13548217964E+04  0.13548217964E+04  0.00000000000E+00 0.  1.
    9000010    2    1    2  502    0  0.10069117442E+03 -0.34943010715E+03 -0.42006967965E+03  0.11331239524E+04  0.98755822282E+03 0.  0.
   -9000010    2    1    2    0  501 -0.10069117442E+03  0.34943010715E+03 -0.28746804526E+02  0.11277031561E+04  0.10670744665E+04 0.  0.
        -13    1    3    3    0    0 -0.19932876154E+03  0.63029169494E+02 -0.56538109009E+03  0.60279384500E+03  0.10566000000E+00 0.  1.
         13    1    4    4    0    0  0.63362216933E+02  0.71217560163E+03 -0.10406848504E+03  0.72252274624E+03  0.10566000000E+00 0. -1.
          4    1    3    3  502    0  0.30001993596E+03 -0.41245927664E+03  0.14531141043E+03  0.53033010744E+03  0.00000000000E+00 0.  1.
         -4    1    4    4    0  501 -0.16405339135E+03 -0.36274549449E+03  0.75321680514E+02  0.40518040987E+03  0.00000000000E+00 0. -1.
</event>
<event>
 8    1  0.7446554E-006  0.1076354E+04  0.7818608E-02  0.8705983E-01
          2   -1    0    0  502    0  0.00000000000E+00  0.00000000000E+00  0.25134806259E+04  0.25134806259E+04  0.00000000000E+00 0. -1.
         -2   -1    0    0    0  501 -0.00000000000E+00 -0.00000000000E+00 -0.61162056750E+03  0.61162056750E+03  0.00000000000E+00 0.  1.
    9000010    2    1    2  502    0  0.40705536624E+03 -0.63282250299E+02  0.17311695902E+04  0.20422529991E+04  0.10020730752E+04 0.  0.
   -9000010    2    1    2    0  501 -0.40705536624E+03  0.63282250299E+02  0.17069046820E+03  0.10828481943E+04  0.98677568955E+03 0.  0.
        -13    1    3    3    0    0  0.15278402328E+03 -0.28425935786E+03  0.16687192538E+04  0.16996382848E+04  0.10566000000E+00 0.  1.
         13    1    4    4    0    0 -0.14854331032E+03 -0.42094420008E+03  0.27474643927E+03  0.52416099786E+03  0.10566000000E+00 0. -1.
          4    1    3    3  502    0  0.25427134297E+03  0.22097710756E+03  0.62450336433E+02  0.34261471428E+03  0.00000000000E+00 0.  1.
         -4    1    4    4    0  501 -0.25851205592E+03  0.48422645038E+03 -0.10405597107E+03  0.55868719640E+03  0.00000000000E+00 0. -1.
</event>
<event>
 8    1  0.7446554E-006  0.1248723E+04  0.7818608E-02  0.8570749E-01
         -2   -1    0    0    0  501 -0.00000000000E+00  0.00000000000E+00  0.13234853918E+04  0.13234853918E+04  0.00000000000E+00 0. -1.
          2   -1    0    0  502    0  0.00000000000E+00 -0.00000000000E+00 -0.17922816796E+04  0.17922816796E+04  0.00000000000E+00 0.  1.
    9000010    2    1    2  502    0  0.73968540415E+03 -0.28767283680E+03  0.67903175194E+03  0.14096781301E+04  0.94668799089E+03 0.  0.
   -9000010    2    1    2    0  501 -0.73968540415E+03  0.28767283680E+03 -0.11478280397E+04  0.17060889414E+04  0.98149890927E+03 0.  0.
        -13    1    3    3    0    0  0.59179117321E+02 -0.48068867639E+03  0.46312520108E+03  0.67011098676E+03  0.10566000000E+00 0.  1.
         13    1    4    4    0    0 -0.22908738203E+03 -0.31040552799E+03 -0.10468951091E+03  0.39974057246E+03  0.10566000000E+00 0. -1.
          4    1    3    3  502    0  0.68050628683E+03  0.19301583959E+03  0.21590655086E+03  0.73956714330E+03  0.00000000000E+00 0.  1.
         -4    1    4    4    0  501 -0.51059802212E+03  0.59807836479E+03 -0.10431385288E+04  0.13063483689E+04  0.00000000000E+00 0. -1.
</event>
<event>
 8    1  0.7446554E-006  0.1089733E+04  0.7818608E-02  0.8694570E-01
         -1   -1    0    0    0  501 -0.00000000000E+00  0.00000000000E+00  0.34216922237E+04  0.34216922237E+04  0.00000000000E+00 0.  1.
          1   -1    0    0  502    0  0.00000000000E+00 -0.00000000000E+00 -0.42104251178E+03  0.42104251178E+03  0.00000000000E+00 0. -1.
    9000010    2    1    2  502    0  0.31152757936E+03  0.30131294987E+03  0.68908604179E+03  0.12849701145E+04  0.99421813291E+03 0.  0.
   -9000010    2    1    2    0  501 -0.31152757936E+03 -0.30131294987E+03  0.23115636701E+04  0.25577646209E+04  0.10054821374E+04 0.  0.
        -13    1    3    3    0    0 -0.33743418908E+03 -0.51777237247E+02  0.27256820902E+03  0.43684797584E+03  0.10566000000E+00 0.  1.
         13    1    4    4    0    0 -0.66986357785E+03 -0.27733851429E+03  0.17068345527E+04  0.18544320062E+04  0.10566000000E+00 0. -1.
          4    1    3    3  502    0  0.64896176844E+03  0.35309018711E+03  0.41651783277E+03  0.84812213870E+03  0.00000000000E+00 0.  1.
         -4    1    4    4    0  501  0.35833599849E+03 -0.23974435580E+02  0.60472911744E+03  0.70333261467E+03  0.00000000000E+00 0. -1.
</event>
<event>
 8    1  0.7446554E-006  0.1393673E+04  0.7818608E-02  0.8473447E-01
         -2   -1    0    0    0  501 -0.00000000000E+00  0.00000000000E+00  0.10033296923E+04  0.10033296923E+04  0.00000000000E+00 0. -1.
          2   -1    0    0  502    0  0.00000000000E+00 -0.00000000000E+00 -0.22027407510E+04  0.22027407510E+04  0.00000000000E+00 0.  1.
    9000010    2    1    2  502    0  0.59688317485E+03 -0.72082024188E+03 -0.39172723561E+02  0.13872965879E+04  0.10233308239E+04 0.  0.
   -9000010    2    1    2    0  501 -0.59688317485E+03  0.72082024188E+03 -0.11602383351E+04  0.18187738554E+04  0.10420815694E+04 0.  0.
        -13    1    3    3    0    0 -0.21075326357E+03 -0.30294129500E+03  0.23501506353E+03  0.43751852255E+03  0.10566000000E+00 0.  1.
         13    1    4    4    0    0 -0.71507396750E+03  0.30138120028E+03 -0.25962116242E+03  0.81826925032E+03  0.10566000000E+00 0. -1.
          4    1    3    3  502    0  0.80763643843E+03 -0.41787894688E+03 -0.27418778709E+03  0.94977806540E+03  0.00000000000E+00 0.  1.
         -4    1    4    4    0  501  0.11819079265E+03  0.41943904160E+03 -0.90061717266E+03  0.10005046051E+04  0.00000000000E+00 0. -1.
</event>
<event>
 8    1  0.7446554E-006  0.1508526E+04  0.7818608E-02  0.8404609E-01
         -2   -1    0    0    0  501 -0.00000000000E+00  0.00000000000E+00  0.17188896730E+04  0.17188896730E+04  0.00000000000E+00 0.  1.
          2   -1    0    0  502    0  0.00000000000E+00 -0.00000000000E+00 -0.13485496502E+04  0.13485496502E+04  0.00000000000E+00 0. -1.
    9000010    2    1    2  502    0  0.55129358583E+03  0.10039881625E+04 -0.22225324477E+02  0.15080922608E+04  0.98078104271E+03 0.  0.
   -9000010    2    1    2    0  501 -0.55129358583E+03 -0.10039881625E+04  0.39256534726E+03  0.15593470624E+04  0.98261836999E+03 0.  0.
        -13    1    3    3    0    0  0.21844375829E+03  0.12408749247E+03 -0.41783211383E+03  0.48754391375E+03  0.10566000000E+00 0.  1.
         13    1    4    4    0    0 -0.74619430870E+03 -0.47642623556E+03  0.45159705587E+03  0.99384496593E+03  0.10566000000E+00 0. -1.
          4    1    3    3  502    0  0.33284982754E+03  0.87990067005E+03  0.39560678936E+03  0.10205483470E+04  0.00000000000E+00 0.  1.
         -4    1    4    4    0  501  0.19490072287E+03 -0.52756192696E+03 -0.59031708613E+02  0.56550209652E+03  0.00000000000E+00 0. -1.
</event>
<event>
 8    1  0.7446554E-006  0.1038281E+04  0.7818608E-02  0.8739432E-01
          2   -1    0    0  502    0  0.00000000000E+00  0.00000000000E+00  0.23401179736E+04  0.23401179736E+04  0.00000000000E+00 0. -1.
         -2   -1    0    0    0  501 -0.00000000000E+00 -0.00000000000E+00 -0.55239471955E+03  0.55239471955E+03  0.00000000000E+00 0.  1.
    9000010    2    1    2  502    0  0.24340582966E+03 -0.34390619587E+02  0.14903151282E+04  0.18221839048E+04  0.10192575186E+04 0.  0.
   -9000010    2    1    2    0  501 -0.24340582966E+03  0.34390619587E+02  0.29740812591E+03  0.10703287883E+04  0.99836016004E+03 0.  0.
        -13    1    3    3    0    0  0.57427773968E+03 -0.25446171113E+03  0.10906046372E+04  0.12585563835E+04  0.10566000000E+00 0.  1.
         13    1    4    4    0    0  0.16023818453E+03  0.40426712753E+03  0.29019004126E+03  0.52279867769E+03  0.10566000000E+00 0. -1.
          4    1    3    3  502    0 -0.33087191002E+03  0.22007109154E+03  0.39971049098E+03  0.56362752131E+03  0.00000000000E+00 0.  1.
         -4    1    4    4    0  501 -0.40364401419E+03 -0.36987650794E+03  0.72180846510E+01  0.54753011064E+03  0.00000000000E+00 0. -1.
</event>
<event>
 8    1  0.7446554E-006  0.1212565E+04  0.7818608E-02  0.8597160E-01
          2   -1    0    0  502    0  0.00000000000E+00  0.00000000000E+00  0.15846529510E+04  0.15846529510E+04  0.00000000000E+00 0. -1.
         -2   -1    0    0    0  501 -0.00000000000E+00 -0.00000000000E+00 -0.11402682607E+04  0.11402682607E+04  0.00000000000E+00 0.  1.
    9000010    2    1    2  502    0 -0.13633415413E+03 -0.66374829056E+03 -0.36611137859E+03  0.12650354278E+04  0.10035578196E+04 0.  0.
   -9000010    2    1    2    0  501  0.13633415413E+03  0.66374829056E+03  0.81049606896E+03  0.14598857839E+04  0.10075782002E+04 0.  0.
        -13    1    3    3    0    0  0.26895315877E+03 -0.66123910740E+03  0.73935118595E+01  0.71388208687E+03  0.10566000000E+00 0.  1.
         13    1    4    4    0    0 -0.19798482796E+03  0.18824002691E+03 -0.16875631132E+03  0.32110902137E+03  0.10566000000E+00 0. -1.
          4    1    3    3  502    0 -0.40528731290E+03 -0.25091831552E+01 -0.37350489045E+03  0.55115334090E+03  0.00000000000E+00 0.  1.
         -4    1    4    4    0  501  0.33431898209E+03  0.47550826364E+03  0.97925238028E+03  0.11387767625E+04  0.00000000000E+00 0. -1.
</event>
<event>
 8    1  0.7446554E-006  0.1210699E+04  0.7818608E-02  0.8598549E-01
         -2   -1    0    0    0  501 -0.00000000000E+00  0.00000000000E+00  0.88006694942E+03  0.88006694942E+03  0.00000000000E+00 0. -1.
          2   -1    0    0  502    0  0.00000000000E+00 -0.00000000000E+00 -0.16977591193E+04  0.16977591193E+04  0.00000000000E+00 0.  1.
    9000010    2    1    2  502    0  0.24300353894E+03  0.61470711448E+03 -0.23338013337E+03  0.12388176717E+04  0.10214144020E+04 0.  0.
   -9000010    2    1    2    0  501 -0.24300353894E+03 -0.61470711448E+03 -0.58431203651E+03  0.13390083970E+04  0.10072772084E+04 0.  0.
        -13    1    3    3    0    0  0.52496307464E+03  0.72534662258E+03 -0.26629388169E+03  0.93414473997E+03  0.10566000000E+00 0.  1.
         13    1    4    4    0    0 -0.20232016464E+03 -0.84158992919E+03 -0.19607013305E+03  0.88749679784E+03  0.10566000000E+00 0. -1.
          4    1    3    3  502    0 -0.28195953570E+03 -0.11063950809E+03  0.32913748323E+02  0.30467293177E+03  0.00000000000E+00 0.  1.
         -4    1    4    4    0  501 -0.40683374301E+02  0.22688281470E+03 -0.38824190346E+03  0.45151159914E+03  0.00000000000E+00 0. -1.
</event>
<event>
 8    1  0.7446554E-006  0.1147928E+04  0.7818608E-02  0.8646840E-01
         -1   -1    0    0    0  501 -0.00000000000E+00  0.00000000000E+00  0.12368099633E+04  0.12368099633E+04  0.00000000000E+00 0.  1.
          1   -1    0    0  502    0  0.00000000000E+00 -0.00000000000E+00 -0.11780220530E+04  0.11780220530E+04  0.00000000000E+00 0. -1.
    9000010    2    1    2  502    0  0.45137921275E+03 -0.32779706517E+03  0.40275108874E+03  0.12218797442E+04  0.10097462851E+04 0.  0.
   -9000010    2    1    2    0  501 -0.45137921275E+03  0.32779706517E+03 -0.34396317845E+03  0.11929522721E+04  0.99681008515E+03 0.  0.
        -13    1    3    3    0    0  0.40751831489E+02 -0.48608863802E+03  0.57077166567E+03  0.75081501135E+03  0.10566000000E+00 0.  1.
         13    1    4    4    0    0 -0.54410906533E+03  0.16676982297E+03  0.21158375894E+03  0.60715282017E+03  0.10566000000E+00 0. -1.
          4    1    3    3  502    0  0.41062738126E+03  0.15829157285E+03 -0.16802057693E+03  0.47106473286E+03  0.00000000000E+00 0.  1.
         -4    1    4    4    0  501  0.92729852586E+02  0.16102724220E+03 -0.55554693739E+03  0.58579945198E+03  0.00000000000E+00 0. -1.
</event>
<event>
 8    1  0.7446554E-006  0.1130147E+04  0.7818608E-02  0.8661105E-01
          2   -1    0    0  502    0  0.00000000000E+00  0.00000000000E+00  0.30364283684E+04  0.30364283684E+04  0.00000000000E+00 0. -1.
         -2   -1    0    0    0  501 -0.00000000000E+00 -0.00000000000E+00 -0.42195696070E+03  0.42195696070E+03  0.00000000000E+00 0.  1.
    9000010    2    1    2  502    0  0.20982087313E+03  0.52632706314E+03  0.14134599070E+04  0.18473088106E+04  0.10457705087E+04 0.  0.
   -9000010    2    1    2    0  501 -0.20982087313E+03 -0.52632706314E+03  0.12010115007E+04  0.16110765184E+04  0.91219183692E+03 0.  0.
        -13    1    3    3    0    0 -0.34889765891E+03  0.46097979932E+03  0.45391774182E+03  0.73503284231E+03  0.10566000000E+00 0.  1.
         13    1    4    4    0    0  0.20112699472E+03 -0.59264857447E+03  0.90488010719E+03  0.11002238047E+04  0.10566000000E+00 0. -1.
          4    1    3    3  502    0  0.55871853204E+03  0.65347263813E+02  0.95954216518E+03  0.11122759683E+04  0.00000000000E+00 0.  1.
         -4    1    4    4    0  501 -0.41094786785E+03  0.66321511334E+02  0.29613139349E+03  0.51085271377E+03  0.00000000000E+00 0. -1.
</event>
<event>
 8    1  0.7446554E-006  0.1050647E+04  0.7818608E-02  0.8728406E-01
         -1   -1    0    0    0  501 -0.00000000000E+00  0.00000000000E+00  0.78746257789E+03  0.78746257789E+03  0.00000000000E+00 0.  1.
          1   -1    0    0  502    0  0.00000000000E+00 -0.00000000000E+00 -0.14295040635E+04  0.14295040635E+04  0.00000000000E+00 0. -1.
    9000010    2    1    2  502    0  0.14650534541E+03 -0.43170780921E+03 -0.18046481754E+03  0.10989231630E+04  0.98347807252E+03 0.  0.
   -9000010    2    1    2    0  501 -0.14650534541E+03  0.43170780921E+03 -0.46157666811E+03  0.11180434784E+04  0.91056726839E+03 0.  0.
        -13    1    3    3    0    0 -0.33890116243E+01 -0.72249929600E+03 -0.24986296478E+03  0.76449213891E+03  0.10566000000E+00 0.  1.
         13    1    4    4    0    0 -0.18693065629E+03 -0.26190731430E+03 -0.17687766366E+03  0.36718419166E+03  0.10566000000E+00 0. -1.
          4    1    3    3  502    0  0.14989435704E+03  0.29079148679E+03  0.69398147238E+02  0.33443102413E+03  0.00000000000E+00 0.  1.
         -4    1    4    4    0  501  0.40425310875E+02  0.69361512351E+03 -0.28469900445E+03  0.75085928672E+03  0.00000000000E+00 0. -1.
</event>
<event>
 8    1  0.7446554E-006  0.1326910E+04  0.7818608E-02  0.8516670E-01
          2   -1    0    0  502    0  0.00000000000E+00  0.00000000000E+00  0.20733675535E+04  0.20733675535E+04  0.00000000000E+00 0.  1.
         -2   -1    0    0    0  501 -0.00000000000E+00 -0.00000000000E+00 -0.86281811509E+03  0.86281811509E+03  0.00000000000E+00 0. -1.
    9000010    2    1    2  502    0 -0.77855623982E+03 -0.41168070141E+03  0.79340067804E+03  0.15534897403E+04  0.10040990583E+04 0.  0.
   -9000010    2    1    2    0  501  0.77855623982E+03  0.41168070141E+03  0.41714876036E+03  0.13826959283E+04  0.98092003919E+03 0.  0.
        -13    1    3    3    0    0 -0.67071229446E+02  0.30535295494E+03  0.99853932076E+02  0.32819170591E+03  0.10566000000E+00 0.  1.
         13    1    4    4    0    0 -0.22465068120E+03 -0.55199111387E+01  0.12699584393E+03  0.25812081187E+03  0.10566000000E+00 0. -1.
          4    1    3    3  502    0 -0.71148501038E+03 -0.71703365635E+03  0.69354674596E+03  0.12252980344E+04  0.00000000000E+00 0.  1.
         -4    1    4    4    0  501  0.10032069210E+04  0.41720061255E+03  0.29015291644E+03  0.11245751164E+04  0.00000000000E+00 0. -1.
</event>
<event>
 8    1  0.7446554E-006  0.9969649E+03  0.7818608E-02  0.8777448E-01
         -2   -1    0    0    0  501 -0.00000000000E+00  0.00000000000E+00  0.58958814833E+03  0.58958814833E+03  0.00000000000E+00 0.  1.
          2   -1    0    0  502    0  0.00000000000E+00 -0.00000000000E+00 -0.17119399496E+04  0.17119399496E+04  0.00000000000E+00 0. -1.
    9000010    2    1    2  502    0 -0.71589809158E+02  0.27607956757E+03 -0.66859373167E+03  0.11641628450E+04  0.90934730622E+03 0.  0.
   -9000010    2    1    2    0  501  0.71589809158E+02 -0.27607956757E+03 -0.45375806961E+03  0.11373652529E+04  0.10031741147E+04 0.  0.
        -13    1    3    3    0    0 -0.35159694724E+03 -0.16614559994E+03 -0.12245486497E+03  0.40770084475E+03  0.10566000000E+00 0.  1.
         13    1    4    4    0    0 -0.14547366570E+03 -0.61563085070E+03 -0.34217690717E+03  0.71920023547E+03  0.10566000000E+00 0. -1.
          4    1    3    3  502    0  0.28000713809E+03  0.44222516751E+03 -0.54613886670E+03  0.75646200029E+03  0.00000000000E+00 0.  1.
         -4    1    4    4    0  501  0.21706347486E+03  0.33955128312E+03 -0.11158116244E+03  0.41816501743E+03  0.00000000000E+00 0. -1.
</event>
<event>
 8    1  0.7446554E-006  0.1534218E+04  0.7818608E-02  0.8390074E-01
          2   -1    0    0  502    0  0.00000000000E+00  0.00000000000E+00  0.16921348269E+04  0.16921348269E+04  0.00000000000E+00 0.  1.
         -2   -1    0    0    0  501 -0.00000000000E+00 -0.00000000000E+00 -0.13954581995E+04  0.13954581995E+04  0.00000000000E+00 0. -1.
    9000010    2    1    2  502    0  0.87453907839E+03  0.76350308294E+03  0.64350745389E+02  0.15510987899E+04  0.10266503203E+04 0.  0.
   -9000010    2    1    2    0  501 -0.87453907839E+03 -0.76350308294E+03  0.23232588201E+03  0.15364942366E+04  0.97932817094E+03 0.  0.
        -13    1    3    3    0    0  0.98547268713E+03  0.26155388064E+03  0.14799617849E+03  0.10302765306E+04  0.10566000000E+00 0.  1.
         13    1    4    4    0    0 -0.90783926434E+03 -0.50729535700E+03 -0.17456115056E+03  0.10545104625E+04  0.10566000000E+00 0. -1.
          4    1    3    3  502    0 -0.11093360874E+03  0.50194920231E+03 -0.83645433100E+02  0.52082225924E+03  0.00000000000E+00 0.  1.
         -4    1    4    4    0  501  0.33300185948E+02 -0.25620772595E+03  0.40688703257E+03  0.48198377410E+03  0.00000000000E+00 0. -1.
</event>
<event>
 8    1  0.7446554E-006  0.1180981E+04  0.7818608E-02  0.8621024E-01
          2   -1    0    0  502    0  0.00000000000E+00  0.00000000000E+00  0.55939784211E+03  0.55939784211E+03  0.00000000000E+00 0. -1.
         -2   -1    0    0    0  501 -0.00000000000E+00 -0.00000000000E+00 -0.25694632723E+04  0.25694632723E+04  0.00000000000E+00 0.  1.
    9000010    2    1    2  502    0 -0.62578225932E+03  0.94972310066E+02 -0.73095029390E+03  0.13840125583E+04  0.99024201765E+03 0.  0.
   -9000010    2    1    2    0  501  0.62578225932E+03 -0.94972310066E+02 -0.12791151363E+04  0.17448485562E+04  0.10038614328E+04 0.  0.
        -13    1    3    3    0    0  0.23432422552E+03  0.77538405141E+02  0.12301584569E+02  0.24712625737E+03  0.10566000000E+00 0.  1.
         13    1    4    4    0    0  0.37862407926E+02  0.19695898607E+03 -0.10193733441E+04  0.10389169504E+04  0.10566000000E+00 0. -1.
          4    1    3    3  502    0 -0.86010648484E+03  0.17433904925E+02 -0.74325187847E+03  0.11368863009E+04  0.00000000000E+00 0.  1.
         -4    1    4    4    0  501  0.58791985139E+03 -0.29193129613E+03 -0.25974179222E+03  0.70593160572E+03  0.00000000000E+00 0. -1.
</event>
<event>
 8    1  0.7446554E-006  0.1694928E+04  0.7818608E-02  0.8305375E-01
          1   -1    0    0  502    0  0.00000000000E+00  0.00000000000E+00  0.16771463052E+04  0.16771463052E+04  0.00000000000E+00 0. -1.
         -1   -1    0    0    0  501 -0.00000000000E+00 -0.00000000000E+00 -0.17488267222E+04  0.17488267222E+04  0.00000000000E+00 0.  1.
    9000010    2    1    2  502    0 -0.70323263611E+03 -0.11762895206E+04 -0.28130761997E+03  0.17158465971E+04  0.99337927852E+03 0.  0.
   -9000010    2    1    2    0  501  0.70323263611E+03  0.11762895206E+04  0.20962720302E+03  0.17101264302E+04  0.10011971167E+04 0.  0.
        -13    1    3    3    0    0 -0.88733699513E+03 -0.84198706941E+03 -0.44351834040E+03  0.13011601352E+04  0.10566000000E+00 0.  1.
         13    1    4    4    0    0  0.42388358904E+03  0.43097095551E+03 -0.38491468314E+03  0.71663978819E+03  0.10566000000E+00 0. -1.
          4    1    3    3  502    0  0.18410435901E+03 -0.33430245118E+03  0.16221072042E+03  0.41468646191E+03  0.00000000000E+00 0.  1.
         -4    1    4    4    0  501  0.27934904707E+03  0.74531856508E+03  0.59454188616E+03  0.99348664206E+03  0.00000000000E+00 0. -1.
</event>
<event>
 8    1  0.7446554E-006  0.1488802E+04  0.7818608E-02  0.8415973E-01
          2   -1    0    0  502    0  0.00000000000E+00  0.00000000000E+00  0.29504472918E+04  0.29504472918E+04  0.00000000000E+00 0.  1.
         -2   -1    0    0    0  501 -0.00000000000E+00 -0.00000000000E+00 -0.75160875283E+03  0.75160875283E+03  0.00000000000E+00 0. -1.
    9000010    2    1    2  502    0  0.52059784158E+03  0.97022474973E+03  0.10610029595E+04  0.18301368676E+04  0.10056418330E+04 0.  0.
   -9000010    2    1    2    0  501 -0.52059784158E+03 -0.97022474973E+03  0.11378355794E+04  0.18719191770E+04  0.99852562405E+03 0.  0.
        -13    1    3    3    0    0 -0.21383101257E+03  0.62012782957E+03  0.62966884943E+03  0.90926624157E+03  0.10566000000E+00 0.  1.
         13    1    4    4    0    0 -0.36479792097E+03 -0.11486564146E+04  0.11006265090E+04  0.16321359641E+04  0.10566000000E+00 0. -1.
          4    1    3    3  502    0  0.73442885415E+03  0.35009692015E+03  0.43133411008E+03  0.92087062600E+03  0.00000000000E+00 0.  1.
         -4    1    4    4    0  501 -0.15579992061E+03  0.17843166484E+03  0.37209070431E+02  0.23978321292E+03  0.00000000000E+00 0. -1.
</event>
<event>
 8    1  0.7446554E-006  0.1827433E+04  0.7818608E-02  0.8242517E-01
         -2   -1    0    0    0  501 -0.00000000000E+00  0.00000000000E+00  0.92445405203E+03  0.92445405203E+03  0.00000000000E+00 0. -1.
          2   -1    0    0  502    0  0.00000000000E+00 -0.00000000000E+00 -0.37815186560E+04  0.37815186560E+04  0.00000000000E+00 0.  1.
    9000010    2    1    2  502    0  0.93491121897E+03  0.12213130057E+04 -0.19293312710E+04  0.26604091199E+04  0.99488345379E+03 0.  0.
   -9000010    2    1    2    0  501 -0.93491121897E+03 -0.12213130057E+04 -0.92773333289E+03  0.20455635881E+04  0.97876289805E+03 0.  0.
        -13    1    3    3    0    0  0.40831348317E+03  0.12176524471E+04 -0.11767393735E+04  0.17418705311E+04  0.10566000000E+00 0.  1.
         13    1    4    4    0    0 -0.50856454917E+03 -0.75480489866E+03  0.15385580528E+02  0.91027746482E+03  0.10566000000E+00 0. -1.
          4    1    3    3  502    0  0.52659773580E+03  0.36605585823E+01 -0.75259189749E+03  0.91853858885E+03  0.00000000000E+00 0.  1.
         -4    1    4    4    0  501 -0.42634666980E+03 -0.46650810707E+03 -0.94311891342E+03  0.11352861233E+04  0.00000000000E+00 0. -1.
</event>
<event>
 8    1  0.7446554E-006  0.1148158E+04  0.7818608E-02  0.8646657E-01
         -2   -1    0    0    0  501 -0.00000000000E+00  0.00000000000E+00  0.80719921581E+03  0.80719921581E+03  0.00000000000E+00 0.  1.
          2   -1    0    0  502    0  0.00000000000E+00 -0.00000000000E+00 -0.16508121434E+04  0.16508121434E+04  0.00000000000E+00 0. -1.
    9000010    2    1    2  502    0  0.39964193427E+03  0.38134901145E+03 -0.54747813045E+03  0.12684710407E+04  0.10020707228E+04 0.  0.
   -9000010    2    1    2    0  501 -0.39964193427E+03 -0.38134901145E+03 -0.29613479719E+03  0.11895403186E+04  0.10110240389E+04 0.  0.
        -13    1    3    3    0    0  0.48629714465E+03 -0.26747239353E+02  0.10098968537E+03  0.49739245613E+03  0.10566000000E+00 0.  1.
         13    1    4    4    0    0 -0.32375766432E+03 -0.55635796033E+03  0.18683207008E+03  0.67026818424E+03  0.10566000000E+00 0. -1.
          4    1    3    3  502    0 -0.86655210371E+02  0.40809625081E+03 -0.64846781582E+03  0.77107858456E+03  0.00000000000E+00 0.  1.
         -4    1    4    4    0  501 -0.75884269955E+02  0.17500894888E+03 -0.48296686727E+03  0.51927213433E+03  0.00000000000E+00 0. -1.
</event>
<event>
 8    1  0.7446554E-006  0.1439464E+04  0.7818608E-02  0.8445213E-01
          4   -1    0    0  502    0  0.00000000000E+00  0.00000000000E+00  0.12471595663E+04  0.12471595663E+04  0.00000000000E+00 0. -1.
         -4   -1    0    0    0  501 -0.00000000000E+00 -0.00000000000E+00 -0.18162401094E+04  0.18162401094E+04  0.00000000000E+00 0.  1.
    9000010    2    1    2  502    0  0.10369497657E+03 -0.98715203599E+03 -0.73331125424E+03  0.16238156253E+04  0.10553719719E+04 0.  0.
   -9000010    2    1    2    0  501 -0.10369497657E+03  0.98715203599E+03  0.16423071117E+03  0.14395840504E+04  0.10296643731E+04 0.  0.
        -13    1    3    3    0    0 -0.93847719531E+02 -0.27508376082E+03 -0.82919459223E+03  0.87865929283E+03  0.10566000000E+00 0.  1.
         13    1    4    4    0    0  0.23997405733E+03 -0.81323081080E+02  0.19032116801E+03  0.31689611842E+03  0.10566000000E+00 0. -1.
          4    1    3    3  502    0  0.19754269610E+03 -0.71206827517E+03  0.95883337989E+02  0.74515633245E+03  0.00000000000E+00 0.  1.
         -4    1    4    4    0  501 -0.34366903390E+03  0.10684751171E+04 -0.26090456844E+02  0.11226879320E+04  0.00000000000E+00 0. -1.
</event>
<event>
 8    1  0.7446554E-006  0.1018435E+04  0.7818608E-02  0.8757461E-01
          1   -1    0    0  502    0  0.00000000000E+00  0.00000000000E+00  0.23088100374E+04  0.23088100374E+04  0.00000000000E+00 0. -1.
         -1   -1    0    0    0  501 -0.00000000000E+00 -0.00000000000E+00 -0.75961762873E+03  0.75961762873E+03  0.00000000000E+00 0.  1.
    9000010    2    1    2  502    0  0.21579219929E+03  0.81776454419E+02  0.17462112494E+04  0.20119000349E+04  0.97223163958E+03 0.  0.
   -9000010    2    1    2    0  501 -0.21579219929E+03 -0.81776454419E+02 -0.19701884072E+03  0.10565276313E+04  0.10120180583E+04 0.  0.
        -13    1    3    3    0    0  0.33460253106E+03  0.21552565870E+03  0.18226751651E+03  0.43775749233E+03  0.10566000000E+00 0.  1.
         13    1    4    4    0    0  0.93590799593E+02  0.32314087197E+03  0.21667573923E+03  0.40015952824E+03  0.10566000000E+00 0. -1.
          4    1    3    3  502    0 -0.11881033177E+03 -0.13374920429E+03  0.15639437329E+04  0.15741425425E+04  0.00000000000E+00 0.  1.
         -4    1    4    4    0  501 -0.30938299888E+03 -0.40491732639E+03 -0.41369457995E+03  0.65636810304E+03  0.00000000000E+00 0. -1.
</event>
<event>
 8    1  0.7446554E-006  0.1236800E+04  0.7818608E-02  0.8579355E-01
         -2   -1    0    0    0  501 -0.00000000000E+00  0.00000000000E+00  0.11598900613E+04  0.11598900613E+04  0.00000000000E+00 0. -1.
          2   -1    0    0  502    0  0.00000000000E+00 -0.00000000000E+00 -0.14096751182E+04  0.14096751182E+04  0.00000000000E+00 0.  1.
    9000010    2    1    2  502    0  0.60256224397E+03 -0.47954573441E+03  0.19996489956E+03  0.12644843743E+04  0.98279672498E+03 0.  0.
   -9000010    2    1    2    0  501 -0.60256224397E+03  0.47954573441E+03 -0.44974995638E+03  0.13050808052E+04  0.95284600828E+03 0.  0.
        -13    1    3    3    0    0 -0.26841575478E+02 -0.56746888545E+03  0.26265876638E+03  0.62588421042E+03  0.10566000000E+00 0.  1.
         13    1    4    4    0    0 -0.42305673199E+03  0.77278639180E+03 -0.33661195438E+03  0.94312428917E+03  0.10566000000E+00 0. -1.
          4    1    3    3  502    0  0.62940381945E+03  0.87923151037E+02 -0.62693866826E+02  0.63860016392E+03  0.00000000000E+00 0.  1.
         -4    1    4    4    0  501 -0.17950551198E+03 -0.29324065739E+03 -0.11313800200E+03  0.36195651599E+03  0.00000000000E+00 0. -1.
</event>
<event>
 8    1  0.7446554E-006  0.1139270E+04  0.7818608E-02  0.8653752E-01
         -2   -1    0    0    0  501 -0.00000000000E+00  0.00000000000E+00  0.36833580098E+04  0.36833580098E+04  0.00000000000E+00 0.  1.
          2   -1    0    0  502    0  0.00000000000E+00 -0.00000000000E+00 -0.36835309052E+03  0.36835309052E+03  0.00000000000E+00 0. -1.
    9000010    2    1    2  502    0 -0.18894498246E+03  0.51053261732E+03  0.20831334782E+04  0.23756222110E+04  0.10038884608E+04 0.  0.
   -9000010    2    1    2    0  501  0.18894498246E+03 -0.51053261732E+03  0.12318714411E+04  0.16760888893E+04  0.99770885418E+03 0.  0.
        -13    1    3    3    0    0 -0.59249338903E+03  0.36355304464E+03  0.14808804529E+04  0.16359175283E+04  0.10566000000E+00 0.  1.
         13    1    4    4    0    0 -0.29928665692E+03 -0.65896237894E+02  0.87147501813E+03  0.92378760306E+03  0.10566000000E+00 0. -1.
          4    1    3    3  502    0  0.40354840657E+03  0.14697957268E+03  0.60225302528E+03  0.73970468276E+03  0.00000000000E+00 0.  1.
         -4    1    4    4    0  501  0.48823163938E+03 -0.44463637942E+03  0.36039642298E+03  0.75230128625E+03  0.00000000000E+00 0. -1.
</event>
<event>
 8    1  0.7446554E-006  0.1474555E+04  0.7818608E-02  0.8424296E-01
          2   -1    0    0  502    0  0.00000000000E+00  0.00000000000E+00  0.22812109488E+04  0.22812109488E+04  0.00000000000E+00 0. -1.
         -2   -1    0    0    0  501 -0.00000000000E+00 -0.00000000000E+00 -0.12841643012E+04  0.12841643012E+04  0.00000000000E+00 0.  1.
    9000010    2    1    2  502    0  0.95382364763E+03 -0.45211297999E+03  0.14095125606E+04  0.20584673669E+04  0.10660096364E+04 0.  0.
   -9000010    2    1    2    0  501 -0.95382364763E+03  0.45211297999E+03 -0.41246591301E+03  0.15069078830E+04  0.99320568924E+03 0.  0.
        -13    1    3    3    0    0  0.56651609223E+03 -0.79938055270E+03  0.90372953333E+03  0.13329204145E+04  0.10566000000E+00 0.  1.
         13    1    4    4    0    0 -0.10195156668E+04  0.52490006149E+03 -0.67955431677E+02  0.11487167715E+04  0.10566000000E+00 0. -1.
          4    1    3    3  502    0  0.38730755540E+03  0.34726757271E+03  0.50578302723E+03  0.72554695242E+03  0.00000000000E+00 0.  1.
         -4    1    4    4    0  501  0.65692019148E+02 -0.72787081500E+02 -0.34451048133E+03  0.35819111151E+03  0.00000000000E+00 0. -1.
</event>
<event>
 8    1  0.7446554E-006  0.2196828E+04  0.7818608E-02  0.8092652E-01
         -1   -1    0    0    0  501 -0.00000000000E+00  0.00000000000E+00  0.28780891694E+04  0.28780891694E+04  0.00000000000E+00 0. -1.
          1   -1    0    0  502    0  0.00000000000E+00 -0.00000000000E+00 -0.16895712977E+04  0.16895712977E+04  0.00000000000E+00 0.  1.
    9000010    2    1    2  502    0 -0.19348028659E+04  0.35246166619E+02  0.41146855032E+03  0.22755718542E+04  0.11243738139E+04 0.  0.
   -9000010    2    1    2    0  501  0.19348028659E+04 -0.35246166619E+02  0.77704932140E+03  0.22920886129E+04  0.95139904325E+03 0.  0.
        -13    1    3    3    0    0 -0.76048700120E+03  0.49344413821E+03 -0.10645812754E+03  0.91277650091E+03  0.10566000000E+00 0.  1.
         13    1    4    4    0    0  0.13553009408E+03 -0.12284256009E+03  0.41658431424E+03  0.45497384871E+03  0.10566000000E+00 0. -1.
          4    1    3    3  502    0 -0.11743158647E+04 -0.45819797159E+03  0.51792667786E+03  0.13627953533E+04  0.00000000000E+00 0.  1.
         -4    1    4    4    0  501  0.17992727718E+04  0.87596393471E+02  0.36046500716E+03  0.18371147642E+04  0.00000000000E+00 0. -1.
</event>
<event>
 8    1  0.7446554E-006  0.1330009E+04  0.7818608E-02  0.8514607E-01
          2   -1    0    0  502    0  0.00000000000E+00  0.00000000000E+00  0.10172615685E+04  0.10172615685E+04  0.00000000000E+00 0. -1.
         -2   -1    0    0    0  501 -0.00000000000E+00 -0.00000000000E+00 -0.19703824829E+04  0.19703824829E+04  0.00000000000E+00 0.  1.
    9000010    2    1    2  502    0 -0.73200364823E+03  0.48569394944E+03  0.35133018532E+02  0.13314600399E+04  0.99991177370E+03 0.  0.
   -9000010    2    1    2    0  501  0.73200364823E+03 -0.48569394944E+03 -0.98825393293E+03  0.16561840115E+04  0.99728215193E+03 0.  0.
        -13    1    3    3    0    0 -0.60134029431E+03 -0.25709104197E+02  0.36985471115E+03  0.70644435458E+03  0.10566000000E+00 0.  1.
         13    1    4    4    0    0  0.56693269896E+02  0.13175216763E+03  0.14208765866E+03  0.20189520657E+03  0.10566000000E+00 0. -1.
          4    1    3    3  502    0 -0.13066335392E+03  0.51140305364E+03 -0.33472169261E+03  0.62501568527E+03  0.00000000000E+00 0.  1.
         -4    1    4    4    0  501  0.67531037833E+03 -0.61744611707E+03 -0.11303415916E+04  0.14542888050E+04  0.00000000000E+00 0. -1.
</event>
<event>
 8    1  0.7446554E-006  0.1153957E+04  0.7818608E-02  0.8642064E-01
          2   -1    0    0  502    0  0.00000000000E+00  0.00000000000E+00  0.86154770308E+03  0.86154770308E+03  0.00000000000E+00 0. -1.
         -2   -1    0    0    0  501 -0.00000000000E+00 -0.00000000000E+00 -0.23527784067E+04  0.23527784067E+04  0.00000000000E+00 0.  1.
    9000010    2    1    2  502    0 -0.21439038682E+03  0.48553614574E+03 -0.16781832075E+04  0.20255609114E+04  0.10024417893E+04 0.  0.
   -9000010    2    1    2    0  501  0.21439038682E+03 -0.48553614574E+03  0.18695250385E+03  0.11887651985E+04  0.10471403304E+04 0.  0.
        -13    1    3    3    0    0 -0.47208319560E+03  0.66836567405E+03 -0.12025814786E+04  0.14545712226E+04  0.10566000000E+00 0.  1.
         13    1    4    4    0    0  0.54758909347E+03 -0.15009926409E+03  0.37445055187E+03  0.68014471352E+03  0.10566000000E+00 0. -1.
          4    1    3    3  502    0  0.25769280878E+03 -0.18282952831E+03 -0.47560172892E+03  0.57098968876E+03  0.00000000000E+00 0.  1.
         -4    1    4    4    0  501 -0.33319870665E+03 -0.33543688165E+03 -0.18749804802E+03  0.50862048494E+03  0.00000000000E+00 0. -1.
</event>
<event>
 7    1  0.7446554E-006  0.1150663E+04  0.7818608E-02  0.8644670E-01
         -2   -1    0    0    0  501 -0.00000000000E+00  0.00000000000E+00  0.22118122797E+04  0.22118122797E+04  0.00000000000E+00 0. -1.
          2   -1    0    0  502    0  0.00000000000E+00 -0.00000000000E+00 -0.11690170608E+04  0.11690170608E+04  0.00000000000E+00 0.  1.
   -9000010    2    1    2    0  501  0.77663586226E+03 -0.15374085006E+03  0.17202545427E+04  0.21433683114E+04  0.10039683835E+04 0.  0.
        -13    1    1    2    0    0 -0.48052926835E+03  0.20090834291E+03 -0.76466729278E+03  0.92519653037E+03  0.10566000000E+00 0.  1.
         13    1    3    3    0    0  0.81024269986E+02 -0.49470398034E+03  0.74328540271E+03  0.89653229810E+03  0.10566000000E+00 0. -1.
          4    1    1    2  502    0 -0.29610659390E+03 -0.47167492849E+02  0.87207968969E+02  0.31226449876E+03  0.00000000000E+00 0.  1.
         -4    1    3    3    0  501  0.69561159227E+03  0.34096313028E+03  0.97696913999E+03  0.12468360133E+04  0.00000000000E+00 0. -1.
</event>
<event>
 8    1  0.7446554E-006  0.1119931E+04  0.7818608E-02  0.8669425E-01
          2   -1    0    0  502    0  0.00000000000E+00  0.00000000000E+00  0.67347313348E+03  0.67347313348E+03  0.00000000000E+00 0. -1.
         -2   -1    0    0    0  501 -0.00000000000E+00 -0.00000000000E+00 -0.18716791821E+04  0.18716791821E+04  0.00000000000E+00 0.  1.
    9000010    2    1    2  502    0  0.50362286122E+03 -0.76604362529E+02 -0.69124279649E+03  0.13200397485E+04  0.10025887089E+04 0.  0.
   -9000010    2    1    2    0  501 -0.50362286122E+03  0.76604362529E+02 -0.50696325211E+03  0.12251125670E+04  0.99216170467E+03 0.  0.
        -13    1    3    3    0    0 -0.12580701856E+03 -0.18141922916E+03 -0.64331733727E+03  0.68014524200E+03  0.10566000000E+00 0.  1.
         13    1    4    4    0    0  0.85725506648E+02  0.20751214369E+03 -0.57528578245E+03  0.61754667429E+03  0.10566000000E+00 0. -1.
          4    1    3    3  502    0  0.62942987978E+03  0.10481486663E+03 -0.47925459224E+02  0.63989450652E+03  0.00000000000E+00 0.  1.
         -4    1    4    4    0  501 -0.58934836787E+03 -0.13090778116E+03  0.68322530340E+02  0.60756589275E+03  0.00000000000E+00 0. -1.
</event>
<event>
 8    1  0.7446554E-006  0.1298960E+04  0.7818608E-02  0.8535550E-01
          2   -1    0    0  502    0  0.00000000000E+00  0.00000000000E+00  0.19199197453E+04  0.19199197453E+04  0.00000000000E+00 0.  1.
         -2   -1    0    0    0  501 -0.00000000000E+00 -0.00000000000E+00 -0.10964049588E+04  0.10964049588E+04  0.00000000000E+00 0. -1.
    9000010    2    1    2  502    0 -0.77050113642E+03 -0.32776425326E+03  0.10853760052E+04  0.16983038343E+04  0.10025434824E+04 0.  0.
   -9000010    2    1    2    0  501  0.77050113642E+03  0.32776425326E+03 -0.26186121867E+03  0.13180208698E+04  0.98361898537E+03 0.  0.
        -13    1    3    3    0    0 -0.83447028720E+03 -0.20828857964E+02  0.36188702045E+03  0.90980037826E+03  0.10566000000E+00 0.  1.
         13    1    4    4    0    0  0.83545194352E+03  0.20119337092E+03 -0.53343556002E+03  0.10114406707E+04  0.10566000000E+00 0. -1.
          4    1    3    3  502    0  0.63969150780E+02 -0.30693539530E+03  0.72348898478E+03  0.78850345608E+03  0.00000000000E+00 0.  1.
         -4    1    4    4    0  501 -0.64950807104E+02  0.12657088234E+03  0.27157434135E+03  0.30658019910E+03  0.00000000000E+00 0. -1.
</event>
<event>
 8    1  0.7446554E-006  0.1724592E+04  0.7818608E-02  0.8290802E-01
         -1   -1    0    0    0  501 -0.00000000000E+00  0.00000000000E+00  0.24399154894E+04  0.24399154894E+04  0.00000000000E+00 0. -1.
          1   -1    0    0  502    0  0.00000000000E+00 -0.00000000000E+00 -0.12384935825E+04  0.12384935825E+04  0.00000000000E+00 0.  1.
    9000010    2    1    2  502    0  0.11645056616E+04  0.77871734770E+03  0.36826200228E+03  0.17587232803E+04  0.99750515322E+03 0.  0.
   -9000010    2    1    2    0  501 -0.11645056616E+04 -0.77871734770E+03  0.83315990460E+03  0.19196857917E+04  0.10141814278E+04 0.  0.
        -13    1    3    3    0    0 -0.95945805341E+02  0.35777750475E+03  0.19494718095E+03  0.41858661587E+03  0.10566000000E+00 0.  1.
         13    1    4    4    0    0 -0.11428333721E+04 -0.29401431081E+03  0.34042569135E+03  0.12281702626E+04  0.10566000000E+00 0. -1.
          4    1    3    3  502    0  0.12604514670E+04  0.42093984296E+03  0.17331482134E+03  0.13401366644E+04  0.00000000000E+00 0.  1.
         -4    1    4    4    0  501 -0.21672289556E+02 -0.48470303689E+03  0.49273421325E+03  0.69151552912E+03  0.00000000000E+00 0. -1.
</event>
<event>
 8    1  0.7446554E-006  0.1094801E+04  0.7818608E-02  0.8690291E-01
         -1   -1    0    0    0  501 -0.00000000000E+00  0.00000000000E+00  0.26322576277E+04  0.26322576277E+04  0.00000000000E+00 0. -1.
          1   -1    0    0  502    0  0.00000000000E+00 -0.00000000000E+00 -0.53078920944E+03  0.53078920944E+03  0.00000000000E+00 0.  1.
    9000010    2    1    2  502    0 -0.46941445875E+03 -0.23253240060E+03  0.43327328305E+03  0.11523783504E+04  0.93049926018E+03 0.  0.
   -9000010    2    1    2    0  501  0.46941445875E+03  0.23253240060E+03  0.16681951352E+04  0.20106684867E+04  0.99271924687E+03 0.  0.
        -13    1    3    3    0    0 -0.35488952273E+03 -0.53792700706E+03  0.46044430950E+02  0.64608988465E+03  0.10566000000E+00 0.  1.
         13    1    4    4    0    0 -0.29648797766E+03 -0.32479589193E+02  0.59769400059E+03  0.66798066897E+03  0.10566000000E+00 0. -1.
          4    1    3    3  502    0 -0.11452493602E+03  0.30539460646E+03  0.38722885210E+03  0.50628846572E+03  0.00000000000E+00 0.  1.
         -4    1    4    4    0  501  0.76590243641E+03  0.26501198979E+03  0.10705011346E+04  0.13426878178E+04  0.00000000000E+00 0. -1.
</event>
<event>
 8    1  0.7446554E-006  0.1259392E+04  0.7818608E-02  0.8563132E-01
          1   -1    0    0  502    0  0.00000000000E+00  0.00000000000E+00  0.47007222850E+04  0.47007222850E+04  0.00000000000E+00 0. -1.
         -1   -1    0    0    0  501 -0.00000000000E+00 -0.00000000000E+00 -0.37943710110E+03  0.37943710110E+03  0.00000000000E+00 0.  1.
    9000010    2    1    2  502    0  0.48475886485E+01  0.77839735838E+03  0.13075159265E+04  0.18118500381E+04  0.98350227047E+03 0.  0.
   -9000010    2    1    2    0  501 -0.48475886485E+01 -0.77839735838E+03  0.30137692574E+04  0.32683093480E+04  0.99655150914E+03 0.  0.
        -13    1    3    3    0    0 -0.43671353382E+03  0.10529082400E+03  0.47453271372E+03  0.65344179220E+03  0.10566000000E+00 0.  1.
         13    1    4    4    0    0  0.37678742179E+03 -0.46085449476E+03  0.78648519505E+03  0.98636433419E+03  0.10566000000E+00 0. -1.
          4    1    3    3  502    0  0.44156112246E+03  0.67310653438E+03  0.83298321276E+03  0.11584082459E+04  0.00000000000E+00 0.  1.
         -4    1    4    4    0  501 -0.38163501043E+03 -0.31754286362E+03  0.22272840624E+04  0.22819450138E+04  0.00000000000E+00 0. -1.
</event>
<event>
 8    1  0.7446554E-006  0.1128901E+04  0.7818608E-02  0.8662115E-01
         -2   -1    0    0    0  501 -0.00000000000E+00  0.00000000000E+00  0.52716861507E+03  0.52716861507E+03  0.00000000000E+00 0.  1.
          2   -1    0    0  502    0  0.00000000000E+00 -0.00000000000E+00 -0.24202387831E+04  0.24202387831E+04  0.00000000000E+00 0. -1.
    9000010    2    1    2  502    0 -0.12193628464E+03  0.44557744440E+03 -0.96573087340E+03  0.14678916585E+04  0.10043217038E+04 0.  0.
   -9000010    2    1    2    0  501  0.12193628464E+03 -0.44557744440E+03 -0.92733929459E+03  0.14795157397E+04  0.10562201192E+04 0.  0.
        -13    1    3    3    0    0  0.31980086748E+03 -0.96770156107E+02 -0.57934436733E+03  0.66878768311E+03  0.10566000000E+00 0.  1.
         13    1    4    4    0    0 -0.14684296188E+03  0.16681810256E+03 -0.75760601168E+03  0.78953024951E+03  0.10566000000E+00 0. -1.
          4    1    3    3  502    0 -0.44173715212E+03  0.54234760051E+03 -0.38638650607E+03  0.79910397535E+03  0.00000000000E+00 0.  1.
         -4    1    4    4    0  501  0.26877924652E+03 -0.61239554697E+03 -0.16973328291E+03  0.68998549016E+03  0.00000000000E+00 0. -1.
</event>
<event>
 8    1  0.7446554E-006  0.1702769E+04  0.7818608E-02  0.8301494E-01
          2   -1    0    0  502    0  0.00000000000E+00  0.00000000000E+00  0.35159845848E+04  0.35159845848E+04  0.00000000000E+00 0. -1.
         -2   -1    0    0    0  501 -0.00000000000E+00 -0.00000000000E+00 -0.83849583656E+03  0.83849583656E+03  0.00000000000E+00 0.  1.
    9000010    2    1    2  502    0 -0.98948099105E+03  0.94685779251E+03  0.10544616757E+04  0.19978891475E+04  0.10020275991E+04 0.  0.
   -9000010    2    1    2    0  501  0.98948099105E+03 -0.94685779251E+03  0.16230270725E+04  0.23565912738E+04  0.10216130593E+04 0.  0.
        -13    1    3    3    0    0 -0.79386478648E+03  0.11581271960E+04  0.81562674520E+03  0.16238001416E+04  0.10566000000E+00 0.  1.
         13    1    4    4    0    0  0.97601292686E+03 -0.10522866968E+04  0.17003859502E+04  0.22251339098E+04  0.10566000000E+00 0. -1.
          4    1    3    3  502    0 -0.19561620456E+03 -0.21126940345E+03  0.23883493050E+03  0.37408900592E+03  0.00000000000E+00 0.  1.
         -4    1    4    4    0  501  0.13468064186E+02  0.10542890428E+03 -0.77358877663E+02  0.13145736406E+03  0.00000000000E+00 0. -1.
</event>
<event>
 8    1  0.7446554E-006  0.1301019E+04  0.7818608E-02  0.8534143E-01
         -2   -1    0    0    0  501 -0.00000000000E+00  0.00000000000E+00  0.16113025295E+04  0.16113025295E+04  0.00000000000E+00 0.  1.
          2   -1    0    0  502    0  0.00000000000E+00 -0.00000000000E+00 -0.10655338539E+04  0.10655338539E+04  0.00000000000E+00 0. -1.
    9000010    2    1    2  502    0 -0.84268636790E+03  0.46702593022E+02  0.42879193755E+03  0.13579135493E+04  0.97353234917E+03 0.  0.
   -9000010    2    1    2    0  501  0.84268636790E+03 -0.46702593022E+02  0.11697673805E+03  0.13189228341E+04  0.10067633477E+04 0.  0.
        -13    1    3    3    0    0 -0.96382630676E+03 -0.21568818538E+03  0.40651004874E+03  0.10680510165E+04  0.10566000000E+00 0.  1.
         13    1    4    4    0    0  0.96858152924E+03 -0.24275054649E+03 -0.96152092044E+02  0.10031566391E+04  0.10566000000E+00 0. -1.
          4    1    3    3  502    0  0.12113993886E+03  0.26239077840E+03  0.22281888809E+02  0.28986253284E+03  0.00000000000E+00 0.  1.
         -4    1    4    4    0  501 -0.12589516134E+03  0.19604795347E+03  0.21312883009E+03  0.31576619503E+03  0.00000000000E+00 0. -1.
</event>
<event>
 8    1  0.7446554E-006  0.1028465E+04  0.7818608E-02  0.8748297E-01
          2   -1    0    0  502    0  0.00000000000E+00  0.00000000000E+00  0.33932476379E+04  0.33932476379E+04  0.00000000000E+00 0.  1.
         -2   -1    0    0    0  501 -0.00000000000E+00 -0.00000000000E+00 -0.40917836885E+03  0.40917836885E+03  0.00000000000E+00 0. -1.
    9000010    2    1    2  502    0  0.51441444291E+02 -0.33174517061E+03  0.59957522776E+03  0.12173649622E+04  0.10048810462E+04 0.  0.
   -9000010    2    1    2    0  501 -0.51441444291E+02  0.33174517061E+03  0.23844940413E+04  0.25850610446E+04  0.94022746764E+03 0.  0.
        -13    1    3    3    0    0  0.35123407983E+03 -0.17032057619E+03 -0.13066892106E+03  0.41164165922E+03  0.10566000000E+00 0.  1.
         13    1    4    4    0    0 -0.41700848138E+03  0.20893390305E+03  0.60317925112E+03  0.76247929122E+03  0.10566000000E+00 0. -1.
          4    1    3    3  502    0 -0.29979263554E+03 -0.16142459442E+03  0.73024414882E+03  0.80572330294E+03  0.00000000000E+00 0.  1.
         -4    1    4    4    0  501  0.36556703709E+03  0.12281126756E+03  0.17813147902E+04  0.18225817534E+04  0.00000000000E+00 0. -1.
</event>
<event>
 8    1  0.7446554E-006  0.2167471E+04  0.7818608E-02  0.8103420E-01
         -2   -1    0    0    0  501 -0.00000000000E+00  0.00000000000E+00  0.12859516470E+04  0.12859516470E+04  0.00000000000E+00 0.  1.
          2   -1    0    0  502    0  0.00000000000E+00 -0.00000000000E+00 -0.49189963292E+04  0.49189963292E+04  0.00000000000E+00 0. -1.
    9000010    2    1    2  502    0  0.15700173087E+04  0.11062158979E+04 -0.33909009231E+04  0.40249748806E+04  0.10067500965E+04 0.  0.
   -9000010    2    1    2    0  501 -0.15700173087E+04 -0.11062158979E+04 -0.24214375908E+03  0.21799730956E+04  0.10024874739E+04 0.  0.
        -13    1    3    3    0    0  0.91440027007E+03  0.41586398510E+02 -0.15350033579E+04  0.17872024514E+04  0.10566000000E+00 0.  1.
         13    1    4    4    0    0 -0.12869843591E+04 -0.51248359281E+03  0.18223986126E+03  0.13972041911E+04  0.10566000000E+00 0. -1.
          4    1    3    3  502    0  0.65561703862E+03  0.10646294994E+04 -0.18558975652E+04  0.22377724292E+04  0.00000000000E+00 0.  1.
         -4    1    4    4    0  501 -0.28303294958E+03 -0.59373230510E+03 -0.42438362034E+03  0.78276890452E+03  0.00000000000E+00 0. -1.
</event>
<event>
 8    1  0.7446554E-006  0.1447627E+04  0.7818608E-02  0.8440293E-01
          2   -1    0    0  502    0  0.00000000000E+00  0.00000000000E+00  0.20584542790E+04  0.20584542790E+04  0.00000000000E+00 0.  1.
         -2   -1    0    0    0  501 -0.00000000000E+00 -0.00000000000E+00 -0.10764318393E+04  0.10764318393E+04  0.00000000000E+00 0. -1.
    9000010    2    1    2  502    0  0.25736003668E+03 -0.10465654094E+04  0.12176887060E+03  0.14386725891E+04  0.94520781631E+03 0.  0.
   -9000010    2    1    2    0  501 -0.25736003668E+03  0.10465654094E+04  0.86025356911E+03  0.16962135293E+04  0.98770987093E+03 0.  0.
        -13    1    3    3    0    0  0.50973555524E+03 -0.35794709822E+03  0.28868449227E+03  0.68650943813E+03  0.10566000000E+00 0.  1.
         13    1    4    4    0    0 -0.56899249307E+03  0.55909514673E+03  0.20809788821E+03  0.82440559345E+03  0.10566000000E+00 0. -1.
          4    1    3    3  502    0 -0.25237551856E+03 -0.68861831117E+03 -0.16691562167E+03  0.75216315092E+03  0.00000000000E+00 0.  1.
         -4    1    4    4    0  501  0.31163245639E+03  0.48747026266E+03  0.65215568090E+03  0.87180793584E+03  0.00000000000E+00 0. -1.
</event>
<event>
 8    1  0.7446554E-006  0.1274131E+04  0.7818608E-02  0.8552737E-01
          1   -1    0    0  502    0  0.00000000000E+00  0.00000000000E+00  0.15353076830E+04  0.15353076830E+04  0.00000000000E+00 0.  1.
         -1   -1    0    0    0  501 -0.00000000000E+00 -0.00000000000E+00 -0.10578985277E+04  0.10578985277E+04  0.00000000000E+00 0. -1.
    9000010    2    1    2  502    0  0.33452889500E+03  0.71849896928E+03  0.21387353506E+03  0.13018638577E+04  0.10104242992E+04 0.  0.
   -9000010    2    1    2    0  501 -0.33452889500E+03 -0.71849896928E+03  0.26353562027E+03  0.12913423530E+04  0.98486735102E+03 0.  0.
        -13    1    3    3    0    0  0.56740160786E+03  0.27737318913E+03 -0.19055703121E+03  0.65969118832E+03  0.10566000000E+00 0.  1.
         13    1    4    4    0    0 -0.10804805235E+03 -0.63786279424E+02 -0.34633741910E+03  0.36836488716E+03  0.10566000000E+00 0. -1.
          4    1    3    3  502    0 -0.23287271286E+03  0.44112578015E+03  0.40443056627E+03  0.64217266933E+03  0.00000000000E+00 0.  1.
         -4    1    4    4    0  501 -0.22648084265E+03 -0.65471268985E+03  0.60987303936E+03  0.92297746586E+03  0.00000000000E+00 0. -1.
</event>
<event>
 8    1  0.7446554E-006  0.1870556E+04  0.7818608E-02  0.8223232E-01
         -2   -1    0    0    0  501 -0.00000000000E+00  0.00000000000E+00  0.35949459804E+04  0.35949459804E+04  0.00000000000E+00 0.  1.
          2   -1    0    0  502    0  0.00000000000E+00 -0.00000000000E+00 -0.10356824024E+04  0.10356824024E+04  0.00000000000E+00 0. -1.
    9000010    2    1    2  502    0 -0.11210880481E+04  0.10986805586E+04  0.18374297651E+04  0.26109294480E+04  0.98836585301E+03 0.  0.
   -9000010    2    1    2    0  501  0.11210880481E+04 -0.10986805586E+04  0.72183381285E+03  0.20196989348E+04  0.10460412766E+04 0.  0.
        -13    1    3    3    0    0 -0.10850540086E+04  0.11281103945E+04  0.19433081895E+04  0.24952799430E+04  0.10566000000E+00 0.  1.
         13    1    4    4    0    0  0.85078933802E+02 -0.43768990444E+03 -0.19480634523E+03  0.48658031273E+03  0.10566000000E+00 0. -1.
          4    1    3    3  502    0 -0.36034039571E+02 -0.29429835857E+02 -0.10587842441E+03  0.11564950498E+03  0.00000000000E+00 0.  1.
         -4    1    4    4    0  501  0.10360091143E+04 -0.66099065416E+03  0.91664015808E+03  0.15331186221E+04  0.00000000000E+00 0. -1.
</event>
<event>
 8    1  0.7446554E-006  0.1390063E+04  0.7818608E-02  0.8475720E-01
          1   -1    0    0  502    0  0.00000000000E+00  0.00000000000E+00  0.13500628795E+04  0.13500628795E+04  0.00000000000E+00 0.  1.
         -1   -1    0    0    0  501 -0.00000000000E+00 -0.00000000000E+00 -0.14646674668E+04  0.14646674668E+04  0.00000000000E+00 0. -1.
    9000010    2    1    2  502    0 -0.97308357650E+03 -0.71833065266E+01 -0.27005791545E+03  0.14252148681E+04  0.10056653995E+04 0.  0.
   -9000010    2    1    2    0  501  0.97308357650E+03  0.71833065266E+01  0.15545332819E+03  0.13895154782E+04  0.97961435282E+03 0.  0.
        -13    1    3    3    0    0 -0.22969966816E+03 -0.20621446090E+03  0.32812830820E+03  0.45050476051E+03  0.10566000000E+00 0.  1.
         13    1    4    4    0    0  0.98928400144E+03  0.29042601374E+03 -0.60745114062E+02  0.10328214197E+04  0.10566000000E+00 0. -1.
          4    1    3    3  502    0 -0.74338390834E+03  0.19903115437E+03 -0.59818622365E+03  0.97471010755E+03  0.00000000000E+00 0.  1.
         -4    1    4    4    0  501 -0.16200424933E+02 -0.28324270722E+03  0.21619844225E+03  0.35669405853E+03  0.00000000000E+00 0. -1.
</event>
<event>
 8    1  0.7446554E-006  0.1293089E+04  0.7818608E-02  0.8539578E-01
         -1   -1    0    0    0  501 -0.00000000000E+00  0.00000000000E+00  0.16110590085E+04  0.16110590085E+04  0.00000000000E+00 0. -1.
          1   -1    0    0  502    0  0.00000000000E+00 -0.00000000000E+00 -0.10379548021E+04  0.10379548021E+04  0.00000000000E+00 0.  1.
    9000010    2    1    2  502    0  0.81426683241E+03 -0.32532463736E+02  0.28200973535E+03  0.13325644085E+04  0.10159279386E+04 0.  0.
   -9000010    2    1    2    0  501 -0.81426683241E+03  0.32532463736E+02  0.29109447107E+03  0.13164494020E+04  0.99207570347E+03 0.  0.
        -13    1    3    3    0    0  0.92470455392E+03 -0.23493038290E+02  0.52635063737E+03  0.10642722582E+04  0.10566000000E+00 0.  1.
         13    1    4    4    0    0  0.24053100675E+02 -0.12619492845E+03  0.43287463862E+03  0.45153535359E+03  0.10566000000E+00 0. -1.
          4    1    3    3  502    0 -0.11043772151E+03 -0.90394254466E+01 -0.24434090203E+03  0.26829215036E+03  0.00000000000E+00 0.  1.
         -4    1    4    4    0  501 -0.83831993309E+03  0.15872739218E+03 -0.14178016755E+03  0.86491404842E+03  0.00000000000E+00 0. -1.
</event>
<event>
 8    1  0.7446554E-006  0.1602716E+04  0.7818608E-02  0.8352721E-01
          2   -1    0    0  502    0  0.00000000000E+00  0.00000000000E+00  0.13678488635E+04  0.13678488635E+04  0.00000000000E+00 0. -1.
         -2   -1    0    0    0  501 -0.00000000000E+00 -0.00000000000E+00 -0.18858242393E+04  0.18858242393E+04  0.00000000000E+00 0.  1.
    9000010    2    1    2  502    0 -0.66634162099E+03 -0.10669031278E+04 -0.15400117507E+03  0.16123534969E+04  0.99683198033E+03 0.  0.
   -9000010    2    1    2    0  501  0.66634162099E+03  0.10669031278E+04 -0.36397420071E+03  0.16413196059E+04  0.98952483036E+03 0.  0.
        -13    1    3    3    0    0 -0.80087061775E+03 -0.11817896155E+04 -0.14934200727E+03  0.14353826974E+04  0.10566000000E+00 0.  1.
         13    1    4    4    0    0  0.22570298863E+03 -0.11462966667E+03 -0.28005155040E+03  0.37750586962E+03  0.10566000000E+00 0. -1.
          4    1    3    3  502    0  0.13452899676E+03  0.11488648771E+03 -0.46591678038E+01  0.17697079949E+03  0.00000000000E+00 0.  1.
         -4    1    4    4    0  501  0.44063863236E+03  0.11815327945E+04 -0.83922650315E+02  0.12638137363E+04  0.00000000000E+00 0. -1.
</event>
<event>
 8    1  0.7446554E-006  0.1234030E+04  0.7818608E-02  0.8581368E-01
          1   -1    0    0  502    0  0.00000000000E+00  0.00000000000E+00  0.10350011601E+04  0.10350011601E+04  0.00000000000E+00 0.  1.
         -1   -1    0    0    0  501 -0.00000000000E+00 -0.00000000000E+00 -0.14843808181E+04  0.14843808181E+04  0.00000000000E+00 0. -1.
    9000010    2    1    2  502    0 -0.80984408208E+02 -0.72968669271E+03 -0.10764387192E+03  0.12439336279E+04  0.99838996562E+03 0.  0.
   -9000010    2    1    2    0  501  0.80984408208E+02  0.72968669271E+03 -0.34173578604E+03  0.12754483503E+04  0.98538520536E+03 0.  0.
        -13    1    3    3    0    0 -0.36921245905E+03 -0.60787668038E+03 -0.39975560594E+03  0.81586546325E+03  0.10566000000E+00 0.  1.
         13    1    4    4    0    0  0.36440948699E+03  0.84674906929E+03 -0.24356043669E+03  0.95346733454E+03  0.10566000000E+00 0. -1.
          4    1    3    3  502    0  0.28822805084E+03 -0.12181001232E+03  0.29211173402E+03  0.42806816461E+03  0.00000000000E+00 0.  1.
         -4    1    4    4    0  501 -0.28342507878E+03 -0.11706237658E+03 -0.98175349346E+02  0.32198101576E+03  0.00000000000E+00 0. -1.
</event>
<event>
 8    1  0.7446554E-006  0.1643551E+04  0.7818608E-02  0.8331360E-01
         -1   -1    0    0    0  501 -0.00000000000E+00  0.00000000000E+00  0.16964840831E+04  0.16964840831E+04  0.00000000000E+00 0. -1.
          1   -1    0    0  502    0  0.00000000000E+00 -0.00000000000E+00 -0.16166189538E+04  0.16166189538E+04  0.00000000000E+00 0.  1.
    9000010    2    1    2  502    0 -0.95998147778E+03  0.86261142464E+03  0.24299607528E+03  0.16553002959E+04  0.10076254608E+04 0.  0.
   -9000010    2    1    2    0  501  0.95998147778E+03 -0.86261142464E+03 -0.16313094595E+03  0.16578027410E+04  0.10276357890E+04 0.  0.
        -13    1    3    3    0    0 -0.41204342836E+03  0.95220572688E+02  0.52213520435E+03  0.67191660726E+03  0.10566000000E+00 0.  1.
         13    1    4    4    0    0  0.35910358504E+03 -0.18147791346E+03 -0.54085252119E+03  0.67410019930E+03  0.10566000000E+00 0. -1.
          4    1    3    3  502    0 -0.54793804942E+03  0.76739085196E+03 -0.27913912907E+03  0.98338368862E+03  0.00000000000E+00 0.  1.
         -4    1    4    4    0  501  0.60087789274E+03 -0.68113351118E+03  0.37772157524E+03  0.98370254165E+03  0.00000000000E+00 0. -1.
</event>
<event>
 7    1  0.1238588E-005  0.8865866E+03  0.7818608E-02  0.8889139E-01
         -2   -1    0    0    0  501 -0.00000000000E+00  0.00000000000E+00  0.53363246567E+03  0.53363246567E+03  0.00000000000E+00 0.  1.
          2   -1    0    0  502    0  0.00000000000E+00 -0.00000000000E+00 -0.15742275959E+04  0.15742275959E+04  0.00000000000E+00 0. -1.
    9000010    2    1    2  502    0  0.20367092888E+02 -0.55628084348E+03 -0.72234475180E+03  0.13463197426E+04  0.99041996834E+03 0.  0.
        -13    1    3    3    0    0  0.35273647338E+03 -0.51831268406E+03 -0.93306243943E+02  0.63385891524E+03  0.10566000000E+00 0.  1.
         13    1    1    2    0    0  0.15273942890E+03  0.26613155807E+03 -0.29048588712E+03  0.42253686363E+03  0.10566000000E+00 0. -1.
          4    1    3    3  502    0 -0.33236938050E+03 -0.37968159427E+02 -0.62903850786E+03  0.71246082741E+03  0.00000000000E+00 0.  1.
         -4    1    1    2    0  501 -0.17310652179E+03  0.29014928541E+03 -0.27764491282E+02  0.33900345528E+03  0.00000000000E+00 0. -1.
</event>
<event>
 8    1  0.7446554E-006  0.1132861E+04  0.7818608E-02  0.8658911E-01
         -2   -1    0    0    0  501 -0.00000000000E+00  0.00000000000E+00  0.38583039672E+03  0.38583039672E+03  0.00000000000E+00 0.  1.
          2   -1    0    0  502    0  0.00000000000E+00 -0.00000000000E+00 -0.33274327770E+04  0.33274327770E+04  0.00000000000E+00 0. -1.
    9000010    2    1    2  502    0 -0.52532525023E+03  0.37852651832E+02 -0.14511166519E+04  0.18465781174E+04  0.10132678642E+04 0.  0.
   -9000010    2    1    2    0  501  0.52532525023E+03 -0.37852651832E+02 -0.14904857284E+04  0.18666850563E+04  0.99275674312E+03 0.  0.
        -13    1    3    3    0    0 -0.15820301522E+03 -0.48042568008E+03 -0.68265714608E+03  0.84962216212E+03  0.10566000000E+00 0.  1.
         13    1    4    4    0    0  0.73077464396E+03 -0.30993473878E+02 -0.58056970491E+03  0.93383797797E+03  0.10566000000E+00 0. -1.
          4    1    3    3  502    0 -0.36712223501E+03  0.51827833191E+03 -0.76845950580E+03  0.99695595531E+03  0.00000000000E+00 0.  1.
         -4    1    4    4    0  501 -0.20544939373E+03 -0.68591779532E+01 -0.90991602350E+03  0.93284707832E+03  0.00000000000E+00 0. -1.
</event>
<event>
 8    1  0.7446554E-006  0.1154042E+04  0.7818608E-02  0.8641997E-01
         -2   -1    0    0    0  501 -0.00000000000E+00  0.00000000000E+00  0.17837084513E+04  0.17837084513E+04  0.00000000000E+00 0. -1.
          2   -1    0    0  502    0  0.00000000000E+00 -0.00000000000E+00 -0.85110224543E+03  0.85110224543E+03  0.00000000000E+00 0.  1.
    9000010    2    1    2  502    0 -0.51950619990E+03 -0.15156924924E+03 -0.47850242678E+00  0.11382854143E+04  0.10014157610E+04 0.  0.
   -9000010    2    1    2    0  501  0.51950619990E+03  0.15156924924E+03  0.93308470827E+03  0.14965252824E+04  0.10373432021E+04 0.  0.
        -13    1    3    3    0    0 -0.89623204901E+02  0.15450825631E+03 -0.42500037498E+03  0.46101024937E+03  0.10566000000E+00 0.  1.
         13    1    4    4    0    0  0.14937488631E+00 -0.40042219580E+03  0.42586692165E+03  0.58455162588E+03  0.10566000000E+00 0. -1.
          4    1    3    3  502    0 -0.42988299500E+03 -0.30607750555E+03  0.42452187255E+03  0.67727516496E+03  0.00000000000E+00 0.  1.
         -4    1    4    4    0  501  0.51935682502E+03  0.55199144504E+03  0.50721778663E+03  0.91197365651E+03  0.00000000000E+00 0. -1.
</event>
<event>
 8    1  0.7446554E-006  0.1095571E+04  0.7818608E-02  0.8689643E-01
         -1   -1    0    0    0  501 -0.00000000000E+00  0.00000000000E+00  0.49545556013E+03  0.49545556013E+03  0.00000000000E+00 0. -1.
          1   -1    0    0  502    0  0.00000000000E+00 -0.00000000000E+00 -0.26039121659E+04  0.26039121659E+04  0.00000000000E+00 0.  1.
    9000010    2    1    2  502    0 -0.38333535846E+03  0.24696194595E+03 -0.14591551222E+04  0.18220032248E+04  0.99127487655E+03 0.  0.
   -9000010    2    1    2    0  501  0.38333535846E+03 -0.24696194595E+03 -0.64930148366E+03  0.12773645013E+04  0.10010651590E+04 0.  0.
        -13    1    3    3    0    0 -0.69889785146E+03  0.18891258670E+03 -0.12316513185E+04  0.14286746144E+04  0.10566000000E+00 0.  1.
         13    1    4    4    0    0  0.12664023002E+03 -0.58231956727E+03 -0.13345741849E+03  0.61069200093E+03  0.10566000000E+00 0. -1.
          4    1    3    3  502    0  0.31556249301E+03  0.58049359247E+02 -0.22750380361E+03  0.39332861040E+03  0.00000000000E+00 0.  1.
         -4    1    4    4    0  501  0.25669512844E+03  0.33535762132E+03 -0.51584406517E+03  0.66667250034E+03  0.00000000000E+00 0. -1.
</event>
<event>
 8    1  0.7446554E-006  0.1348072E+04  0.7818608E-02  0.8502692E-01
         -2   -1    0    0    0  501 -0.00000000000E+00  0.00000000000E+00  0.23324607520E+04  0.23324607520E+04  0.00000000000E+00 0.  1.
          2   -1    0    0  502    0  0.00000000000E+00 -0.00000000000E+00 -0.78473456867E+03  0.78473456867E+03  0.00000000000E+00 0. -1.
    9000010    2    1    2  502    0 -0.15700828484E+02  0.93460378193E+03  0.88640431074E+03  0.15911267480E+04  0.93393842465E+03 0.  0.
   -9000010    2    1    2    0  501  0.15700828484E+02 -0.93460378193E+03  0.66132187255E+03  0.15260685726E+04  0.10088646707E+04 0.  0.
        -13    1    3    3    0    0 -0.39568589349E+03  0.84048672778E+03  0.65040442772E+03  0.11340243369E+04  0.10566000000E+00 0.  1.
         13    1    4    4    0    0  0.37750581477E+02 -0.11378475761E+04  0.42903657267E+03  0.12166324855E+04  0.10566000000E+00 0. -1.
          4    1    3    3  502    0  0.37998506500E+03  0.94117054155E+02  0.23599988302E+03  0.45710241117E+03  0.00000000000E+00 0.  1.
         -4    1    4    4    0  501 -0.22049752993E+02  0.20324379416E+03  0.23228529987E+03  0.30943608711E+03  0.00000000000E+00 0. -1.
</event>
<event>
 8    1  0.7446554E-006  0.1313883E+04  0.7818608E-02  0.8525410E-01
          2   -1    0    0  502    0  0.00000000000E+00  0.00000000000E+00  0.12733837283E+04  0.12733837283E+04  0.00000000000E+00 0. -1.
         -2   -1    0    0    0  501 -0.00000000000E+00 -0.00000000000E+00 -0.13571101838E+04  0.13571101838E+04  0.00000000000E+00 0.  1.
    9000010    2    1    2  502    0 -0.60566940849E+03  0.60324239458E+03  0.93504002336E+00  0.13102639657E+04  0.99300250072E+03 0.  0.
   -9000010    2    1    2    0  501  0.60566940849E+03 -0.60324239458E+03 -0.84661495538E+02  0.13202299465E+04  0.10025481155E+04 0.  0.
        -13    1    3    3    0    0  0.21365200366E+03 -0.33144131043E+02 -0.14825449623E+03  0.26215476137E+03  0.10566000000E+00 0.  1.
         13    1    4    4    0    0 -0.11651740461E+03 -0.27177550430E+03 -0.37203967724E+03  0.47523863787E+03  0.10566000000E+00 0. -1.
          4    1    3    3  502    0 -0.81932141216E+03  0.63638652562E+03  0.14918953626E+03  0.10481092043E+04  0.00000000000E+00 0.  1.
         -4    1    4    4    0  501  0.72218681310E+03 -0.33146689027E+03  0.28737818170E+03  0.84499130865E+03  0.00000000000E+00 0. -1.
</event>
<event>
 8    1  0.7446554E-006  0.1070392E+04  0.7818608E-02  0.8711125E-01
          2   -1    0    0  502    0  0.00000000000E+00  0.00000000000E+00  0.13463242287E+04  0.13463242287E+04  0.00000000000E+00 0. -1.
         -2   -1    0    0    0  501 -0.00000000000E+00 -0.00000000000E+00 -0.93052099919E+03  0.93052099919E+03  0.00000000000E+00 0.  1.
    9000010    2    1    2  502    0  0.45373365514E+03 -0.61889604507E+02  0.52919182749E+03  0.11546006921E+04  0.91834319025E+03 0.  0.
   -9000010    2    1    2    0  501 -0.45373365514E+03  0.61889604507E+02 -0.11338859796E+03  0.11222445358E+04  0.10182687616E+04 0.  0.
        -13    1    3    3    0    0 -0.24000302461E+03  0.14826026745E+03  0.25288022481E+03  0.37885482442E+03  0.10566000000E+00 0.  1.
         13    1    4    4    0    0  0.12126036419E+03 -0.37511912285E+03 -0.34718121564E+02  0.39575723793E+03  0.10566000000E+00 0. -1.
          4    1    3    3  502    0  0.69373667975E+03 -0.21014987195E+03  0.27631160268E+03  0.77574586772E+03  0.00000000000E+00 0.  1.
         -4    1    4    4    0  501 -0.57499401933E+03  0.43700872735E+03 -0.78670476392E+02  0.72648729783E+03  0.00000000000E+00 0. -1.
</event>
<event>
 8    1  0.7446554E-006  0.1078132E+04  0.7818608E-02  0.8704456E-01
         -2   -1    0    0    0  501 -0.00000000000E+00  0.00000000000E+00  0.16615371292E+04  0.16615371292E+04  0.00000000000E+00 0.  1.
          2   -1    0    0  502    0  0.00000000000E+00 -0.00000000000E+00 -0.72601187618E+03  0.72601187618E+03  0.00000000000E+00 0. -1.
    9000010    2    1    2  502    0  0.25703026135E+03 -0.36502931024E+03  0.23558112764E+03  0.10926021879E+04  0.96900470622E+03 0.  0.
   -9000010    2    1    2    0  501 -0.25703026135E+03  0.36502931024E+03  0.69994412540E+03  0.12949468175E+04  0.99380809461E+03 0.  0.
        -13    1    3    3    0    0  0.24743073445E+03 -0.13146030249E+03  0.59854251579E+03  0.66087588385E+03  0.10566000000E+00 0.  1.
         13    1    4    4    0    0  0.16115465501E+03  0.74350487854E+02 -0.19597257340E+03  0.26439379449E+03  0.10566000000E+00 0. -1.
          4    1    3    3  502    0  0.95995268999E+01 -0.23356900775E+03 -0.36296138815E+03  0.43172630403E+03  0.00000000000E+00 0.  1.
         -4    1    4    4    0  501 -0.41818491636E+03  0.29067882239E+03  0.89591669880E+03  0.10305530230E+04  0.00000000000E+00 0. -1.
</event>
<event>
 8    1  0.7446554E-006  0.1908827E+04  0.7818608E-02  0.8206557E-01
         -2   -1    0    0    0  501 -0.00000000000E+00  0.00000000000E+00  0.13011940444E+04  0.13011940444E+04  0.00000000000E+00 0. -1.
          2   -1    0    0  502    0  0.00000000000E+00 -0.00000000000E+00 -0.29714406875E+04  0.29714406875E+04  0.00000000000E+00 0.  1.
    9000010    2    1    2  502    0 -0.34891371439E+03  0.16335319649E+04 -0.13556434903E+04  0.23575133416E+04  0.96433003806E+03 0.  0.
   -9000010    2    1    2    0  501  0.34891371439E+03 -0.16335319649E+04 -0.31460315284E+03  0.19151213903E+04  0.88235329396E+03 0.  0.
        -13    1    3    3    0    0 -0.38370053919E+03  0.62260717577E+03 -0.89308643261E+02  0.73677801543E+03  0.10566000000E+00 0.  1.
         13    1    4    4    0    0  0.64759350931E+03 -0.11691646191E+04 -0.20378090817E+03  0.13519800033E+04  0.10566000000E+00 0. -1.
          4    1    3    3  502    0  0.34786824804E+02  0.10109247891E+04 -0.12663348471E+04  0.16207353261E+04  0.00000000000E+00 0.  1.
         -4    1    4    4    0  501 -0.29867979492E+03 -0.46436734586E+03 -0.11082224467E+03  0.56314138696E+03  0.00000000000E+00 0. -1.
</event>
<event>
 8    1  0.7446554E-006  0.1228848E+04  0.7818608E-02  0.8585150E-01
         -2   -1    0    0    0  501 -0.00000000000E+00  0.00000000000E+00  0.10608332916E+04  0.10608332916E+04  0.00000000000E+00 0.  1.
          2   -1    0    0  502    0  0.00000000000E+00 -0.00000000000E+00 -0.17228223740E+04  0.17228223740E+04  0.00000000000E+00 0. -1.
    9000010    2    1    2  502    0 -0.33849641613E+03 -0.54307346999E+03  0.23337493154E+03  0.13069962223E+04  0.11154670093E+04 0.  0.
   -9000010    2    1    2    0  501  0.33849641613E+03  0.54307346999E+03 -0.89536401394E+03  0.14766594434E+04  0.98454952989E+03 0.  0.
        -13    1    3    3    0    0  0.12618281199E+03 -0.70988980537E+03  0.34730878010E+03  0.80030559020E+03  0.10566000000E+00 0.  1.
         13    1    4    4    0    0  0.23905798446E+02 -0.20960180145E+03 -0.55315171506E+03  0.59201455506E+03  0.10566000000E+00 0. -1.
          4    1    3    3  502    0 -0.46467922812E+03  0.16681633538E+03 -0.11393384857E+03  0.50669063208E+03  0.00000000000E+00 0.  1.
         -4    1    4    4    0  501  0.31459061768E+03  0.75267527144E+03 -0.34221229888E+03  0.88464488835E+03  0.00000000000E+00 0. -1.
</event>
<event>
 8    1  0.7446554E-006  0.1220863E+04  0.7818608E-02  0.8591015E-01
          2   -1    0    0  502    0  0.00000000000E+00  0.00000000000E+00  0.24263851009E+04  0.24263851009E+04  0.00000000000E+00 0. -1.
         -2   -1    0    0    0  501 -0.00000000000E+00 -0.00000000000E+00 -0.69130999690E+03  0.69130999690E+03  0.00000000000E+00 0.  1.
    9000010    2    1    2  502    0  0.41965157544E+03  0.55315370739E+03  0.13842914328E+04  0.18420766704E+04  0.99744534680E+03 0.  0.
   -9000010    2    1    2    0  501 -0.41965157544E+03 -0.55315370739E+03  0.35078367126E+03  0.12756184275E+04  0.10109731548E+04 0.  0.
        -13    1    3    3    0    0  0.13410232478E+03  0.50291819874E+03  0.10581612452E+03  0.53113765778E+03  0.10566000000E+00 0.  1.
         13    1    4    4    0    0 -0.48095027401E+03 -0.76400001712E+03  0.51261389926E+02  0.90423278722E+03  0.10566000000E+00 0. -1.
          4    1    3    3  502    0  0.28554925066E+03  0.50235508648E+02  0.12784753083E+04  0.13109390126E+04  0.00000000000E+00 0.  1.
         -4    1    4    4    0  501  0.61298698572E+02  0.21084630973E+03  0.29952228133E+03  0.37138564025E+03  0.00000000000E+00 0. -1.
</event>
<event>
 8    1  0.7446554E-006  0.1490254E+04  0.7818608E-02  0.8415130E-01
         -2   -1    0    0    0  501 -0.00000000000E+00  0.00000000000E+00  0.80266196925E+03  0.80266196925E+03  0.00000000000E+00 0. -1.
          2   -1    0    0  502    0  0.00000000000E+00 -0.00000000000E+00 -0.29556709254E+04  0.29556709254E+04  0.00000000000E+00 0.  1.
    9000010    2    1    2  502    0 -0.97746553811E+03 -0.64560557002E+03 -0.56350069719E+03  0.15316827028E+04  0.81010705226E+03 0.  0.
   -9000010    2    1    2    0  501  0.97746553811E+03  0.64560557002E+03 -0.15895082590E+04  0.22266501918E+04  0.10291691510E+04 0.  0.
        -13    1    3    3    0    0 -0.81571355524E+03 -0.62191712599E+03 -0.75959501530E+03  0.12763832161E+04  0.10566000000E+00 0.  1.
         13    1    4    4    0    0  0.14873331236E+03 -0.20485786847E+03 -0.13714473032E+02  0.25352799138E+03  0.10566000000E+00 0. -1.
          4    1    3    3  502    0 -0.16175198287E+03 -0.23688444031E+02  0.19609431811E+03  0.25529948675E+03  0.00000000000E+00 0.  1.
         -4    1    4    4    0  501  0.82873222575E+03  0.85046343849E+03 -0.15757937859E+04  0.19731222005E+04  0.00000000000E+00 0. -1.
</event>
<event>
 8    1  0.7446554E-006  0.1634538E+04  0.7818608E-02  0.8336019E-01
         -2   -1    0    0    0  501 -0.00000000000E+00  0.00000000000E+00  0.85516841890E+03  0.85516841890E+03  0.00000000000E+00 0.  1.
          2   -1    0    0  502    0  0.00000000000E+00 -0.00000000000E+00 -0.31258380803E+04  0.31258380803E+04  0.00000000000E+00 0. -1.
    9000010    2    1    2  502    0  0.12468149782E+04 -0.30762057776E+03 -0.10939660996E+04  0.19713693029E+04  0.10199789663E+04 0.  0.
   -9000010    2    1    2    0  501 -0.12468149782E+04  0.30762057776E+03 -0.11767035619E+04  0.20096371964E+04  0.10024132774E+04 0.  0.
        -13    1    3    3    0    0  0.63512741613E+03 -0.58110303084E+03 -0.25530395799E+03  0.89791296310E+03  0.10566000000E+00 0.  1.
         13    1    4    4    0    0 -0.31331455248E+03 -0.29553269714E+03 -0.64999599053E+03  0.77974379302E+03  0.10566000000E+00 0. -1.
          4    1    3    3  502    0  0.61168756208E+03  0.27348245307E+03 -0.83866214157E+03  0.10734563398E+04  0.00000000000E+00 0.  1.
         -4    1    4    4    0  501 -0.93350042573E+03  0.60315327490E+03 -0.52670757136E+03  0.12298934033E+04  0.00000000000E+00 0. -1.
</event>
<event>
 8    1  0.7446554E-006  0.1454614E+04  0.7818608E-02  0.8436108E-01
          2   -1    0    0  502    0  0.00000000000E+00  0.00000000000E+00  0.17217043094E+04  0.17217043094E+04  0.00000000000E+00 0. -1.
         -2   -1    0    0    0  501 -0.00000000000E+00 -0.00000000000E+00 -0.12810604555E+04  0.12810604555E+04  0.00000000000E+00 0.  1.
    9000010    2    1    2  502    0  0.94828346165E+03 -0.47776728936E+03  0.52307154416E+03  0.15455610017E+04  0.99380675340E+03 0.  0.
   -9000010    2    1    2    0  501 -0.94828346165E+03  0.47776728936E+03 -0.82427690268E+02  0.14572037632E+04  0.99455788012E+03 0.  0.
        -13    1    3    3    0    0  0.62165081261E+03 -0.77561922086E+03  0.24644451778E+03  0.10240946343E+04  0.10566000000E+00 0.  1.
         13    1    4    4    0    0 -0.29000158945E+03  0.68092759981E+03  0.93991526089E+02  0.74605478097E+03  0.10566000000E+00 0. -1.
          4    1    3    3  502    0  0.32663264905E+03  0.29785193149E+03  0.27662702639E+03  0.52146636732E+03  0.00000000000E+00 0.  1.
         -4    1    4    4    0  501 -0.65828187220E+03 -0.20316031045E+03 -0.17641921636E+03  0.71114898222E+03  0.00000000000E+00 0. -1.
</event>
<event>
 8    1  0.7446554E-006  0.1112577E+04  0.7818608E-02  0.8675472E-01
         -2   -1    0    0    0  501 -0.00000000000E+00  0.00000000000E+00  0.71570797247E+03  0.71570797247E+03  0.00000000000E+00 0. -1.
          2   -1    0    0  502    0  0.00000000000E+00 -0.00000000000E+00 -0.19286508915E+04  0.19286508915E+04  0.00000000000E+00 0.  1.
    9000010    2    1    2  502    0  0.30032352548E+03  0.44169335060E+03 -0.10433069575E+04  0.15452339606E+04  0.10069614439E+04 0.  0.
   -9000010    2    1    2    0  501 -0.30032352548E+03 -0.44169335060E+03 -0.16963596145E+03  0.10991249033E+04  0.94552205565E+03 0.  0.
        -13    1    3    3    0    0 -0.80005013586E+02 -0.21171521542E+03 -0.65970100750E+03  0.69744502658E+03  0.10566000000E+00 0.  1.
         13    1    4    4    0    0 -0.72756896328E+02  0.27989738966E+03  0.83948385139E+02  0.30113694100E+03  0.10566000000E+00 0. -1.
          4    1    3    3  502    0  0.38032853907E+03  0.65340856602E+03 -0.38360595003E+03  0.84778893404E+03  0.00000000000E+00 0.  1.
         -4    1    4    4    0  501 -0.22756662915E+03 -0.72159074026E+03 -0.25358434659E+03  0.79798796230E+03  0.00000000000E+00 0. -1.
</event>
<event>
 8    1  0.7446554E-006  0.1171202E+04  0.7818608E-02  0.8628569E-01
          2   -1    0    0  502    0  0.00000000000E+00  0.00000000000E+00  0.23839354023E+04  0.23839354023E+04  0.00000000000E+00 0. -1.
         -2   -1    0    0    0  501 -0.00000000000E+00 -0.00000000000E+00 -0.60736410487E+03  0.60736410487E+03  0.00000000000E+00 0.  1.
    9000010    2    1    2  502    0  0.58398759836E+03 -0.25824270753E+03  0.12245142530E+04  0.16880551624E+04  0.97075448208E+03 0.  0.
   -9000010    2    1    2    0  501 -0.58398759836E+03  0.25824270753E+03  0.55205704444E+03  0.13032443448E+04  0.99294915824E+03 0.  0.
        -13    1    3    3    0    0  0.23090915400E+03 -0.21079493743E+03 -0.90619643714E+02  0.32552338478E+03  0.10566000000E+00 0.  1.
         13    1    4    4    0    0 -0.26388376254E+03 -0.38047736019E+03  0.26326128599E+03  0.53263888106E+03  0.10566000000E+00 0. -1.
          4    1    3    3  502    0  0.35307844436E+03 -0.47447770103E+02  0.13151338967E+04  0.13625317776E+04  0.00000000000E+00 0.  1.
         -4    1    4    4    0  501 -0.32010383581E+03  0.63872006772E+03  0.28879575845E+03  0.77060546372E+03  0.00000000000E+00 0. -1.
</event>
<event>
 8    1  0.7446554E-006  0.1294528E+04  0.7818608E-02  0.8538589E-01
          2   -1    0    0  502    0  0.00000000000E+00  0.00000000000E+00  0.22489440260E+04  0.22489440260E+04  0.00000000000E+00 0.  1.
         -2   -1    0    0    0  501 -0.00000000000E+00 -0.00000000000E+00 -0.79014911892E+03  0.79014911892E+03  0.00000000000E+00 0. -1.
    9000010    2    1    2  502    0 -0.72922703884E+03 -0.36987973544E+03  0.10951543683E+04  0.17002463967E+04  0.10113810490E+04 0.  0.
   -9000010    2    1    2    0  501  0.72922703884E+03  0.36987973544E+03  0.36364053887E+03  0.13388467483E+04  0.99583787888E+03 0.  0.
        -13    1    3    3    0    0 -0.12002164048E+03  0.33054357075E+03  0.17350611908E+03  0.39213343503E+03  0.10566000000E+00 0.  1.
         13    1    4    4    0    0  0.74546215029E+03  0.23650047856E+02 -0.10792041883E+03  0.75360465116E+03  0.10566000000E+00 0. -1.
          4    1    3    3  502    0 -0.60920539836E+03 -0.70042330619E+03  0.92164824918E+03  0.13081129617E+04  0.00000000000E+00 0.  1.
         -4    1    4    4    0  501 -0.16235111456E+02  0.34622968758E+03  0.47156095770E+03  0.58524209712E+03  0.00000000000E+00 0. -1.
</event>
<event>
 8    1  0.7446554E-006  0.1220555E+04  0.7818608E-02  0.8591243E-01
         -1   -1    0    0    0  501 -0.00000000000E+00  0.00000000000E+00  0.88693676336E+03  0.88693676336E+03  0.00000000000E+00 0.  1.
          1   -1    0    0  502    0  0.00000000000E+00 -0.00000000000E+00 -0.16988562112E+04  0.16988562112E+04  0.00000000000E+00 0. -1.
    9000010    2    1    2  502    0  0.56519823461E+03 -0.37530408158E+03 -0.26973314128E+03  0.12534145973E+04  0.10188179362E+04 0.  0.
   -9000010    2    1    2    0  501 -0.56519823461E+03  0.37530408158E+03 -0.54218630653E+03  0.13323783772E+04  0.10104276080E+04 0.  0.
        -13    1    3    3    0    0  0.19632096657E+03 -0.68189694050E+03 -0.30520782741E+03  0.77244882579E+03  0.10566000000E+00 0.  1.
         13    1    4    4    0    0  0.11940985766E+03 -0.27623358382E+02  0.20692329331E+03  0.24049745219E+03  0.10566000000E+00 0. -1.
          4    1    3    3  502    0  0.36887726804E+03  0.30659285892E+03  0.35474686127E+02  0.48096577152E+03  0.00000000000E+00 0.  1.
         -4    1    4    4    0  501 -0.68460809227E+03  0.40292743996E+03 -0.74910959984E+03  0.10918809250E+04  0.00000000000E+00 0. -1.
</event>
<event>
 8    1  0.7446554E-006  0.1026239E+04  0.7818608E-02  0.8750321E-01
         -2   -1    0    0    0  501 -0.00000000000E+00  0.00000000000E+00  0.88386292641E+03  0.88386292641E+03  0.00000000000E+00 0.  1.
          2   -1    0    0  502    0  0.00000000000E+00 -0.00000000000E+00 -0.12612604261E+04  0.12612604261E+04  0.00000000000E+00 0. -1.
    9000010    2    1    2  502    0  0.15585987518E+03 -0.25369001068E+03 -0.43539614700E+03  0.10928449377E+04  0.95712555647E+03 0.  0.
   -9000010    2    1    2    0  501 -0.15585987518E+03  0.25369001068E+03  0.57998647300E+02  0.10522784148E+04  0.10076086031E+04 0.  0.
        -13    1    3    3    0    0 -0.23871003369E+03 -0.26437465771E+03  0.15025908428E+03  0.38659312384E+03  0.10566000000E+00 0.  1.
         13    1    4    4    0    0 -0.23795915524E+03  0.53770746177E+02 -0.44351298723E+03  0.50618142372E+03  0.10566000000E+00 0. -1.
          4    1    3    3  502    0  0.39456990887E+03  0.10684647037E+02 -0.58565523128E+03  0.70625181387E+03  0.00000000000E+00 0.  1.
         -4    1    4    4    0  501  0.82099280064E+02  0.19991926450E+03  0.50151163453E+03  0.54609699109E+03  0.00000000000E+00 0. -1.
</event>
<event>
 8    1  0.7446554E-006  0.1055713E+04  0.7818608E-02  0.8723935E-01
         -1   -1    0    0    0  501 -0.00000000000E+00  0.00000000000E+00  0.11963931048E+04  0.11963931048E+04  0.00000000000E+00 0. -1.
          1   -1    0    0  502    0  0.00000000000E+00 -0.00000000000E+00 -0.11137473522E+04  0.11137473522E+04  0.00000000000E+00 0.  1.
    9000010    2    1    2  502    0 -0.24567937195E+02  0.34655896888E+03 -0.42600462973E+03  0.11213370546E+04  0.97734852685E+03 0.  0.
   -9000010    2    1    2    0  501  0.24567937195E+02 -0.34655896888E+03  0.50865038235E+03  0.11888034024E+04  0.10167701882E+04 0.  0.
        -13    1    3    3    0    0  0.22876830412E+03  0.26887573392E+03  0.22488875480E+03  0.41857384111E+03  0.10566000000E+00 0.  1.
         13    1    4    4    0    0 -0.48645435211E+03 -0.10051652912E+03  0.15474888398E+03  0.52027746211E+03  0.10566000000E+00 0. -1.
          4    1    3    3  502    0 -0.25333624132E+03  0.77683234954E+02 -0.65089338453E+03  0.70276321345E+03  0.00000000000E+00 0.  1.
         -4    1    4    4    0  501  0.51102228931E+03 -0.24604243975E+03  0.35390149836E+03  0.66852594032E+03  0.00000000000E+00 0. -1.
</event>
<event>
 8    1  0.7446554E-006  0.1501888E+04  0.7818608E-02  0.8408413E-01
         -4   -1    0    0    0  501 -0.00000000000E+00  0.00000000000E+00  0.22402742519E+04  0.22402742519E+04  0.00000000000E+00 0. -1.
          4   -1    0    0  502    0  0.00000000000E+00 -0.00000000000E+00 -0.22413550892E+04  0.22413550892E+04  0.00000000000E+00 0.  1.
    9000010    2    1    2  502    0  0.34367695073E+03 -0.10171013475E+04 -0.16625008291E+04  0.22096018051E+04  0.98276250067E+03 0.  0.
   -9000010    2    1    2    0  501 -0.34367695073E+03  0.10171013475E+04  0.16614199918E+04  0.22720275360E+04  0.11176688856E+04 0.  0.
        -13    1    3    3    0    0  0.54013746616E+03 -0.69623017864E+03 -0.55853889198E+03  0.10432883825E+04  0.10566000000E+00 0.  1.
         13    1    4    4    0    0 -0.27698603447E+03  0.62792476076E+02  0.11554154603E+04  0.11898105124E+04  0.10566000000E+00 0. -1.
          4    1    3    3  502    0 -0.19646051543E+03 -0.32087116886E+03 -0.11039619371E+04  0.11663134226E+04  0.00000000000E+00 0.  1.
         -4    1    4    4    0  501 -0.66690916255E+02  0.95430887143E+03  0.50600453147E+03  0.10822170236E+04  0.00000000000E+00 0. -1.
</event>
<event>
 8    1  0.7446554E-006  0.1149445E+04  0.7818608E-02  0.8645636E-01
          2   -1    0    0  502    0  0.00000000000E+00  0.00000000000E+00  0.16670706834E+04  0.16670706834E+04  0.00000000000E+00 0. -1.
         -2   -1    0    0    0  501 -0.00000000000E+00 -0.00000000000E+00 -0.14863705750E+04  0.14863705750E+04  0.00000000000E+00 0.  1.
    9000010    2    1    2  502    0 -0.53178127732E+03  0.16437745832E+03 -0.98702260335E+03  0.15127699570E+04  0.10022215561E+04 0.  0.
   -9000010    2    1    2    0  501  0.53178127732E+03 -0.16437745832E+03  0.11677227118E+04  0.16406713014E+04  0.10091653541E+04 0.  0.
        -13    1    3    3    0    0 -0.53442885350E+03  0.44019795371E+03 -0.10222888507E+04  0.12346914365E+04  0.10566000000E+00 0.  1.
         13    1    4    4    0    0  0.26087719586E+03 -0.38318529456E+03  0.45647999869E+02  0.46580213862E+03  0.10566000000E+00 0. -1.
          4    1    3    3  502    0  0.26475761764E+01 -0.27582049538E+03  0.35266247393E+02  0.27807852046E+03  0.00000000000E+00 0.  1.
         -4    1    4    4    0  501  0.27090408146E+03  0.21880783623E+03  0.11220747119E+04  0.11748691628E+04  0.00000000000E+00 0. -1.
</event>
<event>
 8    1  0.7446554E-006  0.1301169E+04  0.7818608E-02  0.8534040E-01
         -1   -1    0    0    0  501 -0.00000000000E+00  0.00000000000E+00  0.16244635740E+04  0.16244635740E+04  0.00000000000E+00 0. -1.
          1   -1    0    0  502    0  0.00000000000E+00 -0.00000000000E+00 -0.12301308611E+04  0.12301308611E+04  0.00000000000E+00 0.  1.
    9000010    2    1    2  502    0  0.18000574196E+03  0.84721334950E+03  0.75556379184E+03  0.15084456840E+04  0.97691310333E+03 0.  0.
   -9000010    2    1    2    0  501 -0.18000574196E+03 -0.84721334950E+03 -0.36123107896E+03  0.13461487511E+04  0.96511970291E+03 0.  0.
        -13    1    3    3    0    0  0.34631514786E+03  0.11609361400E+03  0.65766274206E+03  0.75228465511E+03  0.10566000000E+00 0.  1.
         13    1    4    4    0    0 -0.13642539927E+03  0.13623880011E+03  0.14305919749E+03  0.24008091422E+03  0.10566000000E+00 0. -1.
          4    1    3    3  502    0 -0.16630940590E+03  0.73111973550E+03  0.97901049774E+02  0.75616102893E+03  0.00000000000E+00 0.  1.
         -4    1    4    4    0  501 -0.43580342694E+02 -0.98345214961E+03 -0.50429027644E+03  0.11060678369E+04  0.00000000000E+00 0. -1.
</event>
<event>
 8    1  0.7446554E-006  0.1091120E+04  0.7818608E-02  0.8693396E-01
          2   -1    0    0  502    0  0.00000000000E+00  0.00000000000E+00  0.41290939964E+04  0.41290939964E+04  0.00000000000E+00 0.  1.
         -2   -1    0    0    0  501 -0.00000000000E+00 -0.00000000000E+00 -0.35213682005E+03  0.35213682005E+03  0.00000000000E+00 0. -1.
    9000010    2    1    2  502    0 -0.11497957343E+03 -0.40976162634E+03  0.93790748697E+03  0.14405327550E+04  0.10071441165E+04 0.  0.
   -9000010    2    1    2    0  501  0.11497957343E+03  0.40976162634E+03  0.28390496894E+04  0.30406980615E+04  0.10022557905E+04 0.  0.
        -13    1    3    3    0    0  0.10155687610E+03  0.25277940583E+03  0.54760404865E+00  0.27241794752E+03  0.10566000000E+00 0.  1.
         13    1    4    4    0    0  0.19007755716E+03  0.42853356614E+03  0.44814384792E+03  0.64853944725E+03  0.10566000000E+00 0. -1.
          4    1    3    3  502    0 -0.21653644953E+03 -0.66254103217E+03  0.93735988292E+03  0.11681148075E+04  0.00000000000E+00 0.  1.
         -4    1    4    4    0  501 -0.75097983730E+02 -0.18771939807E+02  0.23909058415E+04  0.23921586142E+04  0.00000000000E+00 0. -1.
</event>
<event>
 8    1  0.7446554E-006  0.1140451E+04  0.7818608E-02  0.8652806E-01
         -1   -1    0    0    0  501 -0.00000000000E+00  0.00000000000E+00  0.50480611988E+03  0.50480611988E+03  0.00000000000E+00 0.  1.
          1   -1    0    0  502    0  0.00000000000E+00 -0.00000000000E+00 -0.26217576461E+04  0.26217576461E+04  0.00000000000E+00 0. -1.
    9000010    2    1    2  502    0  0.27337284907E+03 -0.48636364098E+03 -0.12537115264E+04  0.16877403166E+04  0.98254388149E+03 0.  0.
   -9000010    2    1    2    0  501 -0.27337284907E+03  0.48636364098E+03 -0.86323999980E+03  0.14388234494E+04  0.10068501951E+04 0.  0.
        -13    1    3    3    0    0  0.53514701700E+02 -0.48602706385E+02  0.16859331426E+03  0.18343871768E+03  0.10566000000E+00 0.  1.
         13    1    4    4    0    0  0.27637423655E+03 -0.14492850022E+03 -0.19810311030E+03  0.36963744707E+03  0.10566000000E+00 0. -1.
          4    1    3    3  502    0  0.21985814737E+03 -0.43776093459E+03 -0.14223048407E+04  0.15043015989E+04  0.00000000000E+00 0.  1.
         -4    1    4    4    0  501 -0.54974708562E+03  0.63129214120E+03 -0.66513688951E+03  0.10691860023E+04  0.00000000000E+00 0. -1.
</event>
<event>
 8    1  0.7446554E-006  0.1121369E+04  0.7818608E-02  0.8668248E-01
          2   -1    0    0  502    0  0.00000000000E+00  0.00000000000E+00  0.67727746314E+03  0.67727746314E+03  0.00000000000E+00 0. -1.
         -2   -1    0    0    0  501 -0.00000000000E+00 -0.00000000000E+00 -0.36794353603E+04  0.36794353603E+04  0.00000000000E+00 0.  1.
    9000010    2    1    2  502    0  0.25099718466E+02  0.50302658898E+03 -0.30365056208E+04  0.32380859789E+04  0.10055688324E+04 0.  0.
   -9000010    2    1    2    0  501 -0.25099718466E+02 -0.50302658898E+03  0.34347723613E+02  0.11186268445E+04  0.99823870197E+03 0.  0.
        -13    1    3    3    0    0 -0.24500747588E+02 -0.26301274364E+03 -0.31864391487E+03  0.41389605651E+03  0.10566000000E+00 0.  1.
         13    1    4    4    0    0 -0.30709608935E+03 -0.60201663149E+03  0.28022858767E+03  0.73161472456E+03  0.10566000000E+00 0. -1.
          4    1    3    3  502    0  0.49600466054E+02  0.76603933262E+03 -0.27178617059E+04  0.28241899224E+04  0.00000000000E+00 0.  1.
         -4    1    4    4    0  501  0.28199637088E+03  0.98990042506E+02 -0.24588086405E+03  0.38701211998E+03  0.00000000000E+00 0. -1.
</event>
<event>
 8    1  0.7446554E-006  0.1437957E+04  0.7818608E-02  0.8446125E-01
          2   -1    0    0  502    0  0.00000000000E+00  0.00000000000E+00  0.16353608375E+04  0.16353608375E+04  0.00000000000E+00 0. -1.
         -2   -1    0    0    0  501 -0.00000000000E+00 -0.00000000000E+00 -0.12865467985E+04  0.12865467985E+04  0.00000000000E+00 0.  1.
    9000010    2    1    2  502    0 -0.10119294022E+04  0.18647809166E+03 -0.17521878030E+02  0.14365810152E+04  0.10023386670E+04 0.  0.
   -9000010    2    1    2    0  501  0.10119294022E+04 -0.18647809166E+03  0.36633591703E+03  0.14853266208E+04  0.10065872901E+04 0.  0.
        -13    1    3    3    0    0 -0.10367137781E+04  0.35844134795E+03 -0.27040354789E+03  0.11297671209E+04  0.10566000000E+00 0.  1.
         13    1    4    4    0    0  0.38865846246E+03 -0.24242886750E+03 -0.31829180965E+03  0.55779641761E+03  0.10566000000E+00 0. -1.
          4    1    3    3  502    0  0.24784375859E+02 -0.17196325629E+03  0.25288166986E+03  0.30681389433E+03  0.00000000000E+00 0.  1.
         -4    1    4    4    0  501  0.62327093977E+03  0.55950775845E+02  0.68462772668E+03  0.92753020318E+03  0.00000000000E+00 0. -1.
</event>
<event>
 8    1  0.7446554E-006  0.1271899E+04  0.7818608E-02  0.8554302E-01
          1   -1    0    0  502    0  0.00000000000E+00  0.00000000000E+00  0.43018945815E+04  0.43018945815E+04  0.00000000000E+00 0.  1.
         -1   -1    0    0    0  501 -0.00000000000E+00 -0.00000000000E+00 -0.51481040796E+03  0.51481040796E+03  0.00000000000E+00 0. -1.
    9000010    2    1    2  502    0 -0.21819922290E+03 -0.79916569626E+03  0.61531910873E+03  0.13893709186E+04  0.93029953943E+03 0.  0.
   -9000010    2    1    2    0  501  0.21819922290E+03  0.79916569626E+03  0.31717650648E+04  0.34273340708E+04  0.10001242401E+04 0.  0.
        -13    1    3    3    0    0  0.19365322115E+03  0.11407505134E+03  0.23928580559E+02  0.22602494450E+03  0.10566000000E+00 0.  1.
         13    1    4    4    0    0  0.10188262595E+03  0.18087956236E+03  0.14618526105E+02  0.20811342585E+03  0.10566000000E+00 0. -1.
          4    1    3    3  502    0 -0.41185244405E+03 -0.91324074761E+03  0.59139052817E+03  0.11633459742E+04  0.00000000000E+00 0.  1.
         -4    1    4    4    0  501  0.11631659695E+03  0.61828613391E+03  0.31571465387E+04  0.32192206450E+04  0.00000000000E+00 0. -1.
</event>
<event>
 8    1  0.7446554E-006  0.1618744E+04  0.7818608E-02  0.8344259E-01
          2   -1    0    0  502    0  0.00000000000E+00  0.00000000000E+00  0.22416082234E+04  0.22416082234E+04  0.00000000000E+00 0. -1.
         -2   -1    0    0    0  501 -0.00000000000E+00 -0.00000000000E+00 -0.12039370088E+04  0.12039370088E+04  0.00000000000E+00 0.  1.
    9000010    2    1    2  502    0  0.12954904096E+03 -0.12725385304E+04  0.22412164039E+03  0.16308203414E+04  0.98651265105E+03 0.  0.
   -9000010    2    1    2    0  501 -0.12954904096E+03  0.12725385304E+04  0.81354957419E+03  0.18147248908E+04  0.99761027170E+03 0.  0.
        -13    1    3    3    0    0 -0.26447049816E+03 -0.10609304447E+04  0.37945156553E+03  0.11573683746E+04  0.10566000000E+00 0.  1.
         13    1    4    4    0    0 -0.41270500029E+03  0.48712553259E+03  0.73886890218E+03  0.97649575910E+03  0.10566000000E+00 0. -1.
          4    1    3    3  502    0  0.39401953913E+03 -0.21160808578E+03 -0.15532992515E+03  0.47345196676E+03  0.00000000000E+00 0.  1.
         -4    1    4    4    0  501  0.28315595932E+03  0.78541299784E+03  0.74680672011E+02  0.83822913171E+03  0.00000000000E+00 0. -1.
</event>
<event>
 8    1  0.7446554E-006  0.1194903E+04  0.7818608E-02  0.8610411E-01
          2   -1    0    0  502    0  0.00000000000E+00  0.00000000000E+00  0.32061908629E+04  0.32061908629E+04  0.00000000000E+00 0.  1.
         -2   -1    0    0    0  501 -0.00000000000E+00 -0.00000000000E+00 -0.46924692118E+03  0.46924692118E+03  0.00000000000E+00 0. -1.
    9000010    2    1    2  502    0 -0.56726094046E+03 -0.29845172670E+03  0.94072292073E+03  0.15112788863E+04  0.99405525545E+03 0.  0.
   -9000010    2    1    2    0  501  0.56726094046E+03  0.29845172670E+03  0.17962210210E+04  0.21641588978E+04  0.10228955816E+04 0.  0.
        -13    1    3    3    0    0 -0.22044071561E+03 -0.43153829908E+02 -0.19449056339E+03  0.29712447315E+03  0.10566000000E+00 0.  1.
         13    1    4    4    0    0 -0.20393888006E+03  0.33096141212E+03  0.34197758591E+03  0.51775979329E+03  0.10566000000E+00 0. -1.
          4    1    3    3  502    0 -0.34682022485E+03 -0.25529789679E+03  0.11352134841E+04  0.12141544132E+04  0.00000000000E+00 0.  1.
         -4    1    4    4    0  501  0.77119982052E+03 -0.32509685419E+02  0.14542434351E+04  0.16463991045E+04  0.00000000000E+00 0. -1.
</event>
<event>
 8    1  0.7446554E-006  0.1190232E+04  0.7818608E-02  0.8613954E-01
         -2   -1    0    0    0  501 -0.00000000000E+00  0.00000000000E+00  0.81129140133E+03  0.81129140133E+03  0.00000000000E+00 0. -1.
          2   -1    0    0  502    0  0.00000000000E+00 -0.00000000000E+00 -0.25471261764E+04  0.25471261764E+04  0.00000000000E+00 0.  1.
    9000010    2    1    2  502    0 -0.33903036979E+03 -0.54297479214E+03  0.79234538581E+02  0.11816732698E+04  0.99010625083E+03 0.  0.
   -9000010    2    1    2    0  501  0.33903036979E+03  0.54297479214E+03 -0.18150693137E+04  0.21767443079E+04  0.10168460809E+04 0.  0.
        -13    1    3    3    0    0  0.17446931944E+03 -0.89039039982E+02  0.38440057042E+03  0.43142937286E+03  0.10566000000E+00 0.  1.
         13    1    4    4    0    0  0.41799554316E+03  0.77843249471E+03 -0.10495281777E+04  0.13719281431E+04  0.10566000000E+00 0. -1.
          4    1    3    3  502    0 -0.51349968923E+03 -0.45393575215E+03 -0.30516603184E+03  0.75024389695E+03  0.00000000000E+00 0.  1.
         -4    1    4    4    0  501 -0.78965173370E+02 -0.23545770257E+03 -0.76554113599E+03  0.80481616484E+03  0.00000000000E+00 0. -1.
</event>
<event>
 8    1  0.7446554E-006  0.2304202E+04  0.7818608E-02  0.8054696E-01
          2   -1    0    0  502    0  0.00000000000E+00  0.00000000000E+00  0.36811090248E+04  0.36811090248E+04  0.00000000000E+00 0. -1.
         -2   -1    0    0    0  501 -0.00000000000E+00 -0.00000000000E+00 -0.17860204441E+04  0.17860204441E+04  0.00000000000E+00 0.  1.
    9000010    2    1    2  502    0  0.82300197088E+03  0.19044942696E+04  0.21447154719E+04  0.31435654949E+04  0.98882197493E+03 0.  0.
   -9000010    2    1    2    0  501 -0.82300197088E+03 -0.19044942696E+04 -0.24962689116E+03  0.23235639740E+04  0.10159750436E+04 0.  0.
        -13    1    3    3    0    0  0.46792567409E+03  0.18456078930E+04  0.19826330433E+04  0.27488282461E+04  0.10566000000E+00 0.  1.
         13    1    4    4    0    0 -0.33774835798E+03 -0.69873297255E+02  0.16305348917E+03  0.38150056682E+03  0.10566000000E+00 0. -1.
          4    1    3    3  502    0  0.35507629679E+03  0.58886376599E+02  0.16208242866E+03  0.39473724878E+03  0.00000000000E+00 0.  1.
         -4    1    4    4    0  501 -0.48525361289E+03 -0.18346209724E+04 -0.41268038033E+03  0.19420634072E+04  0.00000000000E+00 0. -1.
</event>
<event>
 8    1  0.7446554E-006  0.1662891E+04  0.7818608E-02  0.8321464E-01
         -2   -1    0    0    0  501 -0.00000000000E+00  0.00000000000E+00  0.15350175726E+04  0.15350175726E+04  0.00000000000E+00 0.  1.
          2   -1    0    0  502    0  0.00000000000E+00 -0.00000000000E+00 -0.21216501907E+04  0.21216501907E+04  0.00000000000E+00 0. -1.
    9000010    2    1    2  502    0 -0.71293773502E+03 -0.11110663510E+04  0.41878773223E+03  0.17023947575E+04  0.98995762308E+03 0.  0.
   -9000010    2    1    2    0  501  0.71293773502E+03  0.11110663510E+04 -0.10054203504E+04  0.19542730058E+04  0.10322617158E+04 0.  0.
        -13    1    3    3    0    0 -0.93559582295E+03 -0.94171445731E+03  0.18997244746E+03  0.13409903821E+04  0.10566000000E+00 0.  1.
         13    1    4    4    0    0 -0.55623745373E+02 -0.14054950849E+03  0.34000507450E+02  0.15493292438E+03  0.10566000000E+00 0. -1.
          4    1    3    3  502    0  0.22265808793E+03 -0.16935189366E+03  0.22881528477E+03  0.36140437539E+03  0.00000000000E+00 0.  1.
         -4    1    4    4    0  501  0.76856148040E+03  0.12516158595E+04 -0.10394208579E+04  0.17993400814E+04  0.00000000000E+00 0. -1.
</event>
<event>
 8    1  0.7446554E-006  0.1213212E+04  0.7818608E-02  0.8596679E-01
          2   -1    0    0  502    0  0.00000000000E+00  0.00000000000E+00  0.17668419648E+04  0.17668419648E+04  0.00000000000E+00 0.  1.
         -2   -1    0    0    0  501 -0.00000000000E+00 -0.00000000000E+00 -0.83405618672E+03  0.83405618672E+03  0.00000000000E+00 0. -1.
    9000010    2    1    2  502    0 -0.53008962088E+03 -0.50843821368E+03  0.41910727556E+03  0.12652025742E+04  0.94105378282E+03 0.  0.
   -9000010    2    1    2    0  501  0.53008962088E+03  0.50843821368E+03  0.51367850256E+03  0.13356955773E+04  0.99030936983E+03 0.  0.
        -13    1    3    3    0    0 -0.47483095844E+03 -0.57615021720E+03  0.66774775262E+03  0.10016489326E+04  0.10566000000E+00 0.  1.
         13    1    4    4    0    0 -0.21478695730E+03  0.32000129991E+03 -0.41695409240E+02  0.38765034153E+03  0.10566000000E+00 0. -1.
          4    1    3    3  502    0 -0.55258662436E+02  0.67712003523E+02 -0.24864047706E+03  0.26355364165E+03  0.00000000000E+00 0.  1.
         -4    1    4    4    0  501  0.74487657818E+03  0.18843691377E+03  0.55537391180E+03  0.94804523579E+03  0.00000000000E+00 0. -1.
</event>
<event>
 8    1  0.7446554E-006  0.1065566E+04  0.7818608E-02  0.8715312E-01
          2   -1    0    0  502    0  0.00000000000E+00  0.00000000000E+00  0.12855830797E+04  0.12855830797E+04  0.00000000000E+00 0. -1.
         -2   -1    0    0    0  501 -0.00000000000E+00 -0.00000000000E+00 -0.10023300763E+04  0.10023300763E+04  0.00000000000E+00 0.  1.
    9000010    2    1    2  502    0 -0.23234985508E+02 -0.36959390151E+03 -0.25276396512E+03  0.10950019780E+04  0.99899959618E+03 0.  0.
   -9000010    2    1    2    0  501  0.23234985508E+02  0.36959390151E+03  0.53601696847E+03  0.11929111780E+04  0.99929143479E+03 0.  0.
        -13    1    3    3    0    0  0.34032417156E+03 -0.38172536541E+01 -0.43115516277E+03  0.54929946179E+03  0.10566000000E+00 0.  1.
         13    1    4    4    0    0 -0.25127216178E+02  0.53069286064E+03 -0.95128826246E+02  0.53973678221E+03  0.10566000000E+00 0. -1.
          4    1    3    3  502    0 -0.36355915706E+03 -0.36577664785E+03  0.17839119765E+03  0.54570251621E+03  0.00000000000E+00 0.  1.
         -4    1    4    4    0  501  0.48362201686E+02 -0.16109895913E+03  0.63114579472E+03  0.65317439584E+03  0.00000000000E+00 0. -1.
</event>
<event>
 8    1  0.7446554E-006  0.1065539E+04  0.7818608E-02  0.8715336E-01
         -2   -1    0    0    0  501 -0.00000000000E+00  0.00000000000E+00  0.89534050643E+03  0.89534050643E+03  0.00000000000E+00 0.  1.
          2   -1    0    0  502    0  0.00000000000E+00 -0.00000000000E+00 -0.13101540419E+04  0.13101540419E+04  0.00000000000E+00 0. -1.
    9000010    2    1    2  502    0 -0.21121201549E+03  0.25662394492E+03 -0.40449120269E+03  0.11373189317E+04  0.10096607622E+04 0.  0.
   -9000010    2    1    2    0  501  0.21121201549E+03 -0.25662394492E+03 -0.10322332770E+02  0.10681756166E+04  0.10150991246E+04 0.  0.
        -13    1    3    3    0    0 -0.25514017475E+02  0.63294016694E+03 -0.16683684052E+03  0.65505630485E+03  0.10566000000E+00 0.  1.
         13    1    4    4    0    0  0.11278485950E+02 -0.41886963434E+03  0.40290000743E+03  0.58129803197E+03  0.10566000000E+00 0. -1.
          4    1    3    3  502    0 -0.18569799801E+03 -0.37631622202E+03 -0.23765436217E+03  0.48226262688E+03  0.00000000000E+00 0.  1.
         -4    1    4    4    0  501  0.19993352954E+03  0.16224568942E+03 -0.41322234020E+03  0.48687758462E+03  0.00000000000E+00 0. -1.
</event>
<event>
 8    1  0.7446554E-006  0.1313867E+04  0.7818608E-02  0.8525420E-01
          1   -1    0    0  502    0  0.00000000000E+00  0.00000000000E+00  0.30940396441E+04  0.30940396441E+04  0.00000000000E+00 0. -1.
         -1   -1    0    0    0  501 -0.00000000000E+00 -0.00000000000E+00 -0.55948873465E+03  0.55948873465E+03  0.00000000000E+00 0.  1.
    9000010    2    1    2  502    0 -0.73539883450E+03  0.32455191979E+03  0.11562681473E+04  0.17362377569E+04  0.10155885611E+04 0.  0.
   -9000010    2    1    2    0  501  0.73539883450E+03 -0.32455191979E+03  0.13782827622E+04  0.19172906219E+04  0.10631060916E+04 0.  0.
        -13    1    3    3    0    0 -0.54521837320E+03  0.65158492316E+03  0.10348225939E+04  0.13389114230E+04  0.10566000000E+00 0.  1.
         13    1    4    4    0    0  0.15373780772E+03 -0.29835709906E+03 -0.81742679703E+02  0.34544775138E+03  0.10566000000E+00 0. -1.
          4    1    3    3  502    0 -0.19018046131E+03 -0.32703300337E+03  0.12144555338E+03  0.39732633388E+03  0.00000000000E+00 0.  1.
         -4    1    4    4    0  501  0.58166102679E+03 -0.26194820724E+02  0.14600254419E+04  0.15718428705E+04  0.00000000000E+00 0. -1.
</event>
<event>
 8    1  0.7446554E-006  0.1264592E+04  0.7818608E-02  0.8559448E-01
          2   -1    0    0  502    0  0.00000000000E+00  0.00000000000E+00  0.20093460804E+04  0.20093460804E+04  0.00000000000E+00 0.  1.
         -2   -1    0    0    0  501 -0.00000000000E+00 -0.00000000000E+00 -0.88834879328E+03  0.88834879328E+03  0.00000000000E+00 0. -1.
    9000010    2    1    2  502    0 -0.76177775552E+03  0.19760952741E+02  0.10310256674E+04  0.16378325913E+04  0.10192084311E+04 0.  0.
   -9000010    2    1    2    0  501  0.76177775552E+03 -0.19760952741E+02  0.89971619675E+02  0.12598622824E+04  0.99923082125E+03 0.  0.
        -13    1    3    3    0    0  0.13850201950E+03 -0.28213272322E+03  0.17690684912E+03  0.36066289987E+03  0.10566000000E+00 0.  1.
         13    1    4    4    0    0  0.40896720325E+03 -0.23375974582E+03  0.49383547908E+03  0.68247438315E+03  0.10566000000E+00 0. -1.
          4    1    3    3  502    0 -0.90027977501E+03  0.30189367596E+03  0.85411881828E+03  0.12771696914E+04  0.00000000000E+00 0.  1.
         -4    1    4    4    0  501  0.35281055227E+03  0.21399879308E+03 -0.40386385940E+03  0.57738789922E+03  0.00000000000E+00 0. -1.
</event>
<event>
 8    1  0.7446554E-006  0.1657013E+04  0.7818608E-02  0.8324457E-01
         -2   -1    0    0    0  501 -0.00000000000E+00  0.00000000000E+00  0.95676745345E+03  0.95676745345E+03  0.00000000000E+00 0.  1.
          2   -1    0    0  502    0  0.00000000000E+00 -0.00000000000E+00 -0.43433188116E+04  0.43433188116E+04  0.00000000000E+00 0. -1.
    9000010    2    1    2  502    0  0.13063333034E+04  0.17555184717E+03 -0.32346883427E+04  0.36329574051E+04  0.99892226039E+03 0.  0.
   -9000010    2    1    2    0  501 -0.13063333034E+04 -0.17555184717E+03 -0.15186301550E+03  0.16671288600E+04  0.10094211756E+04 0.  0.
        -13    1    3    3    0    0  0.14496592103E+04  0.20033980999E+03 -0.31252934323E+04  0.34509573910E+04  0.10566000000E+00 0.  1.
         13    1    4    4    0    0  0.34242175256E+02 -0.37608645630E+02  0.25450706369E+03  0.25953957969E+03  0.10566000000E+00 0. -1.
          4    1    3    3  502    0 -0.14332590694E+03 -0.24787962824E+02 -0.10939491040E+03  0.18200001407E+03  0.00000000000E+00 0.  1.
         -4    1    4    4    0  501 -0.13405754786E+04 -0.13794320154E+03 -0.40637007919E+03  0.14075892803E+04  0.00000000000E+00 0. -1.
</event>
<event>
 8    1  0.7446554E-006  0.1212294E+04  0.7818608E-02  0.8597362E-01
         -1   -1    0    0    0  501 -0.00000000000E+00  0.00000000000E+00  0.18530184504E+04  0.18530184504E+04  0.00000000000E+00 0. -1.
          1   -1    0    0  502    0  0.00000000000E+00 -0.00000000000E+00 -0.10656640548E+04  0.10656640548E+04  0.00000000000E+00 0.  1.
    9000010    2    1    2  502    0  0.64899523593E+03  0.18899977109E+03 -0.34284490292E+03  0.12656909813E+04  0.10136642950E+04 0.  0.
   -9000010    2    1    2    0  501 -0.64899523593E+03 -0.18899977109E+03  0.11301992986E+04  0.16529915239E+04  0.99905695222E+03 0.  0.
        -13    1    3    3    0    0  0.15093371252E+03 -0.39608498094E+03 -0.24904827819E+03  0.49161911449E+03  0.10566000000E+00 0.  1.
         13    1    4    4    0    0 -0.50913502061E+03 -0.65730465459E+02  0.59555537240E+01  0.51339501661E+03  0.10566000000E+00 0. -1.
          4    1    3    3  502    0  0.49806152341E+03  0.58508475203E+03 -0.93796624731E+02  0.77407186680E+03  0.00000000000E+00 0.  1.
         -4    1    4    4    0  501 -0.13986021532E+03 -0.12326930563E+03  0.11242437448E+04  0.11395965073E+04  0.00000000000E+00 0. -1.
</event>
<event>
 8    1  0.7446554E-006  0.1263412E+04  0.7818608E-02  0.8560282E-01
         -4   -1    0    0    0  501 -0.00000000000E+00  0.00000000000E+00  0.12956028016E+04  0.12956028016E+04  0.00000000000E+00 0.  1.
          4   -1    0    0  502    0  0.00000000000E+00 -0.00000000000E+00 -0.19657886988E+04  0.19657886988E+04  0.00000000000E+00 0. -1.
    9000010    2    1    2  502    0 -0.72547187518E+03 -0.29551766151E+03  0.66038213522E+03  0.14298331459E+04  0.99733551565E+03 0.  0.
   -9000010    2    1    2    0  501  0.72547187518E+03  0.29551766151E+03 -0.13305680324E+04  0.18315583544E+04  0.98516728870E+03 0.  0.
        -13    1    3    3    0    0 -0.23983686294E+03 -0.82667106171E+02  0.83413444884E+03  0.87185770696E+03  0.10566000000E+00 0.  1.
         13    1    4    4    0    0  0.33543506467E+03 -0.36228844779E+03 -0.50731469791E+03  0.70791088132E+03  0.10566000000E+00 0. -1.
          4    1    3    3  502    0 -0.48563501224E+03 -0.21285055534E+03 -0.17375231363E+03  0.55797543899E+03  0.00000000000E+00 0.  1.
         -4    1    4    4    0  501  0.39003681051E+03  0.65780610929E+03 -0.82325333454E+03  0.11236474731E+04  0.00000000000E+00 0. -1.
</event>
<event>
 8    1  0.7446554E-006  0.1171519E+04  0.7818608E-02  0.8628323E-01
         -2   -1    0    0    0  501 -0.00000000000E+00  0.00000000000E+00  0.74224399220E+03  0.74224399220E+03  0.00000000000E+00 0.  1.
          2   -1    0    0  502    0  0.00000000000E+00 -0.00000000000E+00 -0.18501633494E+04  0.18501633494E+04  0.00000000000E+00 0. -1.
    9000010    2    1    2  502    0  0.18419491534E+03  0.60407966984E+03 -0.52026181885E+03  0.12763953513E+04  0.97962886765E+03 0.  0.
   -9000010    2    1    2    0  501 -0.18419491534E+03 -0.60407966984E+03 -0.58765753836E+03  0.13160119903E+04  0.99383407161E+03 0.  0.
        -13    1    3    3    0    0 -0.19600451682E+03  0.59560572020E+03  0.60618929193E+01  0.62705717623E+03  0.10566000000E+00 0.  1.
         13    1    4    4    0    0 -0.41447972710E+03 -0.77770532889E+03 -0.37522973440E+03  0.95781855667E+03  0.10566000000E+00 0. -1.
          4    1    3    3  502    0  0.38019943217E+03  0.84739496416E+01 -0.52632371177E+03  0.64933817508E+03  0.00000000000E+00 0.  1.
         -4    1    4    4    0  501  0.23028481176E+03  0.17362565904E+03 -0.21242780395E+03  0.35819343363E+03  0.00000000000E+00 0. -1.
</event>
<event>
 8    1  0.7446554E-006  0.9649812E+03  0.7818608E-02  0.8808208E-01
          2   -1    0    0  502    0  0.00000000000E+00  0.00000000000E+00  0.22274593003E+04  0.22274593003E+04  0.00000000000E+00 0.  1.
         -2   -1    0    0    0  501 -0.00000000000E+00 -0.00000000000E+00 -0.52916913937E+03  0.52916913937E+03  0.00000000000E+00 0. -1.
    9000010    2    1    2  502    0  0.34214733100E+03  0.10734681559E+02  0.14103499791E+04  0.16644024153E+04  0.81484250432E+03 0.  0.
   -9000010    2    1    2    0  501 -0.34214733100E+03 -0.10734681559E+02  0.28794018185E+03  0.10922260244E+04  0.99642767457E+03 0.  0.
        -13    1    3    3    0    0 -0.24763505942E+03  0.10715441003E+03  0.30034829324E+03  0.40375029246E+03  0.10566000000E+00 0.  1.
         13    1    4    4    0    0 -0.10964627056E+03  0.46618789573E+03  0.29336843000E+03  0.56162131874E+03  0.10566000000E+00 0. -1.
          4    1    3    3  502    0  0.58978239042E+03 -0.96419728466E+02  0.11100016859E+04  0.12606521228E+04  0.00000000000E+00 0.  1.
         -4    1    4    4    0  501 -0.23250106045E+03 -0.47692257729E+03 -0.54282481542E+01  0.53060470570E+03  0.00000000000E+00 0. -1.
</event>
<event>
 8    1  0.7446554E-006  0.1224999E+04  0.7818608E-02  0.8587971E-01
          2   -1    0    0  502    0  0.00000000000E+00  0.00000000000E+00  0.18051967836E+04  0.18051967836E+04  0.00000000000E+00 0. -1.
         -2   -1    0    0    0  501 -0.00000000000E+00 -0.00000000000E+00 -0.91928162832E+03  0.91928162832E+03  0.00000000000E+00 0.  1.
    9000010    2    1    2  502    0  0.97652932425E+02  0.67758718098E+03  0.86500167521E+03  0.15010412107E+04  0.10179569416E+04 0.  0.
   -9000010    2    1    2    0  501 -0.97652932425E+02 -0.67758718098E+03  0.20913480083E+02  0.12234372012E+04  0.10137557540E+04 0.  0.
        -13    1    3    3    0    0  0.40293061989E+03  0.79669853459E+03  0.69790811900E+03  0.11332066860E+04  0.10566000000E+00 0.  1.
         13    1    4    4    0    0 -0.30851490939E+02 -0.63796887890E+03 -0.42735033432E+03  0.76849490847E+03  0.10566000000E+00 0. -1.
          4    1    3    3  502    0 -0.30527768747E+03 -0.11911135360E+03  0.16709355621E+03  0.36783452469E+03  0.00000000000E+00 0.  1.
         -4    1    4    4    0  501 -0.66801441486E+02 -0.39618302084E+02  0.44826381441E+03  0.45494229277E+03  0.00000000000E+00 0. -1.
</event>
<event>
 8    1  0.7446554E-006  0.1655825E+04  0.7818608E-02  0.8325064E-01
          4   -1    0    0  502    0  0.00000000000E+00  0.00000000000E+00  0.16235782729E+04  0.16235782729E+04  0.00000000000E+00 0.  1.
         -4   -1    0    0    0  501 -0.00000000000E+00 -0.00000000000E+00 -0.16977178251E+04  0.16977178251E+04  0.00000000000E+00 0. -1.
    9000010    2    1    2  502    0 -0.12518800480E+04 -0.36358905237E+03  0.83611426755E+02  0.16636997200E+04  0.10302937610E+04 0.  0.
   -9000010    2    1    2    0  501  0.12518800480E+04  0.36358905237E+03 -0.15775097897E+03  0.16575963781E+04  0.10116025542E+04 0.  0.
        -13    1    3    3    0    0 -0.12450130378E+03 -0.27116926084E+03 -0.34312853792E+03  0.45472029575E+03  0.10566000000E+00 0.  1.
         13    1    4    4    0    0  0.35893290280E+02  0.11594471448E+03  0.30883641116E+03  0.33183044635E+03  0.10566000000E+00 0. -1.
          4    1    3    3  502    0 -0.11273787442E+04 -0.92419791530E+02  0.42673996468E+03  0.12089794242E+04  0.00000000000E+00 0.  1.
         -4    1    4    4    0  501  0.12159867577E+04  0.24764433790E+03 -0.46658739012E+03  0.13257659317E+04  0.00000000000E+00 0. -1.
</event>
<event>
 8    1  0.7446554E-006  0.1176492E+04  0.7818608E-02  0.8624478E-01
          2   -1    0    0  502    0  0.00000000000E+00  0.00000000000E+00  0.19910826116E+04  0.19910826116E+04  0.00000000000E+00 0.  1.
         -2   -1    0    0    0  501 -0.00000000000E+00 -0.00000000000E+00 -0.70188143064E+03  0.70188143064E+03  0.00000000000E+00 0. -1.
    9000010    2    1    2  502    0 -0.30226005995E+03  0.54478485620E+03  0.77677489055E+03  0.14105224827E+04  0.99902090074E+03 0.  0.
   -9000010    2    1    2    0  501  0.30226005995E+03 -0.54478485620E+03  0.51242629046E+03  0.12824415596E+04  0.99695735481E+03 0.  0.
        -13    1    3    3    0    0 -0.79841457371E+02  0.27549443988E+03 -0.21537610663E+03  0.35869028868E+03  0.10566000000E+00 0.  1.
         13    1    4    4    0    0  0.24118869909E+03  0.13150729660E+03 -0.16730065838E+03  0.32164526902E+03  0.10566000000E+00 0. -1.
          4    1    3    3  502    0 -0.22241860258E+03  0.26929041632E+03  0.99215099717E+03  0.10518321940E+04  0.00000000000E+00 0.  1.
         -4    1    4    4    0  501  0.61071360861E+02 -0.67629215280E+03  0.67972694884E+03  0.96079629061E+03  0.00000000000E+00 0. -1.
</event>
<event>
 8    1  0.7446554E-006  0.1646379E+04  0.7818608E-02  0.8329904E-01
          2   -1    0    0  502    0  0.00000000000E+00  0.00000000000E+00  0.17552377658E+04  0.17552377658E+04  0.00000000000E+00 0. -1.
         -2   -1    0    0    0  501 -0.00000000000E+00 -0.00000000000E+00 -0.15604462658E+04  0.15604462658E+04  0.00000000000E+00 0.  1.
    9000010    2    1    2  502    0 -0.63114928362E+03  0.11609069701E+04  0.26547711197E+03  0.16593852171E+04  0.96800144125E+03 0.  0.
   -9000010    2    1    2    0  501  0.63114928362E+03 -0.11609069701E+04 -0.70685611965E+02  0.16562988144E+04  0.99612995910E+03 0.  0.
        -13    1    3    3    0    0  0.23145112075E+03  0.47672217746E+03  0.15888464930E+03  0.55324316419E+03  0.10566000000E+00 0.  1.
         13    1    4    4    0    0 -0.13750308963E+03 -0.78751640804E+03 -0.82025955634E+01  0.79947263013E+03  0.10566000000E+00 0. -1.
          4    1    3    3  502    0 -0.86260040437E+03  0.68418479269E+03  0.10659246268E+03  0.11061420529E+04  0.00000000000E+00 0.  1.
         -4    1    4    4    0  501  0.76865237325E+03 -0.37339056211E+03 -0.62483016401E+02  0.85682618431E+03  0.00000000000E+00 0. -1.
</event>
<event>
 8    1  0.7446554E-006  0.1068104E+04  0.7818608E-02  0.8713107E-01
         -2   -1    0    0    0  501 -0.00000000000E+00  0.00000000000E+00  0.11197763266E+04  0.11197763266E+04  0.00000000000E+00 0.  1.
          2   -1    0    0  502    0  0.00000000000E+00 -0.00000000000E+00 -0.10191814848E+04  0.10191814848E+04  0.00000000000E+00 0. -1.
    9000010    2    1    2  502    0 -0.28422518095E+03  0.22112943500E+03  0.31139482165E+02  0.10611549374E+04  0.99769632322E+03 0.  0.
   -9000010    2    1    2    0  501  0.28422518095E+03 -0.22112943500E+03  0.69455359650E+02  0.10778028740E+04  0.10134854749E+04 0.  0.
        -13    1    3    3    0    0 -0.64480488660E+03  0.14325733766E+02  0.24407650409E+02  0.64542568355E+03  0.10566000000E+00 0.  1.
         13    1    4    4    0    0 -0.25009817173E+03  0.21947330266E+03  0.17709127233E+03  0.37693362278E+03  0.10566000000E+00 0. -1.
          4    1    3    3  502    0  0.36057970565E+03  0.20680370123E+03  0.67318317560E+01  0.41572925387E+03  0.00000000000E+00 0.  1.
         -4    1    4    4    0  501  0.53432335268E+03 -0.44060273766E+03 -0.10763591268E+03  0.70086925125E+03  0.00000000000E+00 0. -1.
</event>
<event>
 8    1  0.7446554E-006  0.1282295E+04  0.7818608E-02  0.8547042E-01
         -1   -1    0    0    0  501 -0.00000000000E+00  0.00000000000E+00  0.20426678302E+04  0.20426678302E+04  0.00000000000E+00 0.  1.
          1   -1    0    0  502    0  0.00000000000E+00 -0.00000000000E+00 -0.98292389783E+03  0.98292389783E+03  0.00000000000E+00 0. -1.
    9000010    2    1    2  502    0  0.77606726046E+03  0.20389112322E+03  0.11725383520E+04  0.17353532161E+04  0.99636971790E+03 0.  0.
   -9000010    2    1    2    0  501 -0.77606726046E+03 -0.20389112322E+03 -0.11279441965E+03  0.12902385120E+04  0.10040621762E+04 0.  0.
        -13    1    3    3    0    0 -0.57657529655E+02  0.11894130501E+03 -0.13072137278E+03  0.18590189141E+03  0.10566000000E+00 0.  1.
         13    1    4    4    0    0 -0.85352405267E+03  0.19482436265E+03 -0.12217532591E+03  0.88396078091E+03  0.10566000000E+00 0. -1.
          4    1    3    3  502    0  0.83372479011E+03  0.84949818208E+02  0.13032597248E+04  0.15494513247E+04  0.00000000000E+00 0.  1.
         -4    1    4    4    0  501  0.77456792211E+02 -0.39871548587E+03  0.93809062586E+01  0.40627773104E+03  0.00000000000E+00 0. -1.
</event>
<event>
 8    1  0.7446554E-006  0.1382631E+04  0.7818608E-02  0.8480421E-01
          2   -1    0    0  502    0  0.00000000000E+00  0.00000000000E+00  0.13775270615E+04  0.13775270615E+04  0.00000000000E+00 0.  1.
         -2   -1    0    0    0  501 -0.00000000000E+00 -0.00000000000E+00 -0.13913128175E+04  0.13913128175E+04  0.00000000000E+00 0. -1.
    9000010    2    1    2  502    0 -0.79070995368E+03  0.50087607265E+03  0.60438691945E+02  0.13646051767E+04  0.99115860575E+03 0.  0.
   -9000010    2    1    2    0  501  0.79070995368E+03 -0.50087607265E+03 -0.74224447925E+02  0.14042347023E+04  0.10441583977E+04 0.  0.
        -13    1    3    3    0    0 -0.34260427583E+03  0.21355012814E+03 -0.46558308284E+03  0.61623775058E+03  0.10566000000E+00 0.  1.
         13    1    4    4    0    0 -0.19634475559E+03 -0.95469443572E+02  0.20686759139E+03  0.30076550540E+03  0.10566000000E+00 0. -1.
          4    1    3    3  502    0 -0.44810567785E+03  0.28732594450E+03  0.52602177479E+03  0.74836742611E+03  0.00000000000E+00 0.  1.
         -4    1    4    4    0  501  0.98705470927E+03 -0.40540662907E+03 -0.28109203932E+03  0.11034691969E+04  0.00000000000E+00 0. -1.
</event>
<event>
 8    1  0.7446554E-006  0.1143242E+04  0.7818608E-02  0.8650574E-01
         -1   -1    0    0    0  501 -0.00000000000E+00  0.00000000000E+00  0.91082966613E+03  0.91082966613E+03  0.00000000000E+00 0.  1.
          1   -1    0    0  502    0  0.00000000000E+00 -0.00000000000E+00 -0.16053736011E+04  0.16053736011E+04  0.00000000000E+00 0. -1.
    9000010    2    1    2  502    0 -0.46267512284E+03  0.26815500785E+03 -0.75323320180E+03  0.13578552586E+04  0.99520614425E+03 0.  0.
   -9000010    2    1    2    0  501  0.46267512284E+03 -0.26815500785E+03  0.58689266851E+02  0.11583480086E+04  0.10258412652E+04 0.  0.
        -13    1    3    3    0    0 -0.76694341303E+03  0.27750778005E+03 -0.46611709893E+03  0.93940296351E+03  0.10566000000E+00 0.  1.
         13    1    4    4    0    0  0.44348297017E+03 -0.48726120880E+03  0.38629578685E+03  0.76375721046E+03  0.10566000000E+00 0. -1.
          4    1    3    3  502    0  0.30426829019E+03 -0.93527721968E+01 -0.28711610287E+03  0.41845229511E+03  0.00000000000E+00 0.  1.
         -4    1    4    4    0  501  0.19192152669E+02  0.21910620095E+03 -0.32760652000E+03  0.39459079813E+03  0.00000000000E+00 0. -1.
</event>
<event>
 8    1  0.7446554E-006  0.1794125E+04  0.7818608E-02  0.8257790E-01
          2   -1    0    0  502    0  0.00000000000E+00  0.00000000000E+00  0.37098015982E+04  0.37098015982E+04  0.00000000000E+00 0.  1.
         -2   -1    0    0    0  501 -0.00000000000E+00 -0.00000000000E+00 -0.93111960156E+03  0.93111960156E+03  0.00000000000E+00 0. -1.
    9000010    2    1    2  502    0 -0.81730320619E+03 -0.12694879546E+04  0.79767010629E+03  0.19807559990E+04  0.10037591998E+04 0.  0.
   -9000010    2    1    2    0  501  0.81730320619E+03  0.12694879546E+04  0.19810118903E+04  0.26601652008E+04  0.93406990527E+03 0.  0.
        -13    1    3    3    0    0 -0.85754380962E+03 -0.48641025744E+03  0.22898442157E+03  0.10121315134E+04  0.10566000000E+00 0.  1.
         13    1    4    4    0    0  0.69798435728E+03  0.70973323184E+03  0.59275677075E+03  0.11585611869E+04  0.10566000000E+00 0. -1.
          4    1    3    3  502    0  0.40240603433E+02 -0.78307769720E+03  0.56868568471E+03  0.96862448556E+03  0.00000000000E+00 0.  1.
         -4    1    4    4    0  501  0.11931884891E+03  0.55975472280E+03  0.13882551196E+04  0.15016040139E+04  0.00000000000E+00 0. -1.
</event>
<event>
 8    1  0.7446554E-006  0.1783997E+04  0.7818608E-02  0.8262502E-01
         -2   -1    0    0    0  501 -0.00000000000E+00  0.00000000000E+00  0.18100641028E+04  0.18100641028E+04  0.00000000000E+00 0. -1.
          2   -1    0    0  502    0  0.00000000000E+00 -0.00000000000E+00 -0.20367309829E+04  0.20367309829E+04  0.00000000000E+00 0.  1.
    9000010    2    1    2  502    0  0.13608121061E+04  0.60951951752E+03 -0.82490512242E+03  0.19736946668E+04  0.99583058114E+03 0.  0.
   -9000010    2    1    2    0  501 -0.13608121061E+04 -0.60951951752E+03  0.59823824236E+03  0.18731004189E+04  0.96296030777E+03 0.  0.
        -13    1    3    3    0    0  0.13995654283E+04  0.75606758547E+03 -0.87315776568E+03  0.18146145808E+04  0.10566000000E+00 0.  1.
         13    1    4    4    0    0  0.55798557327E+02 -0.30032190119E+03  0.23571338787E+01  0.30547060510E+03  0.10566000000E+00 0. -1.
          4    1    3    3  502    0 -0.38753322121E+02 -0.14654806795E+03  0.48252643257E+02  0.15908008605E+03  0.00000000000E+00 0.  1.
         -4    1    4    4    0  501 -0.14166106635E+04 -0.30919761632E+03  0.59588110848E+03  0.15676298138E+04  0.00000000000E+00 0. -1.
</event>
<event>
 8    1  0.7446554E-006  0.1296931E+04  0.7818608E-02  0.8536939E-01
          1   -1    0    0  502    0  0.00000000000E+00  0.00000000000E+00  0.65508413961E+03  0.65508413961E+03  0.00000000000E+00 0.  1.
         -1   -1    0    0    0  501 -0.00000000000E+00 -0.00000000000E+00 -0.26711147968E+04  0.26711147968E+04  0.00000000000E+00 0. -1.
    9000010    2    1    2  502    0 -0.79284521522E+03  0.22759528221E+03 -0.13370845981E+04  0.18644047746E+04  0.10038958080E+04 0.  0.
   -9000010    2    1    2    0  501  0.79284521522E+03 -0.22759528221E+03 -0.67894605909E+03  0.14617941618E+04  0.99773306677E+03 0.  0.
        -13    1    3    3    0    0 -0.85035755203E+02  0.15592190427E+03  0.13919179228E+03  0.22564814667E+03  0.10566000000E+00 0.  1.
         13    1    4    4    0    0 -0.54675272365E+02 -0.40248576498E+03 -0.34943000743E+03  0.53580361857E+03  0.10566000000E+00 0. -1.
          4    1    3    3  502    0 -0.70780946002E+03  0.71673377941E+02 -0.14762763904E+04  0.16387566279E+04  0.00000000000E+00 0.  1.
         -4    1    4    4    0  501  0.84752048759E+03  0.17489048277E+03 -0.32951605166E+03  0.92599054323E+03  0.00000000000E+00 0. -1.
</event>
<event>
 8    1  0.7446554E-006  0.1135969E+04  0.7818608E-02  0.8656404E-01
         -2   -1    0    0    0  501 -0.00000000000E+00  0.00000000000E+00  0.94065959105E+03  0.94065959105E+03  0.00000000000E+00 0. -1.
          2   -1    0    0  502    0  0.00000000000E+00 -0.00000000000E+00 -0.19203240126E+04  0.19203240126E+04  0.00000000000E+00 0.  1.
    9000010    2    1    2  502    0 -0.16859385993E+03  0.44262477525E+03  0.28183129735E+03  0.11462605322E+04  0.10050590760E+04 0.  0.
   -9000010    2    1    2    0  501  0.16859385993E+03 -0.44262477525E+03 -0.12614957189E+04  0.17147230715E+04  0.10604542337E+04 0.  0.
        -13    1    3    3    0    0 -0.12859991659E+03  0.42740131684E+03  0.64291193526E+03  0.78265291915E+03  0.10566000000E+00 0.  1.
         13    1    4    4    0    0  0.45441678679E+03 -0.49503650886E+03 -0.12555598587E+04  0.14240738503E+04  0.10566000000E+00 0. -1.
          4    1    3    3  502    0 -0.39993943346E+02  0.15223458411E+02 -0.36108063792E+03  0.36360761305E+03  0.00000000000E+00 0.  1.
         -4    1    4    4    0  501 -0.28582292686E+03  0.52411733612E+02 -0.59358602533E+01  0.29064922119E+03  0.00000000000E+00 0. -1.
</event>
<event>
 8    1  0.7446554E-006  0.2673090E+04  0.7818608E-02  0.7938855E-01
         -2   -1    0    0    0  501 -0.00000000000E+00  0.00000000000E+00  0.38492784179E+04  0.38492784179E+04  0.00000000000E+00 0. -1.
          2   -1    0    0  502    0  0.00000000000E+00 -0.00000000000E+00 -0.20354545450E+04  0.20354545450E+04  0.00000000000E+00 0.  1.
    9000010    2    1    2  502    0 -0.23274635492E+04 -0.75012537893E+03  0.26058019594E+02  0.26461156201E+04  0.10106800668E+04 0.  0.
   -9000010    2    1    2    0  501  0.23274635492E+04  0.75012537893E+03  0.17877658534E+04  0.32386173428E+04  0.11457577796E+04 0.  0.
        -13    1    3    3    0    0 -0.68769970079E+03 -0.32131409319E+03 -0.45408310479E+03  0.88451404860E+03  0.10566000000E+00 0.  1.
         13    1    4    4    0    0  0.77467370889E+02  0.25132230674E+03  0.57968324923E+03  0.63655068614E+03  0.10566000000E+00 0. -1.
          4    1    3    3  502    0 -0.16397638485E+04 -0.42881128574E+03  0.48014112438E+03  0.17616015715E+04  0.00000000000E+00 0.  1.
         -4    1    4    4    0  501  0.22499961784E+04  0.49880307218E+03  0.12080826041E+04  0.26020666567E+04  0.00000000000E+00 0. -1.
</event>
<event>
 8    1  0.7446554E-006  0.1144607E+04  0.7818608E-02  0.8649484E-01
          1   -1    0    0  502    0  0.00000000000E+00  0.00000000000E+00  0.91498036349E+03  0.91498036349E+03  0.00000000000E+00 0.  1.
         -1   -1    0    0    0  501 -0.00000000000E+00 -0.00000000000E+00 -0.15368075197E+04  0.15368075197E+04  0.00000000000E+00 0. -1.
    9000010    2    1    2  502    0 -0.99279597656E+02 -0.51425588455E+03 -0.62669539113E+03  0.12908545534E+04  0.99962133406E+03 0.  0.
   -9000010    2    1    2    0  501  0.99279597656E+02  0.51425588455E+03  0.48682348874E+01  0.11609333298E+04  0.10360631946E+04 0.  0.
        -13    1    3    3    0    0 -0.39995852422E+03 -0.67712616666E+03 -0.42750230839E+03  0.89511166985E+03  0.10566000000E+00 0.  1.
         13    1    4    4    0    0  0.28881706264E+03 -0.23387431296E+03  0.95921516046E+02  0.38381432795E+03  0.10566000000E+00 0. -1.
          4    1    3    3  502    0  0.30067892657E+03  0.16287028211E+03 -0.19919308274E+03  0.39574288356E+03  0.00000000000E+00 0.  1.
         -4    1    4    4    0  501 -0.18953746498E+03  0.74813019751E+03 -0.91053281159E+02  0.77711900187E+03  0.00000000000E+00 0. -1.
</event>
<event>
 8    1  0.7446554E-006  0.1239662E+04  0.7818608E-02  0.8577280E-01
         -2   -1    0    0    0  501 -0.00000000000E+00  0.00000000000E+00  0.62789087401E+03  0.62789087401E+03  0.00000000000E+00 0. -1.
          2   -1    0    0  502    0  0.00000000000E+00 -0.00000000000E+00 -0.24719437874E+04  0.24719437874E+04  0.00000000000E+00 0.  1.
    9000010    2    1    2  502    0 -0.40254802184E+03 -0.58502019888E+03 -0.10870714063E+04  0.16615069021E+04  0.10366230753E+04 0.  0.
   -9000010    2    1    2    0  501  0.40254802184E+03  0.58502019888E+03 -0.75698150704E+03  0.14383277593E+04  0.99572696972E+03 0.  0.
        -13    1    3    3    0    0  0.20950694979E+03  0.17906527543E+03 -0.27790675101E+03  0.39139456856E+03  0.10566000000E+00 0.  1.
         13    1    4    4    0    0  0.42801265880E+02  0.55053099682E+03  0.49667738757E+02  0.55442152038E+03  0.10566000000E+00 0. -1.
          4    1    3    3  502    0 -0.61205497163E+03 -0.76408547431E+03 -0.80916465534E+03  0.12701123335E+04  0.00000000000E+00 0.  1.
         -4    1    4    4    0  501  0.35974675596E+03  0.34489202058E+02 -0.80664924579E+03  0.88390623893E+03  0.00000000000E+00 0. -1.
</event>
<event>
 8    1  0.7446554E-006  0.1446447E+04  0.7818608E-02  0.8441002E-01
         -2   -1    0    0    0  501 -0.00000000000E+00  0.00000000000E+00  0.12831224196E+04  0.12831224196E+04  0.00000000000E+00 0. -1.
          2   -1    0    0  502    0  0.00000000000E+00 -0.00000000000E+00 -0.16336857449E+04  0.16336857449E+04  0.00000000000E+00 0.  1.
    9000010    2    1    2  502    0  0.96359991507E+03  0.41025307844E+03 -0.23897809131E+03  0.14653739033E+04  0.99668338184E+03 0.  0.
   -9000010    2    1    2    0  501 -0.96359991507E+03 -0.41025307844E+03 -0.11158523399E+03  0.14514342612E+04  0.99868802207E+03 0.  0.
        -13    1    3    3    0    0  0.68685501327E+03  0.84311110623E+02 -0.59216284640E+03  0.91078813148E+03  0.10566000000E+00 0.  1.
         13    1    4    4    0    0 -0.55208619385E+03  0.26754113507E+03 -0.21866508522E+03  0.65130012671E+03  0.10566000000E+00 0. -1.
          4    1    3    3  502    0  0.27674490180E+03  0.32594196782E+03  0.35318475510E+03  0.55458577181E+03  0.00000000000E+00 0.  1.
         -4    1    4    4    0  501 -0.41151372121E+03 -0.67779421351E+03  0.10707985122E+03  0.80013413448E+03  0.00000000000E+00 0. -1.
</event>
<event>
 8    1  0.7446554E-006  0.1338647E+04  0.7818608E-02  0.8508885E-01
         -2   -1    0    0    0  501 -0.00000000000E+00  0.00000000000E+00  0.91635994219E+03  0.91635994219E+03  0.00000000000E+00 0. -1.
          2   -1    0    0  502    0  0.00000000000E+00 -0.00000000000E+00 -0.21418073805E+04  0.21418073805E+04  0.00000000000E+00 0.  1.
    9000010    2    1    2  502    0 -0.41896172554E+03 -0.80696562715E+03 -0.10559623650E+04  0.16914834852E+04  0.95882084545E+03 0.  0.
   -9000010    2    1    2    0  501  0.41896172554E+03  0.80696562715E+03 -0.16948507332E+03  0.13666838374E+04  0.10061695039E+04 0.  0.
        -13    1    3    3    0    0  0.16887010874E+03  0.30336726433E+02 -0.49681592117E+03  0.52560774470E+03  0.10566000000E+00 0.  1.
         13    1    4    4    0    0  0.60973114541E+03  0.25680505488E+03 -0.36101989032E+03  0.75369508308E+03  0.10566000000E+00 0. -1.
          4    1    3    3  502    0 -0.58783183428E+03 -0.83730235359E+03 -0.55914644380E+03  0.11658757405E+04  0.00000000000E+00 0.  1.
         -4    1    4    4    0  501 -0.19076941987E+03  0.55016057228E+03  0.19153481701E+03  0.61298875436E+03  0.00000000000E+00 0. -1.
</event>
<event>
 8    1  0.7446554E-006  0.1284580E+04  0.7818608E-02  0.8545455E-01
          2   -1    0    0  502    0  0.00000000000E+00  0.00000000000E+00  0.35146516268E+04  0.35146516268E+04  0.00000000000E+00 0. -1.
         -2   -1    0    0    0  501 -0.00000000000E+00 -0.00000000000E+00 -0.50173962675E+03  0.50173962675E+03  0.00000000000E+00 0.  1.
    9000010    2    1    2  502    0 -0.68732065154E+03  0.44171428222E+03  0.20281043803E+04  0.24070724190E+04  0.10066126701E+04 0.  0.
   -9000010    2    1    2    0  501  0.68732065154E+03 -0.44171428222E+03  0.98480761976E+03  0.16093188346E+04  0.97598149483E+03 0.  0.
        -13    1    3    3    0    0  0.62955870391E+02  0.28032335095E+03  0.58451985855E+02  0.29319152191E+03  0.10566000000E+00 0.  1.
         13    1    4    4    0    0 -0.33160998800E+02  0.18976987276E+03 -0.50081513493E+02  0.19904880207E+03  0.10566000000E+00 0. -1.
          4    1    3    3  502    0 -0.75027652194E+03  0.16139093127E+03  0.19696523945E+04  0.21138808971E+04  0.00000000000E+00 0.  1.
         -4    1    4    4    0  501  0.72048165034E+03 -0.63148415498E+03  0.10348891332E+04  0.14102700325E+04  0.00000000000E+00 0. -1.
</event>
<event>
 8    1  0.7446554E-006  0.1733234E+04  0.7818608E-02  0.8286613E-01
         -2   -1    0    0    0  501 -0.00000000000E+00  0.00000000000E+00  0.10715739675E+04  0.10715739675E+04  0.00000000000E+00 0.  1.
          2   -1    0    0  502    0  0.00000000000E+00 -0.00000000000E+00 -0.30640893525E+04  0.30640893525E+04  0.00000000000E+00 0. -1.
    9000010    2    1    2  502    0  0.10861435387E+04 -0.91639733752E+03 -0.39132702718E+03  0.17734402431E+04  0.98613466969E+03 0.  0.
   -9000010    2    1    2    0  501 -0.10861435387E+04  0.91639733752E+03 -0.16011883578E+04  0.23622230770E+04  0.99839964002E+03 0.  0.
        -13    1    3    3    0    0  0.59520651246E+03 -0.54542348759E+03 -0.71477865734E+03  0.10782699632E+04  0.10566000000E+00 0.  1.
         13    1    4    4    0    0 -0.69254785154E+03  0.12623324945E+03 -0.24763251559E+03  0.74624341463E+03  0.10566000000E+00 0. -1.
          4    1    3    3  502    0  0.49093702627E+03 -0.37097384993E+03  0.32345163016E+03  0.69517027996E+03  0.00000000000E+00 0.  1.
         -4    1    4    4    0  501 -0.39359568719E+03  0.79016408807E+03 -0.13535558422E+04  0.16159796623E+04  0.00000000000E+00 0. -1.
</event>
<event>
 8    1  0.7446554E-006  0.1672818E+04  0.7818608E-02  0.8316440E-01
         -2   -1    0    0    0  501 -0.00000000000E+00  0.00000000000E+00  0.20646286243E+04  0.20646286243E+04  0.00000000000E+00 0. -1.
          2   -1    0    0  502    0  0.00000000000E+00 -0.00000000000E+00 -0.14997859214E+04  0.14997859214E+04  0.00000000000E+00 0.  1.
    9000010    2    1    2  502    0  0.42218347667E+03 -0.12797501284E+04  0.83699500998E+03  0.18802067509E+04  0.10092658224E+04 0.  0.
   -9000010    2    1    2    0  501 -0.42218347667E+03  0.12797501284E+04 -0.27215230701E+03  0.16842077948E+04  0.97287704199E+03 0.  0.
        -13    1    3    3    0    0 -0.18506809405E+03 -0.93073539292E+03  0.66567172340E+03  0.11591537541E+04  0.10566000000E+00 0.  1.
         13    1    4    4    0    0  0.16156452933E+03  0.14481260382E+03 -0.34313347058E+03  0.40597337001E+03  0.10566000000E+00 0. -1.
          4    1    3    3  502    0  0.60725157072E+03 -0.34901473547E+03  0.17132328658E+03  0.72105299683E+03  0.00000000000E+00 0.  1.
         -4    1    4    4    0  501 -0.58374800600E+03  0.11349375246E+04  0.70981163568E+02  0.12782344248E+04  0.00000000000E+00 0. -1.
</event>
<event>
 8    1  0.7446554E-006  0.1460577E+04  0.7818608E-02  0.8432555E-01
          2   -1    0    0  502    0  0.00000000000E+00  0.00000000000E+00  0.31939777846E+04  0.31939777846E+04  0.00000000000E+00 0. -1.
         -2   -1    0    0    0  501 -0.00000000000E+00 -0.00000000000E+00 -0.68137578174E+03  0.68137578174E+03  0.00000000000E+00 0.  1.
    9000010    2    1    2  502    0 -0.73272543469E+03  0.76394909888E+03  0.98136695034E+03  0.17571402945E+04  0.10019761149E+04 0.  0.
   -9000010    2    1    2    0  501  0.73272543469E+03 -0.76394909888E+03  0.15312350525E+04  0.21182132719E+04  0.10107630240E+04 0.  0.
        -13    1    3    3    0    0 -0.12284909587E+03  0.76392607180E+03  0.81756501685E+03  0.11256498174E+04  0.10566000000E+00 0.  1.
         13    1    4    4    0    0 -0.20533015522E+03 -0.36574940804E+03  0.63545077742E+03  0.76140055412E+03  0.10566000000E+00 0. -1.
          4    1    3    3  502    0 -0.60987633882E+03  0.23027086031E-01  0.16380193349E+03  0.63149047704E+03  0.00000000000E+00 0.  1.
         -4    1    4    4    0  501  0.93805558991E+03 -0.39819969084E+03  0.89578427513E+03  0.13568127178E+04  0.00000000000E+00 0. -1.
</event>
<event>
 8    1  0.7446554E-006  0.1047311E+04  0.7818608E-02  0.8731365E-01
         -2   -1    0    0    0  501 -0.00000000000E+00  0.00000000000E+00  0.11581065928E+04  0.11581065928E+04  0.00000000000E+00 0.  1.
          2   -1    0    0  502    0  0.00000000000E+00 -0.00000000000E+00 -0.99706979856E+03  0.99706979856E+03  0.00000000000E+00 0. -1.
    9000010    2    1    2  502    0 -0.47626422096E+03 -0.27850122310E+03  0.31609360961E+03  0.11626404847E+04  0.97335871457E+03 0.  0.
   -9000010    2    1    2    0  501  0.47626422096E+03  0.27850122310E+03 -0.15505681538E+03  0.99253590664E+03  0.81036681234E+03 0.  0.
        -13    1    3    3    0    0 -0.41291598750E+03 -0.38055376211E+03  0.61961987993E+03  0.83621144775E+03  0.10566000000E+00 0.  1.
         13    1    4    4    0    0  0.40465669237E+03 -0.17599300123E+03 -0.27127115557E+03  0.51798516018E+03  0.10566000000E+00 0. -1.
          4    1    3    3  502    0 -0.63348233456E+02  0.10205253901E+03 -0.30352627031E+03  0.32642903696E+03  0.00000000000E+00 0.  1.
         -4    1    4    4    0  501  0.71607528595E+02  0.45449422433E+03  0.11621434019E+03  0.47455074646E+03  0.00000000000E+00 0. -1.
</event>
<event>
 8    1  0.7446554E-006  0.1261872E+04  0.7818608E-02  0.8561373E-01
          2   -1    0    0  502    0  0.00000000000E+00  0.00000000000E+00  0.19913645152E+04  0.19913645152E+04  0.00000000000E+00 0. -1.
         -2   -1    0    0    0  501 -0.00000000000E+00 -0.00000000000E+00 -0.14301420849E+04  0.14301420849E+04  0.00000000000E+00 0.  1.
    9000010    2    1    2  502    0  0.67058772878E+03  0.49340541967E+03 -0.85841289008E+03  0.15021925370E+04  0.90916055684E+03 0.  0.
   -9000010    2    1    2    0  501 -0.67058772878E+03 -0.49340541967E+03  0.14196353204E+04  0.19193140631E+04  0.98755517294E+03 0.  0.
        -13    1    3    3    0    0  0.97276890201E+02 -0.18666247775E+03  0.64764635370E+02  0.22022748041E+03  0.10566000000E+00 0.  1.
         13    1    4    4    0    0 -0.28342372489E+03  0.12298988250E+03  0.10663568989E+04  0.11102128472E+04  0.10566000000E+00 0. -1.
          4    1    3    3  502    0  0.57331083858E+03  0.68006789742E+03 -0.92317752545E+03  0.12819650566E+04  0.00000000000E+00 0.  1.
         -4    1    4    4    0  501 -0.38716400390E+03 -0.61639530217E+03  0.35327842149E+03  0.80910121588E+03  0.00000000000E+00 0. -1.
</event>
<event>
 8    1  0.7446554E-006  0.1636226E+04  0.7818608E-02  0.8335144E-01
         -2   -1    0    0    0  501 -0.00000000000E+00  0.00000000000E+00  0.85611033922E+03  0.85611033922E+03  0.00000000000E+00 0.  1.
          2   -1    0    0  502    0  0.00000000000E+00 -0.00000000000E+00 -0.34629263394E+04  0.34629263394E+04  0.00000000000E+00 0. -1.
    9000010    2    1    2  502    0 -0.57162471542E+03 -0.11516850566E+04 -0.62786064961E+03  0.17484315072E+04  0.10048235939E+04 0.  0.
   -9000010    2    1    2    0  501  0.57162471542E+03  0.11516850566E+04 -0.19789553505E+04  0.25706051714E+04  0.10191238311E+04 0.  0.
        -13    1    3    3    0    0 -0.74632508216E+03 -0.47021381016E+03 -0.55262668309E+03  0.10409123006E+04  0.10566000000E+00 0.  1.
         13    1    4    4    0    0  0.37491503376E+03  0.39653198497E+03 -0.12604646993E+03  0.56007733519E+03  0.10566000000E+00 0. -1.
          4    1    3    3  502    0  0.17470036674E+03 -0.68147124647E+03 -0.75233966522E+02  0.70751920655E+03  0.00000000000E+00 0.  1.
         -4    1    4    4    0  501  0.19670968166E+03  0.75515307167E+03 -0.18529088806E+04  0.20105278362E+04  0.00000000000E+00 0. -1.
</event>
<event>
 8    1  0.7446554E-006  0.1421959E+04  0.7818608E-02  0.8455877E-01
         -1   -1    0    0    0  501 -0.00000000000E+00  0.00000000000E+00  0.11999501667E+04  0.11999501667E+04  0.00000000000E+00 0. -1.
          1   -1    0    0  502    0  0.00000000000E+00 -0.00000000000E+00 -0.17041314167E+04  0.17041314167E+04  0.00000000000E+00 0.  1.
    9000010    2    1    2  502    0 -0.75045825217E+03  0.64513687933E+03 -0.99295782441E+02  0.14300249046E+04  0.10274835250E+04 0.  0.
   -9000010    2    1    2    0  501  0.75045825217E+03 -0.64513687933E+03 -0.40488546763E+03  0.14740566788E+04  0.10146534724E+04 0.  0.
        -13    1    3    3    0    0 -0.39981951172E+03 -0.20612033363E+03  0.15351854572E+03  0.47529905210E+03  0.10566000000E+00 0.  1.
         13    1    4    4    0    0  0.39512502381E+03 -0.38851794692E+03 -0.73845967581E+03  0.92325114865E+03  0.10566000000E+00 0. -1.
          4    1    3    3  502    0 -0.35063874045E+03  0.85125721296E+03 -0.25281432816E+03  0.95472585250E+03  0.00000000000E+00 0.  1.
         -4    1    4    4    0  501  0.35533322835E+03 -0.25661893240E+03  0.33357420819E+03  0.55080553012E+03  0.00000000000E+00 0. -1.
</event>
<event>
 8    1  0.7446554E-006  0.1075222E+04  0.7818608E-02  0.8706957E-01
         -1   -1    0    0    0  501 -0.00000000000E+00  0.00000000000E+00  0.11214572426E+04  0.11214572426E+04  0.00000000000E+00 0.  1.
          1   -1    0    0  502    0  0.00000000000E+00 -0.00000000000E+00 -0.10562584991E+04  0.10562584991E+04  0.00000000000E+00 0. -1.
    9000010    2    1    2  502    0 -0.28955586678E+03  0.27918431475E+03 -0.13613160596E+03  0.10840457213E+04  0.99741507415E+03 0.  0.
   -9000010    2    1    2    0  501  0.28955586678E+03 -0.27918431475E+03  0.20133034946E+03  0.10936700204E+04  0.99689203142E+03 0.  0.
        -13    1    3    3    0    0  0.76465669682E+02 -0.34333623145E+03 -0.72090339804E+02  0.35905959773E+03  0.10566000000E+00 0.  1.
         13    1    4    4    0    0 -0.20172312090E+03 -0.27992200105E+03 -0.25036455696E+03  0.42629915168E+03  0.10566000000E+00 0. -1.
          4    1    3    3  502    0 -0.36602153647E+03  0.62252054620E+03 -0.64041266158E+02  0.72498612357E+03  0.00000000000E+00 0.  1.
         -4    1    4    4    0  501  0.49127898768E+03  0.73768629917E+00  0.45169490642E+03  0.66737086871E+03  0.00000000000E+00 0. -1.
</event>
<event>
 8    1  0.7446554E-006  0.1156293E+04  0.7818608E-02  0.8640222E-01
         -2   -1    0    0    0  501 -0.00000000000E+00  0.00000000000E+00  0.23702542188E+04  0.23702542188E+04  0.00000000000E+00 0. -1.
          2   -1    0    0  502    0  0.00000000000E+00 -0.00000000000E+00 -0.57717615237E+03  0.57717615237E+03  0.00000000000E+00 0.  1.
    9000010    2    1    2  502    0 -0.69074281525E+03 -0.67905948114E+02  0.64262131057E+03  0.12722413732E+04  0.85082260681E+03 0.  0.
   -9000010    2    1    2    0  501  0.69074281525E+03  0.67905948114E+02  0.11504567559E+04  0.16751889980E+04  0.10004851709E+04 0.  0.
        -13    1    3    3    0    0 -0.55024510595E+03 -0.51211283478E+02 -0.59674089247E+02  0.55583565941E+03  0.10566000000E+00 0.  1.
         13    1    4    4    0    0  0.34248580108E+03 -0.37263453585E+03  0.95455847363E+03  0.10804327429E+04  0.10566000000E+00 0. -1.
          4    1    3    3  502    0 -0.14049770930E+03 -0.16694664636E+02  0.70229539982E+03  0.71640571379E+03  0.00000000000E+00 0.  1.
         -4    1    4    4    0  501  0.34825701417E+03  0.44054048397E+03  0.19589828223E+03  0.59475625504E+03  0.00000000000E+00 0. -1.
</event>
<event>
 8    1  0.7446554E-006  0.1572133E+04  0.7818608E-02  0.8369155E-01
         -1   -1    0    0    0  501 -0.00000000000E+00  0.00000000000E+00  0.62764518110E+03  0.62764518110E+03  0.00000000000E+00 0. -1.
          1   -1    0    0  502    0  0.00000000000E+00 -0.00000000000E+00 -0.40545507950E+04  0.40545507950E+04  0.00000000000E+00 0.  1.
    9000010    2    1    2  502    0  0.75784054720E+03  0.93453605674E+03 -0.21075383397E+04  0.26276304685E+04  0.10074939648E+04 0.  0.
   -9000010    2    1    2    0  501 -0.75784054720E+03 -0.93453605674E+03 -0.13193672742E+04  0.20545655077E+04  0.10162821875E+04 0.  0.
        -13    1    3    3    0    0 -0.18909524582E+03  0.35408821217E+02 -0.61557832548E+03  0.64493990617E+03  0.10566000000E+00 0.  1.
         13    1    4    4    0    0 -0.20995337129E+03  0.15439659582E+03 -0.56190239985E+03  0.61939732405E+03  0.10566000000E+00 0. -1.
          4    1    3    3  502    0  0.94693579302E+03  0.89912723552E+03 -0.14919600142E+04  0.19826905623E+04  0.00000000000E+00 0.  1.
         -4    1    4    4    0  501 -0.54788717591E+03 -0.10889326526E+04 -0.75746487437E+03  0.14351681836E+04  0.00000000000E+00 0. -1.
</event>
<event>
 8    1  0.7446554E-006  0.1159146E+04  0.7818608E-02  0.8637978E-01
          2   -1    0    0  502    0  0.00000000000E+00  0.00000000000E+00  0.13132711653E+04  0.13132711653E+04  0.00000000000E+00 0.  1.
         -2   -1    0    0    0  501 -0.00000000000E+00 -0.00000000000E+00 -0.10334482967E+04  0.10334482967E+04  0.00000000000E+00 0. -1.
    9000010    2    1    2  502    0  0.53990804138E+03  0.12370886741E+03  0.25490258479E+03  0.11738771637E+04  0.10030990433E+04 0.  0.
   -9000010    2    1    2    0  501 -0.53990804138E+03 -0.12370886741E+03  0.24920283763E+02  0.11728422983E+04  0.10335054229E+04 0.  0.
        -13    1    3    3    0    0  0.84341910025E+02 -0.17246470182E+03  0.53081185148E+03  0.56446334158E+03  0.10566000000E+00 0.  1.
         13    1    4    4    0    0 -0.69472564304E+03 -0.32825635658E+03  0.27353294324E+03  0.81560789411E+03  0.10566000000E+00 0. -1.
          4    1    3    3  502    0  0.45556613136E+03  0.29617356923E+03 -0.27590926669E+03  0.60941382212E+03  0.00000000000E+00 0.  1.
         -4    1    4    4    0  501  0.15481760166E+03  0.20454748916E+03 -0.24861265948E+03  0.35723440422E+03  0.00000000000E+00 0. -1.
</event>
<event>
 8    1  0.7446554E-006  0.1043601E+04  0.7818608E-02  0.8734669E-01
         -1   -1    0    0    0  501 -0.00000000000E+00  0.00000000000E+00  0.51081938066E+03  0.51081938066E+03  0.00000000000E+00 0.  1.
          1   -1    0    0  502    0  0.00000000000E+00 -0.00000000000E+00 -0.22082403859E+04  0.22082403859E+04  0.00000000000E+00 0. -1.
    9000010    2    1    2  502    0  0.26709714662E+03 -0.14040062822E+03 -0.59295375101E+03  0.11966242659E+04  0.99461664009E+03 0.  0.
   -9000010    2    1    2    0  501 -0.26709714662E+03  0.14040062822E+03 -0.11044672542E+04  0.15224355006E+04  0.10034484122E+04 0.  0.
        -13    1    3    3    0    0 -0.31942321229E+03 -0.28273835274E+03 -0.32495470211E+03  0.53625342353E+03  0.10566000000E+00 0.  1.
         13    1    4    4    0    0 -0.27965851636E+03  0.56076724676E+03 -0.63449741155E+03  0.89177114062E+03  0.10566000000E+00 0. -1.
          4    1    3    3  502    0  0.58652035891E+03  0.14233772452E+03 -0.26799904890E+03  0.66037084236E+03  0.00000000000E+00 0.  1.
         -4    1    4    4    0  501  0.12561369747E+02 -0.42036661855E+03 -0.46996984263E+03  0.63066436000E+03  0.00000000000E+00 0. -1.
</event>
<event>
 8    1  0.7446554E-006  0.1386190E+04  0.7818608E-02  0.8478166E-01
          2   -1    0    0  502    0  0.00000000000E+00  0.00000000000E+00  0.13429877601E+04  0.13429877601E+04  0.00000000000E+00 0.  1.
         -2   -1    0    0    0  501 -0.00000000000E+00 -0.00000000000E+00 -0.14509094493E+04  0.14509094493E+04  0.00000000000E+00 0. -1.
    9000010    2    1    2  502    0  0.35274295402E+03  0.89774853582E+03  0.11069203588E+03  0.13845228672E+04  0.98705157815E+03 0.  0.
   -9000010    2    1    2    0  501 -0.35274295402E+03 -0.89774853582E+03 -0.21861372516E+03  0.14093743422E+04  0.10040737276E+04 0.  0.
        -13    1    3    3    0    0  0.51703387905E+03  0.10040275521E+04  0.23388922673E+03  0.11532994143E+04  0.10566000000E+00 0.  1.
         13    1    4    4    0    0  0.33775165036E+03 -0.14887218817E+03 -0.79428774243E+01  0.36919128673E+03  0.10566000000E+00 0. -1.
          4    1    3    3  502    0 -0.16429092503E+03 -0.10627901630E+03 -0.12319719085E+03  0.23122345293E+03  0.00000000000E+00 0.  1.
         -4    1    4    4    0  501 -0.69049460437E+03 -0.74887634766E+03 -0.21067084773E+03  0.10401830554E+04  0.00000000000E+00 0. -1.
</event>
<event>
 8    1  0.7446554E-006  0.1228028E+04  0.7818608E-02  0.8585750E-01
          2   -1    0    0  502    0  0.00000000000E+00  0.00000000000E+00  0.13783028435E+04  0.13783028435E+04  0.00000000000E+00 0. -1.
         -2   -1    0    0    0  501 -0.00000000000E+00 -0.00000000000E+00 -0.10970174279E+04  0.10970174279E+04  0.00000000000E+00 0.  1.
    9000010    2    1    2  502    0 -0.67501043945E+03  0.17133575132E+03  0.20432585316E+03  0.12479595011E+04  0.10152136864E+04 0.  0.
   -9000010    2    1    2    0  501  0.67501043945E+03 -0.17133575132E+03  0.76959562522E+02  0.12273607703E+04  0.10077185387E+04 0.  0.
        -13    1    3    3    0    0 -0.87897855281E+03  0.16970525867E+03  0.38592921796E+03  0.97485616558E+03  0.10566000000E+00 0.  1.
         13    1    4    4    0    0  0.41472526427E+03 -0.51022664504E+03 -0.23504474823E+03  0.69826522108E+03  0.10566000000E+00 0. -1.
          4    1    3    3  502    0  0.20396811336E+03  0.16304926498E+01 -0.18160336480E+03  0.27310333554E+03  0.00000000000E+00 0.  1.
         -4    1    4    4    0  501  0.26028517518E+03  0.33889089372E+03  0.31200431075E+03  0.52909554921E+03  0.00000000000E+00 0. -1.
</event>
<event>
 8    1  0.7446554E-006  0.1168889E+04  0.7818608E-02  0.8630365E-01
          2   -1    0    0  502    0  0.00000000000E+00  0.00000000000E+00  0.12737190420E+04  0.12737190420E+04  0.00000000000E+00 0. -1.
         -2   -1    0    0    0  501 -0.00000000000E+00 -0.00000000000E+00 -0.10766724145E+04  0.10766724145E+04  0.00000000000E+00 0.  1.
    9000010    2    1    2  502    0 -0.55831179361E+03 -0.23482638931E+03  0.27187235622E+02  0.11708727764E+04  0.10016728112E+04 0.  0.
   -9000010    2    1    2    0  501  0.55831179361E+03  0.23482638931E+03  0.16985939183E+03  0.11795186802E+04  0.99777583249E+03 0.  0.
        -13    1    3    3    0    0 -0.45362896880E+03 -0.61769403246E+03  0.79652076824E+02  0.77049959350E+03  0.10566000000E+00 0.  1.
         13    1    4    4    0    0  0.75290678518E+03  0.18770061235E+03 -0.16129852051E+03  0.79253856117E+03  0.10566000000E+00 0. -1.
          4    1    3    3  502    0 -0.10468282480E+03  0.38286764316E+03 -0.52464841201E+02  0.40037318285E+03  0.00000000000E+00 0.  1.
         -4    1    4    4    0  501 -0.19459499158E+03  0.47125776960E+02  0.33115791235E+03  0.38698011901E+03  0.00000000000E+00 0. -1.
</event>
<event>
 8    1  0.7446554E-006  0.1421100E+04  0.7818608E-02  0.8456405E-01
          1   -1    0    0  502    0  0.00000000000E+00  0.00000000000E+00  0.16934725765E+04  0.16934725765E+04  0.00000000000E+00 0.  1.
         -1   -1    0    0    0  501 -0.00000000000E+00 -0.00000000000E+00 -0.12261397225E+04  0.12261397225E+04  0.00000000000E+00 0. -1.
    9000010    2    1    2  502    0 -0.93670619357E+03  0.33711808253E+03  0.47387110660E+03  0.14902349081E+04  0.10025862362E+04 0.  0.
   -9000010    2    1    2    0  501  0.93670619357E+03 -0.33711808253E+03 -0.65382525751E+01  0.14293773909E+04  0.10256753298E+04 0.  0.
        -13    1    3    3    0    0 -0.72839487442E+03 -0.29446123895E+02  0.70098307530E+03  0.10113374562E+04  0.10566000000E+00 0.  1.
         13    1    4    4    0    0  0.63700041893E+03  0.65743513148E+02  0.42393600530E+03  0.76799315817E+03  0.10566000000E+00 0. -1.
          4    1    3    3  502    0 -0.20831131915E+03  0.36656420642E+03 -0.22711196870E+03  0.47889745191E+03  0.00000000000E+00 0.  1.
         -4    1    4    4    0  501  0.29970577465E+03 -0.40286159567E+03 -0.43047425788E+03  0.66138423274E+03  0.00000000000E+00 0. -1.
</event>
<event>
 8    1  0.7446554E-006  0.1228023E+04  0.7818608E-02  0.8585754E-01
         -2   -1    0    0    0  501 -0.00000000000E+00  0.00000000000E+00  0.71470502040E+03  0.71470502040E+03  0.00000000000E+00 0.  1.
          2   -1    0    0  502    0  0.00000000000E+00 -0.00000000000E+00 -0.26642484599E+04  0.26642484599E+04  0.00000000000E+00 0. -1.
    9000010    2    1    2  502    0 -0.27850048200E+03  0.66414096270E+03 -0.17501752659E+04  0.21425349372E+04  0.10043389661E+04 0.  0.
   -9000010    2    1    2    0  501  0.27850048200E+03 -0.66414096270E+03 -0.19936817352E+03  0.12364185431E+04  0.98505705833E+03 0.  0.
        -13    1    3    3    0    0 -0.38953739106E+03 -0.14607101749E+03 -0.64937226772E+03  0.77120715404E+03  0.10566000000E+00 0.  1.
         13    1    4    4    0    0  0.10447150055E+03 -0.80823653060E+03 -0.42327377382E+03  0.91832525969E+03  0.10566000000E+00 0. -1.
          4    1    3    3  502    0  0.11103690905E+03  0.81021198020E+03 -0.11008029982E+04  0.13713277832E+04  0.00000000000E+00 0.  1.
         -4    1    4    4    0  501  0.17402898145E+03  0.14409556790E+03  0.22390560030E+03  0.31809328336E+03  0.00000000000E+00 0. -1.
</event>
<event>
 8    1  0.7446554E-006  0.1397674E+04  0.7818608E-02  0.8470936E-01
         -2   -1    0    0    0  501 -0.00000000000E+00  0.00000000000E+00  0.63668715931E+03  0.63668715931E+03  0.00000000000E+00 0.  1.
          2   -1    0    0  502    0  0.00000000000E+00 -0.00000000000E+00 -0.32240590200E+04  0.32240590200E+04  0.00000000000E+00 0. -1.
    9000010    2    1    2  502    0 -0.96405376175E+03  0.74696709921E+02 -0.17285753728E+04  0.22307156324E+04  0.10262261735E+04 0.  0.
   -9000010    2    1    2    0  501  0.96405376175E+03 -0.74696709921E+02 -0.85879648796E+03  0.16300305470E+04  0.99221415144E+03 0.  0.
        -13    1    3    3    0    0 -0.50048223652E+03  0.26436533124E+03 -0.16603951779E+03  0.58986492527E+03  0.10566000000E+00 0.  1.
         13    1    4    4    0    0  0.69559844306E+02  0.45801177344E+02  0.21306950680E+03  0.22876832315E+03  0.10566000000E+00 0. -1.
          4    1    3    3  502    0 -0.46357152524E+03 -0.18966862132E+03 -0.15625358550E+04  0.16408507071E+04  0.00000000000E+00 0.  1.
         -4    1    4    4    0  501  0.89449391745E+03 -0.12049788726E+03 -0.10718659948E+04  0.14012622238E+04  0.00000000000E+00 0. -1.
</event>
<event>
 8    1  0.7446554E-006  0.1145508E+04  0.7818608E-02  0.8648766E-01
          1   -1    0    0  502    0  0.00000000000E+00  0.00000000000E+00  0.12842185971E+04  0.12842185971E+04  0.00000000000E+00 0. -1.
         -1   -1    0    0    0  501 -0.00000000000E+00 -0.00000000000E+00 -0.12376090789E+04  0.12376090789E+04  0.00000000000E+00 0.  1.
    9000010    2    1    2  502    0  0.44290515182E+03  0.32826462747E+03  0.54948309106E+03  0.12956667848E+04  0.10358079507E+04 0.  0.
   -9000010    2    1    2    0  501 -0.44290515182E+03 -0.32826462747E+03 -0.50287357292E+03  0.12261608912E+04  0.97296765697E+03 0.  0.
        -13    1    3    3    0    0  0.39421959395E+03  0.54341059518E+03 -0.33669302491E+02  0.67218881001E+03  0.10566000000E+00 0.  1.
         13    1    4    4    0    0  0.24241515749E+03  0.14396296691E+02 -0.37881597315E+03  0.44997101531E+03  0.10566000000E+00 0. -1.
          4    1    3    3  502    0  0.48685557879E+02 -0.21514596771E+03  0.58315239355E+03  0.62347797481E+03  0.00000000000E+00 0.  1.
         -4    1    4    4    0  501 -0.68532030932E+03 -0.34266092416E+03 -0.12405759976E+03  0.77618987585E+03  0.00000000000E+00 0. -1.
</event>
<event>
 8    1  0.7446554E-006  0.1055418E+04  0.7818608E-02  0.8724195E-01
          2   -1    0    0  502    0  0.00000000000E+00  0.00000000000E+00  0.18684435862E+04  0.18684435862E+04  0.00000000000E+00 0. -1.
         -2   -1    0    0    0  501 -0.00000000000E+00 -0.00000000000E+00 -0.62099586739E+03  0.62099586739E+03  0.00000000000E+00 0.  1.
    9000010    2    1    2  502    0  0.24840555883E+03 -0.79047686431E+01  0.36083035973E+03  0.10885827794E+04  0.99651699031E+03 0.  0.
   -9000010    2    1    2    0  501 -0.24840555883E+03  0.79047686431E+01  0.88661735905E+03  0.14008566742E+04  0.10557183683E+04 0.  0.
        -13    1    3    3    0    0  0.13724983775E+03 -0.41692982044E+03 -0.11258324229E+03  0.45314786852E+03  0.10566000000E+00 0.  1.
         13    1    4    4    0    0 -0.47371055162E+03 -0.37640233772E+03  0.67871509650E+03  0.90924947068E+03  0.10566000000E+00 0. -1.
          4    1    3    3  502    0  0.11115572108E+03  0.40902505180E+03  0.47341360202E+03  0.63543491083E+03  0.00000000000E+00 0.  1.
         -4    1    4    4    0  501  0.22530499279E+03  0.38430710636E+03  0.20790226256E+03  0.49160720352E+03  0.00000000000E+00 0. -1.
</event>
<event>
 8    1  0.7446554E-006  0.1227449E+04  0.7818608E-02  0.8586174E-01
         -2   -1    0    0    0  501 -0.00000000000E+00  0.00000000000E+00  0.13032939662E+04  0.13032939662E+04  0.00000000000E+00 0.  1.
          2   -1    0    0  502    0  0.00000000000E+00 -0.00000000000E+00 -0.11694590644E+04  0.11694590644E+04  0.00000000000E+00 0. -1.
    9000010    2    1    2  502    0 -0.26393344093E+03 -0.68106159349E+03 -0.65761772661E+02  0.12260364813E+04  0.98251467538E+03 0.  0.
   -9000010    2    1    2    0  501  0.26393344093E+03  0.68106159349E+03  0.19959667441E+03  0.12467165494E+04  0.99043301977E+03 0.  0.
        -13    1    3    3    0    0 -0.13909653483E+03 -0.92397104888E+03  0.34722551213E+02  0.93502727869E+03  0.10566000000E+00 0.  1.
         13    1    4    4    0    0  0.63628528330E+03  0.52126611742E+03  0.17379966892E+03  0.84070426607E+03  0.10566000000E+00 0. -1.
          4    1    3    3  502    0 -0.12483690611E+03  0.24290945540E+03 -0.10048432387E+03  0.29100920259E+03  0.00000000000E+00 0.  1.
         -4    1    4    4    0  501 -0.37235184237E+03  0.15979547607E+03  0.25797005486E+02  0.40601228328E+03  0.00000000000E+00 0. -1.
</event>
<event>
 8    1  0.7446554E-006  0.1585565E+04  0.7818608E-02  0.8361890E-01
         -2   -1    0    0    0  501 -0.00000000000E+00  0.00000000000E+00  0.88680177445E+03  0.88680177445E+03  0.00000000000E+00 0. -1.
          2   -1    0    0  502    0  0.00000000000E+00 -0.00000000000E+00 -0.29208481193E+04  0.29208481193E+04  0.00000000000E+00 0.  1.
    9000010    2    1    2  502    0 -0.10568064228E+04  0.37542145824E+03 -0.13803681412E+04  0.21692467528E+04  0.12419477376E+04 0.  0.
   -9000010    2    1    2    0  501  0.10568064228E+04 -0.37542145824E+03 -0.65367820371E+03  0.16384031409E+04  0.99964422258E+03 0.  0.
        -13    1    3    3    0    0 -0.85444016008E+03  0.76860403821E+03 -0.66374238256E+03  0.13271677047E+04  0.10566000000E+00 0.  1.
         13    1    4    4    0    0  0.12072321739E+04 -0.37017392297E+03 -0.74131114638E+03  0.14642337525E+04  0.10566000000E+00 0. -1.
          4    1    3    3  502    0 -0.20236626270E+03 -0.39318257996E+03 -0.71662575861E+03  0.84207904817E+03  0.00000000000E+00 0.  1.
         -4    1    4    4    0  501 -0.15042575115E+03 -0.52475352746E+01  0.87632942679E+02  0.17416938846E+03  0.00000000000E+00 0. -1.
</event>
<event>
 8    1  0.7446554E-006  0.1072276E+04  0.7818608E-02  0.8709496E-01
         -2   -1    0    0    0  501 -0.00000000000E+00  0.00000000000E+00  0.62543151522E+03  0.62543151522E+03  0.00000000000E+00 0. -1.
          2   -1    0    0  502    0  0.00000000000E+00 -0.00000000000E+00 -0.18994918793E+04  0.18994918793E+04  0.00000000000E+00 0.  1.
    9000010    2    1    2  502    0 -0.31628344975E+02 -0.38860175389E+03 -0.86488625763E+03  0.13795223108E+04  0.10015197911E+04 0.  0.
   -9000010    2    1    2    0  501  0.31628344975E+02  0.38860175389E+03 -0.40917410641E+03  0.11454010837E+04  0.99624721722E+03 0.  0.
        -13    1    3    3    0    0 -0.29224100831E+03 -0.61227969123E+03 -0.76360135661E+03  0.10214588931E+04  0.10566000000E+00 0.  1.
         13    1    4    4    0    0  0.96727104642E+02 -0.33186248718E+03 -0.15248436080E+03  0.37780991864E+03  0.10566000000E+00 0. -1.
          4    1    3    3  502    0  0.26061266333E+03  0.22367793735E+03 -0.10128490103E+03  0.35806341774E+03  0.00000000000E+00 0.  1.
         -4    1    4    4    0  501 -0.65098759667E+02  0.72046424106E+03 -0.25668974561E+03  0.76759116505E+03  0.00000000000E+00 0. -1.
</event>
<event>
 8    1  0.7446554E-006  0.2068739E+04  0.7818608E-02  0.8140965E-01
          2   -1    0    0  502    0  0.00000000000E+00  0.00000000000E+00  0.25176393330E+04  0.25176393330E+04  0.00000000000E+00 0.  1.
         -2   -1    0    0    0  501 -0.00000000000E+00 -0.00000000000E+00 -0.17095160512E+04  0.17095160512E+04  0.00000000000E+00 0. -1.
    9000010    2    1    2  502    0 -0.15356276000E+04 -0.94912186445E+03  0.24643356302E+03  0.20883723148E+04  0.10205807097E+04 0.  0.
   -9000010    2    1    2    0  501  0.15356276000E+04  0.94912186445E+03  0.56168971876E+03  0.21387830694E+04  0.99995661826E+03 0.  0.
        -13    1    3    3    0    0 -0.96848626225E+03 -0.93202117816E+03 -0.20969084088E+03  0.13603673683E+04  0.10566000000E+00 0.  1.
         13    1    4    4    0    0  0.39357054443E+03 -0.38520978190E+02 -0.20496878430E+03  0.44541424865E+03  0.10566000000E+00 0. -1.
          4    1    3    3  502    0 -0.56714133770E+03 -0.17100686294E+02  0.45612440390E+03  0.72800494657E+03  0.00000000000E+00 0.  1.
         -4    1    4    4    0  501  0.11420570555E+04  0.98764284264E+03  0.76665850306E+03  0.16933688207E+04  0.00000000000E+00 0. -1.
</event>
<event>
 8    1  0.7446554E-006  0.1192961E+04  0.7818608E-02  0.8611882E-01
          1   -1    0    0  502    0  0.00000000000E+00  0.00000000000E+00  0.26842438729E+04  0.26842438729E+04  0.00000000000E+00 0.  1.
         -1   -1    0    0    0  501 -0.00000000000E+00 -0.00000000000E+00 -0.65906878099E+03  0.65906878099E+03  0.00000000000E+00 0. -1.
    9000010    2    1    2  502    0 -0.17708730949E+03  0.57628233900E+03  0.26353404477E+03  0.12073563297E+04  0.10123230041E+04 0.  0.
   -9000010    2    1    2    0  501  0.17708730949E+03 -0.57628233900E+03  0.17616410471E+04  0.21359563242E+04  0.10466465451E+04 0.  0.
        -13    1    3    3    0    0  0.35550614610E+03  0.47438972536E+03  0.29898816655E+03  0.66394590619E+03  0.10566000000E+00 0.  1.
         13    1    4    4    0    0  0.36486342459E+03  0.10233323717E+03  0.11235229155E+04  0.11857070308E+04  0.10566000000E+00 0. -1.
          4    1    3    3  502    0 -0.53259345559E+03  0.10189261363E+03 -0.35454121781E+02  0.54341042353E+03  0.00000000000E+00 0.  1.
         -4    1    4    4    0  501 -0.18777611510E+03 -0.67861557617E+03  0.63811813159E+03  0.95024929334E+03  0.00000000000E+00 0. -1.
</event>
<event>
 8    1  0.7446554E-006  0.1117003E+04  0.7818608E-02  0.8671827E-01
          2   -1    0    0  502    0  0.00000000000E+00  0.00000000000E+00  0.23287741164E+04  0.23287741164E+04  0.00000000000E+00 0.  1.
         -2   -1    0    0    0  501 -0.00000000000E+00 -0.00000000000E+00 -0.59858171927E+03  0.59858171927E+03  0.00000000000E+00 0. -1.
    9000010    2    1    2  502    0  0.66286495406E+03  0.13750624386E+03  0.12603621655E+04  0.16271892221E+04  0.77519936914E+03 0.  0.
   -9000010    2    1    2    0  501 -0.66286495406E+03 -0.13750624386E+03  0.46983023159E+03  0.13001666135E+04  0.10056812924E+04 0.  0.
        -13    1    3    3    0    0  0.20810814143E+02 -0.26696775070E+03  0.38081020335E+03  0.46553334150E+03  0.10566000000E+00 0.  1.
         13    1    4    4    0    0 -0.68635179918E+03  0.39740844860E+02 -0.10743587196E+03  0.69584524482E+03  0.10566000000E+00 0. -1.
          4    1    3    3  502    0  0.64205413992E+03  0.40447399456E+03  0.87955196217E+03  0.11616558806E+04  0.00000000000E+00 0.  1.
         -4    1    4    4    0  501  0.23486845120E+02 -0.17724708872E+03  0.57726610355E+03  0.60432136869E+03  0.00000000000E+00 0. -1.
</event>
<event>
 8    1  0.7446554E-006  0.1146066E+04  0.7818608E-02  0.8648322E-01
         -1   -1    0    0    0  501 -0.00000000000E+00  0.00000000000E+00  0.10821417999E+04  0.10821417999E+04  0.00000000000E+00 0. -1.
          1   -1    0    0  502    0  0.00000000000E+00 -0.00000000000E+00 -0.12320378007E+04  0.12320378007E+04  0.00000000000E+00 0.  1.
    9000010    2    1    2  502    0 -0.53874962495E+03 -0.74971311051E+02 -0.21536059125E+03  0.11603869779E+04  0.10021207004E+04 0.  0.
   -9000010    2    1    2    0  501  0.53874962495E+03  0.74971311051E+02  0.65464590384E+02  0.11537926228E+04  0.10154210692E+04 0.  0.
        -13    1    3    3    0    0 -0.49562801328E+03  0.41504784426E+03 -0.89491264765E+02  0.65262587920E+03  0.10566000000E+00 0.  1.
         13    1    4    4    0    0  0.73241474227E+03  0.10720347429E+03 -0.25079333762E+03  0.78155054152E+03  0.10566000000E+00 0. -1.
          4    1    3    3  502    0 -0.43121611672E+02 -0.49001915531E+03 -0.12586932648E+03  0.50776109866E+03  0.00000000000E+00 0.  1.
         -4    1    4    4    0  501 -0.19366511732E+03 -0.32232163241E+02  0.31625792800E+03  0.37224208123E+03  0.00000000000E+00 0. -1.
</event>
<event>
 8    1  0.7446554E-006  0.1132317E+04  0.7818608E-02  0.8659349E-01
         -2   -1    0    0    0  501 -0.00000000000E+00  0.00000000000E+00  0.12499716323E+04  0.12499716323E+04  0.00000000000E+00 0. -1.
          2   -1    0    0  502    0  0.00000000000E+00 -0.00000000000E+00 -0.12794935557E+04  0.12794935557E+04  0.00000000000E+00 0.  1.
    9000010    2    1    2  502    0  0.41297512216E+03 -0.32747963699E+03  0.54842596971E+03  0.12610957025E+04  0.10058826782E+04 0.  0.
   -9000010    2    1    2    0  501 -0.41297512216E+03  0.32747963699E+03 -0.57794789318E+03  0.12683694856E+04  0.99847184264E+03 0.  0.
        -13    1    3    3    0    0 -0.26553466601E+03  0.10672461135E+03 -0.71031426112E+00  0.28618056753E+03  0.10566000000E+00 0.  1.
         13    1    4    4    0    0  0.31743656380E+03  0.20289365332E+03 -0.28156691677E+03  0.47033152816E+03  0.10566000000E+00 0. -1.
          4    1    3    3  502    0  0.67850978817E+03 -0.43420424834E+03  0.54913628397E+03  0.97491513492E+03  0.00000000000E+00 0.  1.
         -4    1    4    4    0  501 -0.73041168595E+03  0.12458598367E+03 -0.29638097641E+03  0.79803795742E+03  0.00000000000E+00 0. -1.
</event>
<event>
 8    1  0.7446554E-006  0.1385132E+04  0.7818608E-02  0.8478836E-01
          2   -1    0    0  502    0  0.00000000000E+00  0.00000000000E+00  0.13564314206E+04  0.13564314206E+04  0.00000000000E+00 0. -1.
         -2   -1    0    0    0  501 -0.00000000000E+00 -0.00000000000E+00 -0.23228472984E+04  0.23228472984E+04  0.00000000000E+00 0.  1.
    9000010    2    1    2  502    0 -0.20910587862E+03 -0.95623350733E+03 -0.16306504119E+04  0.21308410292E+04  0.96091359483E+03 0.  0.
   -9000010    2    1    2    0  501  0.20910587862E+03  0.95623350733E+03  0.66423453411E+03  0.15484376899E+04  0.99917164393E+03 0.  0.
        -13    1    3    3    0    0 -0.40588513850E+03 -0.62460321227E+03 -0.15736318010E+04  0.17410310091E+04  0.10566000000E+00 0.  1.
         13    1    4    4    0    0  0.27168228554E+03  0.73405654585E+03  0.91734032067E+03  0.12058870394E+04  0.10566000000E+00 0. -1.
          4    1    3    3  502    0  0.19677925989E+03 -0.33163029507E+03 -0.57018610877E+02  0.38981002003E+03  0.00000000000E+00 0.  1.
         -4    1    4    4    0  501 -0.62576406919E+02  0.22217696148E+03 -0.25310578655E+03  0.34255065042E+03  0.00000000000E+00 0. -1.
</event>
<event>
 8    1  0.7446554E-006  0.1245418E+04  0.7818608E-02  0.8573125E-01
          2   -1    0    0  502    0  0.00000000000E+00  0.00000000000E+00  0.19806977729E+04  0.19806977729E+04  0.00000000000E+00 0.  1.
         -2   -1    0    0    0  501 -0.00000000000E+00 -0.00000000000E+00 -0.80861278346E+03  0.80861278346E+03  0.00000000000E+00 0. -1.
    9000010    2    1    2  502    0  0.56102927810E+03 -0.48050207975E+03  0.34197037561E+03  0.12990490955E+04  0.10123975084E+04 0.  0.
   -9000010    2    1    2    0  501 -0.56102927810E+03  0.48050207975E+03  0.83011461378E+03  0.14902614608E+04  0.99305228972E+03 0.  0.
        -13    1    3    3    0    0  0.35702213567E+03 -0.77176881121E+03  0.73574394949E+02  0.85352510570E+03  0.10566000000E+00 0.  1.
         13    1    4    4    0    0 -0.73954258878E+02  0.54624385100E+03  0.30998793392E+02  0.55209828248E+03  0.10566000000E+00 0. -1.
          4    1    3    3  502    0  0.20400714243E+03  0.29126673146E+03  0.26839598066E+03  0.44552398976E+03  0.00000000000E+00 0.  1.
         -4    1    4    4    0  501 -0.48707501922E+03 -0.65741771244E+02  0.79911582039E+03  0.93816317836E+03  0.00000000000E+00 0. -1.
</event>
<event>
 8    1  0.7446554E-006  0.1208216E+04  0.7818608E-02  0.8600401E-01
         -2   -1    0    0    0  501 -0.00000000000E+00  0.00000000000E+00  0.10042337460E+04  0.10042337460E+04  0.00000000000E+00 0.  1.
          2   -1    0    0  502    0  0.00000000000E+00 -0.00000000000E+00 -0.15994667489E+04  0.15994667489E+04  0.00000000000E+00 0. -1.
    9000010    2    1    2  502    0  0.28357502976E+03 -0.60741024636E+03  0.96214624193E+02  0.12087234319E+04  0.10011958230E+04 0.  0.
   -9000010    2    1    2    0  501 -0.28357502976E+03  0.60741024636E+03 -0.69144762704E+03  0.13949770630E+04  0.10092072039E+04 0.  0.
        -13    1    3    3    0    0  0.40790604049E+03 -0.82508435941E+03 -0.44065676491E+02  0.92146260533E+03  0.10566000000E+00 0.  1.
         13    1    4    4    0    0 -0.35946654418E+03  0.93213385212E+02  0.15441664617E+03  0.40218085900E+03  0.10566000000E+00 0. -1.
          4    1    3    3  502    0 -0.12433101073E+03  0.21767411304E+03  0.14028030068E+03  0.28726082656E+03  0.00000000000E+00 0.  1.
         -4    1    4    4    0  501  0.75891514421E+02  0.51419686115E+03 -0.84586427321E+03  0.99279620400E+03  0.00000000000E+00 0. -1.
</event>
<event>
 8    1  0.7446554E-006  0.1372188E+04  0.7818608E-02  0.8487080E-01
         -2   -1    0    0    0  501 -0.00000000000E+00  0.00000000000E+00  0.72533853741E+03  0.72533853741E+03  0.00000000000E+00 0. -1.
          2   -1    0    0  502    0  0.00000000000E+00 -0.00000000000E+00 -0.30137763878E+04  0.30137763878E+04  0.00000000000E+00 0.  1.
    9000010    2    1    2  502    0 -0.24229314270E+03  0.91492275040E+03 -0.18361241834E+04  0.22887161949E+04  0.98543401486E+03 0.  0.
   -9000010    2    1    2    0  501  0.24229314270E+03 -0.91492275040E+03 -0.45231366691E+03  0.14503987303E+04  0.10016382667E+04 0.  0.
        -13    1    3    3    0    0 -0.34665610642E+03  0.37615833203E+03 -0.16201193547E+04  0.16989562329E+04  0.10566000000E+00 0.  1.
         13    1    4    4    0    0  0.57915107740E+03 -0.80698467673E+03 -0.19318128145E+03  0.10119087200E+04  0.10566000000E+00 0. -1.
          4    1    3    3  502    0  0.10436296373E+03  0.53876441837E+03 -0.21600482877E+03  0.58975996198E+03  0.00000000000E+00 0.  1.
         -4    1    4    4    0  501 -0.33685793470E+03 -0.10793807367E+03 -0.25913238546E+03  0.43849001028E+03  0.00000000000E+00 0. -1.
</event>
<event>
 8    1  0.7446554E-006  0.1070104E+04  0.7818608E-02  0.8711374E-01
         -2   -1    0    0    0  501 -0.00000000000E+00  0.00000000000E+00  0.13298935239E+04  0.13298935239E+04  0.00000000000E+00 0.  1.
          2   -1    0    0  502    0  0.00000000000E+00 -0.00000000000E+00 -0.86548423753E+03  0.86548423753E+03  0.00000000000E+00 0. -1.
    9000010    2    1    2  502    0  0.13252677218E+03  0.30858630193E+03  0.15695709399E+03  0.10925160559E+04  0.10276998355E+04 0.  0.
   -9000010    2    1    2    0  501 -0.13252677218E+03 -0.30858630193E+03  0.30745219240E+03  0.11028617055E+04  0.10044840665E+04 0.  0.
        -13    1    3    3    0    0 -0.12397498109E+03 -0.34883495347E+03  0.29680408444E+01  0.37022215105E+03  0.10566000000E+00 0.  1.
         13    1    4    4    0    0  0.16328514534E+03 -0.26388408978E+03 -0.29629629705E+03  0.42905519264E+03  0.10566000000E+00 0. -1.
          4    1    3    3  502    0  0.25650175327E+03  0.65742125541E+03  0.15398905315E+03  0.72229390485E+03  0.00000000000E+00 0.  1.
         -4    1    4    4    0  501 -0.29581191752E+03 -0.44702212154E+02  0.60374848944E+03  0.67380651290E+03  0.00000000000E+00 0. -1.
</event>
<event>
 8    1  0.7446554E-006  0.1731700E+04  0.7818608E-02  0.8287354E-01
         -4   -1    0    0    0  501 -0.00000000000E+00  0.00000000000E+00  0.17489210054E+04  0.17489210054E+04  0.00000000000E+00 0.  1.
          4   -1    0    0  502    0  0.00000000000E+00 -0.00000000000E+00 -0.17369234512E+04  0.17369234512E+04  0.00000000000E+00 0. -1.
    9000010    2    1    2  502    0  0.12891024941E+04  0.59738465519E+03 -0.19138040665E+03  0.17422818760E+04  0.99008383929E+03 0.  0.
   -9000010    2    1    2    0  501 -0.12891024941E+04 -0.59738465519E+03  0.20337796092E+03  0.17435625806E+04  0.98994656966E+03 0.  0.
        -13    1    3    3    0    0  0.41304651150E+03  0.63136059617E+03  0.20247024483E+03  0.78116440924E+03  0.10566000000E+00 0.  1.
         13    1    4    4    0    0 -0.81362687675E+03  0.15695098880E+03  0.19759512423E+03  0.85186040625E+03  0.10566000000E+00 0. -1.
          4    1    3    3  502    0  0.87605598264E+03 -0.33975940979E+02 -0.39385065148E+03  0.96111746679E+03  0.00000000000E+00 0.  1.
         -4    1    4    4    0  501 -0.47547561739E+03 -0.75433564399E+03  0.57828366871E+01  0.89170217434E+03  0.00000000000E+00 0. -1.
</event>
<event>
 8    1  0.7446554E-006  0.1617593E+04  0.7818608E-02  0.8344863E-01
          2   -1    0    0  502    0  0.00000000000E+00  0.00000000000E+00  0.52782132752E+04  0.52782132752E+04  0.00000000000E+00 0.  1.
         -2   -1    0    0    0  501 -0.00000000000E+00 -0.00000000000E+00 -0.49597990455E+03  0.49597990455E+03  0.00000000000E+00 0. -1.
    9000010    2    1    2  502    0 -0.30202406551E+03  0.12205508030E+04  0.23221748820E+04  0.28279258277E+04  0.10117833294E+04 0.  0.
   -9000010    2    1    2    0  501  0.30202406551E+03 -0.12205508030E+04  0.24600584887E+04  0.29462673521E+04  0.10235432298E+04 0.  0.
        -13    1    3    3    0    0 -0.41846553986E+03  0.87512385279E+03  0.78427295465E+03  0.12474130207E+04  0.10566000000E+00 0.  1.
         13    1    4    4    0    0 -0.32936832486E+03 -0.63594882171E+03  0.78162284732E+03  0.10601172972E+04  0.10566000000E+00 0. -1.
          4    1    3    3  502    0  0.11644147435E+03  0.34542695022E+03  0.15379019273E+04  0.15805128069E+04  0.00000000000E+00 0.  1.
         -4    1    4    4    0  501  0.63139239037E+03 -0.58460198130E+03  0.16784356414E+04  0.18861500549E+04  0.00000000000E+00 0. -1.
</event>
<event>
 8    1  0.7446554E-006  0.1351205E+04  0.7818608E-02  0.8500645E-01
          2   -1    0    0  502    0  0.00000000000E+00  0.00000000000E+00  0.36736101347E+04  0.36736101347E+04  0.00000000000E+00 0. -1.
         -2   -1    0    0    0  501 -0.00000000000E+00 -0.00000000000E+00 -0.62560060776E+03  0.62560060776E+03  0.00000000000E+00 0.  1.
    9000010    2    1    2  502    0  0.22189521551E+02  0.88986183063E+03  0.56189346367E+03  0.14761241307E+04  0.10348293252E+04 0.  0.
   -9000010    2    1    2    0  501 -0.22189521551E+02 -0.88986183063E+03  0.24861160632E+04  0.28230866117E+04  0.99834787772E+03 0.  0.
        -13    1    3    3    0    0 -0.77461271785E+02  0.10860362221E+04  0.29077507251E+03  0.11269538936E+04  0.10566000000E+00 0.  1.
         13    1    4    4    0    0  0.77537158072E+02 -0.10833001808E+04  0.22697064600E+04  0.25161714406E+04  0.10566000000E+00 0. -1.
          4    1    3    3  502    0  0.99650793336E+02 -0.19617439144E+03  0.27111839116E+03  0.34917023713E+03  0.00000000000E+00 0.  1.
         -4    1    4    4    0  501 -0.99726679623E+02  0.19343835012E+03  0.21640960322E+03  0.30691517116E+03  0.00000000000E+00 0. -1.
</event>
<event>
 8    1  0.7446554E-006  0.2236946E+04  0.7818608E-02  0.8078215E-01
         -2   -1    0    0    0  501 -0.00000000000E+00  0.00000000000E+00  0.22034412616E+04  0.22034412616E+04  0.00000000000E+00 0.  1.
          2   -1    0    0  502    0  0.00000000000E+00 -0.00000000000E+00 -0.37831265622E+04  0.37831265622E+04  0.00000000000E+00 0. -1.
    9000010    2    1    2  502    0  0.13702859412E+04 -0.14530622981E+04 -0.26819321932E+04  0.34913178669E+04  0.10037263354E+04 0.  0.
   -9000010    2    1    2    0  501 -0.13702859412E+04  0.14530622981E+04  0.11022468926E+04  0.24952499570E+04  0.10110640596E+04 0.  0.
        -13    1    3    3    0    0  0.56027889058E+03 -0.22785355435E+03 -0.14614016982E+04  0.15816208813E+04  0.10566000000E+00 0.  1.
         13    1    4    4    0    0 -0.10173824436E+03  0.22216951008E+03  0.61497597425E+03  0.66174422675E+03  0.10566000000E+00 0. -1.
          4    1    3    3  502    0  0.81000705063E+03 -0.12252087438E+04 -0.12205304949E+04  0.19096969856E+04  0.00000000000E+00 0.  1.
         -4    1    4    4    0  501 -0.12685476969E+04  0.12308927880E+04  0.48727091830E+03  0.18335057302E+04  0.00000000000E+00 0. -1.
</event>
<event>
 8    1  0.7446554E-006  0.1151849E+04  0.7818608E-02  0.8643731E-01
         -2   -1    0    0    0  501 -0.00000000000E+00  0.00000000000E+00  0.66379342888E+03  0.66379342888E+03  0.00000000000E+00 0. -1.
          2   -1    0    0  502    0  0.00000000000E+00 -0.00000000000E+00 -0.22406428182E+04  0.22406428182E+04  0.00000000000E+00 0.  1.
    9000010    2    1    2  502    0  0.45290765709E+03  0.34332585790E+03 -0.12662153006E+04  0.17124466665E+04  0.10030824531E+04 0.  0.
   -9000010    2    1    2    0  501 -0.45290765709E+03 -0.34332585790E+03 -0.31063408871E+03  0.11919895805E+04  0.10006735894E+04 0.  0.
        -13    1    3    3    0    0  0.56201222004E+03  0.37192840160E+03 -0.13901341716E+04  0.15448823572E+04  0.10566000000E+00 0.  1.
         13    1    4    4    0    0 -0.12519928722E+02 -0.59266252045E+03  0.10025744552E+02  0.59287953117E+03  0.10566000000E+00 0. -1.
          4    1    3    3  502    0 -0.10910456295E+03 -0.28602543706E+02  0.12391887101E+03  0.16756430931E+03  0.00000000000E+00 0.  1.
         -4    1    4    4    0  501 -0.44038772837E+03  0.24933666255E+03 -0.32065983326E+03  0.59911004937E+03  0.00000000000E+00 0. -1.
</event>
<event>
 7    1  0.7446554E-006  0.1647552E+04  0.7818608E-02  0.8329301E-01
         -2   -1    0    0    0  501 -0.00000000000E+00  0.00000000000E+00  0.70848328249E+03  0.70848328249E+03  0.00000000000E+00 0.  1.
          2   -1    0    0  502    0  0.00000000000E+00 -0.00000000000E+00 -0.38722874610E+04  0.38722874610E+04  0.00000000000E+00 0. -1.
   -9000010    2    1    2    0  501  0.81087957102E+03  0.83586402649E+03 -0.16637874659E+04  0.22700923974E+04  0.10143650286E+04 0.  0.
        -13    1    1    2    0    0 -0.63609635066E+03 -0.88191004002E+03 -0.17144672680E+04  0.20302172076E+04  0.10566000000E+00 0.  1.
         13    1    3    3    0    0  0.71257546750E+03  0.10724596773E+04 -0.14102855224E+04  0.19096698202E+04  0.10566000000E+00 0. -1.
          4    1    1    2  502    0 -0.17478322036E+03  0.46046013535E+02  0.21445055540E+03  0.28046113848E+03  0.00000000000E+00 0.  1.
         -4    1    3    3    0  501  0.98304103516E+02 -0.23659565082E+03 -0.25350194351E+03  0.36042257715E+03  0.00000000000E+00 0. -1.
</event>
<event>
 8    1  0.7446554E-006  0.1445882E+04  0.7818608E-02  0.8441342E-01
         -2   -1    0    0    0  501 -0.00000000000E+00  0.00000000000E+00  0.66151573773E+03  0.66151573773E+03  0.00000000000E+00 0.  1.
          2   -1    0    0  502    0  0.00000000000E+00 -0.00000000000E+00 -0.33932363007E+04  0.33932363007E+04  0.00000000000E+00 0. -1.
    9000010    2    1    2  502    0  0.17126535423E+03  0.10127194651E+04 -0.19141995832E+04  0.24113031665E+04  0.10465612165E+04 0.  0.
   -9000010    2    1    2    0  501 -0.17126535423E+03 -0.10127194651E+04 -0.81752097974E+03  0.16434488719E+04  0.98876241117E+03 0.  0.
        -13    1    3    3    0    0 -0.37766887508E+03  0.98764996320E+02 -0.64286983694E+03  0.75211032576E+03  0.10566000000E+00 0.  1.
         13    1    4    4    0    0  0.33325700806E+03 -0.16480355640E+03 -0.15781750327E+02  0.37211492906E+03  0.10566000000E+00 0. -1.
          4    1    3    3  502    0  0.54893422931E+03  0.91395446876E+03 -0.12713297463E+04  0.16591928408E+04  0.00000000000E+00 0.  1.
         -4    1    4    4    0  501 -0.50452236229E+03 -0.84791590868E+03 -0.80173922941E+03  0.12713339428E+04  0.00000000000E+00 0. -1.
</event>
<event>
 8    1  0.7446554E-006  0.1326833E+04  0.7818608E-02  0.8516722E-01
         -2   -1    0    0    0  501 -0.00000000000E+00  0.00000000000E+00  0.92123952262E+03  0.92123952262E+03  0.00000000000E+00 0.  1.
          2   -1    0    0  502    0  0.00000000000E+00 -0.00000000000E+00 -0.19288315376E+04  0.19288315376E+04  0.00000000000E+00 0. -1.
    9000010    2    1    2  502    0  0.20906703557E+03  0.78048752550E+03 -0.64892494512E+03  0.15121067736E+04  0.11011328293E+04 0.  0.
   -9000010    2    1    2    0  501 -0.20906703557E+03 -0.78048752550E+03 -0.35866706991E+03  0.13379642866E+04  0.10043089975E+04 0.  0.
        -13    1    3    3    0    0  0.42858388765E+03  0.32046631455E+03 -0.81589804344E+03  0.97574199252E+03  0.10566000000E+00 0.  1.
         13    1    4    4    0    0  0.16196051130E+03 -0.27044927404E+03  0.29349098549E+03  0.43070986380E+03  0.10566000000E+00 0. -1.
          4    1    3    3  502    0 -0.21951685207E+03  0.46002121094E+03  0.16697309832E+03  0.53636478112E+03  0.00000000000E+00 0.  1.
         -4    1    4    4    0  501 -0.37102754687E+03 -0.51003825146E+03 -0.65215805541E+03  0.90725442282E+03  0.00000000000E+00 0. -1.
</event>
<event>
 8    1  0.7446554E-006  0.1073549E+04  0.7818608E-02  0.8708398E-01
         -2   -1    0    0    0  501 -0.00000000000E+00  0.00000000000E+00  0.53498681898E+03  0.53498681898E+03  0.00000000000E+00 0. -1.
          2   -1    0    0  502    0  0.00000000000E+00 -0.00000000000E+00 -0.21723841552E+04  0.21723841552E+04  0.00000000000E+00 0.  1.
    9000010    2    1    2  502    0  0.41510576882E+03  0.14025049949E+03 -0.95987111888E+03  0.14647568105E+04  0.10159610953E+04 0.  0.
   -9000010    2    1    2    0  501 -0.41510576882E+03 -0.14025049949E+03 -0.67752621735E+03  0.12426141637E+04  0.94502126046E+03 0.  0.
        -13    1    3    3    0    0  0.47626257211E+03 -0.24168617398E+03 -0.13075092447E+03  0.54984912449E+03  0.10566000000E+00 0.  1.
         13    1    4    4    0    0 -0.60110684437E+03  0.11875734604E+03 -0.15756205366E+03  0.63265990667E+03  0.10566000000E+00 0. -1.
          4    1    3    3  502    0 -0.61156803293E+02  0.38193667347E+03 -0.82912019441E+03  0.91490768601E+03  0.00000000000E+00 0.  1.
         -4    1    4    4    0  501  0.18600107555E+03 -0.25900784552E+03 -0.51996416369E+03  0.60995425703E+03  0.00000000000E+00 0. -1.
</event>
<event>
 8    1  0.7446554E-006  0.2146917E+04  0.7818608E-02  0.8111064E-01
          1   -1    0    0  502    0  0.00000000000E+00  0.00000000000E+00  0.17396169380E+04  0.17396169380E+04  0.00000000000E+00 0. -1.
         -1   -1    0    0    0  501 -0.00000000000E+00 -0.00000000000E+00 -0.31204319968E+04  0.31204319968E+04  0.00000000000E+00 0.  1.
    9000010    2    1    2  502    0 -0.13574598391E+04  0.13406884838E+04 -0.16316186434E+04  0.26887983269E+04  0.96297155701E+03 0.  0.
   -9000010    2    1    2    0  501  0.13574598391E+04 -0.13406884838E+04  0.25080358465E+03  0.21712506079E+04  0.10056261427E+04 0.  0.
        -13    1    3    3    0    0 -0.13684923382E+04  0.80144167566E+03 -0.13366070874E+04  0.20740295457E+04  0.10566000000E+00 0.  1.
         13    1    4    4    0    0  0.14620824685E+04 -0.11222703598E+04  0.29796137988E+02  0.18433837707E+04  0.10566000000E+00 0. -1.
          4    1    3    3  502    0  0.11032499044E+02  0.53924680817E+03 -0.29501155601E+03  0.61476878120E+03  0.00000000000E+00 0.  1.
         -4    1    4    4    0  501 -0.10462262933E+03 -0.21841812400E+03  0.22100744666E+03  0.32786683721E+03  0.00000000000E+00 0. -1.
</event>
<event>
 8    1  0.7446554E-006  0.1258026E+04  0.7818608E-02  0.8564103E-01
          2   -1    0    0  502    0  0.00000000000E+00  0.00000000000E+00  0.28686178453E+04  0.28686178453E+04  0.00000000000E+00 0. -1.
         -2   -1    0    0    0  501 -0.00000000000E+00 -0.00000000000E+00 -0.65517683479E+03  0.65517683479E+03  0.00000000000E+00 0.  1.
    9000010    2    1    2  502    0 -0.23803663789E+02 -0.78497585916E+03  0.18083696841E+04  0.22040488271E+04  0.98533070795E+03 0.  0.
   -9000010    2    1    2    0  501  0.23803663789E+02  0.78497585916E+03  0.40507132643E+03  0.13197458530E+04  0.98025130610E+03 0.  0.
        -13    1    3    3    0    0  0.46278743527E+03 -0.24100443116E+03  0.88105040131E+03  0.10239654129E+04  0.10566000000E+00 0.  1.
         13    1    4    4    0    0  0.10389668446E+03 -0.22030539796E+03  0.37843602834E+02  0.24649774614E+03  0.10566000000E+00 0. -1.
          4    1    3    3  502    0 -0.48659109905E+03 -0.54397142800E+03  0.92731928274E+03  0.11800834141E+04  0.00000000000E+00 0.  1.
         -4    1    4    4    0  501 -0.80093020671E+02  0.10052812571E+04  0.36722772359E+03  0.10732481068E+04  0.00000000000E+00 0. -1.
</event>
<event>
 8    1  0.7446554E-006  0.1221337E+04  0.7818608E-02  0.8590666E-01
         -2   -1    0    0    0  501 -0.00000000000E+00  0.00000000000E+00  0.93467097066E+03  0.93467097066E+03  0.00000000000E+00 0.  1.
          2   -1    0    0  502    0  0.00000000000E+00 -0.00000000000E+00 -0.22668859068E+04  0.22668859068E+04  0.00000000000E+00 0. -1.
    9000010    2    1    2  502    0  0.73570639880E+03  0.11337727465E+03 -0.15286979209E+04  0.19439749672E+04  0.94233912576E+03 0.  0.
   -9000010    2    1    2    0  501 -0.73570639880E+03 -0.11337727465E+03  0.19648298478E+03  0.12575819103E+04  0.99437839182E+03 0.  0.
        -13    1    3    3    0    0  0.79283940236E+03  0.37662863891E+03 -0.88631349459E+03  0.12473953148E+04  0.10566000000E+00 0.  1.
         13    1    4    4    0    0 -0.75278757546E+03 -0.21936248464E+03 -0.23052776427E+03  0.81728336255E+03  0.10566000000E+00 0. -1.
          4    1    3    3  502    0 -0.57133003563E+02 -0.26325136426E+03 -0.64238442634E+03  0.69657965236E+03  0.00000000000E+00 0.  1.
         -4    1    4    4    0  501  0.17081176662E+02  0.10598520999E+03  0.42701074905E+03  0.44029854774E+03  0.00000000000E+00 0. -1.
</event>
<event>
 8    1  0.7446554E-006  0.1405380E+04  0.7818608E-02  0.8466124E-01
          2   -1    0    0  502    0  0.00000000000E+00  0.00000000000E+00  0.14004846939E+04  0.14004846939E+04  0.00000000000E+00 0. -1.
         -2   -1    0    0    0  501 -0.00000000000E+00 -0.00000000000E+00 -0.14196141071E+04  0.14196141071E+04  0.00000000000E+00 0.  1.
    9000010    2    1    2  502    0 -0.97030871413E+03  0.14013824197E+03 -0.12381490035E+03  0.14135234993E+04  0.10107328163E+04 0.  0.
   -9000010    2    1    2    0  501  0.97030871413E+03 -0.14013824197E+03  0.10468548713E+03  0.14065753016E+04  0.10031736142E+04 0.  0.
        -13    1    3    3    0    0 -0.91623622961E+03  0.42862169462E+03  0.13713265727E+03  0.10207892840E+04  0.10566000000E+00 0.  1.
         13    1    4    4    0    0  0.51738231608E+03  0.29810012344E+03  0.39163434802E+03  0.71409076334E+03  0.10566000000E+00 0. -1.
          4    1    3    3  502    0 -0.54072484518E+02 -0.28848345265E+03 -0.26094755762E+03  0.39273421529E+03  0.00000000000E+00 0.  1.
         -4    1    4    4    0  501  0.45292639806E+03 -0.43823836542E+03 -0.28694886089E+03  0.69248453827E+03  0.00000000000E+00 0. -1.
</event>
<event>
 8    1  0.7446554E-006  0.1164312E+04  0.7818608E-02  0.8633932E-01
          2   -1    0    0  502    0  0.00000000000E+00  0.00000000000E+00  0.43613380851E+04  0.43613380851E+04  0.00000000000E+00 0.  1.
         -2   -1    0    0    0  501 -0.00000000000E+00 -0.00000000000E+00 -0.31460201003E+03  0.31460201003E+03  0.00000000000E+00 0. -1.
    9000010    2    1    2  502    0 -0.33570515630E+03 -0.43860726574E+03  0.22352925214E+04  0.25098050803E+04  0.99875652669E+03 0.  0.
   -9000010    2    1    2    0  501  0.33570515630E+03  0.43860726574E+03  0.18114435537E+04  0.21661350148E+04  0.10515411873E+04 0.  0.
        -13    1    3    3    0    0 -0.59079553757E+03 -0.91805187272E+02  0.18036668158E+04  0.19001793476E+04  0.10566000000E+00 0.  1.
         13    1    4    4    0    0 -0.99643194720E+02  0.36184906582E+03  0.16552841374E+04  0.16973005330E+04  0.10566000000E+00 0. -1.
          4    1    3    3  502    0  0.25509038127E+03 -0.34680207847E+03  0.43162570559E+03  0.60962573270E+03  0.00000000000E+00 0.  1.
         -4    1    4    4    0  501  0.43534835102E+03  0.76758199915E+02  0.15615941627E+03  0.46883448175E+03  0.00000000000E+00 0. -1.
</event>
<event>
 8    1  0.7446554E-006  0.1381116E+04  0.7818608E-02  0.8481384E-01
         -2   -1    0    0    0  501 -0.00000000000E+00  0.00000000000E+00  0.25753304265E+04  0.25753304265E+04  0.00000000000E+00 0. -1.
          2   -1    0    0  502    0  0.00000000000E+00 -0.00000000000E+00 -0.74200525674E+03  0.74200525674E+03  0.00000000000E+00 0.  1.
    9000010    2    1    2  502    0  0.55195575819E+03  0.84639944747E+03  0.99588831408E+03  0.17324564190E+04  0.99426582260E+03 0.  0.
   -9000010    2    1    2    0  501 -0.55195575819E+03 -0.84639944747E+03  0.83743685564E+03  0.15848792642E+04  0.88853509283E+03 0.  0.
        -13    1    3    3    0    0  0.46649942463E+02  0.50771859011E+03 -0.60508452767E+02  0.51343516426E+03  0.10566000000E+00 0.  1.
         13    1    4    4    0    0 -0.14434600062E+03  0.18609244139E+03  0.14395733328E+03  0.27602516118E+03  0.10566000000E+00 0. -1.
          4    1    3    3  502    0  0.50530581573E+03  0.33868085736E+03  0.10563967668E+04  0.12190212548E+04  0.00000000000E+00 0.  1.
         -4    1    4    4    0  501 -0.40760975757E+03 -0.10324918889E+04  0.69347952236E+03  0.13088541030E+04  0.00000000000E+00 0. -1.
</event>
<event>
 8    1  0.7446554E-006  0.1523581E+04  0.7818608E-02  0.8396056E-01
         -1   -1    0    0    0  501 -0.00000000000E+00  0.00000000000E+00  0.14017031808E+04  0.14017031808E+04  0.00000000000E+00 0. -1.
          1   -1    0    0  502    0  0.00000000000E+00 -0.00000000000E+00 -0.17382838243E+04  0.17382838243E+04  0.00000000000E+00 0.  1.
    9000010    2    1    2  502    0 -0.11429244600E+04  0.15449883516E+03 -0.50965345391E+03  0.16056601048E+04  0.99410840347E+03 0.  0.
   -9000010    2    1    2    0  501  0.11429244600E+04 -0.15449883516E+03  0.17307281036E+03  0.15343269003E+04  0.99702488835E+03 0.  0.
        -13    1    3    3    0    0 -0.28073901637E+03  0.11702328092E+03  0.29646116947E+03  0.42473295111E+03  0.10566000000E+00 0.  1.
         13    1    4    4    0    0 -0.33677565894E+02  0.13046733614E+03  0.28830282312E+03  0.31823644233E+03  0.10566000000E+00 0. -1.
          4    1    3    3  502    0 -0.86218544364E+03  0.37475554238E+02 -0.80611462338E+03  0.11809271537E+04  0.00000000000E+00 0.  1.
         -4    1    4    4    0  501  0.11766020259E+04 -0.28496617131E+03 -0.11523001276E+03  0.12160904580E+04  0.00000000000E+00 0. -1.
</event>
<event>
 8    1  0.7446554E-006  0.1677688E+04  0.7818608E-02  0.8313987E-01
          2   -1    0    0  502    0  0.00000000000E+00  0.00000000000E+00  0.27504354718E+04  0.27504354718E+04  0.00000000000E+00 0.  1.
         -2   -1    0    0    0  501 -0.00000000000E+00 -0.00000000000E+00 -0.10730654087E+04  0.10730654087E+04  0.00000000000E+00 0. -1.
    9000010    2    1    2  502    0 -0.13063549566E+04  0.32250761484E+03  0.12505593623E+04  0.20930873873E+04  0.10032654972E+04 0.  0.
   -9000010    2    1    2    0  501  0.13063549566E+04 -0.32250761484E+03  0.42681070085E+03  0.17304134932E+04  0.10007942090E+04 0.  0.
        -13    1    3    3    0    0 -0.49997932256E+03 -0.21096379447E+03  0.92582473382E+03  0.10731432777E+04  0.10566000000E+00 0.  1.
         13    1    4    4    0    0  0.13589525202E+04 -0.36216853512E+03  0.11428495102E+03  0.14110205744E+04  0.10566000000E+00 0. -1.
          4    1    3    3  502    0 -0.80637563408E+03  0.53347140931E+03  0.32473462847E+03  0.10199441096E+04  0.00000000000E+00 0.  1.
         -4    1    4    4    0  501 -0.52597563604E+02  0.39660920275E+02  0.31252574983E+03  0.31939291883E+03  0.00000000000E+00 0. -1.
</event>
<event>
 8    1  0.7446554E-006  0.1108720E+04  0.7818608E-02  0.8678662E-01
          2   -1    0    0  502    0  0.00000000000E+00  0.00000000000E+00  0.14593538497E+04  0.14593538497E+04  0.00000000000E+00 0. -1.
         -2   -1    0    0    0  501 -0.00000000000E+00 -0.00000000000E+00 -0.86065476160E+03  0.86065476160E+03  0.00000000000E+00 0.  1.
    9000010    2    1    2  502    0  0.19786838421E+03  0.42928152317E+03  0.46933097173E+03  0.12065973495E+04  0.10060671346E+04 0.  0.
   -9000010    2    1    2    0  501 -0.19786838421E+03 -0.42928152317E+03  0.12936811638E+03  0.11134112618E+04  0.99975697281E+03 0.  0.
        -13    1    3    3    0    0  0.61137634850E+03  0.24534009831E+03  0.29044687542E+03  0.71995291648E+03  0.10566000000E+00 0.  1.
         13    1    4    4    0    0 -0.14885832655E+02 -0.56731617408E+03  0.44651254127E+03  0.72210988780E+03  0.10566000000E+00 0. -1.
          4    1    3    3  502    0 -0.41350796429E+03  0.18394142486E+03  0.17888409631E+03  0.48664443306E+03  0.00000000000E+00 0.  1.
         -4    1    4    4    0  501 -0.18298255156E+03  0.13803465091E+03 -0.31714442489E+03  0.39130137396E+03  0.00000000000E+00 0. -1.
</event>
<event>
 8    1  0.7446554E-006  0.1212394E+04  0.7818608E-02  0.8597287E-01
          2   -1    0    0  502    0  0.00000000000E+00  0.00000000000E+00  0.80400239110E+03  0.80400239110E+03  0.00000000000E+00 0.  1.
         -2   -1    0    0    0  501 -0.00000000000E+00 -0.00000000000E+00 -0.18393133022E+04  0.18393133022E+04  0.00000000000E+00 0. -1.
    9000010    2    1    2  502    0 -0.69149119574E+03 -0.14764850521E+03 -0.41138297249E+03  0.12708470990E+04  0.97255140948E+03 0.  0.
   -9000010    2    1    2    0  501  0.69149119574E+03  0.14764850521E+03 -0.62392793865E+03  0.13724685944E+04  0.99720800989E+03 0.  0.
        -13    1    3    3    0    0 -0.32285003033E+03 -0.44298241688E+02 -0.71268239221E+03  0.78365214198E+03  0.10566000000E+00 0.  1.
         13    1    4    4    0    0  0.80743504061E+03 -0.11437193849E+03 -0.70141767303E+03  0.10756481991E+04  0.10566000000E+00 0. -1.
          4    1    3    3  502    0 -0.36864116541E+03 -0.10335026352E+03  0.30129941972E+03  0.48719495700E+03  0.00000000000E+00 0.  1.
         -4    1    4    4    0  501 -0.11594384488E+03  0.26202044370E+03  0.77489734373E+02  0.29682039521E+03  0.00000000000E+00 0. -1.
</event>
<event>
 8    1  0.7446554E-006  0.1187668E+04  0.7818608E-02  0.8615907E-01
         -2   -1    0    0    0  501 -0.00000000000E+00  0.00000000000E+00  0.10001740921E+04  0.10001740921E+04  0.00000000000E+00 0.  1.
          2   -1    0    0  502    0  0.00000000000E+00 -0.00000000000E+00 -0.14406189709E+04  0.14406189709E+04  0.00000000000E+00 0. -1.
    9000010    2    1    2  502    0  0.68222839740E+03 -0.14753569797E+03 -0.39024610980E+03  0.12250585916E+04  0.92804857531E+03 0.  0.
   -9000010    2    1    2    0  501 -0.68222839740E+03  0.14753569797E+03 -0.50198769047E+02  0.12157344715E+04  0.99412676270E+03 0.  0.
        -13    1    3    3    0    0 -0.86217767939E+02  0.14365486100E+03  0.16352572719E+03  0.23411727236E+03  0.10566000000E+00 0.  1.
         13    1    4    4    0    0 -0.69311219989E+03 -0.91183782764E+02 -0.38985203936E+03  0.80043964647E+03  0.10566000000E+00 0. -1.
          4    1    3    3  502    0  0.76844616534E+03 -0.29119055897E+03 -0.55377183699E+03  0.99094131920E+03  0.00000000000E+00 0.  1.
         -4    1    4    4    0  501  0.10883802490E+02  0.23871948073E+03  0.33965327032E+03  0.41529482500E+03  0.00000000000E+00 0. -1.
</event>
<event>
 8    1  0.7446554E-006  0.1113646E+04  0.7818608E-02  0.8674590E-01
         -2   -1    0    0    0  501 -0.00000000000E+00  0.00000000000E+00  0.17814128324E+04  0.17814128324E+04  0.00000000000E+00 0. -1.
          2   -1    0    0  502    0  0.00000000000E+00 -0.00000000000E+00 -0.70393700834E+03  0.70393700834E+03  0.00000000000E+00 0.  1.
    9000010    2    1    2  502    0  0.11584528973E+02 -0.48738923983E+03  0.40886929200E+03  0.11872480141E+04  0.10023478821E+04 0.  0.
   -9000010    2    1    2    0  501 -0.11584528973E+02  0.48738923983E+03  0.66860653207E+03  0.12981018266E+04  0.10001755772E+04 0.  0.
        -13    1    3    3    0    0  0.35782358256E+03  0.11896851440E+03  0.29720475935E+03  0.48012696634E+03  0.10566000000E+00 0.  1.
         13    1    4    4    0    0 -0.15817449631E+03  0.57438576521E+03 -0.12591298985E+02  0.59589993332E+03  0.10566000000E+00 0. -1.
          4    1    3    3  502    0 -0.34623905359E+03 -0.60635775424E+03  0.11166453265E+03  0.70712104777E+03  0.00000000000E+00 0.  1.
         -4    1    4    4    0  501  0.14658996733E+03 -0.86996525375E+02  0.68119783105E+03  0.70220189332E+03  0.00000000000E+00 0. -1.
</event>
<event>
 8    1  0.7446554E-006  0.1636918E+04  0.7818608E-02  0.8334785E-01
         -2   -1    0    0    0  501 -0.00000000000E+00  0.00000000000E+00  0.18152314195E+04  0.18152314195E+04  0.00000000000E+00 0.  1.
          2   -1    0    0  502    0  0.00000000000E+00 -0.00000000000E+00 -0.14810465034E+04  0.14810465034E+04  0.00000000000E+00 0. -1.
    9000010    2    1    2  502    0 -0.12420056882E+04 -0.41403616151E+03  0.25994978844E+03  0.16448146986E+04  0.96116462044E+03 0.  0.
   -9000010    2    1    2    0  501  0.12420056882E+04  0.41403616151E+03  0.74235127686E+02  0.16514632243E+04  0.10039003209E+04 0.  0.
        -13    1    3    3    0    0 -0.94606544916E+03 -0.11216473054E+03 -0.24753481911E+03  0.98432426502E+03  0.10566000000E+00 0.  1.
         13    1    4    4    0    0  0.11319342189E+04  0.38404121583E+01 -0.19499040353E+03  0.11486126821E+04  0.10566000000E+00 0. -1.
          4    1    3    3  502    0 -0.29594023903E+03 -0.30187143097E+03  0.50748460754E+03  0.66049043355E+03  0.00000000000E+00 0.  1.
         -4    1    4    4    0  501  0.11007146927E+03  0.41019574936E+03  0.26922553121E+03  0.50285054220E+03  0.00000000000E+00 0. -1.
</event>
<event>
 8    1  0.7446554E-006  0.1478276E+04  0.7818608E-02  0.8422112E-01
         -2   -1    0    0    0  501 -0.00000000000E+00  0.00000000000E+00  0.13295890437E+04  0.13295890437E+04  0.00000000000E+00 0.  1.
          2   -1    0    0  502    0  0.00000000000E+00 -0.00000000000E+00 -0.17137307287E+04  0.17137307287E+04  0.00000000000E+00 0. -1.
    9000010    2    1    2  502    0 -0.39751360315E+03  0.10380274677E+04 -0.49996392195E+03  0.15609282641E+04  0.97519999685E+03 0.  0.
   -9000010    2    1    2    0  501  0.39751360315E+03 -0.10380274677E+04  0.11582223696E+03  0.14823915083E+04  0.97393619139E+03 0.  0.
        -13    1    3    3    0    0 -0.21868880169E+03  0.10043579353E+04 -0.73503276308E+03  0.12636585093E+04  0.10566000000E+00 0.  1.
         13    1    4    4    0    0  0.58653733193E+03 -0.10780282752E+04  0.24299218759E+03  0.12510860155E+04  0.10566000000E+00 0. -1.
          4    1    3    3  502    0 -0.17882480146E+03  0.33669532444E+02  0.23506884113E+03  0.29726975477E+03  0.00000000000E+00 0.  1.
         -4    1    4    4    0  501 -0.18902372878E+03  0.40000807486E+02 -0.12716995062E+03  0.23130549277E+03  0.00000000000E+00 0. -1.
</event>
<event>
 8    1  0.7446554E-006  0.1306776E+04  0.7818608E-02  0.8530222E-01
         -2   -1    0    0    0  501 -0.00000000000E+00  0.00000000000E+00  0.98665263805E+03  0.98665263805E+03  0.00000000000E+00 0.  1.
          2   -1    0    0  502    0  0.00000000000E+00 -0.00000000000E+00 -0.17957283152E+04  0.17957283152E+04  0.00000000000E+00 0. -1.
    9000010    2    1    2  502    0  0.81224252650E+03  0.20916532273E+03 -0.14618353702E+03  0.13334452512E+04  0.10262643701E+04 0.  0.
   -9000010    2    1    2    0  501 -0.81224252650E+03 -0.20916532273E+03 -0.66289214010E+03  0.14489357020E+04  0.97800849954E+03 0.  0.
        -13    1    3    3    0    0  0.94405997970E+03  0.23228042766E+03  0.17286591441E+03  0.98746446917E+03  0.10566000000E+00 0.  1.
         13    1    4    4    0    0 -0.93579468289E+03  0.12853920250E+01 -0.73997671694E+03  0.11930125287E+04  0.10566000000E+00 0. -1.
          4    1    3    3  502    0 -0.13181745320E+03 -0.23115104938E+02 -0.31904945143E+03  0.34598078199E+03  0.00000000000E+00 0.  1.
         -4    1    4    4    0  501  0.12355215639E+03 -0.21045071475E+03  0.77084576845E+02  0.25592317339E+03  0.00000000000E+00 0. -1.
</event>
<event>
 8    1  0.7446554E-006  0.1404785E+04  0.7818608E-02  0.8466494E-01
          2   -1    0    0  502    0  0.00000000000E+00  0.00000000000E+00  0.23453258536E+04  0.23453258536E+04  0.00000000000E+00 0. -1.
         -2   -1    0    0    0  501 -0.00000000000E+00 -0.00000000000E+00 -0.86521832588E+03  0.86521832588E+03  0.00000000000E+00 0.  1.
    9000010    2    1    2  502    0  0.41993346544E+03  0.89969850771E+03  0.10051312021E+04  0.17255891210E+04  0.99074091504E+03 0.  0.
   -9000010    2    1    2    0  501 -0.41993346544E+03 -0.89969850771E+03  0.47497632557E+03  0.14849550585E+04  0.99683875111E+03 0.  0.
        -13    1    3    3    0    0 -0.81143333103E+02  0.48211283024E+03  0.95318898818E+03  0.10712545356E+04  0.10566000000E+00 0.  1.
         13    1    4    4    0    0 -0.86843346559E+02 -0.35273498056E+03  0.71424072617E+03  0.80131364611E+03  0.10566000000E+00 0. -1.
          4    1    3    3  502    0  0.50107679854E+03  0.41758567746E+03  0.51942213928E+02  0.65433458540E+03  0.00000000000E+00 0.  1.
         -4    1    4    4    0  501 -0.33309011888E+03 -0.54696352715E+03 -0.23926440060E+03  0.68364141238E+03  0.00000000000E+00 0. -1.
</event>
<event>
 8    1  0.7446554E-006  0.1351718E+04  0.7818608E-02  0.8500310E-01
         -1   -1    0    0    0  501 -0.00000000000E+00  0.00000000000E+00  0.66847494544E+03  0.66847494544E+03  0.00000000000E+00 0.  1.
          1   -1    0    0  502    0  0.00000000000E+00 -0.00000000000E+00 -0.27485910495E+04  0.27485910495E+04  0.00000000000E+00 0. -1.
    9000010    2    1    2  502    0 -0.43285002860E+03 -0.79617816667E+03 -0.90929869272E+03  0.16253732514E+04  0.99687274684E+03 0.  0.
   -9000010    2    1    2    0  501  0.43285002860E+03  0.79617816667E+03 -0.11708174113E+04  0.17916927436E+04  0.10090047851E+04 0.  0.
        -13    1    3    3    0    0  0.13350634004E+03  0.26348859039E+02  0.12704309311E+03  0.18616703219E+03  0.10566000000E+00 0.  1.
         13    1    4    4    0    0  0.15846710321E+03 -0.21295529181E+03 -0.44696011084E+03  0.51984144790E+03  0.10566000000E+00 0. -1.
          4    1    3    3  502    0 -0.56635636864E+03 -0.82252702571E+03 -0.10363417858E+04  0.14392062192E+04  0.00000000000E+00 0.  1.
         -4    1    4    4    0  501  0.27438292539E+03  0.10091334585E+04 -0.72385730051E+03  0.12718512957E+04  0.00000000000E+00 0. -1.
</event>
<event>
 8    1  0.7446554E-006  0.1401875E+04  0.7818608E-02  0.8468308E-01
         -1   -1    0    0    0  501 -0.00000000000E+00  0.00000000000E+00  0.16814022948E+04  0.16814022948E+04  0.00000000000E+00 0. -1.
          1   -1    0    0  502    0  0.00000000000E+00 -0.00000000000E+00 -0.12160886843E+04  0.12160886843E+04  0.00000000000E+00 0.  1.
    9000010    2    1    2  502    0  0.51621794654E+03 -0.81700270847E+03  0.51542013755E+03  0.14793997915E+04  0.99448048297E+03 0.  0.
   -9000010    2    1    2    0  501 -0.51621794654E+03  0.81700270847E+03 -0.50106527057E+02  0.14180911875E+04  0.10365797404E+04 0.  0.
        -13    1    3    3    0    0  0.64141336255E+03 -0.95048573654E+02  0.30817802708E+03  0.71792690474E+03  0.10566000000E+00 0.  1.
         13    1    4    4    0    0 -0.44029241811E+02  0.49086424106E+03  0.44208495466E+03  0.66206147418E+03  0.10566000000E+00 0. -1.
          4    1    3    3  502    0 -0.12519541600E+03 -0.72195413482E+03  0.20724211046E+03  0.76147288679E+03  0.00000000000E+00 0.  1.
         -4    1    4    4    0  501 -0.47218870473E+03  0.32613846741E+03 -0.49219148172E+03  0.75602971336E+03  0.00000000000E+00 0. -1.
</event>
<event>
 8    1  0.7446554E-006  0.1735666E+04  0.7818608E-02  0.8285438E-01
          1   -1    0    0  502    0  0.00000000000E+00  0.00000000000E+00  0.29680385310E+04  0.29680385310E+04  0.00000000000E+00 0. -1.
         -1   -1    0    0    0  501 -0.00000000000E+00 -0.00000000000E+00 -0.10187073176E+04  0.10187073176E+04  0.00000000000E+00 0.  1.
    9000010    2    1    2  502    0 -0.85496677812E+03 -0.11312122220E+04  0.84781874334E+03  0.19197491345E+04  0.97776829315E+03 0.  0.
   -9000010    2    1    2    0  501  0.85496677812E+03  0.11312122220E+04  0.11015124700E+04  0.20669967140E+04  0.10239806694E+04 0.  0.
        -13    1    3    3    0    0  0.60943095983E+02 -0.70851773053E+03  0.29967414656E+03  0.77169685803E+03  0.10566000000E+00 0.  1.
         13    1    4    4    0    0  0.64644084874E+03  0.10832187408E+04  0.38451300454E+03  0.13187489803E+04  0.10566000000E+00 0. -1.
          4    1    3    3  502    0 -0.91590987410E+03 -0.42269449148E+03  0.54814459678E+03  0.11480522765E+04  0.00000000000E+00 0.  1.
         -4    1    4    4    0  501  0.20852592938E+03  0.47993481219E+02  0.71699946549E+03  0.74824773369E+03  0.00000000000E+00 0. -1.
</event>
<event>
 8    1  0.7446554E-006  0.1237548E+04  0.7818608E-02  0.8578812E-01
         -2   -1    0    0    0  501 -0.00000000000E+00  0.00000000000E+00  0.44646676623E+03  0.44646676623E+03  0.00000000000E+00 0.  1.
          2   -1    0    0  502    0  0.00000000000E+00 -0.00000000000E+00 -0.34304723334E+04  0.34304723334E+04  0.00000000000E+00 0. -1.
    9000010    2    1    2  502    0  0.57121753553E+03 -0.45414351836E+03 -0.14768512474E+04  0.19252700371E+04  0.99651357278E+03 0.  0.
   -9000010    2    1    2    0  501 -0.57121753553E+03  0.45414351836E+03 -0.15071543198E+04  0.19516690625E+04  0.10024780186E+04 0.  0.
        -13    1    3    3    0    0  0.81812260692E+03 -0.15404176583E+03 -0.11357826981E+04  0.14082101455E+04  0.10566000000E+00 0.  1.
         13    1    4    4    0    0 -0.98555837190E+02  0.61402953276E+03 -0.40585449042E+03  0.74260581650E+03  0.10566000000E+00 0. -1.
          4    1    3    3  502    0 -0.24690507139E+03 -0.30010175254E+03 -0.34106854930E+03  0.51705989158E+03  0.00000000000E+00 0.  1.
         -4    1    4    4    0  501 -0.47266169834E+03 -0.15988601440E+03 -0.11012998293E+04  0.12090632460E+04  0.00000000000E+00 0. -1.
</event>
<event>
 8    1  0.7446554E-006  0.1441853E+04  0.7818608E-02  0.8443770E-01
         -1   -1    0    0    0  501 -0.00000000000E+00  0.00000000000E+00  0.15140958688E+04  0.15140958688E+04  0.00000000000E+00 0.  1.
          1   -1    0    0  502    0  0.00000000000E+00 -0.00000000000E+00 -0.16157810916E+04  0.16157810916E+04  0.00000000000E+00 0. -1.
    9000010    2    1    2  502    0 -0.70765488002E+03 -0.76819336816E+03 -0.65751613664E+03  0.15894042395E+04  0.10014898335E+04 0.  0.
   -9000010    2    1    2    0  501  0.70765488002E+03  0.76819336816E+03  0.55583091385E+03  0.15404727209E+04  0.98651493595E+03 0.  0.
        -13    1    3    3    0    0 -0.55323276369E+03  0.91562304448E+01 -0.56612838803E+03  0.79161334645E+03  0.10566000000E+00 0.  1.
         13    1    4    4    0    0  0.28381439731E+03  0.31406793519E+03  0.77391402444E+03  0.88211802409E+03  0.10566000000E+00 0. -1.
          4    1    3    3  502    0 -0.15442211632E+03 -0.77734959860E+03 -0.91387748612E+02  0.79779089306E+03  0.00000000000E+00 0.  1.
         -4    1    4    4    0  501  0.42384048271E+03  0.45412543297E+03 -0.21808311058E+03  0.65835469678E+03  0.00000000000E+00 0. -1.
</event>
<event>
 8    1  0.7446554E-006  0.1225586E+04  0.7818608E-02  0.8587541E-01
         -4   -1    0    0    0  501 -0.00000000000E+00  0.00000000000E+00  0.14801751026E+04  0.14801751026E+04  0.00000000000E+00 0. -1.
          4   -1    0    0  502    0  0.00000000000E+00 -0.00000000000E+00 -0.10985440545E+04  0.10985440545E+04  0.00000000000E+00 0.  1.
    9000010    2    1    2  502    0  0.54597010509E+03 -0.44251573676E+03 -0.16771157190E+03  0.12142762701E+04  0.97592835590E+03 0.  0.
   -9000010    2    1    2    0  501 -0.54597010509E+03  0.44251573676E+03  0.54934262006E+03  0.13644428870E+04  0.10324841620E+04 0.  0.
        -13    1    3    3    0    0  0.62331636850E+03 -0.27235936157E+03 -0.49232683467E+03  0.83969556411E+03  0.10566000000E+00 0.  1.
         13    1    4    4    0    0 -0.25833337328E+03  0.76083815882E+03  0.25067503575E+03  0.84169401826E+03  0.10566000000E+00 0. -1.
          4    1    3    3  502    0 -0.77346263410E+02 -0.17015637519E+03  0.32461526277E+03  0.37458070600E+03  0.00000000000E+00 0.  1.
         -4    1    4    4    0  501 -0.28763673181E+03 -0.31832242206E+03  0.29866758431E+03  0.52274886876E+03  0.00000000000E+00 0. -1.
</event>
<event>
 8    1  0.7446554E-006  0.1763732E+04  0.7818608E-02  0.8272027E-01
         -2   -1    0    0    0  501 -0.00000000000E+00  0.00000000000E+00  0.14082503776E+04  0.14082503776E+04  0.00000000000E+00 0.  1.
          2   -1    0    0  502    0  0.00000000000E+00 -0.00000000000E+00 -0.22562740547E+04  0.22562740547E+04  0.00000000000E+00 0. -1.
    9000010    2    1    2  502    0  0.63651455993E+03 -0.12991832638E+04 -0.68896902667E+03  0.18919185533E+04  0.10058079115E+04 0.  0.
   -9000010    2    1    2    0  501 -0.63651455993E+03  0.12991832638E+04 -0.15905465048E+03  0.17726058790E+04  0.10118326356E+04 0.  0.
        -13    1    3    3    0    0 -0.17056799416E+03 -0.84349518025E+01 -0.25868368987E+03  0.30997072703E+03  0.10566000000E+00 0.  1.
         13    1    4    4    0    0  0.15234511528E+03  0.79133963713E+03 -0.21080858260E+03  0.83298722986E+03  0.10566000000E+00 0. -1.
          4    1    3    3  502    0  0.80708255409E+03 -0.12907483120E+04 -0.43028533679E+03  0.15819478263E+04  0.00000000000E+00 0.  1.
         -4    1    4    4    0  501 -0.78885967521E+03  0.50784362668E+03  0.51753932115E+02  0.93961864915E+03  0.00000000000E+00 0. -1.
</event>
<event>
 8    1  0.7446554E-006  0.1519512E+04  0.7818608E-02  0.8398358E-01
         -2   -1    0    0    0  501 -0.00000000000E+00  0.00000000000E+00  0.11437798211E+04  0.11437798211E+04  0.00000000000E+00 0. -1.
          2   -1    0    0  502    0  0.00000000000E+00 -0.00000000000E+00 -0.24973630050E+04  0.24973630050E+04  0.00000000000E+00 0.  1.
    9000010    2    1    2  502    0  0.83692879477E+03  0.78194522638E+03 -0.14744214474E+04  0.21183978179E+04  0.10009008772E+04 0.  0.
   -9000010    2    1    2    0  501 -0.83692879477E+03 -0.78194522638E+03  0.12083826352E+03  0.15227450081E+04  0.99612365160E+03 0.  0.
        -13    1    3    3    0    0 -0.13949989776E+03  0.68430312829E+02  0.58361371276E+02  0.16597888423E+03  0.10566000000E+00 0.  1.
         13    1    4    4    0    0 -0.34294856911E+03 -0.59024448259E+03 -0.39044768285E+03  0.78641698512E+03  0.10566000000E+00 0. -1.
          4    1    3    3  502    0  0.97642869253E+03  0.71351491355E+03 -0.15327828187E+04  0.19524189337E+04  0.00000000000E+00 0.  1.
         -4    1    4    4    0  501 -0.49398022566E+03 -0.19170074379E+03  0.51128594637E+03  0.73632802300E+03  0.00000000000E+00 0. -1.
</event>
<event>
 8    1  0.7446554E-006  0.1260136E+04  0.7818608E-02  0.8562604E-01
         -2   -1    0    0    0  501 -0.00000000000E+00  0.00000000000E+00  0.52381227144E+03  0.52381227144E+03  0.00000000000E+00 0. -1.
          2   -1    0    0  502    0  0.00000000000E+00 -0.00000000000E+00 -0.30400113186E+04  0.30400113186E+04  0.00000000000E+00 0.  1.
    9000010    2    1    2  502    0  0.21383532998E+03 -0.70587258940E+03 -0.13200024108E+04  0.18076949059E+04  0.99064264363E+03 0.  0.
   -9000010    2    1    2    0  501 -0.21383532998E+03  0.70587258940E+03 -0.11961966363E+04  0.17561286841E+04  0.10531476163E+04 0.  0.
        -13    1    3    3    0    0  0.50260930730E+03 -0.68419581733E+03 -0.62330214229E+03  0.10532072939E+04  0.10566000000E+00 0.  1.
         13    1    4    4    0    0  0.38285530598E+03  0.37567302307E+02 -0.43303619403E+03  0.57923211584E+03  0.10566000000E+00 0. -1.
          4    1    3    3  502    0 -0.28877397732E+03 -0.21676772072E+02 -0.69670026855E+03  0.75448761197E+03  0.00000000000E+00 0.  1.
         -4    1    4    4    0  501 -0.59669063596E+03  0.66830528709E+03 -0.76316044230E+03  0.11768965683E+04  0.00000000000E+00 0. -1.
</event>
<event>
 8    1  0.7446554E-006  0.1399607E+04  0.7818608E-02  0.8469726E-01
         -2   -1    0    0    0  501 -0.00000000000E+00  0.00000000000E+00  0.10981549202E+04  0.10981549202E+04  0.00000000000E+00 0.  1.
          2   -1    0    0  502    0  0.00000000000E+00 -0.00000000000E+00 -0.18475957573E+04  0.18475957573E+04  0.00000000000E+00 0. -1.
    9000010    2    1    2  502    0 -0.35716377095E+03 -0.89524458900E+03 -0.99136810374E+02  0.13952604717E+04  0.10039396612E+04 0.  0.
   -9000010    2    1    2    0  501  0.35716377095E+03  0.89524458900E+03 -0.65030402674E+03  0.15504902058E+04  0.10257171724E+04 0.  0.
        -13    1    3    3    0    0  0.64425328298E+02 -0.53261438555E+03  0.38306657206E+03  0.65921826159E+03  0.10566000000E+00 0.  1.
         13    1    4    4    0    0 -0.18528999876E+03  0.35858153359E+03 -0.67562497042E+03  0.78700839366E+03  0.10566000000E+00 0. -1.
          4    1    3    3  502    0 -0.42158909924E+03 -0.36263020346E+03 -0.48220338243E+03  0.73604221013E+03  0.00000000000E+00 0.  1.
         -4    1    4    4    0  501  0.54245376971E+03  0.53666305542E+03  0.25320943679E+02  0.76348181216E+03  0.00000000000E+00 0. -1.
</event>
<event>
 8    1  0.7446554E-006  0.1415291E+04  0.7818608E-02  0.8459981E-01
          2   -1    0    0  502    0  0.00000000000E+00  0.00000000000E+00  0.35216562884E+04  0.35216562884E+04  0.00000000000E+00 0.  1.
         -2   -1    0    0    0  501 -0.00000000000E+00 -0.00000000000E+00 -0.68127608137E+03  0.68127608137E+03  0.00000000000E+00 0. -1.
    9000010    2    1    2  502    0  0.99522173646E+03  0.11250626360E+03  0.22819544201E+04  0.26902330214E+04  0.10133675394E+04 0.  0.
   -9000010    2    1    2    0  501 -0.99522173646E+03 -0.11250626360E+03  0.55842578693E+03  0.15126993484E+04  0.98655764910E+03 0.  0.
        -13    1    3    3    0    0  0.95523569279E+03 -0.22931942865E+03  0.20556905496E+04  0.22783604359E+04  0.10566000000E+00 0.  1.
         13    1    4    4    0    0 -0.96222486476E+03 -0.18692195542E+03  0.32751434125E+02  0.98075948907E+03  0.10566000000E+00 0. -1.
          4    1    3    3  502    0  0.39986043674E+02  0.34182569225E+03  0.22626387054E+03  0.41187258549E+03  0.00000000000E+00 0.  1.
         -4    1    4    4    0  501 -0.32996871699E+02  0.74415691823E+02  0.52567435280E+03  0.53193985931E+03  0.00000000000E+00 0. -1.
</event>
<event>
 8    1  0.7446554E-006  0.1089395E+04  0.7818608E-02  0.8694856E-01
         -2   -1    0    0    0  501 -0.00000000000E+00  0.00000000000E+00  0.47004947026E+03  0.47004947026E+03  0.00000000000E+00 0.  1.
          2   -1    0    0  502    0  0.00000000000E+00 -0.00000000000E+00 -0.25330271368E+04  0.25330271368E+04  0.00000000000E+00 0. -1.
    9000010    2    1    2  502    0  0.44273669200E+03  0.10174153994E+03 -0.93623895309E+03  0.14274362790E+04  0.97706900158E+03 0.  0.
   -9000010    2    1    2    0  501 -0.44273669200E+03 -0.10174153994E+03 -0.11267387135E+04  0.15756403281E+04  0.10033619465E+04 0.  0.
        -13    1    3    3    0    0 -0.14905106567E+03  0.28786529659E+03 -0.68555852648E+03  0.75833577890E+03  0.10566000000E+00 0.  1.
         13    1    4    4    0    0 -0.69425748418E+03 -0.64348920017E+02 -0.39582192012E+03  0.80175385341E+03  0.10566000000E+00 0. -1.
          4    1    3    3  502    0  0.59178775767E+03 -0.18612375665E+03 -0.25068042661E+03  0.66910050007E+03  0.00000000000E+00 0.  1.
         -4    1    4    4    0  501  0.25152079219E+03 -0.37392619925E+02 -0.73091679334E+03  0.77388647469E+03  0.00000000000E+00 0. -1.
</event>
<event>
 8    1  0.7446554E-006  0.1380499E+04  0.7818608E-02  0.8481776E-01
         -2   -1    0    0    0  501 -0.00000000000E+00  0.00000000000E+00  0.93379586593E+03  0.93379586593E+03  0.00000000000E+00 0. -1.
          2   -1    0    0  502    0  0.00000000000E+00 -0.00000000000E+00 -0.23013127115E+04  0.23013127115E+04  0.00000000000E+00 0.  1.
    9000010    2    1    2  502    0  0.94750045713E+03  0.18996845557E+03 -0.12271692605E+04  0.18458588795E+04  0.98356772956E+03 0.  0.
   -9000010    2    1    2    0  501 -0.94750045713E+03 -0.18996845557E+03 -0.14034758507E+03  0.13892496980E+04  0.98816605298E+03 0.  0.
        -13    1    3    3    0    0  0.47587155709E+03 -0.38105448689E+03 -0.37031285960E+03  0.71329368844E+03  0.10566000000E+00 0.  1.
         13    1    4    4    0    0  0.12855182614E+03 -0.10499251168E+02  0.20741261421E+03  0.24424538886E+03  0.10566000000E+00 0. -1.
          4    1    3    3  502    0  0.47162890004E+03  0.57102294246E+03 -0.85685640090E+03  0.11325651910E+04  0.00000000000E+00 0.  1.
         -4    1    4    4    0  501 -0.10760522833E+04 -0.17946920440E+03 -0.34776019928E+03  0.11450043091E+04  0.00000000000E+00 0. -1.
</event>
<event>
 8    1  0.7446554E-006  0.1387956E+04  0.7818608E-02  0.8477049E-01
          2   -1    0    0  502    0  0.00000000000E+00  0.00000000000E+00  0.40287710163E+04  0.40287710163E+04  0.00000000000E+00 0. -1.
         -2   -1    0    0    0  501 -0.00000000000E+00 -0.00000000000E+00 -0.52834652798E+03  0.52834652798E+03  0.00000000000E+00 0.  1.
    9000010    2    1    2  502    0  0.93131101996E+03 -0.31352585502E+03  0.10519351042E+04  0.17442835649E+04  0.98504772149E+03 0.  0.
   -9000010    2    1    2    0  501 -0.93131101996E+03  0.31352585502E+03  0.24484893841E+04  0.28128339794E+04  0.97534406949E+03 0.  0.
        -13    1    3    3    0    0  0.93883300277E+03  0.60391282033E+02  0.98909045398E+03  0.13650474173E+04  0.10566000000E+00 0.  1.
         13    1    4    4    0    0  0.12501980617E+03  0.29837938790E+03  0.48131702547E+03  0.57993646310E+03  0.10566000000E+00 0. -1.
          4    1    3    3  502    0 -0.75219828169E+01 -0.37391713705E+03  0.62844650232E+02  0.37923614763E+03  0.00000000000E+00 0.  1.
         -4    1    4    4    0  501 -0.10563308261E+04  0.15146467119E+02  0.19671723586E+04  0.22328975163E+04  0.00000000000E+00 0. -1.
</event>
<event>
 8    1  0.7446554E-006  0.1237839E+04  0.7818608E-02  0.8578601E-01
         -4   -1    0    0    0  501 -0.00000000000E+00  0.00000000000E+00  0.11250724100E+04  0.11250724100E+04  0.00000000000E+00 0.  1.
          4   -1    0    0  502    0  0.00000000000E+00 -0.00000000000E+00 -0.14090156534E+04  0.14090156534E+04  0.00000000000E+00 0. -1.
    9000010    2    1    2  502    0 -0.10430399666E+03  0.70848622726E+03  0.89844266218E+02  0.12398106447E+04  0.10080805447E+04 0.  0.
   -9000010    2    1    2    0  501  0.10430399666E+03 -0.70848622726E+03 -0.37378750960E+03  0.12942774186E+04  0.10112392773E+04 0.  0.
        -13    1    3    3    0    0  0.39784519660E+03  0.55829437973E+03  0.17809994674E+03  0.70830291337E+03  0.10566000000E+00 0.  1.
         13    1    4    4    0    0  0.20013964647E+03  0.22466354595E+03 -0.10047376901E+03  0.31721377081E+03  0.10566000000E+00 0. -1.
          4    1    3    3  502    0 -0.50214919326E+03  0.15019184753E+03 -0.88255680519E+02  0.53150773137E+03  0.00000000000E+00 0.  1.
         -4    1    4    4    0  501 -0.95835649810E+02 -0.93314977321E+03 -0.27331374059E+03  0.97706364778E+03  0.00000000000E+00 0. -1.
</event>
<event>
 8    1  0.7446554E-006  0.1031527E+04  0.7818608E-02  0.8745521E-01
         -1   -1    0    0    0  501 -0.00000000000E+00  0.00000000000E+00  0.11087635835E+04  0.11087635835E+04  0.00000000000E+00 0.  1.
          1   -1    0    0  502    0  0.00000000000E+00 -0.00000000000E+00 -0.96019794117E+03  0.96019794117E+03  0.00000000000E+00 0. -1.
    9000010    2    1    2  502    0  0.25027902892E+03  0.15171015634E+02  0.50281225921E+02  0.10272604521E+04  0.99492013884E+03 0.  0.
   -9000010    2    1    2    0  501 -0.25027902892E+03 -0.15171015634E+02  0.98284416457E+02  0.10417010727E+04  0.10062860161E+04 0.  0.
        -13    1    3    3    0    0  0.44213491706E+03  0.61761683880E+02  0.41692485762E+03  0.61083888100E+03  0.10566000000E+00 0.  1.
         13    1    4    4    0    0  0.28556878923E+03 -0.17750560349E+03 -0.21598462579E+03  0.39963376033E+03  0.10566000000E+00 0. -1.
          4    1    3    3  502    0 -0.19185588814E+03 -0.46590668246E+02 -0.36664363170E+03  0.41642157106E+03  0.00000000000E+00 0.  1.
         -4    1    4    4    0  501 -0.53584781815E+03  0.16233458786E+03  0.31426904225E+03  0.64206731232E+03  0.00000000000E+00 0. -1.
</event>
<event>
 8    1  0.7446554E-006  0.1117452E+04  0.7818608E-02  0.8671459E-01
          1   -1    0    0  502    0  0.00000000000E+00  0.00000000000E+00  0.29040937219E+04  0.29040937219E+04  0.00000000000E+00 0. -1.
         -1   -1    0    0    0  501 -0.00000000000E+00 -0.00000000000E+00 -0.44951473256E+03  0.44951473256E+03  0.00000000000E+00 0.  1.
    9000010    2    1    2  502    0 -0.28397816633E+03 -0.41894159604E+03  0.87481960737E+03  0.14169663331E+04  0.99314076745E+03 0.  0.
   -9000010    2    1    2    0  501  0.28397816633E+03  0.41894159604E+03  0.15797593820E+04  0.19366421213E+04  0.99939348671E+03 0.  0.
        -13    1    3    3    0    0 -0.43972702002E+03  0.19248009606E+03  0.32113820147E+03  0.57752765746E+03  0.10566000000E+00 0.  1.
         13    1    4    4    0    0 -0.14020134842E+03 -0.19150048553E+03  0.89511567499E+03  0.92604586108E+03  0.10566000000E+00 0. -1.
          4    1    3    3  502    0  0.15574885369E+03 -0.61142169210E+03  0.55368140589E+03  0.83943867568E+03  0.00000000000E+00 0.  1.
         -4    1    4    4    0  501  0.42417951475E+03  0.61044208157E+03  0.68464370698E+03  0.10105962602E+04  0.00000000000E+00 0. -1.
</event>
<event>
 8    1  0.7446554E-006  0.1083844E+04  0.7818608E-02  0.8699573E-01
          2   -1    0    0  502    0  0.00000000000E+00  0.00000000000E+00  0.24518227883E+04  0.24518227883E+04  0.00000000000E+00 0. -1.
         -2   -1    0    0    0  501 -0.00000000000E+00 -0.00000000000E+00 -0.60195897965E+03  0.60195897965E+03  0.00000000000E+00 0.  1.
    9000010    2    1    2  502    0 -0.49464993014E+01  0.26445015091E+03  0.16387666118E+04  0.19866017569E+04  0.10913625349E+04 0.  0.
   -9000010    2    1    2    0  501  0.49464993014E+01 -0.26445015091E+03  0.21109719684E+03  0.10671800110E+04  0.10121031564E+04 0.  0.
        -13    1    3    3    0    0 -0.40274389854E+03 -0.16387177896E+03  0.11331850801E+04  0.12137401059E+04  0.10566000000E+00 0.  1.
         13    1    4    4    0    0  0.86184973694E+02 -0.42494887515E+03 -0.29873217226E+03  0.52654564673E+03  0.10566000000E+00 0. -1.
          4    1    3    3  502    0  0.39779739924E+03  0.42832192987E+03  0.50558153166E+03  0.77286165101E+03  0.00000000000E+00 0.  1.
         -4    1    4    4    0  501 -0.81238474393E+02  0.16049872424E+03  0.50982936910E+03  0.54063436424E+03  0.00000000000E+00 0. -1.
</event>
<event>
 8    1  0.7446554E-006  0.1435789E+04  0.7818608E-02  0.8447439E-01
          2   -1    0    0  502    0  0.00000000000E+00  0.00000000000E+00  0.12339061764E+04  0.12339061764E+04  0.00000000000E+00 0.  1.
         -2   -1    0    0    0  501 -0.00000000000E+00 -0.00000000000E+00 -0.17370900115E+04  0.17370900115E+04  0.00000000000E+00 0. -1.
    9000010    2    1    2  502    0  0.55108409736E+03 -0.88029771647E+03 -0.54148400006E+03  0.15317531160E+04  0.98713977432E+03 0.  0.
   -9000010    2    1    2    0  501 -0.55108409736E+03  0.88029771647E+03  0.38300164968E+02  0.14392430719E+04  0.99565855864E+03 0.  0.
        -13    1    3    3    0    0  0.72508741988E+03 -0.42802213280E+03 -0.61355854546E+03  0.10418295506E+04  0.10566000000E+00 0.  1.
         13    1    4    4    0    0 -0.50575275425E+03  0.51460890657E+03 -0.43261953369E+03  0.84128939566E+03  0.10566000000E+00 0. -1.
          4    1    3    3  502    0 -0.17400332252E+03 -0.45227558367E+03  0.72074545400E+02  0.48992356539E+03  0.00000000000E+00 0.  1.
         -4    1    4    4    0  501 -0.45331343116E+02  0.36568880990E+03  0.47091969866E+03  0.59795367624E+03  0.00000000000E+00 0. -1.
</event>
<event>
 8    1  0.7446554E-006  0.1177321E+04  0.7818608E-02  0.8623838E-01
         -2   -1    0    0    0  501 -0.00000000000E+00  0.00000000000E+00  0.12227463623E+04  0.12227463623E+04  0.00000000000E+00 0. -1.
          2   -1    0    0  502    0  0.00000000000E+00 -0.00000000000E+00 -0.11336277833E+04  0.11336277833E+04  0.00000000000E+00 0.  1.
    9000010    2    1    2  502    0  0.58250434059E+03  0.20673486898E+03  0.37246224856E+02  0.11769962878E+04  0.10009407412E+04 0.  0.
   -9000010    2    1    2    0  501 -0.58250434059E+03 -0.20673486898E+03  0.51872354190E+02  0.11793778578E+04  0.10030906128E+04 0.  0.
        -13    1    3    3    0    0  0.38292430656E+03  0.60854923401E+03  0.92617224289E+02  0.72494217436E+03  0.10566000000E+00 0.  1.
         13    1    4    4    0    0 -0.26370489114E+03 -0.28774101832E+03  0.49320157629E+03  0.62895386894E+03  0.10566000000E+00 0. -1.
          4    1    3    3  502    0  0.19958003403E+03 -0.40181436503E+03 -0.55370999433E+02  0.45205411347E+03  0.00000000000E+00 0.  1.
         -4    1    4    4    0  501 -0.31879944945E+03  0.81006149346E+02 -0.44132922210E+03  0.55042398883E+03  0.00000000000E+00 0. -1.
</event>
<event>
 8    1  0.7446554E-006  0.2726128E+04  0.7818608E-02  0.7923777E-01
         -2   -1    0    0    0  501 -0.00000000000E+00  0.00000000000E+00  0.29764711156E+04  0.29764711156E+04  0.00000000000E+00 0.  1.
          2   -1    0    0  502    0  0.00000000000E+00 -0.00000000000E+00 -0.25222365909E+04  0.25222365909E+04  0.00000000000E+00 0. -1.
    9000010    2    1    2  502    0 -0.18525499552E+04  0.17744877287E+04  0.50012311082E+03  0.27490763936E+04  0.85237893924E+03 0.  0.
   -9000010    2    1    2    0  501  0.18525499552E+04 -0.17744877287E+04 -0.45888586048E+02  0.27496313129E+04  0.98874595241E+03 0.  0.
        -13    1    3    3    0    0 -0.65358563692E+03  0.38892366389E+03 -0.20191116893E+03  0.78689512162E+03  0.10566000000E+00 0.  1.
         13    1    4    4    0    0  0.27057097972E+03 -0.17491023080E+03 -0.35426631198E+03  0.47885997418E+03  0.10566000000E+00 0. -1.
          4    1    3    3  502    0 -0.11989643183E+04  0.13855640648E+04  0.70203427975E+03  0.19621812720E+04  0.00000000000E+00 0.  1.
         -4    1    4    4    0  501  0.15819789755E+04 -0.15995774979E+04  0.30837772593E+03  0.22707713387E+04  0.00000000000E+00 0. -1.
</event>
<event>
 8    1  0.7446554E-006  0.1115916E+04  0.7818608E-02  0.8672720E-01
         -1   -1    0    0    0  501 -0.00000000000E+00  0.00000000000E+00  0.71538368538E+03  0.71538368538E+03  0.00000000000E+00 0. -1.
          1   -1    0    0  502    0  0.00000000000E+00 -0.00000000000E+00 -0.17564467032E+04  0.17564467032E+04  0.00000000000E+00 0.  1.
    9000010    2    1    2  502    0  0.50733638505E+03 -0.96204592956E+02 -0.41346098884E+03  0.12069535094E+04  0.10095252613E+04 0.  0.
   -9000010    2    1    2    0  501 -0.50733638505E+03  0.96204592956E+02 -0.62760202893E+03  0.12648768791E+04  0.96921807728E+03 0.  0.
        -13    1    3    3    0    0  0.36789956879E+03  0.41108715844E+03 -0.23665211731E+02  0.55218004125E+03  0.10566000000E+00 0.  1.
         13    1    4    4    0    0 -0.27223367664E+03 -0.37629819468E+03 -0.26839940398E+02  0.46522241947E+03  0.10566000000E+00 0. -1.
          4    1    3    3  502    0  0.13943681627E+03 -0.50729175139E+03 -0.38979577711E+03  0.65477346817E+03  0.00000000000E+00 0.  1.
         -4    1    4    4    0  501 -0.23510270841E+03  0.47250278763E+03 -0.60076208853E+03  0.79965445965E+03  0.00000000000E+00 0. -1.
</event>
<event>
 8    1  0.7446554E-006  0.1044664E+04  0.7818608E-02  0.8733721E-01
         -2   -1    0    0    0  501 -0.00000000000E+00  0.00000000000E+00  0.68587955792E+03  0.68587955792E+03  0.00000000000E+00 0.  1.
          2   -1    0    0  502    0  0.00000000000E+00 -0.00000000000E+00 -0.17387870076E+04  0.17387870076E+04  0.00000000000E+00 0. -1.
    9000010    2    1    2  502    0 -0.39557065272E+03  0.13448908462E+03 -0.19930835318E+03  0.11111426388E+04  0.10101240958E+04 0.  0.
   -9000010    2    1    2    0  501  0.39557065272E+03 -0.13448908462E+03 -0.85359909648E+03  0.13135239267E+04  0.90672500422E+03 0.  0.
        -13    1    3    3    0    0  0.30704353669E+02  0.37173726579E+03 -0.43190798293E+03  0.57068018101E+03  0.10566000000E+00 0.  1.
         13    1    4    4    0    0 -0.54285101125E+02 -0.34397930620E+03 -0.26839958815E+02  0.34926927986E+03  0.10566000000E+00 0. -1.
          4    1    3    3  502    0 -0.42627500639E+03 -0.23724818118E+03  0.23259962975E+03  0.54046245781E+03  0.00000000000E+00 0.  1.
         -4    1    4    4    0  501  0.44985575384E+03  0.20949022159E+03 -0.82675913767E+03  0.96425464683E+03  0.00000000000E+00 0. -1.
</event>
<event>
 8    1  0.7446554E-006  0.1378636E+04  0.7818608E-02  0.8482962E-01
          2   -1    0    0  502    0  0.00000000000E+00  0.00000000000E+00  0.64225887150E+03  0.64225887150E+03  0.00000000000E+00 0.  1.
         -2   -1    0    0    0  501 -0.00000000000E+00 -0.00000000000E+00 -0.33298719339E+04  0.33298719339E+04  0.00000000000E+00 0. -1.
    9000010    2    1    2  502    0  0.90550394153E+03  0.35944067213E+03 -0.69663998677E+03  0.15601369885E+04  0.99979256191E+03 0.  0.
   -9000010    2    1    2    0  501 -0.90550394153E+03 -0.35944067213E+03 -0.19909730756E+04  0.24119938169E+04  0.95110745972E+03 0.  0.
        -13    1    3    3    0    0  0.20656900537E+03  0.32633437878E+03  0.19018573588E+03  0.43050610455E+03  0.10566000000E+00 0.  1.
         13    1    4    4    0    0  0.85150936791E+02 -0.34922923502E+03 -0.40008806522E+03  0.53784961813E+03  0.10566000000E+00 0. -1.
          4    1    3    3  502    0  0.69893493616E+03  0.33106293343E+02 -0.88682572265E+03  0.11296308840E+04  0.00000000000E+00 0.  1.
         -4    1    4    4    0  501 -0.99065487833E+03 -0.10211437108E+02 -0.15908850104E+04  0.18741441988E+04  0.00000000000E+00 0. -1.
</event>
<event>
 8    1  0.7446554E-006  0.2057946E+04  0.7818608E-02  0.8145199E-01
          2   -1    0    0  502    0  0.00000000000E+00  0.00000000000E+00  0.11917329047E+04  0.11917329047E+04  0.00000000000E+00 0.  1.
         -2   -1    0    0    0  501 -0.00000000000E+00 -0.00000000000E+00 -0.41014915499E+04  0.41014915499E+04  0.00000000000E+00 0. -1.
    9000010    2    1    2  502    0 -0.13423496663E+04  0.11882515840E+04 -0.48698241683E+03  0.21136160188E+04  0.10081549223E+04 0.  0.
   -9000010    2    1    2    0  501  0.13423496663E+04 -0.11882515840E+04 -0.24227762285E+04  0.31796084358E+04  0.10130255170E+04 0.  0.
        -13    1    3    3    0    0  0.13744346903E+03  0.28058802495E+03 -0.14419880574E+03  0.34411285019E+03  0.10566000000E+00 0.  1.
         13    1    4    4    0    0  0.66775307332E+03 -0.33524227045E+02 -0.11677421481E+04  0.13456001547E+04  0.10566000000E+00 0. -1.
          4    1    3    3  502    0 -0.14797931353E+04  0.90766355904E+03 -0.34278361109E+03  0.17695031687E+04  0.00000000000E+00 0.  1.
         -4    1    4    4    0  501  0.67459659300E+03 -0.11547273570E+04 -0.12550340804E+04  0.18340082811E+04  0.00000000000E+00 0. -1.
</event>
<event>
 8    1  0.7446554E-006  0.2128837E+04  0.7818608E-02  0.8117861E-01
          1   -1    0    0  502    0  0.00000000000E+00  0.00000000000E+00  0.15082653010E+04  0.15082653010E+04  0.00000000000E+00 0.  1.
         -1   -1    0    0    0  501 -0.00000000000E+00 -0.00000000000E+00 -0.36088246408E+04  0.36088246408E+04  0.00000000000E+00 0. -1.
    9000010    2    1    2  502    0  0.27015980448E+03  0.18496373715E+04 -0.21002741567E+04  0.29961484678E+04  0.10351856750E+04 0.  0.
   -9000010    2    1    2    0  501 -0.27015980448E+03 -0.18496373715E+04 -0.28518315538E+00  0.21209414741E+04  0.10021217137E+04 0.  0.
        -13    1    3    3    0    0  0.62614303032E+03  0.77423870572E+03 -0.85192388028E+03  0.13104483877E+04  0.10566000000E+00 0.  1.
         13    1    4    4    0    0 -0.19984127340E+02 -0.16233672552E+04 -0.32164590459E+03  0.16550458331E+04  0.10566000000E+00 0. -1.
          4    1    3    3  502    0 -0.35598322584E+03  0.10753986658E+04 -0.12483502764E+04  0.16857000801E+04  0.00000000000E+00 0.  1.
         -4    1    4    4    0  501 -0.25017567714E+03 -0.22627011630E+03  0.32136072144E+03  0.46589564094E+03  0.00000000000E+00 0. -1.
</event>
<event>
 8    1  0.7446554E-006  0.9961475E+03  0.7818608E-02  0.8778220E-01
          1   -1    0    0  502    0  0.00000000000E+00  0.00000000000E+00  0.17504367786E+04  0.17504367786E+04  0.00000000000E+00 0.  1.
         -1   -1    0    0    0  501 -0.00000000000E+00 -0.00000000000E+00 -0.58377701615E+03  0.58377701615E+03  0.00000000000E+00 0. -1.
    9000010    2    1    2  502    0 -0.27649571739E+03 -0.14709677594E+03  0.79772475781E+03  0.13048697945E+04  0.98398833735E+03 0.  0.
   -9000010    2    1    2    0  501  0.27649571739E+03  0.14709677594E+03  0.36893500466E+03  0.10293440003E+04  0.90848703353E+03 0.  0.
        -13    1    3    3    0    0 -0.19412375592E+03 -0.37975730946E+03 -0.43005884800E+02  0.42865972985E+03  0.10566000000E+00 0.  1.
         13    1    4    4    0    0  0.98360035552E+02 -0.36621052550E+03  0.12246310165E+02  0.37938743898E+03  0.10566000000E+00 0. -1.
          4    1    3    3  502    0 -0.82371961471E+02  0.23266053353E+03  0.84073064261E+03  0.87621006460E+03  0.00000000000E+00 0.  1.
         -4    1    4    4    0  501  0.17813568184E+03  0.51330730143E+03  0.35668869449E+03  0.64995656134E+03  0.00000000000E+00 0. -1.
</event>
<event>
 8    1  0.7446554E-006  0.1560765E+04  0.7818608E-02  0.8375363E-01
          2   -1    0    0  502    0  0.00000000000E+00  0.00000000000E+00  0.25522468383E+04  0.25522468383E+04  0.00000000000E+00 0.  1.
         -2   -1    0    0    0  501 -0.00000000000E+00 -0.00000000000E+00 -0.10247870246E+04  0.10247870246E+04  0.00000000000E+00 0. -1.
    9000010    2    1    2  502    0 -0.56599951446E+03 -0.10399720224E+04  0.12342571047E+04  0.19932383321E+04  0.10235776424E+04 0.  0.
   -9000010    2    1    2    0  501  0.56599951446E+03  0.10399720224E+04  0.29320270893E+03  0.15837955308E+04  0.10102193808E+04 0.  0.
        -13    1    3    3    0    0  0.18700216753E+03  0.57309288738E+02  0.28901516543E+02  0.19771058156E+03  0.10566000000E+00 0.  1.
         13    1    4    4    0    0  0.81673092536E+01  0.87296458211E+03  0.44804543122E+03  0.98126376992E+03  0.10566000000E+00 0. -1.
          4    1    3    3  502    0 -0.75300168199E+03 -0.10972813111E+04  0.12053555882E+04  0.17955277505E+04  0.00000000000E+00 0.  1.
         -4    1    4    4    0  501  0.55783220521E+03  0.16700744030E+03 -0.15484272229E+03  0.60253176093E+03  0.00000000000E+00 0. -1.
</event>
<event>
 8    1  0.7446554E-006  0.1172922E+04  0.7818608E-02  0.8627236E-01
         -2   -1    0    0    0  501 -0.00000000000E+00  0.00000000000E+00  0.18635527576E+04  0.18635527576E+04  0.00000000000E+00 0. -1.
          2   -1    0    0  502    0  0.00000000000E+00 -0.00000000000E+00 -0.77567553588E+03  0.77567553588E+03  0.00000000000E+00 0.  1.
    9000010    2    1    2  502    0 -0.23977649648E+03 -0.56066883346E+03  0.25163957388E+03  0.11941754856E+04  0.99543473226E+03 0.  0.
   -9000010    2    1    2    0  501  0.23977649648E+03  0.56066883346E+03  0.83623764786E+03  0.14450528079E+04  0.10084849552E+04 0.  0.
        -13    1    3    3    0    0 -0.19460264545E+03  0.13961671206E+03  0.40996160343E+03  0.47479631776E+03  0.10566000000E+00 0.  1.
         13    1    4    4    0    0  0.61556625173E+03  0.20735951967E+03  0.35806562869E+03  0.74170801956E+03  0.10566000000E+00 0. -1.
          4    1    3    3  502    0 -0.45173851037E+02 -0.70028554553E+03 -0.15832202955E+03  0.71937916785E+03  0.00000000000E+00 0.  1.
         -4    1    4    4    0  501 -0.37578975524E+03  0.35330931379E+03  0.47817201916E+03  0.70334478833E+03  0.00000000000E+00 0. -1.
</event>
<event>
 8    1  0.7446554E-006  0.1048336E+04  0.7818608E-02  0.8730455E-01
         -2   -1    0    0    0  501 -0.00000000000E+00  0.00000000000E+00  0.11431608024E+04  0.11431608024E+04  0.00000000000E+00 0.  1.
          2   -1    0    0  502    0  0.00000000000E+00 -0.00000000000E+00 -0.10001336539E+04  0.10001336539E+04  0.00000000000E+00 0. -1.
    9000010    2    1    2  502    0 -0.19405868393E+03  0.22292148147E+03  0.28213426164E+03  0.10813718328E+04  0.10012055430E+04 0.  0.
   -9000010    2    1    2    0  501  0.19405868393E+03 -0.22292148147E+03 -0.13910711310E+03  0.10619226235E+04  0.10104336246E+04 0.  0.
        -13    1    3    3    0    0  0.65425367584E+01 -0.12586718868E+03 -0.32750708054E+03  0.35092200407E+03  0.10566000000E+00 0.  1.
         13    1    4    4    0    0  0.12330163186E+03  0.12017993451E+03 -0.51801651607E+03  0.54588243346E+03  0.10566000000E+00 0. -1.
          4    1    3    3  502    0 -0.20060122068E+03  0.34878867016E+03  0.60964134217E+03  0.73044982870E+03  0.00000000000E+00 0.  1.
         -4    1    4    4    0  501  0.70757052062E+02 -0.34310141598E+03  0.37890940297E+03  0.51604019002E+03  0.00000000000E+00 0. -1.
</event>
<event>
 8    1  0.7446554E-006  0.1123995E+04  0.7818608E-02  0.8666104E-01
          4   -1    0    0  502    0  0.00000000000E+00  0.00000000000E+00  0.97484582698E+03  0.97484582698E+03  0.00000000000E+00 0.  1.
         -4   -1    0    0    0  501 -0.00000000000E+00 -0.00000000000E+00 -0.12977336152E+04  0.12977336152E+04  0.00000000000E+00 0. -1.
    9000010    2    1    2  502    0 -0.46664134390E+03 -0.27972277359E+03 -0.20167741635E+03  0.11347079975E+04  0.97513562415E+03 0.  0.
   -9000010    2    1    2    0  501  0.46664134390E+03  0.27972277359E+03 -0.12121037188E+03  0.11378714447E+04  0.99199823409E+03 0.  0.
        -13    1    3    3    0    0 -0.73703070076E+02 -0.82529516085E+02  0.38556513207E+03  0.40112809151E+03  0.10566000000E+00 0.  1.
         13    1    4    4    0    0 -0.25426758759E+03 -0.14264551236E+03 -0.75146759795E+02  0.30107606177E+03  0.10566000000E+00 0. -1.
          4    1    3    3  502    0 -0.39293827382E+03 -0.19719325750E+03 -0.58724254842E+03  0.73357990602E+03  0.00000000000E+00 0.  1.
         -4    1    4    4    0  501  0.72090893149E+03  0.42236828595E+03 -0.46063612089E+02  0.83679538290E+03  0.00000000000E+00 0. -1.
</event>
<event>
 8    1  0.7446554E-006  0.1124643E+04  0.7818608E-02  0.8665577E-01
          2   -1    0    0  502    0  0.00000000000E+00  0.00000000000E+00  0.31936796497E+04  0.31936796497E+04  0.00000000000E+00 0.  1.
         -2   -1    0    0    0  501 -0.00000000000E+00 -0.00000000000E+00 -0.41186317548E+03  0.41186317548E+03  0.00000000000E+00 0. -1.
    9000010    2    1    2  502    0  0.19056941631E+03  0.44715587095E+03  0.10517687095E+04  0.15483213701E+04  0.10270426338E+04 0.  0.
   -9000010    2    1    2    0  501 -0.19056941631E+03 -0.44715587095E+03  0.17300477648E+04  0.20572214550E+04  0.10014138862E+04 0.  0.
        -13    1    3    3    0    0  0.60630290028E+03  0.34129134005E+03  0.54132137744E+03  0.88153946623E+03  0.10566000000E+00 0.  1.
         13    1    4    4    0    0  0.49990485822E+02 -0.40519628694E+03  0.17640459122E+04  0.18106742035E+04  0.10566000000E+00 0. -1.
          4    1    3    3  502    0 -0.41573348397E+03  0.10586453090E+03  0.51044733202E+03  0.66678190390E+03  0.00000000000E+00 0.  1.
         -4    1    4    4    0  501 -0.24055990213E+03 -0.41959584012E+02 -0.33998147484E+02  0.24654725153E+03  0.00000000000E+00 0. -1.
</event>
<event>
 8    1  0.7446554E-006  0.1064429E+04  0.7818608E-02  0.8716302E-01
         -2   -1    0    0    0  501 -0.00000000000E+00  0.00000000000E+00  0.46203517312E+03  0.46203517312E+03  0.00000000000E+00 0. -1.
          2   -1    0    0  502    0  0.00000000000E+00 -0.00000000000E+00 -0.24788271623E+04  0.24788271623E+04  0.00000000000E+00 0.  1.
    9000010    2    1    2  502    0  0.44847306885E+02  0.36380501816E+03 -0.85940312989E+03  0.13707921114E+04  0.10030612647E+04 0.  0.
   -9000010    2    1    2    0  501 -0.44847306885E+02 -0.36380501816E+03 -0.11573888593E+04  0.15700702240E+04  0.99559337313E+03 0.  0.
        -13    1    3    3    0    0  0.28407648725E+03  0.34073573116E+03 -0.99884707322E+03  0.10929299044E+04  0.10566000000E+00 0.  1.
         13    1    4    4    0    0  0.30086999014E+03 -0.39489338104E+03 -0.17211426744E+03  0.52543968786E+03  0.10566000000E+00 0. -1.
          4    1    3    3  502    0 -0.23922918036E+03  0.23069286998E+02  0.13944394333E+03  0.27786220699E+03  0.00000000000E+00 0.  1.
         -4    1    4    4    0  501 -0.34571729702E+03  0.31088362877E+02 -0.98527459186E+03  0.10446305362E+04  0.00000000000E+00 0. -1.
</event>
<event>
 8    1  0.7446554E-006  0.2179022E+04  0.7818608E-02  0.8099163E-01
         -2   -1    0    0    0  501 -0.00000000000E+00  0.00000000000E+00  0.36766131241E+04  0.36766131241E+04  0.00000000000E+00 0.  1.
          2   -1    0    0  502    0  0.00000000000E+00 -0.00000000000E+00 -0.20938939535E+04  0.20938939535E+04  0.00000000000E+00 0. -1.
    9000010    2    1    2  502    0 -0.15388687727E+04  0.11431716958E+04  0.25742988483E+04  0.33637490625E+04  0.10063968252E+04 0.  0.
   -9000010    2    1    2    0  501  0.15388687727E+04 -0.11431716958E+04 -0.99157967773E+03  0.24067580151E+04  0.10650329855E+04 0.  0.
        -13    1    3    3    0    0 -0.13018020723E+04  0.11876354642E+04  0.16697640448E+04  0.24276075894E+04  0.10566000000E+00 0.  1.
         13    1    4    4    0    0  0.10035403981E+04 -0.40447872909E+03 -0.31605040990E+02  0.10824487344E+04  0.10566000000E+00 0. -1.
          4    1    3    3  502    0 -0.23706670039E+03 -0.44463768472E+02  0.90453480344E+03  0.93614147316E+03  0.00000000000E+00 0.  1.
         -4    1    4    4    0  501  0.53532837463E+03 -0.73869296666E+03 -0.95997463674E+03  0.13243092807E+04  0.00000000000E+00 0. -1.
</event>
<event>
 7    1  0.7446554E-006  0.1435848E+04  0.7818608E-02  0.8447403E-01
          2   -1    0    0  502    0  0.00000000000E+00  0.00000000000E+00  0.14766951267E+04  0.14766951267E+04  0.00000000000E+00 0.  1.
         -2   -1    0    0    0  501 -0.00000000000E+00 -0.00000000000E+00 -0.14456250899E+04  0.14456250899E+04  0.00000000000E+00 0. -1.
    9000010    2    1    2  502    0  0.19529709224E+03  0.62217327099E+03  0.15746757744E+03  0.12363618970E+04  0.10385346258E+04 0.  0.
        -13    1    3    3    0    0 -0.22750516848E+03 -0.79246687157E+01 -0.27970308955E+03  0.36063171176E+03  0.10566000000E+00 0.  1.
         13    1    1    2    0    0 -0.70365624118E+03 -0.69353558566E+02  0.35773641804E+03  0.79241237862E+03  0.10566000000E+00 0. -1.
          4    1    3    3  502    0  0.42280226072E+03  0.63009793970E+03  0.43717066699E+03  0.87573018525E+03  0.00000000000E+00 0.  1.
         -4    1    1    2    0  501  0.50835914893E+03 -0.55281971242E+03 -0.48413395864E+03  0.89354594099E+03  0.00000000000E+00 0. -1.
</event>
<event>
 8    1  0.7446554E-006  0.1060253E+04  0.7818608E-02  0.8719950E-01
         -2   -1    0    0    0  501 -0.00000000000E+00  0.00000000000E+00  0.86731830427E+03  0.86731830427E+03  0.00000000000E+00 0. -1.
          2   -1    0    0  502    0  0.00000000000E+00 -0.00000000000E+00 -0.14664442654E+04  0.14664442654E+04  0.00000000000E+00 0.  1.
    9000010    2    1    2  502    0 -0.31245543469E+03  0.81274067260E+02  0.10251403866E+03  0.10455461702E+04  0.98915306870E+03 0.  0.
   -9000010    2    1    2    0  501  0.31245543469E+03 -0.81274067260E+02 -0.70163999977E+03  0.12882163994E+04  0.10310038457E+04 0.  0.
        -13    1    3    3    0    0 -0.36092937183E+03  0.38785886503E+03 -0.24144815139E+03  0.58223855214E+03  0.10566000000E+00 0.  1.
         13    1    4    4    0    0  0.25895007035E+03  0.11599387450E+03  0.21060012991E+03  0.35335837861E+03  0.10566000000E+00 0. -1.
          4    1    3    3  502    0  0.48473937135E+02 -0.30658479777E+03  0.34396219006E+03  0.46330761810E+03  0.00000000000E+00 0.  1.
         -4    1    4    4    0  501  0.53505364346E+02 -0.19726794176E+03 -0.91224012968E+03  0.93485802080E+03  0.00000000000E+00 0. -1.
</event>
<event>
 8    1  0.7446554E-006  0.1733892E+04  0.7818608E-02  0.8286295E-01
          1   -1    0    0  502    0  0.00000000000E+00  0.00000000000E+00  0.18577579932E+04  0.18577579932E+04  0.00000000000E+00 0. -1.
         -1   -1    0    0    0  501 -0.00000000000E+00 -0.00000000000E+00 -0.17988404272E+04  0.17988404272E+04  0.00000000000E+00 0.  1.
    9000010    2    1    2  502    0 -0.58134639408E+03  0.12965262210E+04  0.60857515378E+03  0.18321093911E+04  0.98352286776E+03 0.  0.
   -9000010    2    1    2    0  501  0.58134639408E+03 -0.12965262210E+04 -0.54965758771E+03  0.18244890293E+04  0.10038390721E+04 0.  0.
        -13    1    3    3    0    0 -0.12599769926E+03  0.91401163801E+03 -0.75426361582E+02  0.92573313748E+03  0.10566000000E+00 0.  1.
         13    1    4    4    0    0  0.47136765821E+03 -0.72488314703E+03  0.18793727428E+03  0.88485223416E+03  0.10566000000E+00 0. -1.
          4    1    3    3  502    0 -0.45534869482E+03  0.38251458301E+03  0.68400151537E+03  0.90637625361E+03  0.00000000000E+00 0.  1.
         -4    1    4    4    0  501  0.10997873587E+03 -0.57164307399E+03 -0.73759486199E+03  0.93963679516E+03  0.00000000000E+00 0. -1.
</event>
<event>
 8    1  0.7446554E-006  0.1862557E+04  0.7818608E-02  0.8226768E-01
         -2   -1    0    0    0  501 -0.00000000000E+00  0.00000000000E+00  0.14064855469E+04  0.14064855469E+04  0.00000000000E+00 0.  1.
          2   -1    0    0  502    0  0.00000000000E+00 -0.00000000000E+00 -0.26864518870E+04  0.26864518870E+04  0.00000000000E+00 0. -1.
    9000010    2    1    2  502    0  0.15329686193E+04  0.29115172755E+03 -0.52707360183E+02  0.18577420179E+04  0.10068094274E+04 0.  0.
   -9000010    2    1    2    0  501 -0.15329686193E+04 -0.29115172755E+03 -0.12272589799E+04  0.22351954160E+04  0.10272155703E+04 0.  0.
        -13    1    3    3    0    0  0.21032336608E+03  0.47446310333E+03  0.30319763405E+02  0.51987542157E+03  0.10566000000E+00 0.  1.
         13    1    4    4    0    0 -0.15021808244E+04 -0.39341059528E+03 -0.13604372007E+04  0.20644874700E+04  0.10566000000E+00 0. -1.
          4    1    3    3  502    0  0.13226452532E+04 -0.18331137578E+03 -0.83027123588E+02  0.13378665963E+04  0.00000000000E+00 0.  1.
         -4    1    4    4    0  501 -0.30787794908E+02  0.10225886774E+03  0.13317822078E+03  0.17070794602E+03  0.00000000000E+00 0. -1.
</event>
<event>
 8    1  0.7446554E-006  0.1386142E+04  0.7818608E-02  0.8478197E-01
          1   -1    0    0  502    0  0.00000000000E+00  0.00000000000E+00  0.15659363713E+04  0.15659363713E+04  0.00000000000E+00 0.  1.
         -1   -1    0    0    0  501 -0.00000000000E+00 -0.00000000000E+00 -0.12745436650E+04  0.12745436650E+04  0.00000000000E+00 0. -1.
    9000010    2    1    2  502    0 -0.11119885810E+00  0.96088774411E+03 -0.12838858815E+03  0.13943845379E+04  0.10022571231E+04 0.  0.
   -9000010    2    1    2    0  501  0.11119885810E+00 -0.96088774411E+03  0.41978129443E+03  0.14460954984E+04  0.99582658437E+03 0.  0.
        -13    1    3    3    0    0  0.45682439415E+03  0.76454111134E+03 -0.64394441281E+02  0.89294921090E+03  0.10566000000E+00 0.  1.
         13    1    4    4    0    0 -0.29521552759E+03 -0.65939784028E+03  0.64432289656E+03  0.96804427878E+03  0.10566000000E+00 0. -1.
          4    1    3    3  502    0 -0.45693559301E+03  0.19634663277E+03 -0.63994146865E+02  0.50143532703E+03  0.00000000000E+00 0.  1.
         -4    1    4    4    0  501  0.29532672645E+03 -0.30148990383E+03 -0.22454160213E+03  0.47805121959E+03  0.00000000000E+00 0. -1.
</event>
<event>
 8    1  0.7446554E-006  0.1484461E+04  0.7818608E-02  0.8418498E-01
          1   -1    0    0  502    0  0.00000000000E+00  0.00000000000E+00  0.67990700005E+03  0.67990700005E+03  0.00000000000E+00 0.  1.
         -1   -1    0    0    0  501 -0.00000000000E+00 -0.00000000000E+00 -0.32460489492E+04  0.32460489492E+04  0.00000000000E+00 0. -1.
    9000010    2    1    2  502    0 -0.10802194012E+04  0.35028397991E+03 -0.13212609718E+04  0.19644429606E+04  0.90759725022E+03 0.  0.
   -9000010    2    1    2    0  501  0.10802194012E+04 -0.35028397991E+03 -0.12448809774E+04  0.19615129887E+04  0.10041074323E+04 0.  0.
        -13    1    3    3    0    0 -0.30353140380E+02  0.34069386296E+03 -0.10519506897E+03  0.35785420927E+03  0.10566000000E+00 0.  1.
         13    1    4    4    0    0  0.40091613807E+03  0.98532831141E+02  0.66276167370E+02  0.41813276612E+03  0.10566000000E+00 0. -1.
          4    1    3    3  502    0 -0.10498662608E+04  0.95901169430E+01 -0.12160659028E+04  0.16065887513E+04  0.00000000000E+00 0.  1.
         -4    1    4    4    0  501  0.67930326309E+03 -0.44881681105E+03 -0.13111571447E+04  0.15433802225E+04  0.00000000000E+00 0. -1.
</event>
<event>
 8    1  0.7446554E-006  0.1268699E+04  0.7818608E-02  0.8556551E-01
          1   -1    0    0  502    0  0.00000000000E+00  0.00000000000E+00  0.65513624279E+03  0.65513624279E+03  0.00000000000E+00 0. -1.
         -1   -1    0    0    0  501 -0.00000000000E+00 -0.00000000000E+00 -0.24740936134E+04  0.24740936134E+04  0.00000000000E+00 0.  1.
    9000010    2    1    2  502    0 -0.30919145006E+03 -0.73613442535E+03 -0.79485834012E+03  0.15135754082E+04  0.10107509538E+04 0.  0.
   -9000010    2    1    2    0  501  0.30919145006E+03  0.73613442535E+03 -0.10240990305E+04  0.16156544480E+04  0.96128415469E+03 0.  0.
        -13    1    3    3    0    0 -0.45097746178E+03  0.72662568314E+02 -0.19499592249E+03  0.49667287103E+03  0.10566000000E+00 0.  1.
         13    1    4    4    0    0  0.62717076938E+03  0.27786671180E+03 -0.48650723113E+03  0.84097703928E+03  0.10566000000E+00 0. -1.
          4    1    3    3  502    0  0.14178601172E+03 -0.80879699366E+03 -0.59986241763E+03  0.10169025372E+04  0.00000000000E+00 0.  1.
         -4    1    4    4    0  501 -0.31797931933E+03  0.45826771355E+03 -0.53759179941E+03  0.77467740873E+03  0.00000000000E+00 0. -1.
</event>
<event>
 8    1  0.7446554E-006  0.1376391E+04  0.7818608E-02  0.8484393E-01
          2   -1    0    0  502    0  0.00000000000E+00  0.00000000000E+00  0.24691026231E+04  0.24691026231E+04  0.00000000000E+00 0. -1.
         -2   -1    0    0    0  501 -0.00000000000E+00 -0.00000000000E+00 -0.76896124133E+03  0.76896124133E+03  0.00000000000E+00 0.  1.
    9000010    2    1    2  502    0  0.93854593964E+03 -0.34788105934E+02  0.92727899786E+03  0.16611772058E+04  0.10087540216E+04 0.  0.
   -9000010    2    1    2    0  501 -0.93854593964E+03  0.34788105934E+02  0.77286238390E+03  0.15768866586E+04  0.10035818734E+04 0.  0.
        -13    1    3    3    0    0  0.31077822914E+03  0.44482317236E+03  0.17465502322E+03  0.57004837573E+03  0.10566000000E+00 0.  1.
         13    1    4    4    0    0 -0.68555477009E+03  0.24501197163E+03  0.95503189555E+03  0.12008755730E+04  0.10566000000E+00 0. -1.
          4    1    3    3  502    0  0.62776771050E+03 -0.47961127829E+03  0.75262397463E+03  0.10911288301E+04  0.00000000000E+00 0.  1.
         -4    1    4    4    0  501 -0.25299116954E+03 -0.21022386570E+03 -0.18216951164E+03  0.37601108567E+03  0.00000000000E+00 0. -1.
</event>
<event>
 8    1  0.7446554E-006  0.1303106E+04  0.7818608E-02  0.8532719E-01
         -2   -1    0    0    0  501 -0.00000000000E+00  0.00000000000E+00  0.82147972714E+03  0.82147972714E+03  0.00000000000E+00 0.  1.
          2   -1    0    0  502    0  0.00000000000E+00 -0.00000000000E+00 -0.21325820918E+04  0.21325820918E+04  0.00000000000E+00 0. -1.
    9000010    2    1    2  502    0 -0.76975461621E+03  0.33400391465E+03 -0.91608003099E+03  0.15958278545E+04  0.10016901387E+04 0.  0.
   -9000010    2    1    2    0  501  0.76975461621E+03 -0.33400391465E+03 -0.39502233363E+03  0.13582339644E+04  0.99230845698E+03 0.  0.
        -13    1    3    3    0    0 -0.68053971779E+03 -0.23233048186E+03 -0.62547615986E+03  0.95306463475E+03  0.10566000000E+00 0.  1.
         13    1    4    4    0    0  0.54380978713E+03 -0.68545145685E+03 -0.20197104853E+03  0.89797834043E+03  0.10566000000E+00 0. -1.
          4    1    3    3  502    0 -0.89214898421E+02  0.56633439651E+03 -0.29060387113E+03  0.64276321977E+03  0.00000000000E+00 0.  1.
         -4    1    4    4    0  501  0.22594482908E+03  0.35144754220E+03 -0.19305128510E+03  0.46025562396E+03  0.00000000000E+00 0. -1.
</event>
<event>
 7    1  0.7446554E-006  0.1442601E+04  0.7818608E-02  0.8443318E-01
          2   -1    0    0  502    0  0.00000000000E+00  0.00000000000E+00  0.22964930601E+04  0.22964930601E+04  0.00000000000E+00 0.  1.
         -2   -1    0    0    0  501 -0.00000000000E+00 -0.00000000000E+00 -0.10689750497E+04  0.10689750497E+04  0.00000000000E+00 0. -1.
    9000010    2    1    2  502    0  0.52117287619E+03  0.60321720456E+03  0.11694046402E+04  0.17271950134E+04  0.99005213955E+03 0.  0.
        -13    1    3    3    0    0 -0.28554575457E+03  0.27476563994E+03  0.42892991395E+03  0.58396354089E+03  0.10566000000E+00 0.  1.
         13    1    1    2    0    0 -0.88506042267E+03 -0.34209353033E+03  0.44350422842E+03  0.10474043856E+04  0.10566000000E+00 0. -1.
          4    1    3    3  502    0  0.80671863076E+03  0.32845156462E+03  0.74047472623E+03  0.11432314725E+04  0.00000000000E+00 0.  1.
         -4    1    1    2    0  501  0.36388754647E+03 -0.26112367422E+03 -0.38539085827E+03  0.59086871076E+03  0.00000000000E+00 0. -1.
</event>
<event>
 8    1  0.7446554E-006  0.1150686E+04  0.7818608E-02  0.8644651E-01
          2   -1    0    0  502    0  0.00000000000E+00  0.00000000000E+00  0.15683133204E+04  0.15683133204E+04  0.00000000000E+00 0. -1.
         -2   -1    0    0    0  501 -0.00000000000E+00 -0.00000000000E+00 -0.93353145341E+03  0.93353145341E+03  0.00000000000E+00 0.  1.
    9000010    2    1    2  502    0 -0.19819991548E+03 -0.51426889891E+03  0.70437301561E+03  0.13497428204E+04  0.10108949645E+04 0.  0.
   -9000010    2    1    2    0  501  0.19819991548E+03  0.51426889891E+03 -0.69591148669E+02  0.11521019533E+04  0.10093266449E+04 0.  0.
        -13    1    3    3    0    0  0.32128763483E+03 -0.48818958217E+03  0.56122112847E+03  0.81026167294E+03  0.10566000000E+00 0.  1.
         13    1    4    4    0    0  0.35902965717E+03  0.24216994113E+03  0.39768518484E+03  0.58796436331E+03  0.10566000000E+00 0. -1.
          4    1    3    3  502    0 -0.51948755032E+03 -0.26079316739E+02  0.14315188714E+03  0.53948114748E+03  0.00000000000E+00 0.  1.
         -4    1    4    4    0  501 -0.16082974168E+03  0.27209895778E+03 -0.46727633351E+03  0.56413759004E+03  0.00000000000E+00 0. -1.
</event>
<event>
 8    1  0.7446554E-006  0.1028979E+04  0.7818608E-02  0.8747830E-01
          2   -1    0    0  502    0  0.00000000000E+00  0.00000000000E+00  0.31563546444E+04  0.31563546444E+04  0.00000000000E+00 0.  1.
         -2   -1    0    0    0  501 -0.00000000000E+00 -0.00000000000E+00 -0.34648539337E+03  0.34648539337E+03  0.00000000000E+00 0. -1.
    9000010    2    1    2  502    0  0.10903279036E+03 -0.23614056343E+03  0.17154484481E+04  0.19995956243E+04  0.99396618028E+03 0.  0.
   -9000010    2    1    2    0  501 -0.10903279036E+03  0.23614056343E+03  0.10944208029E+04  0.15032444135E+04  0.99716415785E+03 0.  0.
        -13    1    3    3    0    0 -0.26394995092E+03 -0.25292058017E+03  0.15839776688E+03  0.39840715377E+03  0.10566000000E+00 0.  1.
         13    1    4    4    0    0 -0.86093087729E+02  0.43425929208E+03  0.56460982711E+02  0.44629699331E+03  0.10566000000E+00 0. -1.
          4    1    3    3  502    0  0.37298274127E+03  0.16780016737E+02  0.15570506812E+04  0.16011884705E+04  0.00000000000E+00 0.  1.
         -4    1    4    4    0  501 -0.22939702631E+02 -0.19811872864E+03  0.10379598202E+04  0.10569474202E+04  0.00000000000E+00 0. -1.
</event>
<event>
 8    1  0.7446554E-006  0.1242016E+04  0.7818608E-02  0.8575578E-01
         -2   -1    0    0    0  501 -0.00000000000E+00  0.00000000000E+00  0.19306754420E+04  0.19306754420E+04  0.00000000000E+00 0.  1.
          2   -1    0    0  502    0  0.00000000000E+00 -0.00000000000E+00 -0.89962729524E+03  0.89962729524E+03  0.00000000000E+00 0. -1.
    9000010    2    1    2  502    0  0.59509440498E+03  0.46028242579E+03  0.98092532341E+03  0.15671718030E+04  0.96323190746E+03 0.  0.
   -9000010    2    1    2    0  501 -0.59509440498E+03 -0.46028242579E+03  0.50122823388E+02  0.12631309343E+04  0.10134052484E+04 0.  0.
        -13    1    3    3    0    0  0.55416673746E+03  0.20729202201E+03  0.41170189268E+02  0.59309843277E+03  0.10566000000E+00 0.  1.
         13    1    4    4    0    0 -0.28916916020E+03  0.30820129157E+03  0.10069079847E+03  0.43444848647E+03  0.10566000000E+00 0. -1.
          4    1    3    3  502    0  0.40927667520E+02  0.25299040378E+03  0.93975513414E+03  0.97407337019E+03  0.00000000000E+00 0.  1.
         -4    1    4    4    0  501 -0.30592524478E+03 -0.76848371736E+03 -0.50567975080E+02  0.82868244784E+03  0.00000000000E+00 0. -1.
</event>
<event>
 8    1  0.7446554E-006  0.1805692E+04  0.7818608E-02  0.8252448E-01
          2   -1    0    0  502    0  0.00000000000E+00  0.00000000000E+00  0.15545616775E+04  0.15545616775E+04  0.00000000000E+00 0.  1.
         -2   -1    0    0    0  501 -0.00000000000E+00 -0.00000000000E+00 -0.23895731541E+04  0.23895731541E+04  0.00000000000E+00 0. -1.
    9000010    2    1    2  502    0  0.14710635080E+04 -0.33976539128E+03  0.27366900627E+03  0.18183237844E+04  0.97567325185E+03 0.  0.
   -9000010    2    1    2    0  501 -0.14710635080E+04  0.33976539128E+03 -0.11086804829E+04  0.21258110472E+04  0.10052023825E+04 0.  0.
        -13    1    3    3    0    0  0.15158559690E+04 -0.13180292256E+03  0.39688440300E+03  0.15724848393E+04  0.10566000000E+00 0.  1.
         13    1    4    4    0    0 -0.83455596247E+03  0.62298470625E+02 -0.23141853404E+02  0.83719789207E+03  0.10566000000E+00 0. -1.
          4    1    3    3  502    0 -0.44792461039E+02 -0.20796246872E+03 -0.12321539673E+03  0.24583894515E+03  0.00000000000E+00 0.  1.
         -4    1    4    4    0  501 -0.63650754553E+03  0.27746692065E+03 -0.10855386295E+04  0.12886131552E+04  0.00000000000E+00 0. -1.
</event>
<event>
 8    1  0.7446554E-006  0.1084883E+04  0.7818608E-02  0.8698687E-01
         -2   -1    0    0    0  501 -0.00000000000E+00  0.00000000000E+00  0.12507668314E+04  0.12507668314E+04  0.00000000000E+00 0.  1.
          2   -1    0    0  502    0  0.00000000000E+00 -0.00000000000E+00 -0.99485531469E+03  0.99485531469E+03  0.00000000000E+00 0. -1.
    9000010    2    1    2  502    0 -0.24149965092E+02 -0.39716260123E+03 -0.13284173615E+03  0.10966843798E+04  0.10132859169E+04 0.  0.
   -9000010    2    1    2    0  501  0.24149965092E+02  0.39716260123E+03  0.38875325282E+03  0.11489377663E+04  0.10052897824E+04 0.  0.
        -13    1    3    3    0    0 -0.36527985693E+03 -0.45583300810E+02 -0.39594254011E+03  0.54062715195E+03  0.10566000000E+00 0.  1.
         13    1    4    4    0    0 -0.84113057974E+02 -0.14639421125E+03 -0.25099809522E+03  0.30250012658E+03  0.10566000000E+00 0. -1.
          4    1    3    3  502    0  0.34112989184E+03 -0.35157930042E+03  0.26310080395E+03  0.55605722784E+03  0.00000000000E+00 0.  1.
         -4    1    4    4    0  501  0.10826302307E+03  0.54355681248E+03  0.63975134804E+03  0.84643763969E+03  0.00000000000E+00 0. -1.
</event>
<event>
 8    1  0.7446554E-006  0.1401958E+04  0.7818608E-02  0.8468257E-01
         -2   -1    0    0    0  501 -0.00000000000E+00  0.00000000000E+00  0.68740894692E+03  0.68740894692E+03  0.00000000000E+00 0. -1.
          2   -1    0    0  502    0  0.00000000000E+00 -0.00000000000E+00 -0.28647678631E+04  0.28647678631E+04  0.00000000000E+00 0.  1.
    9000010    2    1    2  502    0 -0.27335752563E+03 -0.91646477629E+03 -0.10265972542E+04  0.17511327087E+04  0.10478224172E+04 0.  0.
   -9000010    2    1    2    0  501  0.27335752563E+03  0.91646477629E+03 -0.11507616620E+04  0.18010441014E+04  0.10024347507E+04 0.  0.
        -13    1    3    3    0    0 -0.44482714224E+03 -0.98702277754E+02 -0.38723079924E+02  0.45728854588E+03  0.10566000000E+00 0.  1.
         13    1    4    4    0    0  0.15396958360E+03  0.43094690016E+03  0.87262472382E+02  0.46587188548E+03  0.10566000000E+00 0. -1.
          4    1    3    3  502    0  0.17146961661E+03 -0.81776249853E+03 -0.98787417425E+03  0.12938441628E+04  0.00000000000E+00 0.  1.
         -4    1    4    4    0  501  0.11938794203E+03  0.48551787613E+03 -0.12380241344E+04  0.13351722159E+04  0.00000000000E+00 0. -1.
</event>
<event>
 8    1  0.7446554E-006  0.1092050E+04  0.7818608E-02  0.8692610E-01
         -4   -1    0    0    0  501 -0.00000000000E+00  0.00000000000E+00  0.64562625352E+03  0.64562625352E+03  0.00000000000E+00 0. -1.
          4   -1    0    0  502    0  0.00000000000E+00 -0.00000000000E+00 -0.25606028124E+04  0.25606028124E+04  0.00000000000E+00 0.  1.
    9000010    2    1    2  502    0  0.41934598418E+03 -0.20575658325E+03 -0.18040036031E+04  0.21090494923E+04  0.98766084007E+03 0.  0.
   -9000010    2    1    2    0  501 -0.41934598418E+03  0.20575658325E+03 -0.11097295585E+03  0.10971795737E+04  0.98656028400E+03 0.  0.
        -13    1    3    3    0    0 -0.73993659070E+02  0.31242381665E+03 -0.28223890311E+03  0.42748393231E+03  0.10566000000E+00 0.  1.
         13    1    4    4    0    0 -0.11566927988E+03  0.58948188092E+03 -0.32744371696E+02  0.60161488952E+03  0.10566000000E+00 0. -1.
          4    1    3    3  502    0  0.49333964325E+03 -0.51818039990E+03 -0.15217646999E+04  0.16815655600E+04  0.00000000000E+00 0.  1.
         -4    1    4    4    0  501 -0.30367670429E+03 -0.38372529768E+03 -0.78228584159E+02  0.49556468416E+03  0.00000000000E+00 0. -1.
</event>
<event>
 8    1  0.7446554E-006  0.1364148E+04  0.7818608E-02  0.8492248E-01
          2   -1    0    0  502    0  0.00000000000E+00  0.00000000000E+00  0.19182679456E+04  0.19182679456E+04  0.00000000000E+00 0.  1.
         -2   -1    0    0    0  501 -0.00000000000E+00 -0.00000000000E+00 -0.14813873634E+04  0.14813873634E+04  0.00000000000E+00 0. -1.
    9000010    2    1    2  502    0 -0.65345713481E+03  0.70443758277E+03 -0.78201695116E+03  0.15551972274E+04  0.94013263378E+03 0.  0.
   -9000010    2    1    2    0  501  0.65345713481E+03 -0.70443758277E+03  0.12188975334E+04  0.18444580816E+04  0.99653192763E+03 0.  0.
        -13    1    3    3    0    0 -0.64184246899E+02  0.46509745023E+03 -0.79015746258E+03  0.91912136445E+03  0.10566000000E+00 0.  1.
         13    1    4    4    0    0 -0.12296731281E+03 -0.44633633702E+03  0.80232482853E+03  0.92631648339E+03  0.10566000000E+00 0. -1.
          4    1    3    3  502    0 -0.58927288791E+03  0.23934013255E+03  0.81405114210E+01  0.63607586293E+03  0.00000000000E+00 0.  1.
         -4    1    4    4    0  501  0.77642444762E+03 -0.25810124575E+03  0.41657270486E+03  0.91814159820E+03  0.00000000000E+00 0. -1.
</event>
<event>
 8    1  0.7446554E-006  0.1249120E+04  0.7818608E-02  0.8570464E-01
          2   -1    0    0  502    0  0.00000000000E+00  0.00000000000E+00  0.17571593848E+04  0.17571593848E+04  0.00000000000E+00 0. -1.
         -2   -1    0    0    0  501 -0.00000000000E+00 -0.00000000000E+00 -0.88827723170E+03  0.88827723170E+03  0.00000000000E+00 0.  1.
    9000010    2    1    2  502    0  0.58759665319E+02 -0.74299301322E+03  0.45680725595E+03  0.13252875814E+04  0.99610390442E+03 0.  0.
   -9000010    2    1    2    0  501 -0.58759665319E+02  0.74299301322E+03  0.41207489712E+03  0.13201490350E+04  0.10087102844E+04 0.  0.
        -13    1    3    3    0    0  0.43282850427E+03 -0.12633923789E+03  0.39840011276E+03  0.60168494925E+03  0.10566000000E+00 0.  1.
         13    1    4    4    0    0 -0.21618301175E+03 -0.13859556095E+03 -0.11461841399E+03  0.28121382625E+03  0.10566000000E+00 0. -1.
          4    1    3    3  502    0 -0.37406883895E+03 -0.61665377533E+03  0.58407143186E+02  0.72360263216E+03  0.00000000000E+00 0.  1.
         -4    1    4    4    0  501  0.15742334644E+03  0.88158857417E+03  0.52669331111E+03  0.10389352088E+04  0.00000000000E+00 0. -1.
</event>
<event>
 8    1  0.7446554E-006  0.1127107E+04  0.7818608E-02  0.8663572E-01
          1   -1    0    0  502    0  0.00000000000E+00  0.00000000000E+00  0.14472199597E+04  0.14472199597E+04  0.00000000000E+00 0. -1.
         -1   -1    0    0    0  501 -0.00000000000E+00 -0.00000000000E+00 -0.92927834917E+03  0.92927834917E+03  0.00000000000E+00 0.  1.
    9000010    2    1    2  502    0  0.19061149115E+03 -0.36469012108E+03 -0.26489515073E+02  0.10818917092E+04  0.10002281495E+04 0.  0.
   -9000010    2    1    2    0  501 -0.19061149115E+03  0.36469012108E+03  0.54443112557E+03  0.12946065996E+04  0.11001224352E+04 0.  0.
        -13    1    3    3    0    0 -0.38126723131E+03 -0.13231892628E+03 -0.18593255710E+03  0.44434662919E+03  0.10566000000E+00 0.  1.
         13    1    4    4    0    0 -0.54878578554E+03 -0.12714815195E+03  0.21710184664E+03  0.60370995845E+03  0.10566000000E+00 0. -1.
          4    1    3    3  502    0  0.57187872245E+03 -0.23237119480E+03  0.15944304203E+03  0.63754507999E+03  0.00000000000E+00 0.  1.
         -4    1    4    4    0  501  0.35817429439E+03  0.49183827303E+03  0.32732927893E+03  0.69089664120E+03  0.00000000000E+00 0. -1.
</event>
<event>
 8    1  0.7446554E-006  0.1318089E+04  0.7818608E-02  0.8522577E-01
          2   -1    0    0  502    0  0.00000000000E+00  0.00000000000E+00  0.17515755603E+04  0.17515755603E+04  0.00000000000E+00 0.  1.
         -2   -1    0    0    0  501 -0.00000000000E+00 -0.00000000000E+00 -0.12184076229E+04  0.12184076229E+04  0.00000000000E+00 0. -1.
    9000010    2    1    2  502    0  0.29643507904E+03  0.78493639125E+03 -0.37583712021E+03  0.13572366700E+04  0.99841822050E+03 0.  0.
   -9000010    2    1    2    0  501 -0.29643507904E+03 -0.78493639125E+03  0.90900505761E+03  0.16127465131E+04  0.10347280930E+04 0.  0.
        -13    1    3    3    0    0  0.46282367159E+03  0.46967744132E+03 -0.63583652665E+03  0.91601896795E+03  0.10566000000E+00 0.  1.
         13    1    4    4    0    0  0.10509445796E+03  0.55332242452E+02  0.62924522927E+03  0.64035620702E+03  0.10566000000E+00 0. -1.
          4    1    3    3  502    0 -0.16638859255E+03  0.31525894993E+03  0.25999940644E+03  0.44121770203E+03  0.00000000000E+00 0.  1.
         -4    1    4    4    0  501 -0.40152953700E+03 -0.84026863370E+03  0.27975982834E+03  0.97239030611E+03  0.00000000000E+00 0. -1.
</event>
<event>
 8    1  0.7446554E-006  0.1301614E+04  0.7818608E-02  0.8533736E-01
          1   -1    0    0  502    0  0.00000000000E+00  0.00000000000E+00  0.19757945965E+04  0.19757945965E+04  0.00000000000E+00 0.  1.
         -1   -1    0    0    0  501 -0.00000000000E+00 -0.00000000000E+00 -0.85883275534E+03  0.85883275534E+03  0.00000000000E+00 0. -1.
    9000010    2    1    2  502    0 -0.80420573799E+03 -0.46026212577E+03  0.54733270784E+03  0.14531905591E+04  0.97652527593E+03 0.  0.
   -9000010    2    1    2    0  501  0.80420573799E+03  0.46026212577E+03  0.56962913327E+03  0.13814367927E+04  0.85164673974E+03 0.  0.
        -13    1    3    3    0    0 -0.90587997419E+03 -0.27745431511E+03  0.91712074165E+02  0.95184585954E+03  0.10566000000E+00 0.  1.
         13    1    4    4    0    0  0.82458799457E+03  0.63395363501E+03  0.60462663205E+03  0.12030860100E+04  0.10566000000E+00 0. -1.
          4    1    3    3  502    0  0.10167423619E+03 -0.18280781066E+03  0.45562063367E+03  0.50134469956E+03  0.00000000000E+00 0.  1.
         -4    1    4    4    0  501 -0.20382256579E+02 -0.17369150924E+03 -0.34997498781E+02  0.17835078269E+03  0.00000000000E+00 0. -1.
</event>
<event>
 8    1  0.7446554E-006  0.1143753E+04  0.7818608E-02  0.8650166E-01
          1   -1    0    0  502    0  0.00000000000E+00  0.00000000000E+00  0.18176410040E+04  0.18176410040E+04  0.00000000000E+00 0.  1.
         -1   -1    0    0    0  501 -0.00000000000E+00 -0.00000000000E+00 -0.73316558758E+03  0.73316558758E+03  0.00000000000E+00 0. -1.
    9000010    2    1    2  502    0 -0.51185016525E+03 -0.27029584532E+02  0.37516940050E+03  0.12145208873E+04  0.10351752106E+04 0.  0.
   -9000010    2    1    2    0  501  0.51185016525E+03  0.27029584532E+02  0.70930601596E+03  0.13362857043E+04  0.10098629952E+04 0.  0.
        -13    1    3    3    0    0  0.61897937970E+02 -0.16972791868E+03  0.56530553026E+03  0.59347221907E+03  0.10566000000E+00 0.  1.
         13    1    4    4    0    0  0.70420859359E+03 -0.28962382910E+03  0.45742562951E+03  0.88827356336E+03  0.10566000000E+00 0. -1.
          4    1    3    3  502    0 -0.57374810322E+03  0.14269833414E+03 -0.19013612977E+03  0.62104866827E+03  0.00000000000E+00 0.  1.
         -4    1    4    4    0  501 -0.19235842834E+03  0.31665341364E+03  0.25188038645E+03  0.44801214091E+03  0.00000000000E+00 0. -1.
</event>
<event>
 8    1  0.7446554E-006  0.1239275E+04  0.7818608E-02  0.8577560E-01
         -1   -1    0    0    0  501 -0.00000000000E+00  0.00000000000E+00  0.12656246363E+04  0.12656246363E+04  0.00000000000E+00 0. -1.
          1   -1    0    0  502    0  0.00000000000E+00 -0.00000000000E+00 -0.13920558890E+04  0.13920558890E+04  0.00000000000E+00 0.  1.
    9000010    2    1    2  502    0  0.61461068640E+03 -0.37781718577E+03 -0.53903247075E+03  0.13488193499E+04  0.10041242514E+04 0.  0.
   -9000010    2    1    2    0  501 -0.61461068640E+03  0.37781718577E+03  0.41260121806E+03  0.13088611754E+04  0.10111308964E+04 0.  0.
        -13    1    3    3    0    0  0.67742642195E+02 -0.40386243924E+03 -0.67059793597E+03  0.78574521207E+03  0.10566000000E+00 0.  1.
         13    1    4    4    0    0 -0.80289931511E+03  0.15167659399E+03  0.18872666163E+02  0.81731835172E+03  0.10566000000E+00 0. -1.
          4    1    3    3  502    0  0.54686804420E+03  0.26045253463E+02  0.13156546522E+03  0.56307413778E+03  0.00000000000E+00 0.  1.
         -4    1    4    4    0  501  0.18828862871E+03  0.22614059178E+03  0.39372855190E+03  0.49154282370E+03  0.00000000000E+00 0. -1.
</event>
<event>
 8    1  0.7446554E-006  0.1322818E+04  0.7818608E-02  0.8519404E-01
         -1   -1    0    0    0  501 -0.00000000000E+00  0.00000000000E+00  0.86094916035E+03  0.86094916035E+03  0.00000000000E+00 0. -1.
          1   -1    0    0  502    0  0.00000000000E+00 -0.00000000000E+00 -0.20393904818E+04  0.20393904818E+04  0.00000000000E+00 0.  1.
    9000010    2    1    2  502    0 -0.79042337706E+03  0.34603687769E+03 -0.50550691386E+03  0.14177699887E+04  0.10049994354E+04 0.  0.
   -9000010    2    1    2    0  501  0.79042337706E+03 -0.34603687769E+03 -0.67293440757E+03  0.14825696535E+04  0.10003306577E+04 0.  0.
        -13    1    3    3    0    0  0.84083291958E+02  0.27722197859E+03  0.14665092467E+03  0.32469759819E+03  0.10566000000E+00 0.  1.
         13    1    4    4    0    0  0.65168781049E+03  0.12366476030E+03 -0.16449095256E+02  0.66352133287E+03  0.10566000000E+00 0. -1.
          4    1    3    3  502    0 -0.87450666902E+03  0.68814899106E+02 -0.65215783853E+03  0.10930723905E+04  0.00000000000E+00 0.  1.
         -4    1    4    4    0  501  0.13873556657E+03 -0.46970163799E+03 -0.65648531232E+03  0.81904832059E+03  0.00000000000E+00 0. -1.
</event>
<event>
 8    1  0.7446554E-006  0.1065666E+04  0.7818608E-02  0.8715225E-01
         -1   -1    0    0    0  501 -0.00000000000E+00  0.00000000000E+00  0.66007539414E+03  0.66007539414E+03  0.00000000000E+00 0. -1.
          1   -1    0    0  502    0  0.00000000000E+00 -0.00000000000E+00 -0.17295391011E+04  0.17295391011E+04  0.00000000000E+00 0.  1.
    9000010    2    1    2  502    0  0.72531180687E+02 -0.29467297996E+03 -0.46228559530E+03  0.11814322565E+04  0.10440216798E+04 0.  0.
   -9000010    2    1    2    0  501 -0.72531180687E+02  0.29467297996E+03 -0.60717811162E+03  0.12081822387E+04  0.99947292377E+03 0.  0.
        -13    1    3    3    0    0  0.41974404783E+03 -0.51276316968E+03 -0.19044059895E+03  0.68947716914E+03  0.10566000000E+00 0.  1.
         13    1    4    4    0    0 -0.30548372492E+02  0.22770915759E+03 -0.88759101652E+03  0.91684376384E+03  0.10566000000E+00 0. -1.
          4    1    3    3  502    0 -0.34721286714E+03  0.21809018972E+03 -0.27184499635E+03  0.49195508738E+03  0.00000000000E+00 0.  1.
         -4    1    4    4    0  501 -0.41982808195E+02  0.66963822372E+02  0.28041290490E+03  0.29133847485E+03  0.00000000000E+00 0. -1.
</event>
<event>
 8    1  0.7446554E-006  0.1474967E+04  0.7818608E-02  0.8424053E-01
         -2   -1    0    0    0  501 -0.00000000000E+00  0.00000000000E+00  0.12199175058E+04  0.12199175058E+04  0.00000000000E+00 0.  1.
          2   -1    0    0  502    0  0.00000000000E+00 -0.00000000000E+00 -0.20354990305E+04  0.20354990305E+04  0.00000000000E+00 0. -1.
    9000010    2    1    2  502    0  0.83074265863E+03  0.72232481260E+03 -0.98767490776E+03  0.18035752714E+04  0.10322284322E+04 0.  0.
   -9000010    2    1    2    0  501 -0.83074265863E+03 -0.72232481260E+03  0.17209338314E+03  0.14518412649E+04  0.93077410057E+03 0.  0.
        -13    1    3    3    0    0 -0.23930344037E+03  0.95736129529E+02 -0.91007247180E+02  0.27333838602E+03  0.10566000000E+00 0.  1.
         13    1    4    4    0    0 -0.64872555957E+03 -0.60118395606E+03 -0.29806263366E+03  0.93333185171E+03  0.10566000000E+00 0. -1.
          4    1    3    3  502    0  0.10700460990E+04  0.62658868307E+03 -0.89666766058E+03  0.15302368853E+04  0.00000000000E+00 0.  1.
         -4    1    4    4    0  501 -0.18201709906E+03 -0.12114085654E+03  0.47015601680E+03  0.51850941323E+03  0.00000000000E+00 0. -1.
</event>
<event>
 8    1  0.7446554E-006  0.1160253E+04  0.7818608E-02  0.8637110E-01
         -2   -1    0    0    0  501 -0.00000000000E+00  0.00000000000E+00  0.52522067294E+03  0.52522067294E+03  0.00000000000E+00 0. -1.
          2   -1    0    0  502    0  0.00000000000E+00 -0.00000000000E+00 -0.25811035296E+04  0.25811035296E+04  0.00000000000E+00 0.  1.
    9000010    2    1    2  502    0  0.41060623320E+03  0.47090570344E+03 -0.11623341035E+04  0.16462149683E+04  0.98420195754E+03 0.  0.
   -9000010    2    1    2    0  501 -0.41060623320E+03 -0.47090570344E+03 -0.89354875310E+03  0.14601092342E+04  0.97115392266E+03 0.  0.
        -13    1    3    3    0    0 -0.27660111688E+03  0.98631489710E+02 -0.67977217010E+02  0.30142538350E+03  0.10566000000E+00 0.  1.
         13    1    4    4    0    0 -0.64817017562E+03 -0.47361402356E+02 -0.37787649421E+03  0.75177013445E+03  0.10566000000E+00 0. -1.
          4    1    3    3  502    0  0.68720735008E+03  0.37227421373E+03 -0.10943568865E+04  0.13447895848E+04  0.00000000000E+00 0.  1.
         -4    1    4    4    0  501  0.23756394243E+03 -0.42354430109E+03 -0.51567225888E+03  0.70833909980E+03  0.00000000000E+00 0. -1.
</event>
<event>
 8    1  0.7446554E-006  0.1604644E+04  0.7818608E-02  0.8351698E-01
          2   -1    0    0  502    0  0.00000000000E+00  0.00000000000E+00  0.20862673481E+04  0.20862673481E+04  0.00000000000E+00 0. -1.
         -2   -1    0    0    0  501 -0.00000000000E+00 -0.00000000000E+00 -0.14444485554E+04  0.14444485554E+04  0.00000000000E+00 0.  1.
    9000010    2    1    2  502    0 -0.65993295396E+03  0.10654320098E+04 -0.35211006857E+03  0.16455823162E+04  0.10066294194E+04 0.  0.
   -9000010    2    1    2    0  501  0.65993295396E+03 -0.10654320098E+04  0.99392886130E+03  0.18851335873E+04  0.99758568031E+03 0.  0.
        -13    1    3    3    0    0 -0.89547873974E+03  0.98932538092E+03 -0.18560022746E+03  0.13472543703E+04  0.10566000000E+00 0.  1.
         13    1    4    4    0    0  0.18912260784E+03  0.30129301867E+02  0.59919651040E+03  0.62905612219E+03  0.10566000000E+00 0. -1.
          4    1    3    3  502    0  0.23554578578E+03  0.76106628844E+02 -0.16650984110E+03  0.29832794595E+03  0.00000000000E+00 0.  1.
         -4    1    4    4    0  501  0.47081034613E+03 -0.10955613116E+04  0.39473235090E+03  0.12560774651E+04  0.00000000000E+00 0. -1.
</event>
<event>
 8    1  0.7446554E-006  0.1086756E+04  0.7818608E-02  0.8697095E-01
         -4   -1    0    0    0  501 -0.00000000000E+00  0.00000000000E+00  0.14748668087E+04  0.14748668087E+04  0.00000000000E+00 0. -1.
          4   -1    0    0  502    0  0.00000000000E+00 -0.00000000000E+00 -0.81117360211E+03  0.81117360211E+03  0.00000000000E+00 0.  1.
    9000010    2    1    2  502    0 -0.12119522766E+01 -0.42430693765E+03  0.46000486042E+03  0.11764878577E+04  0.99623358789E+03 0.  0.
   -9000010    2    1    2    0  501  0.12119522766E+01  0.42430693765E+03  0.20368834619E+03  0.11095525531E+04  0.10047786221E+04 0.  0.
        -13    1    3    3    0    0 -0.37148692883E+03 -0.57374057610E+03  0.29467723827E+03  0.74432215664E+03  0.10566000000E+00 0.  1.
         13    1    4    4    0    0  0.36437338732E+03  0.23873775854E+03  0.45548137434E+03  0.63025945156E+03  0.10566000000E+00 0. -1.
          4    1    3    3  502    0  0.37027497655E+03  0.14943363844E+03  0.16532762215E+03  0.43216570110E+03  0.00000000000E+00 0.  1.
         -4    1    4    4    0  501 -0.36316143505E+03  0.18556917912E+03 -0.25179302815E+03  0.47929310152E+03  0.00000000000E+00 0. -1.
</event>
<event>
 8    1  0.7446554E-006  0.1547665E+04  0.7818608E-02  0.8382584E-01
         -2   -1    0    0    0  501 -0.00000000000E+00  0.00000000000E+00  0.91442848952E+03  0.91442848952E+03  0.00000000000E+00 0. -1.
          2   -1    0    0  502    0  0.00000000000E+00 -0.00000000000E+00 -0.27988739327E+04  0.27988739327E+04  0.00000000000E+00 0.  1.
    9000010    2    1    2  502    0  0.10848115351E+04  0.39722234393E+03 -0.47027931365E+03  0.16144746120E+04  0.10250677943E+04 0.  0.
   -9000010    2    1    2    0  501 -0.10848115351E+04 -0.39722234393E+03 -0.14141661295E+04  0.20988278101E+04  0.10347031833E+04 0.  0.
        -13    1    3    3    0    0  0.10193183649E+04  0.57458116359E+02 -0.66404685116E+03  0.12178955603E+04  0.10566000000E+00 0.  1.
         13    1    4    4    0    0 -0.96178914104E+03  0.14504264082E+03 -0.10646066650E+04  0.14420343553E+04  0.10566000000E+00 0. -1.
          4    1    3    3  502    0  0.65493170226E+02  0.33976422757E+03  0.19376753751E+03  0.39657905174E+03  0.00000000000E+00 0.  1.
         -4    1    4    4    0  501 -0.12302239406E+03 -0.54226498475E+03 -0.34955946447E+03  0.65679345484E+03  0.00000000000E+00 0. -1.
</event>
<event>
 8    1  0.7446554E-006  0.1370290E+04  0.7818608E-02  0.8488296E-01
          2   -1    0    0  502    0  0.00000000000E+00  0.00000000000E+00  0.26672887834E+04  0.26672887834E+04  0.00000000000E+00 0. -1.
         -2   -1    0    0    0  501 -0.00000000000E+00 -0.00000000000E+00 -0.80014250474E+03  0.80014250474E+03  0.00000000000E+00 0.  1.
    9000010    2    1    2  502    0  0.88248824807E+03  0.27667488995E+03  0.15346689568E+04  0.20574456062E+04  0.10112067607E+04 0.  0.
   -9000010    2    1    2    0  501 -0.88248824807E+03 -0.27667488995E+03  0.33247732186E+03  0.14099856819E+04  0.10110311326E+04 0.  0.
        -13    1    3    3    0    0  0.10954645525E+04  0.22962987619E+03  0.10908202658E+04  0.15629015738E+04  0.10566000000E+00 0.  1.
         13    1    4    4    0    0  0.39604011394E+01  0.30320994443E+03  0.12715120078E+02  0.30350229096E+03  0.10566000000E+00 0. -1.
          4    1    3    3  502    0 -0.21297630440E+03  0.47045013764E+02  0.44384869097E+03  0.49454403245E+03  0.00000000000E+00 0.  1.
         -4    1    4    4    0  501 -0.88644864921E+03 -0.57988483438E+03  0.31976220178E+03  0.11064833910E+04  0.00000000000E+00 0. -1.
</event>
<event>
 8    1  0.7446554E-006  0.1819341E+04  0.7818608E-02  0.8246197E-01
          2   -1    0    0  502    0  0.00000000000E+00  0.00000000000E+00  0.21624076579E+04  0.21624076579E+04  0.00000000000E+00 0.  1.
         -2   -1    0    0    0  501 -0.00000000000E+00 -0.00000000000E+00 -0.19695920323E+04  0.19695920323E+04  0.00000000000E+00 0. -1.
    9000010    2    1    2  502    0 -0.44000766229E+03 -0.14474785227E+04  0.10714562913E+04  0.21072866267E+04  0.10019169259E+04 0.  0.
   -9000010    2    1    2    0  501  0.44000766229E+03  0.14474785227E+04 -0.87864066570E+03  0.20247130635E+04  0.10191431468E+04 0.  0.
        -13    1    3    3    0    0 -0.76629266375E+01 -0.20212794175E+03 -0.19376193088E+03  0.28010377060E+03  0.10566000000E+00 0.  1.
         13    1    4    4    0    0 -0.24239505621E+03  0.54647690760E+03 -0.62790194987E+03  0.86697937901E+03  0.10566000000E+00 0. -1.
          4    1    3    3  502    0 -0.43234473565E+03 -0.12453505810E+04  0.12652182221E+04  0.18271828561E+04  0.00000000000E+00 0.  1.
         -4    1    4    4    0  501  0.68240271850E+03  0.90100161511E+03 -0.25073871583E+03  0.11577336845E+04  0.00000000000E+00 0. -1.
</event>
<event>
 8    1  0.7446554E-006  0.1837509E+04  0.7818608E-02  0.8237962E-01
         -2   -1    0    0    0  501 -0.00000000000E+00  0.00000000000E+00  0.35460434366E+04  0.35460434366E+04  0.00000000000E+00 0. -1.
          2   -1    0    0  502    0  0.00000000000E+00 -0.00000000000E+00 -0.95358038597E+03  0.95358038597E+03  0.00000000000E+00 0.  1.
    9000010    2    1    2  502    0  0.14227416533E+04  0.48640564832E+03  0.12256878864E+04  0.22241990039E+04  0.10881020850E+04 0.  0.
   -9000010    2    1    2    0  501 -0.14227416533E+04 -0.48640564832E+03  0.13667751642E+04  0.22754248186E+04  0.10240602957E+04 0.  0.
        -13    1    3    3    0    0  0.60734319985E+03  0.77454300869E+03  0.55635807687E+03  0.11306267977E+04  0.10566000000E+00 0.  1.
         13    1    4    4    0    0 -0.67873916637E+03 -0.66004253569E+03  0.11329360852E+04  0.14764441030E+04  0.10566000000E+00 0. -1.
          4    1    3    3  502    0  0.81539845341E+03 -0.28813736037E+03  0.66932980956E+03  0.10935722062E+04  0.00000000000E+00 0.  1.
         -4    1    4    4    0  501 -0.74400248689E+03  0.17363688737E+03  0.23383907895E+03  0.79898071566E+03  0.00000000000E+00 0. -1.
</event>
<event>
 8    1  0.7446554E-006  0.1235227E+04  0.7818608E-02  0.8580497E-01
         -2   -1    0    0    0  501 -0.00000000000E+00  0.00000000000E+00  0.58083588121E+03  0.58083588121E+03  0.00000000000E+00 0. -1.
          2   -1    0    0  502    0  0.00000000000E+00 -0.00000000000E+00 -0.26329844865E+04  0.26329844865E+04  0.00000000000E+00 0.  1.
    9000010    2    1    2  502    0  0.39206145707E+03  0.50112842315E+03 -0.10970354325E+04  0.16467793763E+04  0.10505016379E+04 0.  0.
   -9000010    2    1    2    0  501 -0.39206145707E+03 -0.50112842315E+03 -0.95511317279E+03  0.15670409914E+04  0.10670212807E+04 0.  0.
        -13    1    3    3    0    0  0.38080823613E+03 -0.26373470394E+03 -0.41181355200E+03  0.61980748587E+03  0.10566000000E+00 0.  1.
         13    1    4    4    0    0  0.20514107915E+03 -0.58222446836E+03 -0.33517930630E+03  0.70243389187E+03  0.10566000000E+00 0. -1.
          4    1    3    3  502    0  0.11253220941E+02  0.76486312708E+03 -0.68522188051E+03  0.10269718904E+04  0.00000000000E+00 0.  1.
         -4    1    4    4    0  501 -0.59720253622E+03  0.81096045215E+02 -0.61993386649E+03  0.86460709958E+03  0.00000000000E+00 0. -1.
</event>
<event>
 8    1  0.7446554E-006  0.1096318E+04  0.7818608E-02  0.8689015E-01
         -2   -1    0    0    0  501 -0.00000000000E+00  0.00000000000E+00  0.71883542186E+03  0.71883542186E+03  0.00000000000E+00 0. -1.
          2   -1    0    0  502    0  0.00000000000E+00 -0.00000000000E+00 -0.23973842865E+04  0.23973842865E+04  0.00000000000E+00 0.  1.
    9000010    2    1    2  502    0 -0.23495162838E+03  0.37694900514E+03 -0.16948977471E+04  0.20171226312E+04  0.99940608167E+03 0.  0.
   -9000010    2    1    2    0  501  0.23495162838E+03 -0.37694900514E+03  0.16348882493E+02  0.10990970771E+04  0.10052135489E+04 0.  0.
        -13    1    3    3    0    0 -0.30833423983E+03  0.25744354751E+03 -0.97188860152E+02  0.41327093934E+03  0.10566000000E+00 0.  1.
         13    1    4    4    0    0  0.37443355460E+03  0.17359012025E+03  0.25271456219E+03  0.48394077919E+03  0.10566000000E+00 0. -1.
          4    1    3    3  502    0  0.73382611454E+02  0.11950545763E+03 -0.15977088870E+04  0.16038516919E+04  0.00000000000E+00 0.  1.
         -4    1    4    4    0  501 -0.13948192622E+03 -0.55053912539E+03 -0.23636567970E+03  0.61515629792E+03  0.00000000000E+00 0. -1.
</event>
<event>
 8    1  0.7446554E-006  0.1245314E+04  0.7818608E-02  0.8573200E-01
          2   -1    0    0  502    0  0.00000000000E+00  0.00000000000E+00  0.13446711395E+04  0.13446711395E+04  0.00000000000E+00 0. -1.
         -2   -1    0    0    0  501 -0.00000000000E+00 -0.00000000000E+00 -0.11937125127E+04  0.11937125127E+04  0.00000000000E+00 0.  1.
    9000010    2    1    2  502    0  0.43222066008E+03  0.64452823723E+03  0.30717983916E+03  0.12649036990E+04  0.95046860374E+03 0.  0.
   -9000010    2    1    2    0  501 -0.43222066008E+03 -0.64452823723E+03 -0.15622121230E+03  0.12734799532E+04  0.99755439770E+03 0.  0.
        -13    1    3    3    0    0 -0.93543005560E+02  0.23500203103E+03  0.50916532105E+03  0.56852931658E+03  0.10566000000E+00 0.  1.
         13    1    4    4    0    0 -0.68412106535E+03 -0.20931197919E+03  0.76266068745E+02  0.71947874263E+03  0.10566000000E+00 0. -1.
          4    1    3    3  502    0  0.52576366564E+03  0.40952620619E+03 -0.20198548190E+03  0.69637438247E+03  0.00000000000E+00 0.  1.
         -4    1    4    4    0  501  0.25190040527E+03 -0.43521625804E+03 -0.23248728104E+03  0.55400121054E+03  0.00000000000E+00 0. -1.
</event>
<event>
 8    1  0.7446554E-006  0.1279516E+04  0.7818608E-02  0.8548975E-01
         -4   -1    0    0    0  501 -0.00000000000E+00  0.00000000000E+00  0.11470007917E+04  0.11470007917E+04  0.00000000000E+00 0. -1.
          4   -1    0    0  502    0  0.00000000000E+00 -0.00000000000E+00 -0.16975756263E+04  0.16975756263E+04  0.00000000000E+00 0.  1.
    9000010    2    1    2  502    0  0.54030320101E+03 -0.55811952270E+03 -0.83635528412E+03  0.15038191422E+04  0.97905919146E+03 0.  0.
   -9000010    2    1    2    0  501 -0.54030320101E+03  0.55811952270E+03  0.28578044951E+03  0.13407572758E+04  0.10547675841E+04 0.  0.
        -13    1    3    3    0    0  0.74468372363E+03 -0.13681616827E+03 -0.65675531481E+03  0.10022973944E+04  0.10566000000E+00 0.  1.
         13    1    4    4    0    0 -0.36068623042E+03  0.75906309277E+03  0.51611054425E+03  0.98622585682E+03  0.10566000000E+00 0. -1.
          4    1    3    3  502    0 -0.20438052262E+03 -0.42130335444E+03 -0.17959996932E+03  0.50152174775E+03  0.00000000000E+00 0.  1.
         -4    1    4    4    0  501 -0.17961697059E+03 -0.20094357007E+03 -0.23033009473E+03  0.35453141894E+03  0.00000000000E+00 0. -1.
</event>
<event>
 8    1  0.7446554E-006  0.1096997E+04  0.7818608E-02  0.8688444E-01
         -1   -1    0    0    0  501 -0.00000000000E+00  0.00000000000E+00  0.19559589616E+04  0.19559589616E+04  0.00000000000E+00 0.  1.
          1   -1    0    0  502    0  0.00000000000E+00 -0.00000000000E+00 -0.62310056205E+03  0.62310056205E+03  0.00000000000E+00 0. -1.
    9000010    2    1    2  502    0 -0.64196238954E+02  0.38971357861E+03  0.79367912682E+03  0.13345383245E+04  0.99753102846E+03 0.  0.
   -9000010    2    1    2    0  501  0.64196238954E+02 -0.38971357861E+03  0.53917927271E+03  0.12445211991E+04  0.10498194590E+04 0.  0.
        -13    1    3    3    0    0 -0.38010032014E+02  0.59365568870E+03  0.91827230778E+03  0.10941187695E+04  0.10566000000E+00 0.  1.
         13    1    4    4    0    0  0.24389497934E+03 -0.62287219291E+03  0.46419358717E+02  0.67052911769E+03  0.10566000000E+00 0. -1.
          4    1    3    3  502    0 -0.26186206940E+02 -0.20394211010E+03 -0.12459318096E+03  0.24041955504E+03  0.00000000000E+00 0.  1.
         -4    1    4    4    0  501 -0.17969874039E+03  0.23315861430E+03  0.49275991399E+03  0.57399208144E+03  0.00000000000E+00 0. -1.
</event>
<event>
 8    1  0.7446554E-006  0.1306650E+04  0.7818608E-02  0.8530307E-01
          1   -1    0    0  502    0  0.00000000000E+00  0.00000000000E+00  0.11945235410E+04  0.11945235410E+04  0.00000000000E+00 0. -1.
         -1   -1    0    0    0  501 -0.00000000000E+00 -0.00000000000E+00 -0.15350092258E+04  0.15350092258E+04  0.00000000000E+00 0.  1.
    9000010    2    1    2  502    0  0.77935538813E+03 -0.35012142733E+03 -0.52918659297E+03  0.14165091503E+04  0.99823839234E+03 0.  0.
   -9000010    2    1    2    0  501 -0.77935538813E+03  0.35012142733E+03  0.18870090822E+03  0.13130236165E+04  0.97900109791E+03 0.  0.
        -13    1    3    3    0    0  0.39477898760E+03 -0.54434022596E+03 -0.68355204660E+03  0.95885355619E+03  0.10566000000E+00 0.  1.
         13    1    4    4    0    0 -0.16095034463E+03 -0.12822634905E+03  0.44499031189E+03  0.49026870068E+03  0.10566000000E+00 0. -1.
          4    1    3    3  502    0  0.38457640053E+03  0.19421879863E+03  0.15436545362E+03  0.45765559416E+03  0.00000000000E+00 0.  1.
         -4    1    4    4    0  501 -0.61840504350E+03  0.47834777638E+03 -0.25628940366E+03  0.82275491577E+03  0.00000000000E+00 0. -1.
</event>
<event>
 8    1  0.7446554E-006  0.1346228E+04  0.7818608E-02  0.8503899E-01
         -1   -1    0    0    0  501 -0.00000000000E+00  0.00000000000E+00  0.13565940807E+04  0.13565940807E+04  0.00000000000E+00 0.  1.
          1   -1    0    0  502    0  0.00000000000E+00 -0.00000000000E+00 -0.14323738000E+04  0.14323738000E+04  0.00000000000E+00 0. -1.
    9000010    2    1    2  502    0 -0.40934300092E+03 -0.87255248967E+03 -0.39529632896E+03  0.13593118328E+04  0.87324677578E+03 0.  0.
   -9000010    2    1    2    0  501  0.40934300092E+03  0.87255248967E+03  0.31951660971E+03  0.14296560479E+04  0.10064372866E+04 0.  0.
        -13    1    3    3    0    0 -0.65788595139E+03 -0.44902991935E+03 -0.15049602778E+03  0.81061141063E+03  0.10566000000E+00 0.  1.
         13    1    4    4    0    0  0.39390717272E+03 -0.55044148658E+02  0.30601197600E+03  0.50183270085E+03  0.10566000000E+00 0. -1.
          4    1    3    3  502    0  0.24854295047E+03 -0.42352257032E+03 -0.24480030118E+03  0.54870042214E+03  0.00000000000E+00 0.  1.
         -4    1    4    4    0  501  0.15435828200E+02  0.92759663833E+03  0.13504633708E+02  0.92782334707E+03  0.00000000000E+00 0. -1.
</event>
<event>
 8    1  0.7446554E-006  0.1315164E+04  0.7818608E-02  0.8524546E-01
         -1   -1    0    0    0  501 -0.00000000000E+00  0.00000000000E+00  0.14088028439E+04  0.14088028439E+04  0.00000000000E+00 0.  1.
          1   -1    0    0  502    0  0.00000000000E+00 -0.00000000000E+00 -0.21697511888E+04  0.21697511888E+04  0.00000000000E+00 0. -1.
    9000010    2    1    2  502    0 -0.85339465535E+03  0.19988882472E+02  0.79812049042E+03  0.15402789653E+04  0.10033847620E+04 0.  0.
   -9000010    2    1    2    0  501  0.85339465535E+03 -0.19988882472E+02 -0.15590688354E+04  0.20382750674E+04  0.99759090991E+03 0.  0.
        -13    1    3    3    0    0 -0.40036627195E+03  0.29001061902E+03 -0.94669686326E+02  0.50335044605E+03  0.10566000000E+00 0.  1.
         13    1    4    4    0    0  0.78112405793E+03 -0.57828016339E+02 -0.17020687605E+04  0.18736426954E+04  0.10566000000E+00 0. -1.
          4    1    3    3  502    0 -0.45302838340E+03 -0.27002173655E+03  0.89279017675E+03  0.10369285193E+04  0.00000000000E+00 0.  1.
         -4    1    4    4    0  501  0.72270597421E+02  0.37839133866E+02  0.14299992514E+03  0.16463237195E+03  0.00000000000E+00 0. -1.
</event>
<event>
 8    1  0.7446554E-006  0.2031694E+04  0.7818608E-02  0.8155609E-01
         -2   -1    0    0    0  501 -0.00000000000E+00  0.00000000000E+00  0.44837294277E+04  0.44837294277E+04  0.00000000000E+00 0. -1.
          2   -1    0    0  502    0  0.00000000000E+00 -0.00000000000E+00 -0.95799208804E+03  0.95799208804E+03  0.00000000000E+00 0.  1.
    9000010    2    1    2  502    0 -0.95790217349E+03 -0.14929413521E+04  0.22537649726E+04  0.30010688616E+04  0.88346324484E+03 0.  0.
   -9000010    2    1    2    0  501  0.95790217349E+03  0.14929413521E+04  0.12719723670E+04  0.24406526541E+04  0.10919804123E+04 0.  0.
        -13    1    3    3    0    0 -0.56160777239E+03 -0.13619224395E+04  0.13190872412E+04  0.19774294380E+04  0.10566000000E+00 0.  1.
         13    1    4    4    0    0  0.49288066510E+03 -0.24381440143E+02  0.25134534015E+03  0.55380528693E+03  0.10566000000E+00 0. -1.
          4    1    3    3  502    0 -0.39629440110E+03 -0.13101891264E+03  0.93467773141E+03  0.10236394235E+04  0.00000000000E+00 0.  1.
         -4    1    4    4    0  501  0.46502150839E+03  0.15173227923E+04  0.10206270268E+04  0.18868473672E+04  0.00000000000E+00 0. -1.
</event>
<event>
 8    1  0.7446554E-006  0.1296768E+04  0.7818608E-02  0.8537051E-01
          2   -1    0    0  502    0  0.00000000000E+00  0.00000000000E+00  0.13497369967E+04  0.13497369967E+04  0.00000000000E+00 0. -1.
         -2   -1    0    0    0  501 -0.00000000000E+00 -0.00000000000E+00 -0.17079373981E+04  0.17079373981E+04  0.00000000000E+00 0.  1.
    9000010    2    1    2  502    0 -0.68412429406E+03  0.37279401341E+03  0.61873583377E+03  0.14035627851E+04  0.99002678427E+03 0.  0.
   -9000010    2    1    2    0  501  0.68412429406E+03 -0.37279401341E+03 -0.97693623520E+03  0.16541116097E+04  0.10838262699E+04 0.  0.
        -13    1    3    3    0    0 -0.70483704283E+03  0.23102272764E+03  0.85211051100E+03  0.11297163767E+04  0.10566000000E+00 0.  1.
         13    1    4    4    0    0  0.80910849431E+03 -0.35457517194E+03 -0.11435584477E+04  0.14450280422E+04  0.10566000000E+00 0. -1.
          4    1    3    3  502    0  0.20712748765E+02  0.14177128577E+03 -0.23337467723E+03  0.27384640842E+03  0.00000000000E+00 0.  1.
         -4    1    4    4    0  501 -0.12498420025E+03 -0.18218841468E+02  0.16662221250E+03  0.20908356750E+03  0.00000000000E+00 0. -1.
</event>
<event>
 8    1  0.7446554E-006  0.1011763E+04  0.7818608E-02  0.8763617E-01
          2   -1    0    0  502    0  0.00000000000E+00  0.00000000000E+00  0.12671645042E+04  0.12671645042E+04  0.00000000000E+00 0. -1.
         -2   -1    0    0    0  501 -0.00000000000E+00 -0.00000000000E+00 -0.88403667854E+03  0.88403667854E+03  0.00000000000E+00 0.  1.
    9000010    2    1    2  502    0 -0.60745451184E+01 -0.52267667808E+03 -0.12455156797E+03  0.93041660704E+03  0.75956182084E+03 0.  0.
   -9000010    2    1    2    0  501  0.60745451184E+01  0.52267667808E+03  0.50767939360E+03  0.12207845757E+04  0.97946352847E+03 0.  0.
        -13    1    3    3    0    0 -0.74957158937E+01  0.94558593620E+02 -0.27855077107E+03  0.29425848605E+03  0.10566000000E+00 0.  1.
         13    1    4    4    0    0 -0.20470736031E+03  0.53504411247E+03  0.72083892520E+03  0.92075299234E+03  0.10566000000E+00 0. -1.
          4    1    3    3  502    0  0.14211707753E+01 -0.61723527170E+03  0.15399920310E+03  0.63615812099E+03  0.00000000000E+00 0.  1.
         -4    1    4    4    0  501  0.21078190543E+03 -0.12367434391E+02 -0.21315953159E+03  0.30003158334E+03  0.00000000000E+00 0. -1.
</event>
<event>
 8    1  0.7446554E-006  0.1565315E+04  0.7818608E-02  0.8372871E-01
          2   -1    0    0  502    0  0.00000000000E+00  0.00000000000E+00  0.24434862129E+04  0.24434862129E+04  0.00000000000E+00 0. -1.
         -2   -1    0    0    0  501 -0.00000000000E+00 -0.00000000000E+00 -0.13899893873E+04  0.13899893873E+04  0.00000000000E+00 0.  1.
    9000010    2    1    2  502    0 -0.24223474947E+03 -0.11775044767E+04 -0.48529005777E+03  0.16374210263E+04  0.10002233304E+04 0.  0.
   -9000010    2    1    2    0  501  0.24223474947E+03  0.11775044767E+04  0.15387868833E+04  0.21960545739E+04  0.10047866205E+04 0.  0.
        -13    1    3    3    0    0  0.84928300581E+02  0.18720421083E+02 -0.38333914456E+03  0.39308037514E+03  0.10566000000E+00 0.  1.
         13    1    4    4    0    0  0.36270778269E+03  0.21119431423E+02  0.17295369454E+03  0.40238781992E+03  0.10566000000E+00 0. -1.
          4    1    3    3  502    0 -0.32716305005E+03 -0.11962248978E+04 -0.10195091320E+03  0.12443406511E+04  0.00000000000E+00 0.  1.
         -4    1    4    4    0  501 -0.12047303322E+03  0.11563850453E+04  0.13658331888E+04  0.17936667540E+04  0.00000000000E+00 0. -1.
</event>
<event>
 8    1  0.7446554E-006  0.1064100E+04  0.7818608E-02  0.8716589E-01
          1   -1    0    0  502    0  0.00000000000E+00  0.00000000000E+00  0.18234315416E+04  0.18234315416E+04  0.00000000000E+00 0. -1.
         -1   -1    0    0    0  501 -0.00000000000E+00 -0.00000000000E+00 -0.74755803815E+03  0.74755803815E+03  0.00000000000E+00 0.  1.
    9000010    2    1    2  502    0 -0.37283665779E+03 -0.10034022157E+03  0.50934766257E+01  0.10546484466E+04  0.98141839647E+03 0.  0.
   -9000010    2    1    2    0  501  0.37283665779E+03  0.10034022157E+03  0.10707800268E+04  0.15163411332E+04  0.10018209585E+04 0.  0.
        -13    1    3    3    0    0  0.20812469568E+03 -0.29024166698E+03  0.20472088234E+03  0.41166341231E+03  0.10566000000E+00 0.  1.
         13    1    4    4    0    0  0.37587259448E+03  0.47727965291E+03  0.34533857056E+03  0.69880956908E+03  0.10566000000E+00 0. -1.
          4    1    3    3  502    0 -0.58096135347E+03  0.18990144540E+03 -0.19962740572E+03  0.64298503428E+03  0.00000000000E+00 0.  1.
         -4    1    4    4    0  501 -0.30359366852E+01 -0.37693943134E+03  0.72544145629E+03  0.81753156411E+03  0.00000000000E+00 0. -1.
</event>
<event>
 8    1  0.7446554E-006  0.1639308E+04  0.7818608E-02  0.8333549E-01
          4   -1    0    0  502    0  0.00000000000E+00  0.00000000000E+00  0.35021513456E+04  0.35021513456E+04  0.00000000000E+00 0.  1.
         -4   -1    0    0    0  501 -0.00000000000E+00 -0.00000000000E+00 -0.80807833523E+03  0.80807833523E+03  0.00000000000E+00 0. -1.
    9000010    2    1    2  502    0  0.12016962066E+04 -0.51349230572E+03  0.86470511186E+03  0.18551650638E+04  0.99306312114E+03 0.  0.
   -9000010    2    1    2    0  501 -0.12016962066E+04  0.51349230572E+03  0.18293678985E+04  0.24550646170E+04  0.98641129585E+03 0.  0.
        -13    1    3    3    0    0  0.31665622790E+03  0.30117616245E+03  0.19687611898E+03  0.47931040556E+03  0.10566000000E+00 0.  1.
         13    1    4    4    0    0  0.58044983690E+02  0.12918789610E+03  0.71777843686E+03  0.73161781567E+03  0.10566000000E+00 0. -1.
          4    1    3    3  502    0  0.88503997870E+03 -0.81466846817E+03  0.66782899288E+03  0.13758546583E+04  0.00000000000E+00 0.  1.
         -4    1    4    4    0  501 -0.12597411903E+04  0.38430440962E+03  0.11115894617E+04  0.17234468013E+04  0.00000000000E+00 0. -1.
</event>
<event>
 8    1  0.7446554E-006  0.1366966E+04  0.7818608E-02  0.8490433E-01
         -1   -1    0    0    0  501 -0.00000000000E+00  0.00000000000E+00  0.14365071892E+04  0.14365071892E+04  0.00000000000E+00 0.  1.
          1   -1    0    0  502    0  0.00000000000E+00 -0.00000000000E+00 -0.13014885973E+04  0.13014885973E+04  0.00000000000E+00 0. -1.
    9000010    2    1    2  502    0 -0.94001648692E+02 -0.91270880643E+03  0.36530841275E+02  0.13590562136E+04  0.10019109811E+04 0.  0.
   -9000010    2    1    2    0  501  0.94001648692E+02  0.91270880643E+03  0.98487750619E+02  0.13789395729E+04  0.10246466872E+04 0.  0.
        -13    1    3    3    0    0 -0.45757807314E+03 -0.84708566844E+03 -0.93704584926E+02  0.96732227468E+03  0.10566000000E+00 0.  1.
         13    1    4    4    0    0 -0.20282293899E+03  0.10187178530E+03  0.40369660695E+03  0.46312629686E+03  0.10566000000E+00 0. -1.
          4    1    3    3  502    0  0.36357642445E+03 -0.65623137990E+02  0.13023542620E+03  0.39173393891E+03  0.00000000000E+00 0.  1.
         -4    1    4    4    0  501  0.29682458768E+03  0.81083702112E+03 -0.30520885633E+03  0.91581327608E+03  0.00000000000E+00 0. -1.
</event>
<event>
 8    1  0.7446554E-006  0.1556950E+04  0.7818608E-02  0.8377458E-01
          1   -1    0    0  502    0  0.00000000000E+00  0.00000000000E+00  0.15444003906E+04  0.15444003906E+04  0.00000000000E+00 0. -1.
         -1   -1    0    0    0  501 -0.00000000000E+00 -0.00000000000E+00 -0.15724851906E+04  0.15724851906E+04  0.00000000000E+00 0.  1.
    9000010    2    1    2  502    0 -0.17772988239E+03  0.11769717594E+04 -0.80454672159E+02  0.15661735136E+04  0.10146802880E+04 0.  0.
   -9000010    2    1    2    0  501  0.17772988239E+03 -0.11769717594E+04  0.52369872101E+02  0.15507120676E+04  0.99252953596E+03 0.  0.
        -13    1    3    3    0    0  0.14791096294E+03  0.19537408122E+03  0.36539704213E+03  0.43995874140E+03  0.10566000000E+00 0.  1.
         13    1    4    4    0    0 -0.23041010303E+03 -0.88218024137E+03 -0.27238569874E+03  0.95159065458E+03  0.10566000000E+00 0. -1.
          4    1    3    3  502    0 -0.32564084533E+03  0.98159767816E+03 -0.44585171429E+03  0.11262147722E+04  0.00000000000E+00 0.  1.
         -4    1    4    4    0  501  0.40813998542E+03 -0.29479151801E+03  0.32475557084E+03  0.59912141306E+03  0.00000000000E+00 0. -1.
</event>
<event>
 8    1  0.7446554E-006  0.1194674E+04  0.7818608E-02  0.8610584E-01
         -2   -1    0    0    0  501 -0.00000000000E+00  0.00000000000E+00  0.63250859660E+03  0.63250859660E+03  0.00000000000E+00 0.  1.
          2   -1    0    0  502    0  0.00000000000E+00 -0.00000000000E+00 -0.22593840785E+04  0.22593840785E+04  0.00000000000E+00 0. -1.
    9000010    2    1    2  502    0  0.66605025916E+03 -0.34062825497E+02 -0.87262431245E+03  0.14991681123E+04  0.10204159027E+04 0.  0.
   -9000010    2    1    2    0  501 -0.66605025916E+03  0.34062825497E+02 -0.75425116945E+03  0.13927245628E+04  0.96229083826E+03 0.  0.
        -13    1    3    3    0    0  0.38431687467E+02 -0.40002547202E+03 -0.55360221920E+02  0.40566259157E+03  0.10566000000E+00 0.  1.
         13    1    4    4    0    0 -0.23411678221E+03  0.43751441632E+03 -0.60623625173E+03  0.78342321658E+03  0.10566000000E+00 0. -1.
          4    1    3    3  502    0  0.62761857169E+03  0.36596264652E+03 -0.81726409053E+03  0.10935055207E+04  0.00000000000E+00 0.  1.
         -4    1    4    4    0  501 -0.43193347695E+03 -0.40345159082E+03 -0.14801491773E+03  0.60930134623E+03  0.00000000000E+00 0. -1.
</event>
<event>
 8    1  0.7446554E-006  0.1255214E+04  0.7818608E-02  0.8566106E-01
         -2   -1    0    0    0  501 -0.00000000000E+00  0.00000000000E+00  0.16565948579E+04  0.16565948579E+04  0.00000000000E+00 0.  1.
          2   -1    0    0  502    0  0.00000000000E+00 -0.00000000000E+00 -0.12013559412E+04  0.12013559412E+04  0.00000000000E+00 0. -1.
    9000010    2    1    2  502    0  0.17325746374E+03 -0.75725428257E+03 -0.42477911846E+03  0.13239576523E+04  0.98436495691E+03 0.  0.
   -9000010    2    1    2    0  501 -0.17325746374E+03  0.75725428257E+03  0.88001803515E+03  0.15339931469E+04  0.98754799137E+03 0.  0.
        -13    1    3    3    0    0  0.34676281392E+03 -0.17751041786E+03 -0.58049743213E+03  0.69909346831E+03  0.10566000000E+00 0.  1.
         13    1    4    4    0    0  0.68008057376E+01  0.73895253974E+03  0.11502495743E+03  0.74788224939E+03  0.10566000000E+00 0. -1.
          4    1    3    3  502    0 -0.17350535018E+03 -0.57974386471E+03  0.15571831368E+03  0.62486418398E+03  0.00000000000E+00 0.  1.
         -4    1    4    4    0  501 -0.18005826947E+03  0.18301742822E+02  0.76499307771E+03  0.78611089748E+03  0.00000000000E+00 0. -1.
</event>
<event>
 8    1  0.7446554E-006  0.1090268E+04  0.7818608E-02  0.8694117E-01
          2   -1    0    0  502    0  0.00000000000E+00  0.00000000000E+00  0.97861717197E+03  0.97861717197E+03  0.00000000000E+00 0.  1.
         -2   -1    0    0    0  501 -0.00000000000E+00 -0.00000000000E+00 -0.12164074029E+04  0.12164074029E+04  0.00000000000E+00 0. -1.
    9000010    2    1    2  502    0  0.44907893928E+03  0.55476864378E+02 -0.77281180227E+02  0.10931772614E+04  0.99212628628E+03 0.  0.
   -9000010    2    1    2    0  501 -0.44907893928E+03 -0.55476864378E+02 -0.16050905071E+03  0.11018473134E+04  0.99174329873E+03 0.  0.
        -13    1    3    3    0    0  0.13249040813E+03 -0.35784310442E+03 -0.33903858544E+03  0.51044350247E+03  0.10566000000E+00 0.  1.
         13    1    4    4    0    0 -0.59673138773E+02  0.12053975282E+03 -0.52390080286E+03  0.54089072640E+03  0.10566000000E+00 0. -1.
          4    1    3    3  502    0  0.31658853114E+03  0.41331996880E+03  0.26175740521E+03  0.58273375897E+03  0.00000000000E+00 0.  1.
         -4    1    4    4    0  501 -0.38940580051E+03 -0.17601661720E+03  0.36339175215E+03  0.56095658703E+03  0.00000000000E+00 0. -1.
</event>
<event>
 8    1  0.7446554E-006  0.1316831E+04  0.7818608E-02  0.8523423E-01
         -2   -1    0    0    0  501 -0.00000000000E+00  0.00000000000E+00  0.61007202942E+03  0.61007202942E+03  0.00000000000E+00 0. -1.
          2   -1    0    0  502    0  0.00000000000E+00 -0.00000000000E+00 -0.28443576116E+04  0.28443576116E+04  0.00000000000E+00 0.  1.
    9000010    2    1    2  502    0  0.85149612595E+03 -0.45810956816E+02 -0.10699113693E+04  0.16953111495E+04  0.10011120113E+04 0.  0.
   -9000010    2    1    2    0  501 -0.85149612595E+03  0.45810956816E+02 -0.11643742129E+04  0.17591184916E+04  0.10057764481E+04 0.  0.
        -13    1    3    3    0    0  0.67071841165E+03  0.40021415588E+03 -0.42062284899E+03  0.88710661735E+03  0.10566000000E+00 0.  1.
         13    1    4    4    0    0  0.13319046220E+03  0.25777182624E+03 -0.13878698801E+03  0.32163310282E+03  0.10566000000E+00 0. -1.
          4    1    3    3  502    0  0.18077771430E+03 -0.44602511269E+03 -0.64928852030E+03  0.80820453212E+03  0.00000000000E+00 0.  1.
         -4    1    4    4    0  501 -0.98468658815E+03 -0.21196086942E+03 -0.10255872249E+04  0.14374853888E+04  0.00000000000E+00 0. -1.
</event>
<event>
 8    1  0.7446554E-006  0.1196596E+04  0.7818608E-02  0.8609130E-01
          2   -1    0    0  502    0  0.00000000000E+00  0.00000000000E+00  0.17549471305E+04  0.17549471305E+04  0.00000000000E+00 0. -1.
         -2   -1    0    0    0  501 -0.00000000000E+00 -0.00000000000E+00 -0.81715702102E+03  0.81715702102E+03  0.00000000000E+00 0.  1.
    9000010    2    1    2  502    0  0.45045428461E+03  0.43858071497E+03  0.41832420356E+03  0.12678111839E+04  0.10183751532E+04 0.  0.
   -9000010    2    1    2    0  501 -0.45045428461E+03 -0.43858071497E+03  0.51946590595E+03  0.13042929676E+04  0.10178768156E+04 0.  0.
        -13    1    3    3    0    0  0.43550052496E+03  0.27454787369E+02  0.65960307736E+03  0.79087970224E+03  0.10566000000E+00 0.  1.
         13    1    4    4    0    0 -0.34700838085E+03 -0.62054111252E+03  0.72181474281E+03  0.10131646573E+04  0.10566000000E+00 0. -1.
          4    1    3    3  502    0  0.14953759649E+02  0.41112592761E+03 -0.24127887380E+03  0.47693148168E+03  0.00000000000E+00 0.  1.
         -4    1    4    4    0  501 -0.10344590376E+03  0.18196039754E+03 -0.20234883687E+03  0.29112831030E+03  0.00000000000E+00 0. -1.
</event>
<event>
 8    1  0.7446554E-006  0.1156797E+04  0.7818608E-02  0.8639825E-01
          2   -1    0    0  502    0  0.00000000000E+00  0.00000000000E+00  0.33829232914E+04  0.33829232914E+04  0.00000000000E+00 0. -1.
         -2   -1    0    0    0  501 -0.00000000000E+00 -0.00000000000E+00 -0.39687801724E+03  0.39687801724E+03  0.00000000000E+00 0.  1.
    9000010    2    1    2  502    0 -0.62141831168E+03  0.16323880470E+03  0.16274039174E+04  0.20130900898E+04  0.99563074171E+03 0.  0.
   -9000010    2    1    2    0  501  0.62141831168E+03 -0.16323880470E+03  0.13586413567E+04  0.17667112188E+04  0.92873815956E+03 0.  0.
        -13    1    3    3    0    0 -0.65305691402E+03 -0.29043115976E+03  0.83185207387E+03  0.10967276214E+04  0.10566000000E+00 0.  1.
         13    1    4    4    0    0  0.63089242923E+03 -0.14695243836E+03  0.14948683406E+04  0.16291874181E+04  0.10566000000E+00 0. -1.
          4    1    3    3  502    0  0.31638602339E+02  0.45366996445E+03  0.79555184358E+03  0.91636246847E+03  0.00000000000E+00 0.  1.
         -4    1    4    4    0  501 -0.94741175506E+01 -0.16286366335E+02 -0.13622698387E+03  0.13752380072E+03  0.00000000000E+00 0. -1.
</event>
<event>
 8    1  0.7446554E-006  0.1255583E+04  0.7818608E-02  0.8565843E-01
          2   -1    0    0  502    0  0.00000000000E+00  0.00000000000E+00  0.26069501523E+04  0.26069501523E+04  0.00000000000E+00 0. -1.
         -2   -1    0    0    0  501 -0.00000000000E+00 -0.00000000000E+00 -0.81812409508E+03  0.81812409508E+03  0.00000000000E+00 0.  1.
    9000010    2    1    2  502    0  0.62403775839E+03 -0.45086558647E+03  0.98522318254E+01  0.12362047551E+04  0.96716194565E+03 0.  0.
   -9000010    2    1    2    0  501 -0.62403775839E+03  0.45086558647E+03  0.17789738254E+04  0.21888694923E+04  0.10167098317E+04 0.  0.
        -13    1    3    3    0    0 -0.45138910700E+01  0.27552510694E+03  0.51171373825E+01  0.27560960801E+03  0.10566000000E+00 0.  1.
         13    1    4    4    0    0 -0.66323513362E+03  0.72415730864E+03  0.15245227678E+04  0.18134095872E+04  0.10566000000E+00 0. -1.
          4    1    3    3  502    0  0.62855164946E+03 -0.72639069341E+03  0.47350944429E+01  0.96059514710E+03  0.00000000000E+00 0.  1.
         -4    1    4    4    0  501  0.39197375234E+02 -0.27329172217E+03  0.25445105763E+03  0.37545990514E+03  0.00000000000E+00 0. -1.
</event>
<event>
 8    1  0.7446554E-006  0.1136625E+04  0.7818608E-02  0.8655877E-01
          2   -1    0    0  502    0  0.00000000000E+00  0.00000000000E+00  0.55740091182E+03  0.55740091182E+03  0.00000000000E+00 0.  1.
         -2   -1    0    0    0  501 -0.00000000000E+00 -0.00000000000E+00 -0.23178785063E+04  0.23178785063E+04  0.00000000000E+00 0. -1.
    9000010    2    1    2  502    0 -0.14188992494E+03  0.32638176978E+03 -0.87399445659E+03  0.14271964600E+04  0.10706846478E+04 0.  0.
   -9000010    2    1    2    0  501  0.14188992494E+03 -0.32638176978E+03 -0.88648313791E+03  0.14480829581E+04  0.10883170904E+04 0.  0.
        -13    1    3    3    0    0  0.44553347766E+03 -0.16704307500E+02 -0.38956259569E+03  0.59206261555E+03  0.10566000000E+00 0.  1.
         13    1    4    4    0    0  0.42032753523E+03 -0.41201545342E+03 -0.97910839914E+03  0.11424032734E+04  0.10566000000E+00 0. -1.
          4    1    3    3  502    0 -0.58742340260E+03  0.34308607728E+03 -0.48443186090E+03  0.83513384448E+03  0.00000000000E+00 0.  1.
         -4    1    4    4    0  501 -0.27843761030E+03  0.85633683639E+02  0.92625261229E+02  0.30567968467E+03  0.00000000000E+00 0. -1.
</event>
<event>
 8    1  0.7446554E-006  0.1946495E+04  0.7818608E-02  0.8190531E-01
          2   -1    0    0  502    0  0.00000000000E+00  0.00000000000E+00  0.11154381802E+04  0.11154381802E+04  0.00000000000E+00 0.  1.
         -2   -1    0    0    0  501 -0.00000000000E+00 -0.00000000000E+00 -0.34457145146E+04  0.34457145146E+04  0.00000000000E+00 0. -1.
    9000010    2    1    2  502    0  0.78378111131E+03 -0.14742134398E+04 -0.89512034484E+03  0.21453327672E+04  0.10067741324E+04 0.  0.
   -9000010    2    1    2    0  501 -0.78378111131E+03  0.14742134398E+04 -0.14351559895E+04  0.24158199276E+04  0.99443205494E+03 0.  0.
        -13    1    3    3    0    0 -0.19967531314E+03 -0.31765192002E+03 -0.40010484511E+03  0.54850421258E+03  0.10566000000E+00 0.  1.
         13    1    4    4    0    0 -0.78851358193E+03  0.15447518721E+04 -0.15194486100E+04  0.23058048714E+04  0.10566000000E+00 0. -1.
          4    1    3    3  502    0  0.98345642445E+03 -0.11565615197E+04 -0.49501549973E+03  0.15968285546E+04  0.00000000000E+00 0.  1.
         -4    1    4    4    0  501  0.47324706203E+01 -0.70538432362E+02  0.84292620502E+02  0.11001505619E+03  0.00000000000E+00 0. -1.
</event>
<event>
 8    1  0.7446554E-006  0.1049312E+04  0.7818608E-02  0.8729589E-01
         -2   -1    0    0    0  501 -0.00000000000E+00  0.00000000000E+00  0.68272337714E+03  0.68272337714E+03  0.00000000000E+00 0.  1.
          2   -1    0    0  502    0  0.00000000000E+00 -0.00000000000E+00 -0.25665892936E+04  0.25665892936E+04  0.00000000000E+00 0. -1.
    9000010    2    1    2  502    0 -0.14740370342E+03 -0.27213674548E+03 -0.19391993473E+04  0.22108581853E+04  0.10156837830E+04 0.  0.
   -9000010    2    1    2    0  501  0.14740370342E+03  0.27213674548E+03  0.55333430828E+02  0.10384544854E+04  0.98971696444E+03 0.  0.
        -13    1    3    3    0    0  0.34230850899E+03  0.16449267696E+03 -0.48906508020E+03  0.61920725120E+03  0.10566000000E+00 0.  1.
         13    1    4    4    0    0 -0.31036219274E+03  0.43759135569E+02  0.33223559398E+03  0.45674944302E+03  0.10566000000E+00 0. -1.
          4    1    3    3  502    0 -0.48971221241E+03 -0.43662942244E+03 -0.14501342671E+04  0.15916509341E+04  0.00000000000E+00 0.  1.
         -4    1    4    4    0  501  0.45776589616E+03  0.22837760991E+03 -0.27690216315E+03  0.58170504240E+03  0.00000000000E+00 0. -1.
</event>
<event>
 8    1  0.7446554E-006  0.1292894E+04  0.7818608E-02  0.8539713E-01
         -1   -1    0    0    0  501 -0.00000000000E+00  0.00000000000E+00  0.38745660552E+03  0.38745660552E+03  0.00000000000E+00 0. -1.
          1   -1    0    0  502    0  0.00000000000E+00 -0.00000000000E+00 -0.43391873416E+04  0.43391873416E+04  0.00000000000E+00 0.  1.
    9000010    2    1    2  502    0  0.32289699812E+02  0.84670429953E+03 -0.18197224048E+04  0.22404406405E+04  0.99510493781E+03 0.  0.
   -9000010    2    1    2    0  501 -0.32289699812E+02 -0.84670429953E+03 -0.21320083313E+04  0.24862033067E+04  0.95801699458E+03 0.  0.
        -13    1    3    3    0    0  0.34647838125E+03  0.91595416217E+03 -0.12732723437E+04  0.16063130978E+04  0.10566000000E+00 0.  1.
         13    1    4    4    0    0 -0.19785851159E+03  0.16125123870E+03 -0.48757478814E+03  0.55034456278E+03  0.10566000000E+00 0. -1.
          4    1    3    3  502    0 -0.31418868144E+03 -0.69249862635E+02 -0.54645006117E+03  0.63412754267E+03  0.00000000000E+00 0.  1.
         -4    1    4    4    0  501  0.16556881178E+03 -0.10079555382E+04 -0.16444335431E+04  0.19358587439E+04  0.00000000000E+00 0. -1.
</event>
<event>
 8    1  0.7446554E-006  0.1540653E+04  0.7818608E-02  0.8386480E-01
          1   -1    0    0  502    0  0.00000000000E+00  0.00000000000E+00  0.30359802362E+04  0.30359802362E+04  0.00000000000E+00 0.  1.
         -1   -1    0    0    0  501 -0.00000000000E+00 -0.00000000000E+00 -0.78250959399E+03  0.78250959399E+03  0.00000000000E+00 0. -1.
    9000010    2    1    2  502    0 -0.10861002804E+04 -0.48831073963E+03  0.10809915906E+04  0.18918237354E+04  0.99618925391E+03 0.  0.
   -9000010    2    1    2    0  501  0.10861002804E+04  0.48831073963E+03  0.11724790516E+04  0.19266660947E+04  0.95878773284E+03 0.  0.
        -13    1    3    3    0    0 -0.30435964844E+03 -0.17210014331E+02 -0.16551904633E+03  0.34688261135E+03  0.10566000000E+00 0.  1.
         13    1    4    4    0    0  0.12187447987E+04  0.29843077650E+03  0.80013568252E+03  0.14881589076E+04  0.10566000000E+00 0. -1.
          4    1    3    3  502    0 -0.78174063194E+03 -0.47110072530E+03  0.12465106369E+04  0.15449411241E+04  0.00000000000E+00 0.  1.
         -4    1    4    4    0  501 -0.13264451832E+03  0.18987996313E+03  0.37234336911E+03  0.43850718713E+03  0.00000000000E+00 0. -1.
</event>
<event>
 8    1  0.7446554E-006  0.1570850E+04  0.7818608E-02  0.8369853E-01
          2   -1    0    0  502    0  0.00000000000E+00  0.00000000000E+00  0.24863581158E+04  0.24863581158E+04  0.00000000000E+00 0. -1.
         -2   -1    0    0    0  501 -0.00000000000E+00 -0.00000000000E+00 -0.11379118295E+04  0.11379118295E+04  0.00000000000E+00 0.  1.
    9000010    2    1    2  502    0  0.76956452073E+03 -0.95412184109E+03  0.13238387117E+04  0.20578087239E+04  0.98967154663E+03 0.  0.
   -9000010    2    1    2    0  501 -0.76956452073E+03  0.95412184109E+03  0.24607574553E+02  0.15664612215E+04  0.97499599304E+03 0.  0.
        -13    1    3    3    0    0  0.12641731204E+03  0.13552922195E+03  0.53634745823E+03  0.56746639892E+03  0.10566000000E+00 0.  1.
         13    1    4    4    0    0 -0.40682423346E+03  0.57025961072E+03 -0.46944900828E+03  0.84325818293E+03  0.10566000000E+00 0. -1.
          4    1    3    3  502    0  0.64314720869E+03 -0.10896510630E+04  0.78749125347E+03  0.14903423249E+04  0.00000000000E+00 0.  1.
         -4    1    4    4    0  501 -0.36274028727E+03  0.38386223037E+03  0.49405658283E+03  0.72320303854E+03  0.00000000000E+00 0. -1.
</event>
<event>
 8    1  0.7446554E-006  0.1107750E+04  0.7818608E-02  0.8679467E-01
         -1   -1    0    0    0  501 -0.00000000000E+00  0.00000000000E+00  0.80047804658E+03  0.80047804658E+03  0.00000000000E+00 0. -1.
          1   -1    0    0  502    0  0.00000000000E+00 -0.00000000000E+00 -0.19084983776E+04  0.19084983776E+04  0.00000000000E+00 0.  1.
    9000010    2    1    2  502    0  0.13596744355E+02 -0.46206141347E+03  0.40890508294E+02  0.11227422149E+04  0.10223465294E+04 0.  0.
   -9000010    2    1    2    0  501 -0.13596744355E+02  0.46206141347E+03 -0.11489108393E+04  0.15862342093E+04  0.99118980463E+03 0.  0.
        -13    1    3    3    0    0  0.93975105388E+02 -0.13953825564E+02  0.48054495027E+03  0.48984639437E+03  0.10566000000E+00 0.  1.
         13    1    4    4    0    0 -0.10783940232E+03 -0.29140630327E+03 -0.49343730565E+03  0.58311864663E+03  0.10566000000E+00 0. -1.
          4    1    3    3  502    0 -0.80378361033E+02 -0.44810758791E+03 -0.43965444197E+03  0.63289582050E+03  0.00000000000E+00 0.  1.
         -4    1    4    4    0  501  0.94242657961E+02  0.75346771674E+03 -0.65547353366E+03  0.10031155627E+04  0.00000000000E+00 0. -1.
</event>
<event>
 8    1  0.7446554E-006  0.1781094E+04  0.7818608E-02  0.8263859E-01
          2   -1    0    0  502    0  0.00000000000E+00  0.00000000000E+00  0.29926992658E+04  0.29926992658E+04  0.00000000000E+00 0. -1.
         -2   -1    0    0    0  501 -0.00000000000E+00 -0.00000000000E+00 -0.10634579751E+04  0.10634579751E+04  0.00000000000E+00 0.  1.
    9000010    2    1    2  502    0 -0.11806489726E+03 -0.14603111070E+04  0.10860249752E+04  0.20969824569E+04  0.10351025692E+04 0.  0.
   -9000010    2    1    2    0  501  0.11806489726E+03  0.14603111070E+04  0.84321631545E+03  0.19591747839E+04  0.99040609356E+03 0.  0.
        -13    1    3    3    0    0 -0.16096198832E+03  0.78484414115E+02  0.34458270523E+03  0.38833724628E+03  0.10566000000E+00 0.  1.
         13    1    4    4    0    0 -0.32810754497E+02 -0.33950467838E+02 -0.15089483819E+03  0.15810896000E+03  0.10566000000E+00 0. -1.
          4    1    3    3  502    0  0.42897091055E+02 -0.15387955211E+04  0.74144227000E+03  0.17086452107E+04  0.00000000000E+00 0.  1.
         -4    1    4    4    0  501  0.15087565176E+03  0.14942615748E+04  0.99411115364E+03  0.18010658239E+04  0.00000000000E+00 0. -1.
</event>
<event>
 8    1  0.7446554E-006  0.1183191E+04  0.7818608E-02  0.8619329E-01
          2   -1    0    0  502    0  0.00000000000E+00  0.00000000000E+00  0.19843808696E+04  0.19843808696E+04  0.00000000000E+00 0. -1.
         -2   -1    0    0    0  501 -0.00000000000E+00 -0.00000000000E+00 -0.76171436614E+03  0.76171436614E+03  0.00000000000E+00 0.  1.
    9000010    2    1    2  502    0 -0.51994817965E+03 -0.24654039169E+03  0.99823740127E+03  0.15737435516E+04  0.10719433673E+04 0.  0.
   -9000010    2    1    2    0  501  0.51994817965E+03  0.24654039169E+03  0.22442910215E+03  0.11723516841E+04  0.99644958480E+03 0.  0.
        -13    1    3    3    0    0  0.23847269702E+03 -0.15626214673E+03  0.69637665934E+03  0.75248092904E+03  0.10566000000E+00 0.  1.
         13    1    4    4    0    0  0.52216977399E+03 -0.28672065283E+03  0.23130970769E+03  0.63904162436E+03  0.10566000000E+00 0. -1.
          4    1    3    3  502    0 -0.75842087667E+03 -0.90278244963E+02  0.30186074193E+03  0.82126262255E+03  0.00000000000E+00 0.  1.
         -4    1    4    4    0  501 -0.22215943400E+01  0.53326104452E+03 -0.68806055373E+01  0.53331005974E+03  0.00000000000E+00 0. -1.
</event>
<event>
 8    1  0.7446554E-006  0.1571378E+04  0.7818608E-02  0.8369565E-01
         -4   -1    0    0    0  501 -0.00000000000E+00  0.00000000000E+00  0.23288141511E+04  0.23288141511E+04  0.00000000000E+00 0. -1.
          4   -1    0    0  502    0  0.00000000000E+00 -0.00000000000E+00 -0.11428317939E+04  0.11428317939E+04  0.00000000000E+00 0.  1.
    9000010    2    1    2  502    0 -0.10966292792E+04  0.51954217331E+03  0.12717718874E+03  0.15784179925E+04  0.10013538214E+04 0.  0.
   -9000010    2    1    2    0  501  0.10966292792E+04 -0.51954217331E+03  0.10588051685E+04  0.18932279525E+04  0.99535111861E+03 0.  0.
        -13    1    3    3    0    0 -0.63605075310E+03  0.11368382714E+03 -0.40786557865E+03  0.76409352469E+03  0.10566000000E+00 0.  1.
         13    1    4    4    0    0  0.69247255494E+03  0.29920543654E+02  0.76498621556E+02  0.69732741846E+03  0.10566000000E+00 0. -1.
          4    1    3    3  502    0 -0.46057852611E+03  0.40585834617E+03  0.53504276739E+03  0.81432446777E+03  0.00000000000E+00 0.  1.
         -4    1    4    4    0  501  0.40415672427E+03 -0.54946271696E+03  0.98230654690E+03  0.11959005340E+04  0.00000000000E+00 0. -1.
</event>
<event>
 8    1  0.7446554E-006  0.1330936E+04  0.7818608E-02  0.8513990E-01
         -2   -1    0    0    0  501 -0.00000000000E+00  0.00000000000E+00  0.12500143227E+04  0.12500143227E+04  0.00000000000E+00 0. -1.
          2   -1    0    0  502    0  0.00000000000E+00 -0.00000000000E+00 -0.16515061727E+04  0.16515061727E+04  0.00000000000E+00 0.  1.
    9000010    2    1    2  502    0  0.51747255710E+03 -0.68881065189E+03  0.34664317560E+03  0.13688483069E+04  0.10056571159E+04 0.  0.
   -9000010    2    1    2    0  501 -0.51747255710E+03  0.68881065189E+03 -0.74813502553E+03  0.15326721885E+04  0.10232986169E+04 0.  0.
        -13    1    3    3    0    0 -0.28544445996E+03 -0.18812643062E+03  0.23766425047E+03  0.41635850026E+03  0.10566000000E+00 0.  1.
         13    1    4    4    0    0 -0.73990486390E+02 -0.99964095562E+02 -0.60362874735E+03  0.61630762471E+03  0.10566000000E+00 0. -1.
          4    1    3    3  502    0  0.80291701706E+03 -0.50068422126E+03  0.10897892513E+03  0.95248980668E+03  0.00000000000E+00 0.  1.
         -4    1    4    4    0  501 -0.44348207071E+03  0.78877474745E+03 -0.14450627817E+03  0.91636456375E+03  0.00000000000E+00 0. -1.
</event>
<event>
 8    1  0.7446554E-006  0.1132930E+04  0.7818608E-02  0.8658855E-01
         -1   -1    0    0    0  501 -0.00000000000E+00  0.00000000000E+00  0.17556438582E+04  0.17556438582E+04  0.00000000000E+00 0. -1.
          1   -1    0    0  502    0  0.00000000000E+00 -0.00000000000E+00 -0.74390189575E+03  0.74390189575E+03  0.00000000000E+00 0.  1.
    9000010    2    1    2  502    0 -0.49865815046E+03 -0.69798327189E+02  0.33596433871E+03  0.11670377591E+04  0.99778421354E+03 0.  0.
   -9000010    2    1    2    0  501  0.49865815046E+03  0.69798327189E+02  0.67577762372E+03  0.13325079948E+04  0.10321678168E+04 0.  0.
        -13    1    3    3    0    0 -0.24310954577E+03  0.42373102724E+03  0.36606960541E+03  0.61045655198E+03  0.10566000000E+00 0.  1.
         13    1    4    4    0    0 -0.20907809044E+03 -0.21313856558E+03  0.44548147450E+03  0.53627926617E+03  0.10566000000E+00 0. -1.
          4    1    3    3  502    0 -0.25554860469E+03 -0.49352935442E+03 -0.30105266707E+02  0.55658120712E+03  0.00000000000E+00 0.  1.
         -4    1    4    4    0  501  0.70773624090E+03  0.28293689277E+03  0.23029614921E+03  0.79622872864E+03  0.00000000000E+00 0. -1.
</event>
<event>
 8    1  0.7446554E-006  0.1341949E+04  0.7818608E-02  0.8506709E-01
         -1   -1    0    0    0  501 -0.00000000000E+00  0.00000000000E+00  0.92768620719E+03  0.92768620719E+03  0.00000000000E+00 0. -1.
          1   -1    0    0  502    0  0.00000000000E+00 -0.00000000000E+00 -0.19878029830E+04  0.19878029830E+04  0.00000000000E+00 0.  1.
    9000010    2    1    2  502    0  0.50449433101E+03  0.74420350444E+03 -0.75799339775E+03  0.15530800109E+04  0.10144703757E+04 0.  0.
   -9000010    2    1    2    0  501 -0.50449433101E+03 -0.74420350444E+03 -0.30212337811E+03  0.13624091794E+04  0.97802190690E+03 0.  0.
        -13    1    3    3    0    0  0.19506663043E+03  0.95537015987E+03 -0.61075938532E+03  0.11505694984E+04  0.10566000000E+00 0.  1.
         13    1    4    4    0    0 -0.62578349485E+03 -0.86438737189E+03 -0.42853172083E+03  0.11499608507E+04  0.10566000000E+00 0. -1.
          4    1    3    3  502    0  0.30942770058E+03 -0.21116665543E+03 -0.14723401243E+03  0.40251051249E+03  0.00000000000E+00 0.  1.
         -4    1    4    4    0  501  0.12128916384E+03  0.12018386745E+03  0.12640834272E+03  0.21244832871E+03  0.00000000000E+00 0. -1.
</event>
<event>
 8    1  0.7446554E-006  0.1221288E+04  0.7818608E-02  0.8590702E-01
         -2   -1    0    0    0  501 -0.00000000000E+00  0.00000000000E+00  0.61053128037E+03  0.61053128037E+03  0.00000000000E+00 0. -1.
          2   -1    0    0  502    0  0.00000000000E+00 -0.00000000000E+00 -0.24434140790E+04  0.24434140790E+04  0.00000000000E+00 0.  1.
    9000010    2    1    2  502    0  0.49066932121E+02  0.72290289921E+03 -0.92989718458E+03  0.15472562538E+04  0.10021461846E+04 0.  0.
   -9000010    2    1    2    0  501 -0.49066932121E+02 -0.72290289921E+03 -0.90298561409E+03  0.15066891057E+04  0.96422656899E+03 0.  0.
        -13    1    3    3    0    0  0.26944803801E+03  0.51070512643E+03 -0.96711750467E+01  0.57750802085E+03  0.10566000000E+00 0.  1.
         13    1    4    4    0    0 -0.24276085756E+03 -0.33033529160E+03  0.91579730639E+02  0.42004892224E+03  0.10566000000E+00 0. -1.
          4    1    3    3  502    0 -0.22038110589E+03  0.21219777277E+03 -0.92022600954E+03  0.96974823291E+03  0.00000000000E+00 0.  1.
         -4    1    4    4    0  501  0.19369392544E+03 -0.39256760760E+03 -0.99456534473E+03  0.10866401834E+04  0.00000000000E+00 0. -1.
</event>
<event>
 8    1  0.7446554E-006  0.1205629E+04  0.7818608E-02  0.8602335E-01
          2   -1    0    0  502    0  0.00000000000E+00  0.00000000000E+00  0.49422939431E+04  0.49422939431E+04  0.00000000000E+00 0.  1.
         -2   -1    0    0    0  501 -0.00000000000E+00 -0.00000000000E+00 -0.31196738213E+03  0.31196738213E+03  0.00000000000E+00 0. -1.
    9000010    2    1    2  502    0 -0.59470078909E+03  0.45048664535E+03  0.17709880600E+04  0.21672379586E+04  0.10019552956E+04 0.  0.
   -9000010    2    1    2    0  501  0.59470078909E+03 -0.45048664535E+03  0.28593385009E+04  0.30870233666E+04  0.89291060968E+03 0.  0.
        -13    1    3    3    0    0 -0.30039612704E+03  0.69128901091E+03  0.15595549067E+04  0.17321460239E+04  0.10566000000E+00 0.  1.
         13    1    4    4    0    0  0.67775168782E+03 -0.55896995749E+00  0.13615003838E+04  0.15208652041E+04  0.10566000000E+00 0. -1.
          4    1    3    3  502    0 -0.29430466205E+03 -0.24080236556E+03  0.21143315330E+03  0.43509193474E+03  0.00000000000E+00 0.  1.
         -4    1    4    4    0  501 -0.83050898727E+02 -0.44992767539E+03  0.14978381171E+04  0.15661581625E+04  0.00000000000E+00 0. -1.
</event>
<event>
 8    1  0.7446554E-006  0.1070697E+04  0.7818608E-02  0.8710861E-01
          2   -1    0    0  502    0  0.00000000000E+00  0.00000000000E+00  0.19837611023E+04  0.19837611023E+04  0.00000000000E+00 0.  1.
         -2   -1    0    0    0  501 -0.00000000000E+00 -0.00000000000E+00 -0.61357923637E+03  0.61357923637E+03  0.00000000000E+00 0. -1.
    9000010    2    1    2  502    0  0.40349531382E+03 -0.12001201916E+02  0.36620547458E+03  0.11223852069E+04  0.98116747094E+03 0.  0.
   -9000010    2    1    2    0  501 -0.40349531382E+03  0.12001201916E+02  0.10039763914E+04  0.14749551318E+04  0.10022831681E+04 0.  0.
        -13    1    3    3    0    0  0.16152141962E+03 -0.49284568579E+03  0.13087658119E+03  0.53489693369E+03  0.10566000000E+00 0.  1.
         13    1    4    4    0    0 -0.37516344878E+03 -0.41701720424E+03  0.84971104537E+03  0.10181649344E+04  0.10566000000E+00 0. -1.
          4    1    3    3  502    0  0.24197389420E+03  0.48084448388E+03  0.23532889339E+03  0.58748827325E+03  0.00000000000E+00 0.  1.
         -4    1    4    4    0  501 -0.28331865041E+02  0.42901840615E+03  0.15426534603E+03  0.45679019734E+03  0.00000000000E+00 0. -1.
</event>
<event>
 8    1  0.7446554E-006  0.1111941E+04  0.7818608E-02  0.8675997E-01
         -2   -1    0    0    0  501 -0.00000000000E+00  0.00000000000E+00  0.51084591223E+03  0.51084591223E+03  0.00000000000E+00 0. -1.
          2   -1    0    0  502    0  0.00000000000E+00 -0.00000000000E+00 -0.25801818714E+04  0.25801818714E+04  0.00000000000E+00 0.  1.
    9000010    2    1    2  502    0 -0.17708931959E+03  0.43621129060E+03 -0.65517299356E+03  0.12956694129E+04  0.10138375899E+04 0.  0.
   -9000010    2    1    2    0  501  0.17708931959E+03 -0.43621129060E+03 -0.14141629656E+04  0.17953583708E+04  0.10009065236E+04 0.  0.
        -13    1    3    3    0    0  0.17508842917E+03  0.52971282443E+03 -0.73489539665E+03  0.92267160441E+03  0.10566000000E+00 0.  1.
         13    1    4    4    0    0  0.54705577793E+03 -0.41331514516E+03 -0.64409688648E+03  0.94072325566E+03  0.10566000000E+00 0. -1.
          4    1    3    3  502    0 -0.35217774877E+03 -0.93501533838E+02  0.79722403092E+02  0.37299780845E+03  0.00000000000E+00 0.  1.
         -4    1    4    4    0  501 -0.36996645834E+03 -0.22896145434E+02 -0.77006607913E+03  0.85463511512E+03  0.00000000000E+00 0. -1.
</event>
<event>
 8    1  0.7446554E-006  0.1212540E+04  0.7818608E-02  0.8597179E-01
         -4   -1    0    0    0  501 -0.00000000000E+00  0.00000000000E+00  0.19951696675E+04  0.19951696675E+04  0.00000000000E+00 0. -1.
          4   -1    0    0  502    0  0.00000000000E+00 -0.00000000000E+00 -0.95844318690E+03  0.95844318690E+03  0.00000000000E+00 0.  1.
    9000010    2    1    2  502    0 -0.62785304608E+03 -0.23062739189E+03  0.12303129763E+04  0.17316439629E+04  0.10185933208E+04 0.  0.
   -9000010    2    1    2    0  501  0.62785304608E+03  0.23062739189E+03 -0.19358649569E+03  0.12219688915E+04  0.10041632333E+04 0.  0.
        -13    1    3    3    0    0  0.13912240396E+03 -0.84949948848E+02 -0.98509558586E+02  0.19046175834E+03  0.10566000000E+00 0.  1.
         13    1    4    4    0    0  0.60375590472E+03  0.34538475385E+02 -0.54807148307E+03  0.81614732769E+03  0.10566000000E+00 0. -1.
          4    1    3    3  502    0 -0.76697545004E+03 -0.14567744304E+03  0.13288225349E+04  0.15411822046E+04  0.00000000000E+00 0.  1.
         -4    1    4    4    0  501  0.24097141359E+02  0.19608891650E+03  0.35448498738E+03  0.40582156384E+03  0.00000000000E+00 0. -1.
</event>
<event>
 8    1  0.7446554E-006  0.1527665E+04  0.7818608E-02  0.8393753E-01
         -2   -1    0    0    0  501 -0.00000000000E+00  0.00000000000E+00  0.10405654116E+04  0.10405654116E+04  0.00000000000E+00 0. -1.
          2   -1    0    0  502    0  0.00000000000E+00 -0.00000000000E+00 -0.22737454406E+04  0.22737454406E+04  0.00000000000E+00 0.  1.
    9000010    2    1    2  502    0  0.11263300776E+04  0.24402317956E+03 -0.42172206902E+03  0.15811165371E+04  0.99695197702E+03 0.  0.
   -9000010    2    1    2    0  501 -0.11263300776E+04 -0.24402317956E+03 -0.81145795989E+03  0.17331943151E+04  0.10086286518E+04 0.  0.
        -13    1    3    3    0    0  0.11297434707E+04  0.48353591089E+03 -0.18208474360E+03  0.12422890774E+04  0.10566000000E+00 0.  1.
         13    1    4    4    0    0 -0.13190416152E+04 -0.20825548534E+03 -0.70033927666E+03  0.15078846917E+04  0.10566000000E+00 0. -1.
          4    1    3    3  502    0 -0.34133931152E+01 -0.23951273132E+03 -0.23963732542E+03  0.33882745971E+03  0.00000000000E+00 0.  1.
         -4    1    4    4    0  501  0.19271153754E+03 -0.35767694219E+02 -0.11111868322E+03  0.22530962344E+03  0.00000000000E+00 0. -1.
</event>
<event>
 8    1  0.7446554E-006  0.1083807E+04  0.7818608E-02  0.8699604E-01
         -2   -1    0    0    0  501 -0.00000000000E+00  0.00000000000E+00  0.54111275821E+03  0.54111275821E+03  0.00000000000E+00 0.  1.
          2   -1    0    0  502    0  0.00000000000E+00 -0.00000000000E+00 -0.21724441708E+04  0.21724441708E+04  0.00000000000E+00 0. -1.
    9000010    2    1    2  502    0  0.12102929357E+02 -0.52361746900E+03 -0.82267988335E+03  0.13832578961E+04  0.98095794098E+03 0.  0.
   -9000010    2    1    2    0  501 -0.12102929357E+02  0.52361746900E+03 -0.80865152925E+03  0.13302990329E+04  0.91730937336E+03 0.  0.
        -13    1    3    3    0    0 -0.20747369090E+03  0.15542294034E+03  0.41455023097E+02  0.26252648038E+03  0.10566000000E+00 0.  1.
         13    1    4    4    0    0  0.31369118914E+03  0.13680582202E+02  0.77512152265E+01  0.31408504100E+03  0.10566000000E+00 0. -1.
          4    1    3    3  502    0  0.21957662025E+03 -0.67904040934E+03 -0.86413490644E+03  0.11207314157E+04  0.00000000000E+00 0.  1.
         -4    1    4    4    0  501 -0.32579411850E+03  0.50993688680E+03 -0.81640274448E+03  0.10162139919E+04  0.00000000000E+00 0. -1.
</event>
<event>
 8    1  0.7446554E-006  0.1058437E+04  0.7818608E-02  0.8721541E-01
          2   -1    0    0  502    0  0.00000000000E+00  0.00000000000E+00  0.11221081862E+04  0.11221081862E+04  0.00000000000E+00 0.  1.
         -2   -1    0    0    0  501 -0.00000000000E+00 -0.00000000000E+00 -0.12504325830E+04  0.12504325830E+04  0.00000000000E+00 0. -1.
    9000010    2    1    2  502    0  0.16114284664E+03  0.37225034052E+03 -0.59727777051E+03  0.12334029859E+04  0.10000024287E+04 0.  0.
   -9000010    2    1    2    0  501 -0.16114284664E+03 -0.37225034052E+03  0.46895337365E+03  0.11391377833E+04  0.95560467223E+03 0.  0.
        -13    1    3    3    0    0 -0.18066806312E+03  0.62323222998E+03 -0.29599513409E+03  0.71321279580E+03  0.10566000000E+00 0.  1.
         13    1    4    4    0    0  0.11748369531E+02  0.10129609548E+03 -0.24486657730E+03  0.26525190855E+03  0.10566000000E+00 0. -1.
          4    1    3    3  502    0  0.34181090977E+03 -0.25098188946E+03 -0.30128263641E+03  0.52019019010E+03  0.00000000000E+00 0.  1.
         -4    1    4    4    0  501 -0.17289121617E+03 -0.47354643599E+03  0.71381995095E+03  0.87388587473E+03  0.00000000000E+00 0. -1.
</event>
<event>
 8    1  0.7446554E-006  0.1089687E+04  0.7818608E-02  0.8694609E-01
         -2   -1    0    0    0  501 -0.00000000000E+00  0.00000000000E+00  0.12158710807E+04  0.12158710807E+04  0.00000000000E+00 0.  1.
          2   -1    0    0  502    0  0.00000000000E+00 -0.00000000000E+00 -0.12931516792E+04  0.12931516792E+04  0.00000000000E+00 0. -1.
    9000010    2    1    2  502    0  0.46351320475E+01 -0.42859919280E+03  0.58211469804E+03  0.12329594950E+04  0.99880570785E+03 0.  0.
   -9000010    2    1    2    0  501 -0.46351320475E+01  0.42859919280E+03 -0.65939529660E+03  0.12760632650E+04  0.10048962864E+04 0.  0.
        -13    1    3    3    0    0  0.98143999640E+02 -0.19155733824E+03  0.84195034332E+03  0.86902638066E+03  0.10566000000E+00 0.  1.
         13    1    4    4    0    0 -0.35798092213E+03 -0.16907144441E+03 -0.27949906208E+03  0.48461864470E+03  0.10566000000E+00 0. -1.
          4    1    3    3  502    0 -0.93508867592E+02 -0.23704185456E+03 -0.25983564528E+03  0.36393311430E+03  0.00000000000E+00 0.  1.
         -4    1    4    4    0  501  0.35334579008E+03  0.59767063721E+03 -0.37989623452E+03  0.79144462027E+03  0.00000000000E+00 0. -1.
</event>
<event>
 8    1  0.7446554E-006  0.1027126E+04  0.7818608E-02  0.8749514E-01
          2   -1    0    0  502    0  0.00000000000E+00  0.00000000000E+00  0.16376013309E+04  0.16376013309E+04  0.00000000000E+00 0. -1.
         -2   -1    0    0    0  501 -0.00000000000E+00 -0.00000000000E+00 -0.64820187807E+03  0.64820187807E+03  0.00000000000E+00 0.  1.
    9000010    2    1    2  502    0 -0.40904131639E+03 -0.19109971218E+02  0.58984423128E+03  0.12264613694E+04  0.99428933608E+03 0.  0.
   -9000010    2    1    2    0  501  0.40904131639E+03  0.19109971218E+02  0.39955522159E+03  0.10593418396E+04  0.89156086086E+03 0.  0.
        -13    1    3    3    0    0 -0.65954516872E+03  0.85556028171E+02  0.10854452863E+03  0.67387060285E+03  0.10566000000E+00 0.  1.
         13    1    4    4    0    0  0.20083764865E+03  0.45249765823E+03  0.25728349107E+03  0.55792893612E+03  0.10566000000E+00 0. -1.
          4    1    3    3  502    0  0.25050385232E+03 -0.10466599939E+03  0.48129970265E+03  0.55259076651E+03  0.00000000000E+00 0.  1.
         -4    1    4    4    0  501  0.20820366774E+03 -0.43338768702E+03  0.14227173052E+03  0.50141290353E+03  0.00000000000E+00 0. -1.
</event>
<event>
 8    1  0.7446554E-006  0.1277290E+04  0.7818608E-02  0.8550528E-01
         -2   -1    0    0    0  501 -0.00000000000E+00  0.00000000000E+00  0.55576369141E+03  0.55576369141E+03  0.00000000000E+00 0. -1.
          2   -1    0    0  502    0  0.00000000000E+00 -0.00000000000E+00 -0.34393061091E+04  0.34393061091E+04  0.00000000000E+00 0.  1.
    9000010    2    1    2  502    0 -0.68608176957E+03  0.38898389571E+03 -0.22169192917E+04  0.25642235083E+04  0.10190654488E+04 0.  0.
   -9000010    2    1    2    0  501  0.68608176957E+03 -0.38898389571E+03 -0.66662312599E+03  0.14308462922E+04  0.99041307248E+03 0.  0.
        -13    1    3    3    0    0 -0.19031827014E+03  0.62425105395E+03 -0.16539577750E+04  0.17780570168E+04  0.10566000000E+00 0.  1.
         13    1    4    4    0    0 -0.77270305643E+02  0.19290123646E+03  0.71769615375E+02  0.21984648284E+03  0.10566000000E+00 0. -1.
          4    1    3    3  502    0 -0.49576349944E+03 -0.23526715824E+03 -0.56296151673E+03  0.78616649155E+03  0.00000000000E+00 0.  1.
         -4    1    4    4    0  501  0.76335207521E+03 -0.58188513217E+03 -0.73839274137E+03  0.12109998094E+04  0.00000000000E+00 0. -1.
</event>
<event>
 8    1  0.7446554E-006  0.1261975E+04  0.7818608E-02  0.8561300E-01
          1   -1    0    0  502    0  0.00000000000E+00  0.00000000000E+00  0.14179809883E+04  0.14179809883E+04  0.00000000000E+00 0.  1.
         -1   -1    0    0    0  501 -0.00000000000E+00 -0.00000000000E+00 -0.11238674530E+04  0.11238674530E+04  0.00000000000E+00 0. -1.
    9000010    2    1    2  502    0  0.56878215778E+03  0.50500211548E+03  0.17783878956E+03  0.12671402532E+04  0.99773619086E+03 0.  0.
   -9000010    2    1    2    0  501 -0.56878215778E+03 -0.50500211548E+03  0.11627474569E+03  0.12747081881E+04  0.10162779485E+04 0.  0.
        -13    1    3    3    0    0 -0.16819276820E+03 -0.13833428666E+03  0.18968120561E+03  0.28879777192E+03  0.10566000000E+00 0.  1.
         13    1    4    4    0    0 -0.51587260433E+03  0.15601808436E+03  0.25655686279E+03  0.59689833435E+03  0.10566000000E+00 0. -1.
          4    1    3    3  502    0  0.73697492599E+03  0.64333640213E+03 -0.11842416054E+02  0.97834248127E+03  0.00000000000E+00 0.  1.
         -4    1    4    4    0  501 -0.52909553457E+02 -0.66102019984E+03 -0.14028211709E+03  0.67780985374E+03  0.00000000000E+00 0. -1.
</event>
<event>
 8    1  0.7446554E-006  0.1344882E+04  0.7818608E-02  0.8504782E-01
          2   -1    0    0  502    0  0.00000000000E+00  0.00000000000E+00  0.24015567782E+04  0.24015567782E+04  0.00000000000E+00 0.  1.
         -2   -1    0    0    0  501 -0.00000000000E+00 -0.00000000000E+00 -0.89073927157E+03  0.89073927157E+03  0.00000000000E+00 0. -1.
    9000010    2    1    2  502    0 -0.80693921842E+03 -0.41420058545E+03  0.14140885575E+04  0.19698470733E+04  0.10285611390E+04 0.  0.
   -9000010    2    1    2    0  501  0.80693921842E+03  0.41420058545E+03  0.96728949159E+02  0.13224489765E+04  0.95749766504E+03 0.  0.
        -13    1    3    3    0    0  0.93361742612E+02  0.89472413346E+02 -0.81592222064E+02  0.15290202614E+03  0.10566000000E+00 0.  1.
         13    1    4    4    0    0  0.35364337521E+03 -0.11953722347E+03 -0.33351389959E+03  0.50058397598E+03  0.10566000000E+00 0. -1.
          4    1    3    3  502    0 -0.90030096103E+03 -0.50367299879E+03  0.14956807796E+04  0.18169450472E+04  0.00000000000E+00 0.  1.
         -4    1    4    4    0  501  0.45329584321E+03  0.53373780891E+03  0.43024284875E+03  0.82186500049E+03  0.00000000000E+00 0. -1.
</event>
<event>
 8    1  0.7446554E-006  0.1115315E+04  0.7818608E-02  0.8673215E-01
          2   -1    0    0  502    0  0.00000000000E+00  0.00000000000E+00  0.19700728230E+04  0.19700728230E+04  0.00000000000E+00 0.  1.
         -2   -1    0    0    0  501 -0.00000000000E+00 -0.00000000000E+00 -0.64215376433E+03  0.64215376433E+03  0.00000000000E+00 0. -1.
    9000010    2    1    2  502    0  0.52380337944E+02 -0.48315360421E+03  0.82906751886E+03  0.13847012322E+04  0.99692700167E+03 0.  0.
   -9000010    2    1    2    0  501 -0.52380337944E+02  0.48315360421E+03  0.49885153977E+03  0.12275253551E+04  0.10108335835E+04 0.  0.
        -13    1    3    3    0    0  0.42036512048E+03  0.59569457727E+02  0.48367892411E+03  0.64358423505E+03  0.10566000000E+00 0.  1.
         13    1    4    4    0    0  0.19455554123E+03 -0.26698561860E+03  0.17634516675E+03  0.37447404204E+03  0.10566000000E+00 0. -1.
          4    1    3    3  502    0 -0.36798478254E+03 -0.54272306193E+03  0.34538859475E+03  0.74111699718E+03  0.00000000000E+00 0.  1.
         -4    1    4    4    0  501 -0.24693587917E+03  0.75013922280E+03  0.32250637302E+03  0.85305131302E+03  0.00000000000E+00 0. -1.
</event>
<event>
 8    1  0.7446554E-006  0.1174518E+04  0.7818608E-02  0.8626002E-01
          1   -1    0    0  502    0  0.00000000000E+00  0.00000000000E+00  0.41483770857E+03  0.41483770857E+03  0.00000000000E+00 0. -1.
         -1   -1    0    0    0  501 -0.00000000000E+00 -0.00000000000E+00 -0.47170606507E+04  0.47170606507E+04  0.00000000000E+00 0.  1.
    9000010    2    1    2  502    0  0.50210788561E+03 -0.49963698403E+03 -0.86150526109E+03  0.15187234042E+04  0.10308152206E+04 0.  0.
   -9000010    2    1    2    0  501 -0.50210788561E+03  0.49963698403E+03 -0.34407176811E+04  0.36131749550E+04  0.84542631280E+03 0.  0.
        -13    1    3    3    0    0  0.72844609003E+03 -0.20273786797E+03 -0.23927761549E+03  0.79308898469E+03  0.10566000000E+00 0.  1.
         13    1    4    4    0    0 -0.16275100313E+03  0.13850108259E+03 -0.10007871547E+03  0.23597923501E+03  0.10566000000E+00 0. -1.
          4    1    3    3  502    0 -0.22633820442E+03 -0.29689911606E+03 -0.62222764560E+03  0.72563441956E+03  0.00000000000E+00 0.  1.
         -4    1    4    4    0  501 -0.33935688247E+03  0.36113590144E+03 -0.33406389656E+04  0.33771957200E+04  0.00000000000E+00 0. -1.
</event>
<event>
 8    1  0.7446554E-006  0.1418504E+04  0.7818608E-02  0.8458001E-01
          2   -1    0    0  502    0  0.00000000000E+00  0.00000000000E+00  0.13690018524E+04  0.13690018524E+04  0.00000000000E+00 0. -1.
         -2   -1    0    0    0  501 -0.00000000000E+00 -0.00000000000E+00 -0.14908735754E+04  0.14908735754E+04  0.00000000000E+00 0.  1.
    9000010    2    1    2  502    0  0.10114628165E+04  0.16015957541E+02 -0.23077009859E+03  0.14336718444E+04  0.98936675648E+03 0.  0.
   -9000010    2    1    2    0  501 -0.10114628165E+04 -0.16015957541E+02  0.10889837560E+03  0.14262035834E+04  0.99944197675E+03 0.  0.
        -13    1    3    3    0    0  0.10615679368E+04 -0.15630827943E+03  0.78738074148E+02  0.10758989070E+04  0.10566000000E+00 0.  1.
         13    1    4    4    0    0 -0.84143441900E+03 -0.37530844596E+03 -0.17490168918E+03  0.93779471268E+03  0.10566000000E+00 0. -1.
          4    1    3    3  502    0 -0.50105120243E+02  0.17232423697E+03 -0.30950817274E+03  0.35777293737E+03  0.00000000000E+00 0.  1.
         -4    1    4    4    0  501 -0.17002839754E+03  0.35929248842E+03  0.28380006478E+03  0.48840887070E+03  0.00000000000E+00 0. -1.
</event>
<event>
 8    1  0.7446554E-006  0.1039376E+04  0.7818608E-02  0.8738449E-01
          2   -1    0    0  502    0  0.00000000000E+00  0.00000000000E+00  0.11550985250E+04  0.11550985250E+04  0.00000000000E+00 0. -1.
         -2   -1    0    0    0  501 -0.00000000000E+00 -0.00000000000E+00 -0.98554924633E+03  0.98554924633E+03  0.00000000000E+00 0.  1.
    9000010    2    1    2  502    0  0.15093156207E+03  0.28638798956E+03  0.32638433763E+03  0.10871517529E+04  0.98517703032E+03 0.  0.
   -9000010    2    1    2    0  501 -0.15093156207E+03 -0.28638798956E+03 -0.15683505898E+03  0.10534960184E+04  0.99018089659E+03 0.  0.
        -13    1    3    3    0    0  0.17144715295E+03  0.64781723504E+03  0.16120823148E+03  0.68923827617E+03  0.10566000000E+00 0.  1.
         13    1    4    4    0    0  0.25048341680E+03 -0.30476672734E+03 -0.41759745520E+03  0.57446701031E+03  0.10566000000E+00 0. -1.
          4    1    3    3  502    0 -0.20515590876E+02 -0.36142924548E+03  0.16517610614E+03  0.39791347677E+03  0.00000000000E+00 0.  1.
         -4    1    4    4    0  501 -0.40141497887E+03  0.18378737773E+02  0.26076239622E+03  0.47902900804E+03  0.00000000000E+00 0. -1.
</event>
<event>
 8    1  0.7446554E-006  0.1776154E+04  0.7818608E-02  0.8266173E-01
         -1   -1    0    0    0  501 -0.00000000000E+00  0.00000000000E+00  0.13743283125E+04  0.13743283125E+04  0.00000000000E+00 0.  1.
          1   -1    0    0  502    0  0.00000000000E+00 -0.00000000000E+00 -0.34426530287E+04  0.34426530287E+04  0.00000000000E+00 0. -1.
    9000010    2    1    2  502    0 -0.70374098624E+03  0.12641179918E+04  0.35792041168E+03  0.18073890450E+04  0.10224003453E+04 0.  0.
   -9000010    2    1    2    0  501  0.70374098624E+03 -0.12641179918E+04 -0.24262451279E+04  0.30095922962E+04  0.10381400172E+04 0.  0.
        -13    1    3    3    0    0 -0.78351959762E+03  0.45386130909E+03  0.40484503881E+03  0.99186317825E+03  0.10566000000E+00 0.  1.
         13    1    4    4    0    0 -0.15546011481E+03 -0.55015982320E+03 -0.40649228075E+03  0.70148390133E+03  0.10566000000E+00 0. -1.
          4    1    3    3  502    0  0.79778611381E+02  0.81025668273E+03 -0.46924627121E+02  0.81552586677E+03  0.00000000000E+00 0.  1.
         -4    1    4    4    0  501  0.85920110105E+03 -0.71395816862E+03 -0.20197528472E+04  0.23081083948E+04  0.00000000000E+00 0. -1.
</event>
<event>
 8    1  0.7446554E-006  0.1021249E+04  0.7818608E-02  0.8754878E-01
         -2   -1    0    0    0  501 -0.00000000000E+00  0.00000000000E+00  0.13787656293E+04  0.13787656293E+04  0.00000000000E+00 0. -1.
          2   -1    0    0  502    0  0.00000000000E+00 -0.00000000000E+00 -0.87138164809E+03  0.87138164809E+03  0.00000000000E+00 0.  1.
    9000010    2    1    2  502    0 -0.71843041178E+02 -0.34001409803E+03 -0.16122044146E+03  0.99519334084E+03  0.91850244719E+03 0.  0.
   -9000010    2    1    2    0  501  0.71843041178E+02  0.34001409803E+03  0.66860442266E+03  0.12549539365E+04  0.10035469592E+04 0.  0.
        -13    1    3    3    0    0  0.82108028306E+02 -0.63103383681E+03 -0.19157654302E+03  0.66456528236E+03  0.10566000000E+00 0.  1.
         13    1    4    4    0    0  0.27114836601E+03  0.54239603962E+03  0.93543287649E+02  0.61356764747E+03  0.10566000000E+00 0. -1.
          4    1    3    3  502    0 -0.15395106948E+03  0.29101973878E+03  0.30356101560E+02  0.33062805849E+03  0.00000000000E+00 0.  1.
         -4    1    4    4    0  501 -0.19930532483E+03 -0.20238194160E+03  0.57506113501E+03  0.64138628906E+03  0.00000000000E+00 0. -1.
</event>
<event>
 8    1  0.7446554E-006  0.1164664E+04  0.7818608E-02  0.8633657E-01
         -1   -1    0    0    0  501 -0.00000000000E+00  0.00000000000E+00  0.10272340241E+04  0.10272340241E+04  0.00000000000E+00 0. -1.
          1   -1    0    0  502    0  0.00000000000E+00 -0.00000000000E+00 -0.13208751583E+04  0.13208751583E+04  0.00000000000E+00 0.  1.
    9000010    2    1    2  502    0  0.17759174843E+03 -0.53758063987E+03 -0.16410065814E+03  0.11889014522E+04  0.10324852849E+04 0.  0.
   -9000010    2    1    2    0  501 -0.17759174843E+03  0.53758063987E+03 -0.12954047603E+03  0.11592077302E+04  0.10032198429E+04 0.  0.
        -13    1    3    3    0    0 -0.30147356655E+03 -0.57327943728E+03  0.75447181210E+02  0.65209501827E+03  0.10566000000E+00 0.  1.
         13    1    4    4    0    0 -0.56933285656E+03  0.46018413732E+03 -0.18755339211E+03  0.75570207613E+03  0.10566000000E+00 0. -1.
          4    1    3    3  502    0  0.47906531498E+03  0.35698797411E+02 -0.23954783935E+03  0.53680643391E+03  0.00000000000E+00 0.  1.
         -4    1    4    4    0  501  0.39174110814E+03  0.77396502546E+02  0.58012916086E+02  0.40350565404E+03  0.00000000000E+00 0. -1.
</event>
<event>
 8    1  0.7446554E-006  0.1489202E+04  0.7818608E-02  0.8415740E-01
         -2   -1    0    0    0  501 -0.00000000000E+00  0.00000000000E+00  0.14175907847E+04  0.14175907847E+04  0.00000000000E+00 0. -1.
          2   -1    0    0  502    0  0.00000000000E+00 -0.00000000000E+00 -0.16014542389E+04  0.16014542389E+04  0.00000000000E+00 0.  1.
    9000010    2    1    2  502    0  0.10767416347E+04  0.26352289412E+03 -0.32098815561E+03  0.15173352829E+04  0.98511730318E+03 0.  0.
   -9000010    2    1    2    0  501 -0.10767416347E+04 -0.26352289412E+03  0.13712470141E+03  0.15017097408E+04  0.10037490216E+04 0.  0.
        -13    1    3    3    0    0  0.49895689647E+02 -0.21361068011E+03 -0.31644538825E+03  0.38504129313E+03  0.10566000000E+00 0.  1.
         13    1    4    4    0    0 -0.28657198180E+03  0.19530810571E+03 -0.32718684837E+03  0.47678087401E+03  0.10566000000E+00 0. -1.
          4    1    3    3  502    0  0.10268459450E+04  0.47713357423E+03 -0.45427673593E+01  0.11322939897E+04  0.00000000000E+00 0.  1.
         -4    1    4    4    0  501 -0.79016965286E+03 -0.45883099984E+03  0.46431154979E+03  0.10249288668E+04  0.00000000000E+00 0. -1.
</event>
<event>
 8    1  0.7446554E-006  0.1299669E+04  0.7818608E-02  0.8535065E-01
         -2   -1    0    0    0  501 -0.00000000000E+00  0.00000000000E+00  0.12912658705E+04  0.12912658705E+04  0.00000000000E+00 0. -1.
          2   -1    0    0  502    0  0.00000000000E+00 -0.00000000000E+00 -0.13119792714E+04  0.13119792714E+04  0.00000000000E+00 0.  1.
    9000010    2    1    2  502    0 -0.86975900503E+03 -0.10479774293E+02  0.54840232439E+02  0.12737235563E+04  0.92885612148E+03 0.  0.
   -9000010    2    1    2    0  501  0.86975900503E+03  0.10479774293E+02 -0.75553633353E+02  0.13295215855E+04  0.10026608311E+04 0.  0.
        -13    1    3    3    0    0 -0.90495834005E+03  0.43515706286E+02 -0.26776364659E+03  0.94474366657E+03  0.10566000000E+00 0.  1.
         13    1    4    4    0    0 -0.19523965840E+03 -0.34056548103E+02 -0.16769770204E+03  0.25961683904E+03  0.10566000000E+00 0. -1.
          4    1    3    3  502    0  0.35199335029E+02 -0.53995480579E+02  0.32260387903E+03  0.32897988978E+03  0.00000000000E+00 0.  1.
         -4    1    4    4    0  501  0.10649986634E+04  0.44536322396E+02  0.92144068685E+02  0.10699047465E+04  0.00000000000E+00 0. -1.
</event>
<event>
 8    1  0.7446554E-006  0.1432340E+04  0.7818608E-02  0.8449534E-01
          4   -1    0    0  502    0  0.00000000000E+00  0.00000000000E+00  0.14921690922E+04  0.14921690922E+04  0.00000000000E+00 0.  1.
         -4   -1    0    0    0  501 -0.00000000000E+00 -0.00000000000E+00 -0.13831534073E+04  0.13831534073E+04  0.00000000000E+00 0. -1.
    9000010    2    1    2  502    0 -0.79892105693E+03  0.63790218110E+03 -0.56519011036E+02  0.14323921048E+04  0.10016779400E+04 0.  0.
   -9000010    2    1    2    0  501  0.79892105693E+03 -0.63790218110E+03  0.16553469603E+03  0.14429303947E+04  0.10047150543E+04 0.  0.
        -13    1    3    3    0    0  0.16169980866E+03  0.40943739830E+03 -0.64717921980E+02  0.44494295347E+03  0.10566000000E+00 0.  1.
         13    1    4    4    0    0  0.13753010973E+03 -0.21079537275E+03  0.52136818511E+03  0.57894215244E+03  0.10566000000E+00 0. -1.
          4    1    3    3  502    0 -0.96062086559E+03  0.22846478280E+03  0.81989109437E+01  0.98744915136E+03  0.00000000000E+00 0.  1.
         -4    1    4    4    0  501  0.66139094719E+03 -0.42710680836E+03 -0.35583348908E+03  0.86398824224E+03  0.00000000000E+00 0. -1.
</event>
<event>
 8    1  0.7446554E-006  0.1124510E+04  0.7818608E-02  0.8665685E-01
          1   -1    0    0  502    0  0.00000000000E+00  0.00000000000E+00  0.18224558639E+04  0.18224558639E+04  0.00000000000E+00 0.  1.
         -1   -1    0    0    0  501 -0.00000000000E+00 -0.00000000000E+00 -0.77316684678E+03  0.77316684678E+03  0.00000000000E+00 0. -1.
    9000010    2    1    2  502    0 -0.45683546371E+03 -0.31041269451E+03  0.11571314087E+03  0.11456683022E+04  0.99705147603E+03 0.  0.
   -9000010    2    1    2    0  501  0.45683546371E+03  0.31041269451E+03  0.93357587620E+03  0.14499544085E+04  0.96215860863E+03 0.  0.
        -13    1    3    3    0    0 -0.26625204769E+03 -0.30992375931E+03  0.54197889245E+03  0.67873707760E+03  0.10566000000E+00 0.  1.
         13    1    4    4    0    0 -0.16271352636E+03  0.11380604209E+03 -0.10509875342E+03  0.22466256032E+03  0.10566000000E+00 0. -1.
          4    1    3    3  502    0 -0.19058341602E+03 -0.48893519283E+00 -0.42626575158E+03  0.46693122458E+03  0.00000000000E+00 0.  1.
         -4    1    4    4    0  501  0.61954899007E+03  0.19660665242E+03  0.10386746296E+04  0.12252918481E+04  0.00000000000E+00 0. -1.
</event>
<event>
 8    1  0.7446554E-006  0.1099772E+04  0.7818608E-02  0.8686118E-01
         -2   -1    0    0    0  501 -0.00000000000E+00  0.00000000000E+00  0.11856693101E+04  0.11856693101E+04  0.00000000000E+00 0. -1.
          2   -1    0    0  502    0  0.00000000000E+00 -0.00000000000E+00 -0.10624383510E+04  0.10624383510E+04  0.00000000000E+00 0.  1.
    9000010    2    1    2  502    0  0.50390827859E+02 -0.40808866945E+03 -0.16011909548E+03  0.11355597967E+04  0.10463184646E+04 0.  0.
   -9000010    2    1    2    0  501 -0.50390827859E+02  0.40808866945E+03  0.28335005449E+03  0.11125478644E+04  0.99418303122E+03 0.  0.
        -13    1    3    3    0    0  0.14783390072E+03  0.33931488380E+03 -0.66341663832E+02  0.37601952089E+03  0.10566000000E+00 0.  1.
         13    1    4    4    0    0 -0.79547974738E+02  0.68365939549E+03  0.41715991255E+03  0.80482324340E+03  0.10566000000E+00 0. -1.
          4    1    3    3  502    0 -0.97443072857E+02 -0.74740355325E+03 -0.93777431647E+02  0.75954027579E+03  0.00000000000E+00 0.  1.
         -4    1    4    4    0  501  0.29157146880E+02 -0.27557072603E+03 -0.13380985806E+03  0.30772462101E+03  0.00000000000E+00 0. -1.
</event>
<event>
 8    1  0.7446554E-006  0.1326531E+04  0.7818608E-02  0.8516923E-01
          2   -1    0    0  502    0  0.00000000000E+00  0.00000000000E+00  0.19071853955E+04  0.19071853955E+04  0.00000000000E+00 0.  1.
         -2   -1    0    0    0  501 -0.00000000000E+00 -0.00000000000E+00 -0.10180751631E+04  0.10180751631E+04  0.00000000000E+00 0. -1.
    9000010    2    1    2  502    0  0.83396110044E+03  0.18131316611E+03  0.66505176246E+00  0.13387017858E+04  0.10313856930E+04 0.  0.
   -9000010    2    1    2    0  501 -0.83396110044E+03 -0.18131316611E+03  0.88844518055E+03  0.15865587728E+04  0.99973412444E+03 0.  0.
        -13    1    3    3    0    0  0.10775129194E+04  0.14921921572E+03 -0.45486862509E+02  0.10887467711E+04  0.10566000000E+00 0.  1.
         13    1    4    4    0    0 -0.87637693187E+02 -0.44381134130E+03  0.87506225691E+02  0.46076699386E+03  0.10566000000E+00 0. -1.
          4    1    3    3  502    0 -0.24355181894E+03  0.32093950393E+02  0.46151914271E+02  0.24995501465E+03  0.00000000000E+00 0.  1.
         -4    1    4    4    0  501 -0.74632340726E+03  0.26249817519E+03  0.80093895486E+03  0.11257917790E+04  0.00000000000E+00 0. -1.
</event>
<event>
 8    1  0.7446554E-006  0.1487429E+04  0.7818608E-02  0.8416770E-01
         -4   -1    0    0    0  501 -0.00000000000E+00  0.00000000000E+00  0.18222679939E+04  0.18222679939E+04  0.00000000000E+00 0.  1.
          4   -1    0    0  502    0  0.00000000000E+00 -0.00000000000E+00 -0.14268776430E+04  0.14268776430E+04  0.00000000000E+00 0. -1.
    9000010    2    1    2  502    0  0.87810003616E+03 -0.65979430495E+03 -0.43053430416E+03  0.15402316188E+04  0.99023504995E+03 0.  0.
   -9000010    2    1    2    0  501 -0.87810003616E+03  0.65979430495E+03  0.82592465506E+03  0.17089140180E+04  0.10157988909E+04 0.  0.
        -13    1    3    3    0    0  0.10817405229E+04 -0.42614862813E+03 -0.39663572861E+03  0.12284482588E+04  0.10566000000E+00 0.  1.
         13    1    4    4    0    0 -0.38555722976E+02  0.24553998972E+03 -0.20074560211E+03  0.31949215680E+03  0.10566000000E+00 0. -1.
          4    1    3    3  502    0 -0.20364048676E+03 -0.23364567682E+03 -0.33898575553E+02  0.31178336000E+03  0.00000000000E+00 0.  1.
         -4    1    4    4    0  501 -0.83954431318E+03  0.41425431524E+03  0.10266702572E+04  0.13894218612E+04  0.00000000000E+00 0. -1.
</event>
<event>
 8    1  0.7446554E-006  0.1583798E+04  0.7818608E-02  0.8362841E-01
         -2   -1    0    0    0  501 -0.00000000000E+00  0.00000000000E+00  0.25032524927E+04  0.25032524927E+04  0.00000000000E+00 0.  1.
          2   -1    0    0  502    0  0.00000000000E+00 -0.00000000000E+00 -0.10325037697E+04  0.10325037697E+04  0.00000000000E+00 0. -1.
    9000010    2    1    2  502    0  0.11882340760E+04  0.33464667433E+03  0.10403071557E+04  0.18975000588E+04  0.99718547859E+03 0.  0.
   -9000010    2    1    2    0  501 -0.11882340760E+04 -0.33464667433E+03  0.43044156724E+03  0.16382562036E+04  0.98727647086E+03 0.  0.
        -13    1    3    3    0    0  0.10272996712E+03 -0.21926531633E+03 -0.66649597786E+02  0.25114319648E+03  0.10566000000E+00 0.  1.
         13    1    4    4    0    0 -0.29738680482E+02  0.18087818478E+03  0.31569440142E+03  0.36505379480E+03  0.10566000000E+00 0. -1.
          4    1    3    3  502    0  0.10855041089E+04  0.55391199067E+03  0.11069567535E+04  0.16463568623E+04  0.00000000000E+00 0.  1.
         -4    1    4    4    0  501 -0.11584953955E+04 -0.51552485911E+03  0.11474716582E+03  0.12732024088E+04  0.00000000000E+00 0. -1.
</event>
<event>
 8    1  0.7446554E-006  0.1635833E+04  0.7818608E-02  0.8335347E-01
          1   -1    0    0  502    0  0.00000000000E+00  0.00000000000E+00  0.92093875677E+03  0.92093875677E+03  0.00000000000E+00 0.  1.
         -1   -1    0    0    0  501 -0.00000000000E+00 -0.00000000000E+00 -0.29065824606E+04  0.29065824606E+04  0.00000000000E+00 0. -1.
    9000010    2    1    2  502    0 -0.71825087702E+02  0.12897022320E+04 -0.96113801608E+03  0.19000235223E+04  0.10088668935E+04 0.  0.
   -9000010    2    1    2    0  501  0.71825087702E+02 -0.12897022320E+04 -0.10245056878E+04  0.19274976951E+04  0.99857136438E+03 0.  0.
        -13    1    3    3    0    0 -0.39445838046E+03  0.10778019569E+04 -0.39294629001E+03  0.12131204682E+04  0.10566000000E+00 0.  1.
         13    1    4    4    0    0  0.53582013858E+03 -0.72815428772E+03 -0.58167137097E+03  0.10750132476E+04  0.10566000000E+00 0. -1.
          4    1    3    3  502    0  0.32263329276E+03  0.21190027510E+03 -0.56819172607E+03  0.68690305412E+03  0.00000000000E+00 0.  1.
         -4    1    4    4    0  501 -0.46399505088E+03 -0.56154794433E+03 -0.44283431680E+03  0.85248444746E+03  0.00000000000E+00 0. -1.
</event>
<event>
 8    1  0.7446554E-006  0.1120730E+04  0.7818608E-02  0.8668771E-01
          1   -1    0    0  502    0  0.00000000000E+00  0.00000000000E+00  0.12503402972E+04  0.12503402972E+04  0.00000000000E+00 0. -1.
         -1   -1    0    0    0  501 -0.00000000000E+00 -0.00000000000E+00 -0.11601981159E+04  0.11601981159E+04  0.00000000000E+00 0.  1.
    9000010    2    1    2  502    0 -0.51873938958E+03 -0.50048974605E+02  0.48661422091E+03  0.12245278598E+04  0.99552982141E+03 0.  0.
   -9000010    2    1    2    0  501  0.51873938958E+03  0.50048974605E+02 -0.39647203958E+03  0.11860105533E+04  0.98885565190E+03 0.  0.
        -13    1    3    3    0    0 -0.46470148284E+03  0.34045328929E+03  0.58204165283E+03  0.81891904798E+03  0.10566000000E+00 0.  1.
         13    1    4    4    0    0  0.30122915950E+03 -0.28457398942E+03 -0.60686174422E+03  0.73484865772E+03  0.10566000000E+00 0. -1.
          4    1    3    3  502    0 -0.54037906742E+02 -0.39050226390E+03 -0.95427431922E+02  0.40560881184E+03  0.00000000000E+00 0.  1.
         -4    1    4    4    0  501  0.21751023008E+03  0.33462296402E+03  0.21038970464E+03  0.45116189562E+03  0.00000000000E+00 0. -1.
</event>
<event>
 8    1  0.7446554E-006  0.1144144E+04  0.7818608E-02  0.8649854E-01
          2   -1    0    0  502    0  0.00000000000E+00  0.00000000000E+00  0.25464908628E+04  0.25464908628E+04  0.00000000000E+00 0.  1.
         -2   -1    0    0    0  501 -0.00000000000E+00 -0.00000000000E+00 -0.51742688256E+03  0.51742688256E+03  0.00000000000E+00 0. -1.
    9000010    2    1    2  502    0  0.37619517466E+03 -0.38549478391E+03  0.11332570510E+04  0.16067326852E+04  0.10035882323E+04 0.  0.
   -9000010    2    1    2    0  501 -0.37619517466E+03  0.38549478391E+03  0.89580692920E+03  0.14571850602E+04  0.10152778966E+04 0.  0.
        -13    1    3    3    0    0 -0.13995669507E+03 -0.10750654636E+03 -0.12657308298E+03  0.21717801570E+03  0.10566000000E+00 0.  1.
         13    1    4    4    0    0 -0.17047958519E+03  0.26770175209E+03 -0.17364650672E+03  0.36177429082E+03  0.10566000000E+00 0. -1.
          4    1    3    3  502    0  0.51615186974E+03 -0.27798823755E+03  0.12598301340E+04  0.13895546695E+04  0.00000000000E+00 0.  1.
         -4    1    4    4    0  501 -0.20571558947E+03  0.11779303183E+03  0.10694534359E+04  0.10954107694E+04  0.00000000000E+00 0. -1.
</event>
<event>
 8    1  0.7446554E-006  0.1141388E+04  0.7818608E-02  0.8652055E-01
         -2   -1    0    0    0  501 -0.00000000000E+00  0.00000000000E+00  0.63229510834E+03  0.63229510834E+03  0.00000000000E+00 0.  1.
          2   -1    0    0  502    0  0.00000000000E+00 -0.00000000000E+00 -0.20890277456E+04  0.20890277456E+04  0.00000000000E+00 0. -1.
    9000010    2    1    2  502    0 -0.27238749151E+02 -0.54650040707E+03 -0.88648487045E+03  0.14436927652E+04  0.99949423724E+03 0.  0.
   -9000010    2    1    2    0  501  0.27238749151E+02  0.54650040707E+03 -0.57024776680E+03  0.12776300888E+04  0.10038682602E+04 0.  0.
        -13    1    3    3    0    0 -0.37472842134E+03 -0.51904303695E+03 -0.19483087732E+03  0.66916824931E+03  0.10566000000E+00 0.  1.
         13    1    4    4    0    0 -0.14615361808E+02  0.37256329025E+03  0.24292833588E+03  0.44500696802E+03  0.10566000000E+00 0. -1.
          4    1    3    3  502    0  0.34748967219E+03 -0.27457370125E+02 -0.69165399313E+03  0.77452451586E+03  0.00000000000E+00 0.  1.
         -4    1    4    4    0  501  0.41854110959E+02  0.17393711682E+03 -0.81317610268E+03  0.83262312074E+03  0.00000000000E+00 0. -1.
</event>
<event>
 8    1  0.7446554E-006  0.1207253E+04  0.7818608E-02  0.8601120E-01
         -1   -1    0    0    0  501 -0.00000000000E+00  0.00000000000E+00  0.13487717061E+04  0.13487717061E+04  0.00000000000E+00 0. -1.
          1   -1    0    0  502    0  0.00000000000E+00 -0.00000000000E+00 -0.12110090616E+04  0.12110090616E+04  0.00000000000E+00 0.  1.
    9000010    2    1    2  502    0 -0.11802453950E+03 -0.70151603640E+03 -0.34946092595E+03  0.12774990325E+04  0.10019113224E+04 0.  0.
   -9000010    2    1    2    0  501  0.11802453950E+03  0.70151603640E+03  0.48722357047E+03  0.12822817352E+04  0.94910752798E+03 0.  0.
        -13    1    3    3    0    0  0.33062795411E+03 -0.69578091663E+03 -0.29757888164E+03  0.82582027703E+03  0.10566000000E+00 0.  1.
         13    1    4    4    0    0 -0.91933448302E+02  0.74901531162E+03  0.66288865460E+03  0.10044386868E+04  0.10566000000E+00 0. -1.
          4    1    3    3  502    0 -0.44865249361E+03 -0.57351197708E+01 -0.51882044311E+02  0.45167875547E+03  0.00000000000E+00 0.  1.
         -4    1    4    4    0  501  0.20995798780E+03 -0.47499275218E+02 -0.17566508414E+03  0.27784304845E+03  0.00000000000E+00 0. -1.
</event>
<event>
 8    1  0.7446554E-006  0.1770088E+04  0.7818608E-02  0.8269025E-01
          2   -1    0    0  502    0  0.00000000000E+00  0.00000000000E+00  0.23317127077E+04  0.23317127077E+04  0.00000000000E+00 0. -1.
         -2   -1    0    0    0  501 -0.00000000000E+00 -0.00000000000E+00 -0.13896162472E+04  0.13896162472E+04  0.00000000000E+00 0.  1.
    9000010    2    1    2  502    0  0.83604895682E+03  0.10821066769E+04  0.12307017516E+03  0.16909304524E+04  0.98699888983E+03 0.  0.
   -9000010    2    1    2    0  501 -0.83604895682E+03 -0.10821066769E+04  0.81902628530E+03  0.20303985025E+04  0.12576888743E+04 0.  0.
        -13    1    3    3    0    0  0.42260937039E+03  0.36585466578E+02 -0.26660823291E+03  0.50101610486E+03  0.10566000000E+00 0.  1.
         13    1    4    4    0    0 -0.70378875141E+03 -0.51234697998E+03 -0.16464928452E+03  0.88596130422E+03  0.10566000000E+00 0. -1.
          4    1    3    3  502    0  0.41343958643E+03  0.10455212103E+04  0.38967840807E+03  0.11899143475E+04  0.00000000000E+00 0.  1.
         -4    1    4    4    0  501 -0.13226020541E+03 -0.56975969688E+03  0.98367556981E+03  0.11444371983E+04  0.00000000000E+00 0. -1.
</event>
<event>
 8    1  0.7446554E-006  0.1136654E+04  0.7818608E-02  0.8655854E-01
          1   -1    0    0  502    0  0.00000000000E+00  0.00000000000E+00  0.13942160509E+04  0.13942160509E+04  0.00000000000E+00 0.  1.
         -1   -1    0    0    0  501 -0.00000000000E+00 -0.00000000000E+00 -0.94816802525E+03  0.94816802525E+03  0.00000000000E+00 0. -1.
    9000010    2    1    2  502    0  0.45463868182E+03  0.28967672887E+03  0.46008339295E+02  0.11338782290E+04  0.99647083889E+03 0.  0.
   -9000010    2    1    2    0  501 -0.45463868182E+03 -0.28967672887E+03  0.40003968632E+03  0.12085058471E+04  0.10049107888E+04 0.  0.
        -13    1    3    3    0    0  0.70177903743E+03  0.43122816476E+02  0.22935393154E+03  0.73956516397E+03  0.10566000000E+00 0.  1.
         13    1    4    4    0    0  0.18036355106E+03 -0.36143438332E+03  0.40139697289E+03  0.56946059127E+03  0.10566000000E+00 0. -1.
          4    1    3    3  502    0 -0.24714035562E+03  0.24655391239E+03 -0.18334559225E+03  0.39431306507E+03  0.00000000000E+00 0.  1.
         -4    1    4    4    0  501 -0.63500223288E+03  0.71757654454E+02 -0.13572865725E+01  0.63904525580E+03  0.00000000000E+00 0. -1.
</event>
<event>
 8    1  0.7446554E-006  0.1079843E+04  0.7818608E-02  0.8702990E-01
          1   -1    0    0  502    0  0.00000000000E+00  0.00000000000E+00  0.22241503978E+04  0.22241503978E+04  0.00000000000E+00 0. -1.
         -1   -1    0    0    0  501 -0.00000000000E+00 -0.00000000000E+00 -0.55344884127E+03  0.55344884127E+03  0.00000000000E+00 0.  1.
    9000010    2    1    2  502    0 -0.13678963137E+03 -0.39052450140E+03  0.51245925889E+03  0.11902310918E+04  0.99137014799E+03 0.  0.
   -9000010    2    1    2    0  501  0.13678963137E+03  0.39052450140E+03  0.11582422977E+04  0.15873681473E+04  0.10034897237E+04 0.  0.
        -13    1    3    3    0    0  0.15423006974E+03  0.97854452424E+02  0.58892468131E+03  0.61659930237E+03  0.10566000000E+00 0.  1.
         13    1    4    4    0    0 -0.32216250508E+02  0.38866207387E+03  0.13059288000E+04  0.13629182427E+04  0.10566000000E+00 0. -1.
          4    1    3    3  502    0 -0.29101970110E+03 -0.48837895382E+03 -0.76465422423E+02  0.57363178939E+03  0.00000000000E+00 0.  1.
         -4    1    4    4    0  501  0.16900588188E+03  0.18624275341E+01 -0.14768650230E+03  0.22444990467E+03  0.00000000000E+00 0. -1.
</event>
<event>
 8    1  0.7446554E-006  0.1364549E+04  0.7818608E-02  0.8491989E-01
          2   -1    0    0  502    0  0.00000000000E+00  0.00000000000E+00  0.12051422404E+04  0.12051422404E+04  0.00000000000E+00 0. -1.
         -2   -1    0    0    0  501 -0.00000000000E+00 -0.00000000000E+00 -0.17580990508E+04  0.17580990508E+04  0.00000000000E+00 0.  1.
    9000010    2    1    2  502    0 -0.48180174991E+03 -0.81245022733E+03  0.23823249402E+03  0.13909056983E+04  0.99280191496E+03 0.  0.
   -9000010    2    1    2    0  501  0.48180174991E+03  0.81245022733E+03 -0.79118930445E+03  0.15723355929E+04  0.97675503738E+03 0.  0.
        -13    1    3    3    0    0 -0.31776893795E+03  0.16550906345E+03 -0.41243966594E+02  0.36065416115E+03  0.10566000000E+00 0.  1.
         13    1    4    4    0    0  0.58438700378E+03  0.15034945077E+03 -0.10351400343E+03  0.61223221705E+03  0.10566000000E+00 0. -1.
          4    1    3    3  502    0 -0.16403281196E+03 -0.97795929079E+03  0.27947646062E+03  0.10302515372E+04  0.00000000000E+00 0.  1.
         -4    1    4    4    0  501 -0.10258525387E+03  0.66210077656E+03 -0.68767530102E+03  0.96010337582E+03  0.00000000000E+00 0. -1.
</event>
<event>
 8    1  0.7446554E-006  0.1233737E+04  0.7818608E-02  0.8581581E-01
         -1   -1    0    0    0  501 -0.00000000000E+00  0.00000000000E+00  0.93232417205E+03  0.93232417205E+03  0.00000000000E+00 0. -1.
          1   -1    0    0  502    0  0.00000000000E+00 -0.00000000000E+00 -0.16722953092E+04  0.16722953092E+04  0.00000000000E+00 0.  1.
    9000010    2    1    2  502    0  0.61718412541E+03 -0.38138559365E+03 -0.56948179393E+03  0.13553640727E+04  0.99314200402E+03 0.  0.
   -9000010    2    1    2    0  501 -0.61718412541E+03  0.38138559365E+03 -0.17048934326E+03  0.12492554086E+04  0.10025972492E+04 0.  0.
        -13    1    3    3    0    0 -0.43059532633E+01  0.18873051570E+03  0.15443895288E+03  0.24390397725E+03  0.10566000000E+00 0.  1.
         13    1    4    4    0    0 -0.76990326205E+03  0.46965132118E+03  0.11960694749E+03  0.90974129809E+03  0.10566000000E+00 0. -1.
          4    1    3    3  502    0  0.62149007868E+03 -0.57011610935E+03 -0.72392074681E+03  0.11114600954E+04  0.00000000000E+00 0.  1.
         -4    1    4    4    0  501  0.15271913663E+03 -0.88265727529E+02 -0.29009629075E+03  0.33951411054E+03  0.00000000000E+00 0. -1.
</event>
<event>
 8    1  0.7446554E-006  0.1503358E+04  0.7818608E-02  0.8407569E-01
          2   -1    0    0  502    0  0.00000000000E+00  0.00000000000E+00  0.60182524897E+03  0.60182524897E+03  0.00000000000E+00 0. -1.
         -2   -1    0    0    0  501 -0.00000000000E+00 -0.00000000000E+00 -0.44104360403E+04  0.44104360403E+04  0.00000000000E+00 0.  1.
    9000010    2    1    2  502    0  0.10301524261E+04 -0.34104891416E+03 -0.29675962622E+04  0.33768519929E+04  0.11912067092E+04 0.  0.
   -9000010    2    1    2    0  501 -0.10301524261E+04  0.34104891416E+03 -0.84101452912E+03  0.16354092963E+04  0.88866739868E+03 0.  0.
        -13    1    3    3    0    0  0.99253227301E+03  0.23406930754E+03 -0.21111068116E+04  0.23445001034E+04  0.10566000000E+00 0.  1.
         13    1    4    4    0    0 -0.51179092778E+03 -0.28048262328E+03 -0.25875164944E+03  0.63839868654E+03  0.10566000000E+00 0. -1.
          4    1    3    3  502    0  0.37620153061E+02 -0.57511822171E+03 -0.85648945060E+03  0.10323518895E+04  0.00000000000E+00 0.  1.
         -4    1    4    4    0  501 -0.51836149830E+03  0.62153153744E+03 -0.58226287968E+03  0.99701060978E+03  0.00000000000E+00 0. -1.
</event>
<event>
 8    1  0.7446554E-006  0.1248817E+04  0.7818608E-02  0.8570681E-01
         -2   -1    0    0    0  501 -0.00000000000E+00  0.00000000000E+00  0.76974781361E+03  0.76974781361E+03  0.00000000000E+00 0. -1.
          2   -1    0    0  502    0  0.00000000000E+00 -0.00000000000E+00 -0.20537016730E+04  0.20537016730E+04  0.00000000000E+00 0.  1.
    9000010    2    1    2  502    0  0.72457054371E+03 -0.23934872018E+03 -0.80406503824E+03  0.14824827763E+04  0.98434969078E+03 0.  0.
   -9000010    2    1    2    0  501 -0.72457054371E+03  0.23934872018E+03 -0.47988882118E+03  0.13409667103E+04  0.99277799875E+03 0.  0.
        -13    1    3    3    0    0 -0.22110835221E+03  0.95921803642E+02 -0.13137609399E+03  0.27449878883E+03  0.10566000000E+00 0.  1.
         13    1    4    4    0    0 -0.81060469093E+02 -0.30013829135E+03 -0.38655455912E+03  0.49606272983E+03  0.10566000000E+00 0. -1.
          4    1    3    3  502    0  0.94567889592E+03 -0.33527052382E+03 -0.67268894426E+03  0.12079839875E+04  0.00000000000E+00 0.  1.
         -4    1    4    4    0  501 -0.64351007462E+03  0.53948701153E+03 -0.93334262056E+02  0.84490398047E+03  0.00000000000E+00 0. -1.
</event>
<event>
 8    1  0.7446554E-006  0.1364183E+04  0.7818608E-02  0.8492225E-01
          1   -1    0    0  502    0  0.00000000000E+00  0.00000000000E+00  0.11531703416E+04  0.11531703416E+04  0.00000000000E+00 0. -1.
         -1   -1    0    0    0  501 -0.00000000000E+00 -0.00000000000E+00 -0.31532818591E+04  0.31532818591E+04  0.00000000000E+00 0.  1.
    9000010    2    1    2  502    0  0.51781475908E+03 -0.78691826475E+03  0.50553183702E+03  0.14521307954E+04  0.98272525591E+03 0.  0.
   -9000010    2    1    2    0  501 -0.51781475908E+03  0.78691826475E+03 -0.25056433545E+04  0.28543214053E+04  0.99072174939E+03 0.  0.
        -13    1    3    3    0    0  0.29927879974E+03 -0.23487225561E+03  0.72531227166E+03  0.81903032851E+03  0.10566000000E+00 0.  1.
         13    1    4    4    0    0  0.29196297255E+03  0.17878202642E+03 -0.47931519600E+03  0.58902330904E+03  0.10566000000E+00 0. -1.
          4    1    3    3  502    0  0.21853595935E+03 -0.55204600914E+03 -0.21978043464E+03  0.63310046690E+03  0.00000000000E+00 0.  1.
         -4    1    4    4    0  501 -0.80977773163E+03  0.60813623834E+03 -0.20263281585E+04  0.22652980962E+04  0.00000000000E+00 0. -1.
</event>
<event>
 7    1  0.7446554E-006  0.1409539E+04  0.7818608E-02  0.8463539E-01
         -2   -1    0    0    0  501 -0.00000000000E+00  0.00000000000E+00  0.91259792919E+03  0.91259792919E+03  0.00000000000E+00 0. -1.
          2   -1    0    0  502    0  0.00000000000E+00 -0.00000000000E+00 -0.23128480342E+04  0.23128480342E+04  0.00000000000E+00 0.  1.
   -9000010    2    1    2    0  501  0.11082851972E+04  0.25138348750E+03 -0.11206906283E+04  0.18825626986E+04  0.99830110372E+03 0.  0.
        -13    1    1    2    0    0 -0.86227162536E+03 -0.74077098630E+02  0.83929243929E+02  0.86950785022E+03  0.10566000000E+00 0.  1.
         13    1    3    3    0    0  0.23794071832E+03 -0.37111353321E+03 -0.28629902921E+03  0.52565024994E+03  0.10566000000E+00 0. -1.
          4    1    1    2  502    0 -0.24601357186E+03 -0.17730638887E+03 -0.36348872070E+03  0.47337541460E+03  0.00000000000E+00 0.  1.
         -4    1    3    3    0  501  0.87034447889E+03  0.62249702072E+03 -0.83439159906E+03  0.13569124487E+04  0.00000000000E+00 0. -1.
</event>
<event>
 8    1  0.7446554E-006  0.1519596E+04  0.7818608E-02  0.8398310E-01
          2   -1    0    0  502    0  0.00000000000E+00  0.00000000000E+00  0.16882037879E+04  0.16882037879E+04  0.00000000000E+00 0. -1.
         -2   -1    0    0    0  501 -0.00000000000E+00 -0.00000000000E+00 -0.14245079994E+04  0.14245079994E+04  0.00000000000E+00 0.  1.
    9000010    2    1    2  502    0 -0.45438655359E+03  0.10520966234E+04 -0.17895791351E+03  0.15254464991E+04  0.99075054476E+03 0.  0.
   -9000010    2    1    2    0  501  0.45438655359E+03 -0.10520966234E+04  0.44265370210E+03  0.15872652882E+04  0.10050345019E+04 0.  0.
        -13    1    3    3    0    0 -0.28603881452E+03  0.81945804800E+03  0.34013947193E+03  0.93221487189E+03  0.10566000000E+00 0.  1.
         13    1    4    4    0    0 -0.20820042919E+03 -0.73006242168E+03  0.37705754248E+03  0.84765025793E+03  0.10566000000E+00 0. -1.
          4    1    3    3  502    0 -0.16834773907E+03  0.23263857536E+03 -0.51909738543E+03  0.59323162724E+03  0.00000000000E+00 0.  1.
         -4    1    4    4    0  501  0.66258698278E+03 -0.32203420168E+03  0.65596159622E+02  0.73961503024E+03  0.00000000000E+00 0. -1.
</event>
<event>
 8    1  0.7446554E-006  0.1395842E+04  0.7818608E-02  0.8472085E-01
         -2   -1    0    0    0  501 -0.00000000000E+00  0.00000000000E+00  0.72423321697E+03  0.72423321697E+03  0.00000000000E+00 0.  1.
          2   -1    0    0  502    0  0.00000000000E+00 -0.00000000000E+00 -0.26975042076E+04  0.26975042076E+04  0.00000000000E+00 0. -1.
    9000010    2    1    2  502    0 -0.87822139854E+03 -0.43515013260E+03 -0.89386073062E+03  0.16522306962E+04  0.98501309896E+03 0.  0.
   -9000010    2    1    2    0  501  0.87822139854E+03  0.43515013260E+03 -0.10794102600E+04  0.17695067283E+04  0.10026959107E+04 0.  0.
        -13    1    3    3    0    0 -0.61972254012E+03 -0.70710534755E+03 -0.37578364252E+03  0.10125548659E+04  0.10566000000E+00 0.  1.
         13    1    4    4    0    0  0.41982662438E+03 -0.28241856314E+03 -0.19620468245E+03  0.54268861046E+03  0.10566000000E+00 0. -1.
          4    1    3    3  502    0 -0.25849885841E+03  0.27195521495E+03 -0.51807708809E+03  0.63967583036E+03  0.00000000000E+00 0.  1.
         -4    1    4    4    0  501  0.45839477416E+03  0.71756869574E+03 -0.88320557758E+03  0.12268181179E+04  0.00000000000E+00 0. -1.
</event>
<event>
 8    1  0.7446554E-006  0.1336845E+04  0.7818608E-02  0.8510075E-01
          1   -1    0    0  502    0  0.00000000000E+00  0.00000000000E+00  0.17897376444E+04  0.17897376444E+04  0.00000000000E+00 0. -1.
         -1   -1    0    0    0  501 -0.00000000000E+00 -0.00000000000E+00 -0.12217877803E+04  0.12217877803E+04  0.00000000000E+00 0.  1.
    9000010    2    1    2  502    0  0.19131177821E+03  0.85887531920E+03 -0.36150261611E+03  0.13739546814E+04  0.99136285723E+03 0.  0.
   -9000010    2    1    2    0  501 -0.19131177821E+03 -0.85887531920E+03  0.92945248026E+03  0.16375707433E+04  0.10215131011E+04 0.  0.
        -13    1    3    3    0    0  0.14618096945E+03 -0.15183005054E+03  0.13159644416E+03  0.24847308779E+03  0.10566000000E+00 0.  1.
         13    1    4    4    0    0 -0.37178438487E+03 -0.69438411912E+03  0.12579240522E+03  0.79763191643E+03  0.10566000000E+00 0. -1.
          4    1    3    3  502    0  0.45130808760E+02  0.10107053697E+04 -0.49309906027E+03  0.11254815936E+04  0.00000000000E+00 0.  1.
         -4    1    4    4    0  501  0.18047260666E+03 -0.16449120007E+03  0.80366007504E+03  0.83993882686E+03  0.00000000000E+00 0. -1.
</event>
<event>
 8    1  0.7446554E-006  0.1107527E+04  0.7818608E-02  0.8679652E-01
          2   -1    0    0  502    0  0.00000000000E+00  0.00000000000E+00  0.15434972076E+04  0.15434972076E+04  0.00000000000E+00 0.  1.
         -2   -1    0    0    0  501 -0.00000000000E+00 -0.00000000000E+00 -0.80038476436E+03  0.80038476436E+03  0.00000000000E+00 0. -1.
    9000010    2    1    2  502    0 -0.36757304685E+02 -0.45970579727E+03  0.46797619530E+03  0.11965004517E+04  0.99996554547E+03 0.  0.
   -9000010    2    1    2    0  501  0.36757304685E+02  0.45970579727E+03  0.27513624791E+03  0.11473815202E+04  0.10139545742E+04 0.  0.
        -13    1    3    3    0    0 -0.39564866807E+03 -0.26078918842E+03  0.60082038055E+03  0.76520194079E+03  0.10566000000E+00 0.  1.
         13    1    4    4    0    0  0.78490653839E+00  0.35109802041E+03 -0.35950622178E+03  0.50250887622E+03  0.10566000000E+00 0. -1.
          4    1    3    3  502    0  0.35889136338E+03 -0.19891660886E+03 -0.13284418524E+03  0.43129851095E+03  0.00000000000E+00 0.  1.
         -4    1    4    4    0  501  0.35972398146E+02  0.10860777687E+03  0.63464246970E+03  0.64487264399E+03  0.00000000000E+00 0. -1.
</event>
<event>
 8    1  0.7446554E-006  0.1388032E+04  0.7818608E-02  0.8477002E-01
         -2   -1    0    0    0  501 -0.00000000000E+00  0.00000000000E+00  0.12201771651E+04  0.12201771651E+04  0.00000000000E+00 0. -1.
          2   -1    0    0  502    0  0.00000000000E+00 -0.00000000000E+00 -0.18185733633E+04  0.18185733633E+04  0.00000000000E+00 0.  1.
    9000010    2    1    2  502    0  0.92494973156E+03  0.57726401827E+02 -0.84518951972E+03  0.16034676924E+04  0.99894893411E+03 0.  0.
   -9000010    2    1    2    0  501 -0.92494973156E+03 -0.57726401827E+02  0.24679332158E+03  0.14352828360E+04  0.10678321648E+04 0.  0.
        -13    1    3    3    0    0  0.82118026073E+03 -0.21049836849E+03 -0.97149218576E+03  0.12893578487E+04  0.10566000000E+00 0.  1.
         13    1    4    4    0    0 -0.41739774057E+03  0.39796888482E+03 -0.21065942090E+03  0.61398494273E+03  0.10566000000E+00 0. -1.
          4    1    3    3  502    0  0.10376947083E+03  0.26822477032E+03  0.12630266604E+03  0.31410984374E+03  0.00000000000E+00 0.  1.
         -4    1    4    4    0  501 -0.50755199099E+03 -0.45569528664E+03  0.45745274249E+03  0.82129789324E+03  0.00000000000E+00 0. -1.
</event>
<event>
 8    1  0.7446554E-006  0.1351454E+04  0.7818608E-02  0.8500482E-01
         -1   -1    0    0    0  501 -0.00000000000E+00  0.00000000000E+00  0.70472307638E+03  0.70472307638E+03  0.00000000000E+00 0. -1.
          1   -1    0    0  502    0  0.00000000000E+00 -0.00000000000E+00 -0.25932907002E+04  0.25932907002E+04  0.00000000000E+00 0.  1.
    9000010    2    1    2  502    0  0.27894923050E+03  0.86784188872E+03 -0.90386939234E+03  0.16264076550E+04  0.99862894249E+03 0.  0.
   -9000010    2    1    2    0  501 -0.27894923050E+03 -0.86784188872E+03 -0.98469823145E+03  0.16716061216E+04  0.99683208297E+03 0.  0.
        -13    1    3    3    0    0 -0.33739001707E+03  0.10332783221E+03 -0.35891513199E+03  0.50331774026E+03  0.10566000000E+00 0.  1.
         13    1    4    4    0    0 -0.21148721137E+03 -0.63283941224E+03 -0.11820701631E+04  0.13573880963E+04  0.10566000000E+00 0. -1.
          4    1    3    3  502    0  0.61633924756E+03  0.76451405651E+03 -0.54495426035E+03  0.11230899147E+04  0.00000000000E+00 0.  1.
         -4    1    4    4    0  501 -0.67462019126E+02 -0.23500247648E+03  0.19737193169E+03  0.31421802526E+03  0.00000000000E+00 0. -1.
</event>
<event>
 8    1  0.7446554E-006  0.1251198E+04  0.7818608E-02  0.8568975E-01
         -2   -1    0    0    0  501 -0.00000000000E+00  0.00000000000E+00  0.74692936883E+03  0.74692936883E+03  0.00000000000E+00 0. -1.
          2   -1    0    0  502    0  0.00000000000E+00 -0.00000000000E+00 -0.21775528625E+04  0.21775528625E+04  0.00000000000E+00 0.  1.
    9000010    2    1    2  502    0 -0.73774120399E+03  0.18178794454E+03 -0.43182426764E+03  0.13230174013E+04  0.99327433527E+03 0.  0.
   -9000010    2    1    2    0  501  0.73774120399E+03 -0.18178794454E+03 -0.99879922603E+03  0.16014648301E+04  0.99487726236E+03 0.  0.
        -13    1    3    3    0    0 -0.20064927577E+03 -0.37883237310E+03  0.11765641573E+02  0.42885025389E+03  0.10566000000E+00 0.  1.
         13    1    4    4    0    0  0.98114358493E+03 -0.78492488018E+02 -0.73946955350E+03  0.12311048033E+04  0.10566000000E+00 0. -1.
          4    1    3    3  502    0 -0.53709192822E+03  0.56062031764E+03 -0.44358990921E+03  0.89416714739E+03  0.00000000000E+00 0.  1.
         -4    1    4    4    0  501 -0.24340238094E+03 -0.10329545653E+03 -0.25932967253E+03  0.37036002678E+03  0.00000000000E+00 0. -1.
</event>
<event>
 8    1  0.7446554E-006  0.1360132E+04  0.7818608E-02  0.8494843E-01
          1   -1    0    0  502    0  0.00000000000E+00  0.00000000000E+00  0.80350019386E+03  0.80350019386E+03  0.00000000000E+00 0. -1.
         -1   -1    0    0    0  501 -0.00000000000E+00 -0.00000000000E+00 -0.30384456167E+04  0.30384456167E+04  0.00000000000E+00 0.  1.
    9000010    2    1    2  502    0  0.73082134885E+03 -0.55307110547E+03 -0.20655634336E+04  0.24754813037E+04  0.10106769491E+04 0.  0.
   -9000010    2    1    2    0  501 -0.73082134885E+03  0.55307110547E+03 -0.16938198923E+03  0.13664645068E+04  0.99927348530E+03 0.  0.
        -13    1    3    3    0    0  0.76790619327E+03 -0.30068262440E+03 -0.68649364102E+03  0.10730160729E+04  0.10566000000E+00 0.  1.
         13    1    4    4    0    0  0.25097476920E+03  0.88532324091E+02  0.62582820939E+01  0.26620571827E+03  0.10566000000E+00 0. -1.
          4    1    3    3  502    0 -0.37084844419E+02 -0.25238848107E+03 -0.13790697926E+04  0.14024652309E+04  0.00000000000E+00 0.  1.
         -4    1    4    4    0  501 -0.98179611805E+03  0.46453878138E+03 -0.17564027133E+03  0.11002587885E+04  0.00000000000E+00 0. -1.
</event>
<event>
 8    1  0.7446554E-006  0.1041928E+04  0.7818608E-02  0.8736164E-01
         -1   -1    0    0    0  501 -0.00000000000E+00  0.00000000000E+00  0.16978909504E+04  0.16978909504E+04  0.00000000000E+00 0.  1.
          1   -1    0    0  502    0  0.00000000000E+00 -0.00000000000E+00 -0.68549960524E+03  0.68549960524E+03  0.00000000000E+00 0. -1.
    9000010    2    1    2  502    0  0.31277877462E+03 -0.77051677545E+02  0.19575107467E+03  0.10571401179E+04  0.98765339199E+03 0.  0.
   -9000010    2    1    2    0  501 -0.31277877462E+03  0.77051677545E+02  0.81664027052E+03  0.13262504378E+04  0.99411838806E+03 0.  0.
        -13    1    3    3    0    0  0.53194302580E+03  0.22003212818E+03  0.33092442182E+03  0.66399435558E+03  0.10566000000E+00 0.  1.
         13    1    4    4    0    0  0.87831662956E+02 -0.35534608557E+03  0.59081978216E+03  0.69502033618E+03  0.10566000000E+00 0. -1.
          4    1    3    3  502    0 -0.21916425118E+03 -0.29708380573E+03 -0.13517334715E+03  0.39314576228E+03  0.00000000000E+00 0.  1.
         -4    1    4    4    0  501 -0.40061043758E+03  0.43239776311E+03  0.22582048836E+03  0.63123010163E+03  0.00000000000E+00 0. -1.
</event>
<event>
 8    1  0.7446554E-006  0.1188069E+04  0.7818608E-02  0.8615601E-01
         -1   -1    0    0    0  501 -0.00000000000E+00  0.00000000000E+00  0.13549952254E+04  0.13549952254E+04  0.00000000000E+00 0. -1.
          1   -1    0    0  502    0  0.00000000000E+00 -0.00000000000E+00 -0.10568731506E+04  0.10568731506E+04  0.00000000000E+00 0.  1.
    9000010    2    1    2  502    0  0.58005563590E+03  0.57213206743E+03  0.26010904240E+03  0.13234623280E+04  0.10099981071E+04 0.  0.
   -9000010    2    1    2    0  501 -0.58005563590E+03 -0.57213206743E+03  0.38013032309E+02  0.10884060480E+04  0.72068237900E+03 0.  0.
        -13    1    3    3    0    0  0.11116022082E+03  0.74478356212E+03 -0.14759715642E+02  0.75317794011E+03  0.10566000000E+00 0.  1.
         13    1    4    4    0    0 -0.73927745540E+03 -0.47263359885E+03  0.11603475274E+03  0.88508629513E+03  0.10566000000E+00 0. -1.
          4    1    3    3  502    0  0.46889541509E+03 -0.17265149469E+03  0.27486875804E+03  0.57028438788E+03  0.00000000000E+00 0.  1.
         -4    1    4    4    0  501  0.15922181949E+03 -0.99498468580E+02 -0.78021720434E+02  0.20331975288E+03  0.00000000000E+00 0. -1.
</event>
<event>
 8    1  0.7446554E-006  0.1183094E+04  0.7818608E-02  0.8619403E-01
          4   -1    0    0  502    0  0.00000000000E+00  0.00000000000E+00  0.22427169115E+04  0.22427169115E+04  0.00000000000E+00 0.  1.
         -4   -1    0    0    0  501 -0.00000000000E+00 -0.00000000000E+00 -0.65666831403E+03  0.65666831403E+03  0.00000000000E+00 0. -1.
    9000010    2    1    2  502    0 -0.60305122998E+03 -0.23332923438E+03  0.11173245752E+04  0.16290569179E+04  0.99362916511E+03 0.  0.
   -9000010    2    1    2    0  501  0.60305122998E+03  0.23332923438E+03  0.46872402231E+03  0.12703283077E+04  0.98788586518E+03 0.  0.
        -13    1    3    3    0    0 -0.61793563492E+02  0.31636836844E+03  0.65411676451E+03  0.72922982784E+03  0.10566000000E+00 0.  1.
         13    1    4    4    0    0  0.47340855225E+03 -0.63293847650E+02 -0.20739735347E+03  0.52070667548E+03  0.10566000000E+00 0. -1.
          4    1    3    3  502    0 -0.54125766649E+03 -0.54969760282E+03  0.46320781066E+03  0.89982709002E+03  0.00000000000E+00 0.  1.
         -4    1    4    4    0  501  0.12964267773E+03  0.29662308203E+03  0.67612137578E+03  0.74962163221E+03  0.00000000000E+00 0. -1.
</event>
<event>
 8    1  0.7446554E-006  0.1206757E+04  0.7818608E-02  0.8601491E-01
          2   -1    0    0  502    0  0.00000000000E+00  0.00000000000E+00  0.17017155508E+04  0.17017155508E+04  0.00000000000E+00 0. -1.
         -2   -1    0    0    0  501 -0.00000000000E+00 -0.00000000000E+00 -0.86321918123E+03  0.86321918123E+03  0.00000000000E+00 0.  1.
    9000010    2    1    2  502    0  0.72063615462E+03  0.13511275009E+03  0.51604370729E+03  0.12754581740E+04  0.90714966964E+03 0.  0.
   -9000010    2    1    2    0  501 -0.72063615462E+03 -0.13511275009E+03  0.32245266224E+03  0.12894765580E+04  0.10105454724E+04 0.  0.
        -13    1    3    3    0    0  0.11668469907E+03 -0.33792497806E+03  0.12328550316E+02  0.35771582871E+03  0.10566000000E+00 0.  1.
         13    1    4    4    0    0  0.16091554163E+03  0.18094889183E+03 -0.10014943904E+03  0.26204242843E+03  0.10566000000E+00 0. -1.
          4    1    3    3  502    0  0.60395145555E+03  0.47303772815E+03  0.50371515698E+03  0.91774234526E+03  0.00000000000E+00 0.  1.
         -4    1    4    4    0  501 -0.88155169625E+03 -0.31606164192E+03  0.42260210127E+03  0.10274341296E+04  0.00000000000E+00 0. -1.
</event>
<event>
 8    1  0.7446554E-006  0.1428479E+04  0.7818608E-02  0.8451887E-01
         -1   -1    0    0    0  501 -0.00000000000E+00  0.00000000000E+00  0.11057396842E+04  0.11057396842E+04  0.00000000000E+00 0.  1.
          1   -1    0    0  502    0  0.00000000000E+00 -0.00000000000E+00 -0.18910597787E+04  0.18910597787E+04  0.00000000000E+00 0. -1.
    9000010    2    1    2  502    0  0.96320246437E+03  0.30304957132E+03 -0.62781757924E+03  0.15692426109E+04  0.10240944433E+04 0.  0.
   -9000010    2    1    2    0  501 -0.96320246437E+03 -0.30304957132E+03 -0.15750251524E+03  0.14275568520E+04  0.99675147017E+03 0.  0.
        -13    1    3    3    0    0  0.10659299259E+04  0.31861342414E+03 -0.20173061474E+03  0.11306707625E+04  0.10566000000E+00 0.  1.
         13    1    4    4    0    0 -0.22300842346E+03 -0.23508599360E+03 -0.51052525133E+03  0.60467695898E+03  0.10566000000E+00 0. -1.
          4    1    3    3  502    0 -0.10272746156E+03 -0.15563852822E+02 -0.42608696450E+03  0.43857184837E+03  0.00000000000E+00 0.  1.
         -4    1    4    4    0  501 -0.74019404092E+03 -0.67963577721E+02  0.35302273609E+03  0.82287989300E+03  0.00000000000E+00 0. -1.
</event>
<event>
 8    1  0.7446554E-006  0.9693353E+03  0.7818608E-02  0.8803949E-01
         -2   -1    0    0    0  501 -0.00000000000E+00  0.00000000000E+00  0.67141324436E+03  0.67141324436E+03  0.00000000000E+00 0. -1.
          2   -1    0    0  502    0  0.00000000000E+00 -0.00000000000E+00 -0.14279455766E+04  0.14279455766E+04  0.00000000000E+00 0.  1.
    9000010    2    1    2  502    0 -0.24476317809E+03  0.23755415741E+03 -0.22857051683E+03  0.99216354607E+03  0.90321815191E+03 0.  0.
   -9000010    2    1    2    0  501  0.24476317809E+03 -0.23755415741E+03 -0.52796181541E+03  0.11071952749E+04  0.91148050291E+03 0.  0.
        -13    1    3    3    0    0  0.60278940709E+02  0.33406590507E+03 -0.47814281254E+03  0.58639077412E+03  0.10566000000E+00 0.  1.
         13    1    4    4    0    0  0.43743046561E+03  0.22259274996E+02  0.54072601268E+02  0.44132158903E+03  0.10566000000E+00 0. -1.
          4    1    3    3  502    0 -0.30504211879E+03 -0.96511747659E+02  0.24957229571E+03  0.40577277195E+03  0.00000000000E+00 0.  1.
         -4    1    4    4    0  501 -0.19266728753E+03 -0.25981343241E+03 -0.58203441668E+03  0.66587368588E+03  0.00000000000E+00 0. -1.
</event>
<event>
 8    1  0.7446554E-006  0.1517530E+04  0.7818608E-02  0.8399481E-01
         -1   -1    0    0    0  501 -0.00000000000E+00  0.00000000000E+00  0.12234468031E+04  0.12234468031E+04  0.00000000000E+00 0.  1.
          1   -1    0    0  502    0  0.00000000000E+00 -0.00000000000E+00 -0.18857852123E+04  0.18857852123E+04  0.00000000000E+00 0. -1.
    9000010    2    1    2  502    0  0.72399766141E+03  0.82131289169E+03 -0.39918925768E+03  0.15766686359E+04  0.10619813766E+04 0.  0.
   -9000010    2    1    2    0  501 -0.72399766141E+03 -0.82131289169E+03 -0.26314915157E+03  0.15325633794E+04  0.10396035572E+04 0.  0.
        -13    1    3    3    0    0  0.69398151742E+03 -0.93852927117E+01 -0.18476075962E+03  0.71821652703E+03  0.10566000000E+00 0.  1.
         13    1    4    4    0    0 -0.83494861675E+03 -0.51308686020E+03  0.16466136502E+03  0.99373572695E+03  0.10566000000E+00 0. -1.
          4    1    3    3  502    0  0.30016143989E+02  0.83069818440E+03 -0.21442849806E+03  0.85845210889E+03  0.00000000000E+00 0.  1.
         -4    1    4    4    0  501  0.11095095535E+03 -0.30822603150E+03 -0.42781051658E+03  0.53882765249E+03  0.00000000000E+00 0. -1.
</event>
<event>
 8    1  0.7446554E-006  0.1145355E+04  0.7818608E-02  0.8648888E-01
          2   -1    0    0  502    0  0.00000000000E+00  0.00000000000E+00  0.18121618033E+04  0.18121618033E+04  0.00000000000E+00 0.  1.
         -2   -1    0    0    0  501 -0.00000000000E+00 -0.00000000000E+00 -0.73146042936E+03  0.73146042936E+03  0.00000000000E+00 0. -1.
    9000010    2    1    2  502    0  0.52165643848E+01 -0.58363828364E+03  0.40748700877E+03  0.12076933575E+04  0.97561094954E+03 0.  0.
   -9000010    2    1    2    0  501 -0.52165643848E+01  0.58363828364E+03  0.67321436518E+03  0.13359288751E+04  0.99540319428E+03 0.  0.
        -13    1    3    3    0    0 -0.44823691140E+03 -0.47795609576E+03  0.33682522818E+03  0.73675613586E+03  0.10566000000E+00 0.  1.
         13    1    4    4    0    0 -0.92549890941E+02  0.71933772530E+03  0.90034996501E+02  0.73083415158E+03  0.10566000000E+00 0. -1.
          4    1    3    3  502    0  0.45345347579E+03 -0.10568218788E+03  0.70661780589E+02  0.47093722169E+03  0.00000000000E+00 0.  1.
         -4    1    4    4    0  501  0.87333326556E+02 -0.13569944166E+03  0.58317936867E+03  0.60509472353E+03  0.00000000000E+00 0. -1.
</event>
<event>
 8    1  0.7446554E-006  0.1134845E+04  0.7818608E-02  0.8657310E-01
         -2   -1    0    0    0  501 -0.00000000000E+00  0.00000000000E+00  0.49448184648E+03  0.49448184648E+03  0.00000000000E+00 0. -1.
          2   -1    0    0  502    0  0.00000000000E+00 -0.00000000000E+00 -0.34990699745E+04  0.34990699745E+04  0.00000000000E+00 0.  1.
    9000010    2    1    2  502    0  0.78497039617E+02  0.46267899972E+03 -0.48773671718E+03  0.12306011276E+04  0.10277443203E+04 0.  0.
   -9000010    2    1    2    0  501 -0.78497039617E+02 -0.46267899972E+03 -0.25168514109E+04  0.27629506935E+04  0.10388079072E+04 0.  0.
        -13    1    3    3    0    0 -0.46783396314E+03  0.11447470569E+03 -0.22254408082E+03  0.53056475041E+03  0.10566000000E+00 0.  1.
         13    1    4    4    0    0  0.44830041761E+03 -0.66260637486E+02 -0.74006498856E+03  0.86779025978E+03  0.10566000000E+00 0. -1.
          4    1    3    3  502    0  0.54633100275E+03  0.34820429403E+03 -0.26519263636E+03  0.70003637715E+03  0.00000000000E+00 0.  1.
         -4    1    4    4    0  501 -0.52679745722E+03 -0.39641836223E+03 -0.17767864223E+04  0.18951604337E+04  0.00000000000E+00 0. -1.
</event>
<event>
 8    1  0.7446554E-006  0.1454739E+04  0.7818608E-02  0.8436033E-01
          1   -1    0    0  502    0  0.00000000000E+00  0.00000000000E+00  0.10154184372E+04  0.10154184372E+04  0.00000000000E+00 0.  1.
         -1   -1    0    0    0  501 -0.00000000000E+00 -0.00000000000E+00 -0.21811482353E+04  0.21811482353E+04  0.00000000000E+00 0. -1.
    9000010    2    1    2  502    0  0.20341303167E+03 -0.10313134611E+04 -0.24583534516E+03  0.14754964433E+04  0.10058182842E+04 0.  0.
   -9000010    2    1    2    0  501 -0.20341303167E+03  0.10313134611E+04 -0.91989445290E+03  0.17210702291E+04  0.10054315554E+04 0.  0.
        -13    1    3    3    0    0  0.36756600566E+03 -0.36948292009E+00  0.90827654134E+02  0.37862194727E+03  0.10566000000E+00 0.  1.
         13    1    4    4    0    0 -0.11220886387E+03  0.28443935454E+02 -0.67481031272E+03  0.68466696715E+03  0.10566000000E+00 0. -1.
          4    1    3    3  502    0 -0.16415297399E+03 -0.10309439782E+04 -0.33666299929E+03  0.10968744961E+04  0.00000000000E+00 0.  1.
         -4    1    4    4    0  501 -0.91204167796E+02  0.10028695256E+04 -0.24508414019E+03  0.10364032620E+04  0.00000000000E+00 0. -1.
</event>
<event>
 8    1  0.7446554E-006  0.1641496E+04  0.7818608E-02  0.8332419E-01
          2   -1    0    0  502    0  0.00000000000E+00  0.00000000000E+00  0.18908090532E+04  0.18908090532E+04  0.00000000000E+00 0.  1.
         -2   -1    0    0    0  501 -0.00000000000E+00 -0.00000000000E+00 -0.14271062659E+04  0.14271062659E+04  0.00000000000E+00 0. -1.
    9000010    2    1    2  502    0 -0.48940921085E+03  0.12030457253E+04  0.16941732141E+03  0.16529322040E+04  0.10082867892E+04 0.  0.
   -9000010    2    1    2    0  501  0.48940921085E+03 -0.12030457253E+04  0.29428546597E+03  0.16649831151E+04  0.99936201906E+03 0.  0.
        -13    1    3    3    0    0 -0.77028278078E+03  0.10670137922E+04  0.44418381340E+02  0.13167486468E+04  0.10566000000E+00 0.  1.
         13    1    4    4    0    0  0.34108321628E+03 -0.57345871662E+03 -0.34878193429E+03  0.75288877594E+03  0.10566000000E+00 0. -1.
          4    1    3    3  502    0  0.28087356993E+03  0.13603193314E+03  0.12499894007E+03  0.33618355721E+03  0.00000000000E+00 0.  1.
         -4    1    4    4    0  501  0.14832599458E+03 -0.62958700872E+03  0.64306740027E+03  0.91209433915E+03  0.00000000000E+00 0. -1.
</event>
<event>
 8    1  0.7446554E-006  0.1458988E+04  0.7818608E-02  0.8433501E-01
          1   -1    0    0  502    0  0.00000000000E+00  0.00000000000E+00  0.29678525544E+04  0.29678525544E+04  0.00000000000E+00 0.  1.
         -1   -1    0    0    0  501 -0.00000000000E+00 -0.00000000000E+00 -0.94550822053E+03  0.94550822053E+03  0.00000000000E+00 0. -1.
    9000010    2    1    2  502    0  0.37040574489E+03  0.98861504108E+03  0.19783649555E+04  0.24648424407E+04  0.10232107531E+04 0.  0.
   -9000010    2    1    2    0  501 -0.37040574489E+03 -0.98861504108E+03  0.43979378348E+02  0.14485183342E+04  0.99081333430E+03 0.  0.
        -13    1    3    3    0    0  0.38244602756E+03  0.10397398611E+04  0.10226727982E+04  0.15077080640E+04  0.10566000000E+00 0.  1.
         13    1    4    4    0    0 -0.62746971315E+03 -0.81855684440E+03 -0.20589226850E+03  0.10517343704E+04  0.10566000000E+00 0. -1.
          4    1    3    3  502    0 -0.12040282674E+02 -0.51124820068E+02  0.95569215729E+03  0.95713437674E+03  0.00000000000E+00 0.  1.
         -4    1    4    4    0  501  0.25706396826E+03 -0.17005819668E+03  0.24987164684E+03  0.39678396380E+03  0.00000000000E+00 0. -1.
</event>
<event>
 8    1  0.7446554E-006  0.1561969E+04  0.7818608E-02  0.8374703E-01
          1   -1    0    0  502    0  0.00000000000E+00  0.00000000000E+00  0.32944921700E+04  0.32944921700E+04  0.00000000000E+00 0.  1.
         -1   -1    0    0    0  501 -0.00000000000E+00 -0.00000000000E+00 -0.88365436445E+03  0.88365436445E+03  0.00000000000E+00 0. -1.
    9000010    2    1    2  502    0  0.69023510200E+03  0.96892000059E+03  0.20510390494E+04  0.25827803130E+04  0.10240910603E+04 0.  0.
   -9000010    2    1    2    0  501 -0.69023510200E+03 -0.96892000059E+03  0.35979875616E+03  0.15953662214E+04  0.10002538537E+04 0.  0.
        -13    1    3    3    0    0  0.36400531887E+03  0.90282462111E+03  0.72007674246E+03  0.12108272770E+04  0.10566000000E+00 0.  1.
         13    1    4    4    0    0 -0.27750150439E+03 -0.45105078828E+03  0.67828639647E+03  0.86053840435E+03  0.10566000000E+00 0. -1.
          4    1    3    3  502    0  0.32622978313E+03  0.66095379475E+02  0.13309623069E+04  0.13719530360E+04  0.00000000000E+00 0.  1.
         -4    1    4    4    0  501 -0.41273359761E+03 -0.51786921230E+03 -0.31848764032E+03  0.73482781703E+03  0.00000000000E+00 0. -1.
</event>
<event>
 8    1  0.7446554E-006  0.1173497E+04  0.7818608E-02  0.8626791E-01
         -2   -1    0    0    0  501 -0.00000000000E+00  0.00000000000E+00  0.53630695307E+03  0.53630695307E+03  0.00000000000E+00 0.  1.
          2   -1    0    0  502    0  0.00000000000E+00 -0.00000000000E+00 -0.25739521525E+04  0.25739521525E+04  0.00000000000E+00 0. -1.
    9000010    2    1    2  502    0 -0.55447167689E+03  0.16042497444E+03 -0.10781086820E+04  0.15817301393E+04  0.10031833783E+04 0.  0.
   -9000010    2    1    2    0  501  0.55447167689E+03 -0.16042497444E+03 -0.95953651741E+03  0.15285289662E+04  0.10404400316E+04 0.  0.
        -13    1    3    3    0    0 -0.43479649495E+03  0.26028540216E+03 -0.12505280155E+04  0.13493023424E+04  0.10566000000E+00 0.  1.
         13    1    4    4    0    0 -0.39499790496E+02  0.24754350168E+03  0.80475250482E+02  0.26327608281E+03  0.10566000000E+00 0. -1.
          4    1    3    3  502    0 -0.11967518194E+03 -0.99860427719E+02  0.17241933351E+03  0.23242779689E+03  0.00000000000E+00 0.  1.
         -4    1    4    4    0  501  0.59397146739E+03 -0.40796847612E+03 -0.10400117679E+04  0.12652528834E+04  0.00000000000E+00 0. -1.
</event>
<event>
 8    1  0.7446554E-006  0.1453261E+04  0.7818608E-02  0.8436917E-01
          2   -1    0    0  502    0  0.00000000000E+00  0.00000000000E+00  0.31306129386E+04  0.31306129386E+04  0.00000000000E+00 0.  1.
         -2   -1    0    0    0  501 -0.00000000000E+00 -0.00000000000E+00 -0.67775073962E+03  0.67775073962E+03  0.00000000000E+00 0. -1.
    9000010    2    1    2  502    0  0.62822969648E+03 -0.78037439681E+03  0.13531943746E+04  0.19834266918E+04  0.10484224700E+04 0.  0.
   -9000010    2    1    2    0  501 -0.62822969648E+03  0.78037439681E+03  0.10996678244E+04  0.18249369865E+04  0.10571040298E+04 0.  0.
        -13    1    3    3    0    0 -0.13702965912E+03 -0.48580207356E+03  0.14851623246E+03  0.52615384121E+03  0.10566000000E+00 0.  1.
         13    1    4    4    0    0 -0.69846680820E+03  0.94900045004E+03  0.66402895766E+03  0.13525502594E+04  0.10566000000E+00 0. -1.
          4    1    3    3  502    0  0.76525935560E+03 -0.29457232325E+03  0.12046781421E+04  0.14572728506E+04  0.00000000000E+00 0.  1.
         -4    1    4    4    0  501  0.70237111724E+02 -0.16862605324E+03  0.43563886675E+03  0.47238672708E+03  0.00000000000E+00 0. -1.
</event>
<event>
 8    1  0.7446554E-006  0.1064759E+04  0.7818608E-02  0.8716015E-01
         -2   -1    0    0    0  501 -0.00000000000E+00  0.00000000000E+00  0.16815403420E+04  0.16815403420E+04  0.00000000000E+00 0. -1.
          2   -1    0    0  502    0  0.00000000000E+00 -0.00000000000E+00 -0.78641696819E+03  0.78641696819E+03  0.00000000000E+00 0.  1.
    9000010    2    1    2  502    0  0.33857174414E+03  0.12511256723E+03  0.91149913290E+03  0.13971581744E+04  0.99545784176E+03 0.  0.
   -9000010    2    1    2    0  501 -0.33857174414E+03 -0.12511256723E+03 -0.16375759080E+02  0.10707991357E+04  0.10079973429E+04 0.  0.
        -13    1    3    3    0    0  0.33187925714E+03 -0.22531252087E+02 -0.12112605250E+03  0.35400992981E+03  0.10566000000E+00 0.  1.
         13    1    4    4    0    0  0.15639991602E+03  0.17608442044E+03  0.32267204120E+03  0.39947955416E+03  0.10566000000E+00 0. -1.
          4    1    3    3  502    0  0.66924869964E+01  0.14764381932E+03  0.10326251854E+04  0.10431482446E+04  0.00000000000E+00 0.  1.
         -4    1    4    4    0  501 -0.49497166016E+03 -0.30119698767E+03 -0.33904780028E+03  0.67131958159E+03  0.00000000000E+00 0. -1.
</event>
<event>
 8    1  0.7446554E-006  0.1385868E+04  0.7818608E-02  0.8478370E-01
         -2   -1    0    0    0  501 -0.00000000000E+00  0.00000000000E+00  0.91163320594E+03  0.91163320594E+03  0.00000000000E+00 0.  1.
          2   -1    0    0  502    0  0.00000000000E+00 -0.00000000000E+00 -0.21192445164E+04  0.21192445164E+04  0.00000000000E+00 0. -1.
    9000010    2    1    2  502    0  0.93747019033E+03 -0.22698581634E+03 -0.71755779335E+03  0.15560358910E+04  0.98791982915E+03 0.  0.
   -9000010    2    1    2    0  501 -0.93747019033E+03  0.22698581634E+03 -0.49005351710E+03  0.14748418313E+04  0.10023138526E+04 0.  0.
        -13    1    3    3    0    0 -0.71326457370E+02 -0.19296186537E+03  0.12543249079E+03  0.24094618885E+03  0.10566000000E+00 0.  1.
         13    1    4    4    0    0 -0.10475324910E+04 -0.84512550400E+02 -0.44556851006E+03  0.11414893776E+04  0.10566000000E+00 0. -1.
          4    1    3    3  502    0  0.10087966477E+04 -0.34023950973E+02 -0.84299028414E+03  0.13150897022E+04  0.00000000000E+00 0.  1.
         -4    1    4    4    0  501  0.11006230067E+03  0.31149836674E+03 -0.44485007031E+02  0.33335245366E+03  0.00000000000E+00 0. -1.
</event>
<event>
 8    1  0.7446554E-006  0.1681005E+04  0.7818608E-02  0.8312322E-01
         -2   -1    0    0    0  501 -0.00000000000E+00  0.00000000000E+00  0.18746516952E+04  0.18746516952E+04  0.00000000000E+00 0.  1.
          2   -1    0    0  502    0  0.00000000000E+00 -0.00000000000E+00 -0.15839938076E+04  0.15839938076E+04  0.00000000000E+00 0. -1.
    9000010    2    1    2  502    0 -0.92813805785E+03  0.97862303465E+03  0.52649076529E+03  0.17731231185E+04  0.10235378689E+04 0.  0.
   -9000010    2    1    2    0  501  0.92813805785E+03 -0.97862303465E+03 -0.23583287765E+03  0.16855223844E+04  0.98296758014E+03 0.  0.
        -13    1    3    3    0    0 -0.56677574419E+03 -0.42656662395E+02 -0.58933982386E+00  0.56837900518E+03  0.10566000000E+00 0.  1.
         13    1    4    4    0    0  0.10135653707E+04 -0.54490440871E+03  0.62123209286E+02  0.11524299890E+04  0.10566000000E+00 0. -1.
          4    1    3    3  502    0 -0.36136231367E+03  0.10212796970E+04  0.52708010511E+03  0.12047441133E+04  0.00000000000E+00 0.  1.
         -4    1    4    4    0  501 -0.85427312801E+02 -0.43371862594E+03 -0.29795608694E+03  0.53309239537E+03  0.00000000000E+00 0. -1.
</event>
<event>
 8    1  0.7446554E-006  0.1259376E+04  0.7818608E-02  0.8563143E-01
          1   -1    0    0  502    0  0.00000000000E+00  0.00000000000E+00  0.25457848030E+04  0.25457848030E+04  0.00000000000E+00 0.  1.
         -1   -1    0    0    0  501 -0.00000000000E+00 -0.00000000000E+00 -0.68959320781E+03  0.68959320781E+03  0.00000000000E+00 0. -1.
    9000010    2    1    2  502    0 -0.45301353415E+03 -0.59145154200E+03  0.42740699294E+03  0.13327681000E+04  0.10190966009E+04 0.  0.
   -9000010    2    1    2    0  501  0.45301353415E+03  0.59145154200E+03  0.14287846023E+04  0.19026099109E+04  0.10116634048E+04 0.  0.
        -13    1    3    3    0    0  0.21685168918E+03  0.79506689767E+02  0.29623065629E+03  0.37563091154E+03  0.10566000000E+00 0.  1.
         13    1    4    4    0    0  0.24150369785E+03  0.81519122329E+03  0.13313545400E+04  0.15796726524E+04  0.10566000000E+00 0. -1.
          4    1    3    3  502    0 -0.66986522333E+03 -0.67095823176E+03  0.13117633665E+03  0.95713718844E+03  0.00000000000E+00 0.  1.
         -4    1    4    4    0  501  0.21150983630E+03 -0.22373968130E+03  0.97430062320E+02  0.32293725843E+03  0.00000000000E+00 0. -1.
</event>
<event>
 8    1  0.7446554E-006  0.1455585E+04  0.7818608E-02  0.8435528E-01
          1   -1    0    0  502    0  0.00000000000E+00  0.00000000000E+00  0.12150215495E+04  0.12150215495E+04  0.00000000000E+00 0. -1.
         -1   -1    0    0    0  501 -0.00000000000E+00 -0.00000000000E+00 -0.17559774904E+04  0.17559774904E+04  0.00000000000E+00 0.  1.
    9000010    2    1    2  502    0 -0.25819826134E+03 -0.10098925602E+04 -0.39273455058E+03  0.15006612801E+04  0.10055816849E+04 0.  0.
   -9000010    2    1    2    0  501  0.25819826134E+03  0.10098925602E+04 -0.14822139029E+03  0.14703377599E+04  0.10263402079E+04 0.  0.
        -13    1    3    3    0    0 -0.30619825978E+03 -0.32226787623E+02  0.18970409756E+03  0.36164014701E+03  0.10566000000E+00 0.  1.
         13    1    4    4    0    0 -0.35412752642E+03  0.59350176238E+03  0.79362660344E+02  0.69566449524E+03  0.10566000000E+00 0. -1.
          4    1    3    3  502    0  0.47999998450E+02 -0.97766577255E+03 -0.58243864814E+03  0.11390211330E+04  0.00000000000E+00 0.  1.
         -4    1    4    4    0  501  0.61232578775E+03  0.41639079780E+03 -0.22758405063E+03  0.77467326463E+03  0.00000000000E+00 0. -1.
</event>
<event>
 8    1  0.7446554E-006  0.1273598E+04  0.7818608E-02  0.8553111E-01
         -2   -1    0    0    0  501 -0.00000000000E+00  0.00000000000E+00  0.70739779687E+03  0.70739779687E+03  0.00000000000E+00 0.  1.
          2   -1    0    0  502    0  0.00000000000E+00 -0.00000000000E+00 -0.22962937185E+04  0.22962937185E+04  0.00000000000E+00 0. -1.
    9000010    2    1    2  502    0  0.75928724638E+03 -0.57733363185E+01 -0.84227308397E+03  0.15170148839E+04  0.10076506120E+04 0.  0.
   -9000010    2    1    2    0  501 -0.75928724638E+03  0.57733363185E+01 -0.74662283766E+03  0.14866766315E+04  0.10374060396E+04 0.  0.
        -13    1    3    3    0    0  0.77670760430E+03  0.30842899308E+03 -0.86341682764E+03  0.12016204791E+04  0.10566000000E+00 0.  1.
         13    1    4    4    0    0 -0.25488195759E+03  0.34531028538E+03 -0.76631706984E+03  0.87831991221E+03  0.10566000000E+00 0. -1.
          4    1    3    3  502    0 -0.17420357927E+02 -0.31420232940E+03  0.21143743663E+02  0.31539440478E+03  0.00000000000E+00 0.  1.
         -4    1    4    4    0  501 -0.50440528879E+03 -0.33953694906E+03  0.19694232173E+02  0.60835671930E+03  0.00000000000E+00 0. -1.
</event>
<event>
 8    1  0.7446554E-006  0.1198188E+04  0.7818608E-02  0.8607928E-01
         -2   -1    0    0    0  501 -0.00000000000E+00  0.00000000000E+00  0.16898583160E+04  0.16898583160E+04  0.00000000000E+00 0. -1.
          2   -1    0    0  502    0  0.00000000000E+00 -0.00000000000E+00 -0.88450343393E+03  0.88450343393E+03  0.00000000000E+00 0.  1.
    9000010    2    1    2  502    0 -0.85781699260E+01  0.64848057109E+03  0.66142899875E+03  0.13772556248E+04  0.10191879609E+04 0.  0.
   -9000010    2    1    2    0  501  0.85781699260E+01 -0.64848057109E+03  0.14392588332E+03  0.11971061251E+04  0.99586534171E+03 0.  0.
        -13    1    3    3    0    0  0.10105038318E+03  0.89235003404E+03  0.65188307308E+03  0.11097077612E+04  0.10566000000E+00 0.  1.
         13    1    4    4    0    0  0.39676243113E+03 -0.66639899501E+03 -0.18838436944E+02  0.77579826320E+03  0.10566000000E+00 0. -1.
          4    1    3    3  502    0 -0.10962855311E+03 -0.24386946295E+03  0.95459256701E+01  0.26754786359E+03  0.00000000000E+00 0.  1.
         -4    1    4    4    0  501 -0.38818426120E+03  0.17918423921E+02  0.16276432026E+03  0.42130786192E+03  0.00000000000E+00 0. -1.
</event>
<event>
 8    1  0.7446554E-006  0.1058990E+04  0.7818608E-02  0.8721056E-01
         -4   -1    0    0    0  501 -0.00000000000E+00  0.00000000000E+00  0.60247098208E+03  0.60247098208E+03  0.00000000000E+00 0.  1.
          4   -1    0    0  502    0  0.00000000000E+00 -0.00000000000E+00 -0.18624492453E+04  0.18624492453E+04  0.00000000000E+00 0. -1.
    9000010    2    1    2  502    0  0.26635342323E+03 -0.14189346137E+03 -0.66069180489E+03  0.12632372743E+04  0.10335264146E+04 0.  0.
   -9000010    2    1    2    0  501 -0.26635342323E+03  0.14189346137E+03 -0.59928645835E+03  0.12016829531E+04  0.99690509089E+03 0.  0.
        -13    1    3    3    0    0  0.36072885419E+03 -0.54702289496E+03 -0.34147642582E+03  0.73889479252E+03  0.10566000000E+00 0.  1.
         13    1    4    4    0    0  0.14232028961E+02 -0.39901403889E+03 -0.38800229448E+03  0.55674100402E+03  0.10566000000E+00 0. -1.
          4    1    3    3  502    0 -0.94375430954E+02  0.40512943359E+03 -0.31921537907E+03  0.52434248175E+03  0.00000000000E+00 0.  1.
         -4    1    4    4    0  501 -0.28058545219E+03  0.54090750026E+03 -0.21128416388E+03  0.64494194911E+03  0.00000000000E+00 0. -1.
</event>
<event>
 8    1  0.7446554E-006  0.1237623E+04  0.7818608E-02  0.8578757E-01
         -2   -1    0    0    0  501 -0.00000000000E+00  0.00000000000E+00  0.78477768502E+03  0.78477768502E+03  0.00000000000E+00 0. -1.
          2   -1    0    0  502    0  0.00000000000E+00 -0.00000000000E+00 -0.22351789497E+04  0.22351789497E+04  0.00000000000E+00 0.  1.
    9000010    2    1    2  502    0 -0.48398399592E+03 -0.54093471794E+03 -0.12648705121E+04  0.17724027831E+04  0.10073049865E+04 0.  0.
   -9000010    2    1    2    0  501  0.48398399592E+03  0.54093471794E+03 -0.18553075258E+03  0.12475538516E+04  0.99755605113E+03 0.  0.
        -13    1    3    3    0    0 -0.15555458899E+03 -0.80133290930E+03 -0.75025473372E+03  0.11086991649E+04  0.10566000000E+00 0.  1.
         13    1    4    4    0    0  0.59513664219E+03 -0.50217553175E+02 -0.23981111244E+03  0.64359832686E+03  0.10566000000E+00 0. -1.
          4    1    3    3  502    0 -0.32842940694E+03  0.26039819137E+03 -0.51461577841E+03  0.66370361819E+03  0.00000000000E+00 0.  1.
         -4    1    4    4    0  501 -0.11115264627E+03  0.59115227111E+03  0.54280359862E+02  0.60395552475E+03  0.00000000000E+00 0. -1.
</event>
<event>
 8    1  0.7446554E-006  0.1097525E+04  0.7818608E-02  0.8688001E-01
         -2   -1    0    0    0  501 -0.00000000000E+00  0.00000000000E+00  0.48347814146E+03  0.48347814146E+03  0.00000000000E+00 0. -1.
          2   -1    0    0  502    0  0.00000000000E+00 -0.00000000000E+00 -0.29018257475E+04  0.29018257475E+04  0.00000000000E+00 0.  1.
    9000010    2    1    2  502    0 -0.31348708058E+03 -0.34658618522E+03 -0.56964330318E+03  0.12337271792E+04  0.98954187702E+03 0.  0.
   -9000010    2    1    2    0  501  0.31348708058E+03  0.34658618522E+03 -0.18487043029E+04  0.21515767098E+04  0.99658346617E+03 0.  0.
        -13    1    3    3    0    0  0.21044615658E+02 -0.62995840715E+03 -0.46422438925E+03  0.78281208813E+03  0.10566000000E+00 0.  1.
         13    1    4    4    0    0  0.39637313357E+03 -0.15541194544E+03 -0.14319001556E+04  0.14938549463E+04  0.10566000000E+00 0. -1.
          4    1    3    3  502    0 -0.33453169624E+03  0.28337222193E+03 -0.10541891394E+03  0.45091509108E+03  0.00000000000E+00 0.  1.
         -4    1    4    4    0  501 -0.82886052987E+02  0.50199813067E+03 -0.41680414732E+03  0.65772176351E+03  0.00000000000E+00 0. -1.
</event>
<event>
 8    1  0.7446554E-006  0.1201368E+04  0.7818608E-02  0.8605533E-01
         -1   -1    0    0    0  501 -0.00000000000E+00  0.00000000000E+00  0.61086921056E+03  0.61086921056E+03  0.00000000000E+00 0. -1.
          1   -1    0    0  502    0  0.00000000000E+00 -0.00000000000E+00 -0.23665911812E+04  0.23665911812E+04  0.00000000000E+00 0.  1.
    9000010    2    1    2  502    0  0.65947376572E+03  0.14472399056E+03 -0.82158832268E+03  0.14598780504E+04  0.10001929159E+04 0.  0.
   -9000010    2    1    2    0  501 -0.65947376572E+03 -0.14472399056E+03 -0.93413364794E+03  0.15175823413E+04  0.98721821773E+03 0.  0.
        -13    1    3    3    0    0  0.15159049924E+03  0.90454108027E+02 -0.92249374251E+03  0.93923178250E+03  0.10566000000E+00 0.  1.
         13    1    4    4    0    0  0.44465454318E+02 -0.24851848912E+03 -0.73727444394E+03  0.77930240145E+03  0.10566000000E+00 0. -1.
          4    1    3    3  502    0  0.50788326648E+03  0.54269882535E+02  0.10090541983E+03  0.52064626789E+03  0.00000000000E+00 0.  1.
         -4    1    4    4    0  501 -0.70393922004E+03  0.10379449856E+03 -0.19685920401E+03  0.73827993989E+03  0.00000000000E+00 0. -1.
</event>
<event>
 8    1  0.7446554E-006  0.1975991E+04  0.7818608E-02  0.8178238E-01
          2   -1    0    0  502    0  0.00000000000E+00  0.00000000000E+00  0.31547513707E+04  0.31547513707E+04  0.00000000000E+00 0.  1.
         -2   -1    0    0    0  501 -0.00000000000E+00 -0.00000000000E+00 -0.15156425639E+04  0.15156425639E+04  0.00000000000E+00 0. -1.
    9000010    2    1    2  502    0 -0.16052200375E+04  0.43359805953E+03  0.18066588060E+04  0.26514107660E+04  0.10006119941E+04 0.  0.
   -9000010    2    1    2    0  501  0.16052200375E+04 -0.43359805953E+03 -0.16754999929E+03  0.20189831686E+04  0.11329083753E+04 0.  0.
        -13    1    3    3    0    0 -0.97344514999E+03  0.75112727523E+03  0.10643076042E+04  0.16262036561E+04  0.10566000000E+00 0.  1.
         13    1    4    4    0    0  0.10369517408E+04  0.30280114849E+03 -0.13006731094E+03  0.10880601844E+04  0.10566000000E+00 0. -1.
          4    1    3    3  502    0 -0.63177488755E+03 -0.31752921570E+03  0.74235120179E+03  0.10252071099E+04  0.00000000000E+00 0.  1.
         -4    1    4    4    0  501  0.56826829671E+03 -0.73639920802E+03 -0.37482688352E+02  0.93092298422E+03  0.00000000000E+00 0. -1.
</event>
<event>
 8    1  0.7446554E-006  0.1470776E+04  0.7818608E-02  0.8426519E-01
          1   -1    0    0  502    0  0.00000000000E+00  0.00000000000E+00  0.30529350306E+04  0.30529350306E+04  0.00000000000E+00 0. -1.
         -1   -1    0    0    0  501 -0.00000000000E+00 -0.00000000000E+00 -0.81363492883E+03  0.81363492883E+03  0.00000000000E+00 0.  1.
    9000010    2    1    2  502    0 -0.10313803784E+04 -0.29349698367E+03  0.42529844264E+03  0.15316235302E+04  0.10075246442E+04 0.  0.
   -9000010    2    1    2    0  501  0.10313803784E+04  0.29349698367E+03  0.18140016591E+04  0.23349464292E+04  0.10057270225E+04 0.  0.
        -13    1    3    3    0    0 -0.87031580175E+03 -0.45676675520E+03 -0.70426741104E+02  0.98541635894E+03  0.10566000000E+00 0.  1.
         13    1    4    4    0    0  0.20539056779E+02  0.42652519748E+03  0.35669358477E+03  0.55639547223E+03  0.10566000000E+00 0. -1.
          4    1    3    3  502    0 -0.16106457660E+03  0.16326977153E+03  0.49572518375E+03  0.54620717126E+03  0.00000000000E+00 0.  1.
         -4    1    4    4    0  501  0.10108413216E+04 -0.13302821381E+03  0.14573080743E+04  0.17785509570E+04  0.00000000000E+00 0. -1.
</event>
<event>
 8    1  0.7446554E-006  0.1440597E+04  0.7818608E-02  0.8444528E-01
         -2   -1    0    0    0  501 -0.00000000000E+00  0.00000000000E+00  0.12707890078E+04  0.12707890078E+04  0.00000000000E+00 0.  1.
          2   -1    0    0  502    0  0.00000000000E+00 -0.00000000000E+00 -0.16335506104E+04  0.16335506104E+04  0.00000000000E+00 0. -1.
    9000010    2    1    2  502    0  0.10000925138E+04 -0.30544710542E+03 -0.20249368306E+03  0.14692999650E+04  0.10121046018E+04 0.  0.
   -9000010    2    1    2    0  501 -0.10000925138E+04  0.30544710542E+03 -0.16026791954E+03  0.14350396532E+04  0.96962365367E+03 0.  0.
        -13    1    3    3    0    0  0.31072080949E+03  0.32961123944E+02  0.38972435589E+03  0.49951871024E+03  0.10566000000E+00 0.  1.
         13    1    4    4    0    0 -0.71876491588E+03  0.55916703631E+03  0.17714850507E+03  0.92772430323E+03  0.10566000000E+00 0. -1.
          4    1    3    3  502    0  0.68937170429E+03 -0.33840822936E+03 -0.59221803895E+03  0.96978125474E+03  0.00000000000E+00 0.  1.
         -4    1    4    4    0  501 -0.28132759791E+03 -0.25371993089E+03 -0.33741642461E+03  0.50731534993E+03  0.00000000000E+00 0. -1.
</event>
<event>
 8    1  0.7446554E-006  0.1450051E+04  0.7818608E-02  0.8438839E-01
          2   -1    0    0  502    0  0.00000000000E+00  0.00000000000E+00  0.33116810265E+04  0.33116810265E+04  0.00000000000E+00 0.  1.
         -2   -1    0    0    0  501 -0.00000000000E+00 -0.00000000000E+00 -0.67562883397E+03  0.67562883397E+03  0.00000000000E+00 0. -1.
    9000010    2    1    2  502    0  0.63272560483E+03  0.85099612300E+03  0.83905201023E+03  0.16856317784E+04  0.10063846799E+04 0.  0.
   -9000010    2    1    2    0  501 -0.63272560483E+03 -0.85099612300E+03  0.17970001824E+04  0.23016780822E+04  0.97158439991E+03 0.  0.
        -13    1    3    3    0    0  0.32054498359E+03  0.49009702730E+03 -0.13500052614E+03  0.60097365657E+03  0.10566000000E+00 0.  1.
         13    1    4    4    0    0 -0.18679603887E+03 -0.14124153384E+03 -0.78823399197E+02  0.24709324241E+03  0.10566000000E+00 0. -1.
          4    1    3    3  502    0  0.31218062124E+03  0.36089909570E+03  0.97405253637E+03  0.10846581218E+04  0.00000000000E+00 0.  1.
         -4    1    4    4    0  501 -0.44592956596E+03 -0.70975458915E+03  0.18758235815E+04  0.20545848397E+04  0.00000000000E+00 0. -1.
</event>
<event>
 8    1  0.7446554E-006  0.1239048E+04  0.7818608E-02  0.8577724E-01
         -2   -1    0    0    0  501 -0.00000000000E+00  0.00000000000E+00  0.71678596830E+03  0.71678596830E+03  0.00000000000E+00 0.  1.
          2   -1    0    0  502    0  0.00000000000E+00 -0.00000000000E+00 -0.22058946608E+04  0.22058946608E+04  0.00000000000E+00 0. -1.
    9000010    2    1    2  502    0  0.64700722068E+03 -0.32626950393E+03 -0.99197784245E+03  0.15851122461E+04  0.10017438096E+04 0.  0.
   -9000010    2    1    2    0  501 -0.64700722068E+03  0.32626950393E+03 -0.49713085001E+03  0.13375683829E+04  0.10084046629E+04 0.  0.
        -13    1    3    3    0    0 -0.88140413380E+02 -0.18747431872E+03  0.12409772407E+03  0.24148624999E+03  0.10566000000E+00 0.  1.
         13    1    4    4    0    0 -0.57513817106E+03 -0.12215591814E+03 -0.63259754700E+03  0.86364671700E+03  0.10566000000E+00 0. -1.
          4    1    3    3  502    0  0.73514763406E+03 -0.13879518521E+03 -0.11160755665E+04  0.13436259961E+04  0.00000000000E+00 0.  1.
         -4    1    4    4    0  501 -0.71869049614E+02  0.44842542207E+03  0.13546669699E+03  0.47392166594E+03  0.00000000000E+00 0. -1.
</event>
<event>
 8    1  0.7446554E-006  0.1755217E+04  0.7818608E-02  0.8276068E-01
         -2   -1    0    0    0  501 -0.00000000000E+00  0.00000000000E+00  0.11652267737E+04  0.11652267737E+04  0.00000000000E+00 0. -1.
          2   -1    0    0  502    0  0.00000000000E+00 -0.00000000000E+00 -0.26472774301E+04  0.26472774301E+04  0.00000000000E+00 0.  1.
    9000010    2    1    2  502    0 -0.18477250757E+03  0.14223484180E+04 -0.81073039926E+03  0.19382552855E+04  0.10209475353E+04 0.  0.
   -9000010    2    1    2    0  501  0.18477250757E+03 -0.14223484180E+04 -0.67132025720E+03  0.18742489183E+04  0.10024580880E+04 0.  0.
        -13    1    3    3    0    0 -0.38297586152E+03  0.64580204013E+02 -0.18189073747E+03  0.42886520586E+03  0.10566000000E+00 0.  1.
         13    1    4    4    0    0 -0.73004957080E+02 -0.19242007998E+02 -0.41871609251E+03  0.42546816088E+03  0.10566000000E+00 0. -1.
          4    1    3    3  502    0  0.19820335395E+03  0.13577682139E+04 -0.62883966179E+03  0.15093900797E+04  0.00000000000E+00 0.  1.
         -4    1    4    4    0  501  0.25777746465E+03 -0.14031064100E+04 -0.25260416468E+03  0.14487807574E+04  0.00000000000E+00 0. -1.
</event>
<event>
 8    1  0.7446554E-006  0.1300229E+04  0.7818608E-02  0.8534682E-01
          1   -1    0    0  502    0  0.00000000000E+00  0.00000000000E+00  0.22331869511E+04  0.22331869511E+04  0.00000000000E+00 0.  1.
         -1   -1    0    0    0  501 -0.00000000000E+00 -0.00000000000E+00 -0.77455448601E+03  0.77455448601E+03  0.00000000000E+00 0. -1.
    9000010    2    1    2  502    0  0.83146937933E+03 -0.38959345548E+01  0.50097718320E+03  0.13896705010E+04  0.99440909907E+03 0.  0.
   -9000010    2    1    2    0  501 -0.83146937933E+03  0.38959345548E+01  0.95765528190E+03  0.16180709361E+04  0.10048350154E+04 0.  0.
        -13    1    3    3    0    0  0.60134563062E+03  0.37438017152E+03 -0.16581317344E+02  0.70855630090E+03  0.10566000000E+00 0.  1.
         13    1    4    4    0    0  0.63809761584E+02  0.31537436743E+03  0.92740032453E+02  0.33486325880E+03  0.10566000000E+00 0. -1.
          4    1    3    3  502    0  0.23012374871E+03 -0.37827610608E+03  0.51755850054E+03  0.68111420014E+03  0.00000000000E+00 0.  1.
         -4    1    4    4    0  501 -0.89527914091E+03 -0.31147843288E+03  0.86491524944E+03  0.12832076773E+04  0.00000000000E+00 0. -1.
</event>
<event>
 8    1  0.7446554E-006  0.1755636E+04  0.7818608E-02  0.8275869E-01
         -1   -1    0    0    0  501 -0.00000000000E+00  0.00000000000E+00  0.25248345164E+04  0.25248345164E+04  0.00000000000E+00 0.  1.
          1   -1    0    0  502    0  0.00000000000E+00 -0.00000000000E+00 -0.12943736848E+04  0.12943736848E+04  0.00000000000E+00 0. -1.
    9000010    2    1    2  502    0 -0.12283176889E+04  0.75063712957E+03  0.16203592047E+03  0.17694454871E+04  0.10161010024E+04 0.  0.
   -9000010    2    1    2    0  501  0.12283176889E+04 -0.75063712957E+03  0.10684249111E+04  0.20497627141E+04  0.99386867769E+03 0.  0.
        -13    1    3    3    0    0 -0.10073344060E+04  0.55693743575E+03 -0.32904990569E+03  0.11971531917E+04  0.10566000000E+00 0.  1.
         13    1    4    4    0    0 -0.57152852056E+01 -0.10361645407E+03 -0.16100159611E+03  0.19154779861E+03  0.10566000000E+00 0. -1.
          4    1    3    3  502    0 -0.22098328291E+03  0.19369969382E+03  0.49108582616E+03  0.57229229539E+03  0.00000000000E+00 0.  1.
         -4    1    4    4    0  501  0.12340329741E+04 -0.64702067550E+03  0.12294265072E+04  0.18582149155E+04  0.00000000000E+00 0. -1.
</event>
<event>
 8    1  0.7446554E-006  0.1212446E+04  0.7818608E-02  0.8597249E-01
         -2   -1    0    0    0  501 -0.00000000000E+00  0.00000000000E+00  0.61640595842E+03  0.61640595842E+03  0.00000000000E+00 0.  1.
          2   -1    0    0  502    0  0.00000000000E+00 -0.00000000000E+00 -0.26607218723E+04  0.26607218723E+04  0.00000000000E+00 0. -1.
    9000010    2    1    2  502    0  0.58627886556E+03 -0.39339480575E+03 -0.15411012283E+04  0.19539915557E+04  0.97190926661E+03 0.  0.
   -9000010    2    1    2    0  501 -0.58627886556E+03  0.39339480575E+03 -0.50321468563E+03  0.13231362751E+04  0.99949097102E+03 0.  0.
        -13    1    3    3    0    0  0.22159487617E+03  0.15149384552E+03 -0.11703982846E+04  0.12007859218E+04  0.10566000000E+00 0.  1.
         13    1    4    4    0    0  0.16814391398E+03  0.37538706691E+02  0.17685641092E+03  0.24690024617E+03  0.10566000000E+00 0. -1.
          4    1    3    3  502    0  0.36468398940E+03 -0.54488865127E+03 -0.37070294370E+03  0.75320563386E+03  0.00000000000E+00 0.  1.
         -4    1    4    4    0  501 -0.75442277954E+03  0.35585609906E+03 -0.68007109655E+03  0.10762360289E+04  0.00000000000E+00 0. -1.
</event>
<event>
 8    1  0.7446554E-006  0.1446673E+04  0.7818608E-02  0.8440866E-01
         -2   -1    0    0    0  501 -0.00000000000E+00  0.00000000000E+00  0.10131397071E+04  0.10131397071E+04  0.00000000000E+00 0. -1.
          2   -1    0    0  502    0  0.00000000000E+00 -0.00000000000E+00 -0.23571487044E+04  0.23571487044E+04  0.00000000000E+00 0.  1.
    9000010    2    1    2  502    0 -0.80900217024E+03  0.61480389085E+03 -0.12645904217E+04  0.19215751335E+04  0.10299484080E+04 0.  0.
   -9000010    2    1    2    0  501  0.80900217024E+03 -0.61480389085E+03 -0.79418575608E+02  0.14487132781E+04  0.10295603510E+04 0.  0.
        -13    1    3    3    0    0 -0.41506868563E+03  0.29042852960E+03 -0.13146027818E+04  0.14088332867E+04  0.10566000000E+00 0.  1.
         13    1    4    4    0    0  0.86334686145E+03 -0.14068888459E+03 -0.29761338893E+03  0.92397776264E+03  0.10566000000E+00 0. -1.
          4    1    3    3  502    0 -0.39393348461E+03  0.32437536124E+03  0.50012360066E+02  0.51274184678E+03  0.00000000000E+00 0.  1.
         -4    1    4    4    0  501 -0.54344691206E+02 -0.47411500625E+03  0.21819481332E+03  0.52473551545E+03  0.00000000000E+00 0. -1.
</event>
<event>
 8    1  0.7446554E-006  0.1069300E+04  0.7818608E-02  0.8712070E-01
         -4   -1    0    0    0  501 -0.00000000000E+00  0.00000000000E+00  0.60066490493E+03  0.60066490493E+03  0.00000000000E+00 0. -1.
          4   -1    0    0  502    0  0.00000000000E+00 -0.00000000000E+00 -0.19190039879E+04  0.19190039879E+04  0.00000000000E+00 0.  1.
    9000010    2    1    2  502    0 -0.16834257934E+03  0.40225247378E+03 -0.53526834242E+03  0.11751776052E+04  0.95099102455E+03 0.  0.
   -9000010    2    1    2    0  501  0.16834257934E+03 -0.40225247378E+03 -0.78307074053E+03  0.13444912876E+04  0.10021530627E+04 0.  0.
        -13    1    3    3    0    0  0.29673651331E+03  0.36409225256E+03 -0.53044474378E+03  0.70851066617E+03  0.10566000000E+00 0.  1.
         13    1    4    4    0    0  0.16487387953E+03 -0.57832177300E+03 -0.64682607749E+02  0.60483329950E+03  0.10566000000E+00 0. -1.
          4    1    3    3  502    0 -0.46507909266E+03  0.38160221222E+02 -0.48235986337E+01  0.46666693906E+03  0.00000000000E+00 0.  1.
         -4    1    4    4    0  501  0.34686998118E+01  0.17606929921E+03 -0.71838813278E+03  0.73965798808E+03  0.00000000000E+00 0. -1.
</event>
<event>
 8    1  0.7446554E-006  0.1165130E+04  0.7818608E-02  0.8633293E-01
         -2   -1    0    0    0  501 -0.00000000000E+00  0.00000000000E+00  0.14442507304E+04  0.14442507304E+04  0.00000000000E+00 0.  1.
          2   -1    0    0  502    0  0.00000000000E+00 -0.00000000000E+00 -0.10536203334E+04  0.10536203334E+04  0.00000000000E+00 0. -1.
    9000010    2    1    2  502    0 -0.23931508195E+03  0.54031077711E+03  0.60438879214E+03  0.13062111995E+04  0.99583856188E+03 0.  0.
   -9000010    2    1    2    0  501  0.23931508195E+03 -0.54031077711E+03 -0.21375839518E+03  0.11916598643E+04  0.10124984624E+04 0.  0.
        -13    1    3    3    0    0 -0.41323879462E+03  0.39802635762E+02 -0.97820858639E+02  0.42652020203E+03  0.10566000000E+00 0.  1.
         13    1    4    4    0    0 -0.32928389749E+03 -0.72398574828E+02 -0.29865966552E+03  0.45040764398E+03  0.10566000000E+00 0. -1.
          4    1    3    3  502    0  0.17392371266E+03  0.50050814135E+03  0.70220965078E+03  0.87969099747E+03  0.00000000000E+00 0.  1.
         -4    1    4    4    0  501  0.56859897945E+03 -0.46791220228E+03  0.84901270340E+02  0.74125222035E+03  0.00000000000E+00 0. -1.
</event>
<event>
 8    1  0.7446554E-006  0.1326725E+04  0.7818608E-02  0.8516794E-01
         -1   -1    0    0    0  501 -0.00000000000E+00  0.00000000000E+00  0.23391940378E+04  0.23391940378E+04  0.00000000000E+00 0.  1.
          1   -1    0    0  502    0  0.00000000000E+00 -0.00000000000E+00 -0.75254136977E+03  0.75254136977E+03  0.00000000000E+00 0. -1.
    9000010    2    1    2  502    0  0.79239994575E+03 -0.36307256495E+03  0.80656375767E+03  0.15518537307E+04  0.99899226463E+03 0.  0.
   -9000010    2    1    2    0  501 -0.79239994575E+03  0.36307256495E+03  0.78008891032E+03  0.15398816769E+04  0.10014876481E+04 0.  0.
        -13    1    3    3    0    0  0.48783297556E+02 -0.52759501082E+03  0.16185773621E+03  0.55401646501E+03  0.10566000000E+00 0.  1.
         13    1    4    4    0    0 -0.96034352863E+03  0.10854766526E+03  0.38386723247E+03  0.10399020877E+04  0.10566000000E+00 0. -1.
          4    1    3    3  502    0  0.74361664819E+03  0.16452244587E+03  0.64470602146E+03  0.99783726567E+03  0.00000000000E+00 0.  1.
         -4    1    4    4    0  501  0.16794358289E+03  0.25452489969E+03  0.39622167785E+03  0.49997958918E+03  0.00000000000E+00 0. -1.
</event>
<event>
 8    1  0.7446554E-006  0.1446634E+04  0.7818608E-02  0.8440890E-01
         -2   -1    0    0    0  501 -0.00000000000E+00  0.00000000000E+00  0.71559576608E+03  0.71559576608E+03  0.00000000000E+00 0.  1.
          2   -1    0    0  502    0  0.00000000000E+00 -0.00000000000E+00 -0.29794738871E+04  0.29794738871E+04  0.00000000000E+00 0. -1.
    9000010    2    1    2  502    0  0.85029608571E+02  0.10217492305E+04 -0.13952660060E+04  0.20224406077E+04  0.10451302597E+04 0.  0.
   -9000010    2    1    2    0  501 -0.85029608571E+02 -0.10217492305E+04 -0.86861211505E+03  0.16726290455E+04  0.99599166306E+03 0.  0.
        -13    1    3    3    0    0  0.53175672488E+03  0.48654392465E+03 -0.96043961227E+03  0.12008057566E+04  0.10566000000E+00 0.  1.
         13    1    4    4    0    0  0.33921045268E+03 -0.56070552055E+03 -0.72173196012E+02  0.65929006770E+03  0.10566000000E+00 0. -1.
          4    1    3    3  502    0 -0.44672711630E+03  0.53520530590E+03 -0.43482639368E+03  0.82163485110E+03  0.00000000000E+00 0.  1.
         -4    1    4    4    0  501 -0.42424006126E+03 -0.46104371000E+03 -0.79643891904E+03  0.10133389778E+04  0.00000000000E+00 0. -1.
</event>
<event>
 8    1  0.7446554E-006  0.1446095E+04  0.7818608E-02  0.8441214E-01
          1   -1    0    0  502    0  0.00000000000E+00  0.00000000000E+00  0.13872587338E+04  0.13872587338E+04  0.00000000000E+00 0. -1.
         -1   -1    0    0    0  501 -0.00000000000E+00 -0.00000000000E+00 -0.20458808514E+04  0.20458808514E+04  0.00000000000E+00 0.  1.
    9000010    2    1    2  502    0 -0.30107667947E+03 -0.10233856963E+04  0.55336649489E+03  0.15363543175E+04  0.95718580273E+03 0.  0.
   -9000010    2    1    2    0  501  0.30107667947E+03  0.10233856963E+04 -0.12119886125E+04  0.18967852677E+04  0.99544588235E+03 0.  0.
        -13    1    3    3    0    0 -0.87961503700E+02 -0.46858520720E+03  0.76842592510E+03  0.90431617042E+03  0.10566000000E+00 0.  1.
         13    1    4    4    0    0  0.19863922821E+03  0.74226339429E+03 -0.13645020072E+03  0.78040448354E+03  0.10566000000E+00 0. -1.
          4    1    3    3  502    0 -0.21311517577E+03 -0.55480048910E+03 -0.21505943022E+03  0.63203814709E+03  0.00000000000E+00 0.  1.
         -4    1    4    4    0  501  0.10243745126E+03  0.28112230202E+03 -0.10755384117E+04  0.11163807842E+04  0.00000000000E+00 0. -1.
</event>
<event>
 8    1  0.7446554E-006  0.1061454E+04  0.7818608E-02  0.8718899E-01
         -4   -1    0    0    0  501 -0.00000000000E+00  0.00000000000E+00  0.23131637863E+04  0.23131637863E+04  0.00000000000E+00 0. -1.
          4   -1    0    0  502    0  0.00000000000E+00 -0.00000000000E+00 -0.53114996456E+03  0.53114996456E+03  0.00000000000E+00 0.  1.
    9000010    2    1    2  502    0 -0.26347750391E+03 -0.62229432527E+01  0.45382836702E+03  0.11181463263E+04  0.98733575861E+03 0.  0.
   -9000010    2    1    2    0  501  0.26347750391E+03  0.62229432527E+01  0.13281854547E+04  0.17261674245E+04  0.10705691268E+04 0.  0.
        -13    1    3    3    0    0 -0.48600919339E+03  0.18818068643E+03  0.59473957930E+03  0.79077941624E+03  0.10566000000E+00 0.  1.
         13    1    4    4    0    0  0.29247245380E+03  0.25269158358E+03  0.14122194958E+04  0.14641574670E+04  0.10566000000E+00 0. -1.
          4    1    3    3  502    0  0.22253168948E+03 -0.19440362968E+03 -0.14091121228E+03  0.32736691006E+03  0.00000000000E+00 0.  1.
         -4    1    4    4    0  501 -0.28994949890E+02 -0.24646864032E+03 -0.84034041113E+02  0.26200995754E+03  0.00000000000E+00 0. -1.
</event>
<event>
 8    1  0.7446554E-006  0.1082925E+04  0.7818608E-02  0.8700356E-01
          1   -1    0    0  502    0  0.00000000000E+00  0.00000000000E+00  0.21294951154E+04  0.21294951154E+04  0.00000000000E+00 0. -1.
         -1   -1    0    0    0  501 -0.00000000000E+00 -0.00000000000E+00 -0.64938549330E+03  0.64938549330E+03  0.00000000000E+00 0.  1.
    9000010    2    1    2  502    0 -0.11199261459E+03 -0.24759542717E+03  0.17103086702E+03  0.10434768104E+04  0.99284764948E+03 0.  0.
   -9000010    2    1    2    0  501  0.11199261459E+03  0.24759542717E+03  0.13090787551E+04  0.17354037983E+04  0.11063875067E+04 0.  0.
        -13    1    3    3    0    0 -0.43655573702E+03  0.12245782064E+03 -0.12342489405E+03  0.46990482547E+03  0.10566000000E+00 0.  1.
         13    1    4    4    0    0 -0.72348722644E+02  0.46199226314E+03  0.80243030382E+02  0.47445773674E+03  0.10566000000E+00 0. -1.
          4    1    3    3  502    0  0.32456312244E+03 -0.37005324781E+03  0.29445576107E+03  0.57357198492E+03  0.00000000000E+00 0.  1.
         -4    1    4    4    0  501  0.18434133723E+03 -0.21439683597E+03  0.12288357247E+04  0.12609460615E+04  0.00000000000E+00 0. -1.
</event>
<event>
 8    1  0.7446554E-006  0.1295962E+04  0.7818608E-02  0.8537604E-01
         -1   -1    0    0    0  501 -0.00000000000E+00  0.00000000000E+00  0.89468890044E+03  0.89468890044E+03  0.00000000000E+00 0.  1.
          1   -1    0    0  502    0  0.00000000000E+00 -0.00000000000E+00 -0.18828549066E+04  0.18828549066E+04  0.00000000000E+00 0. -1.
    9000010    2    1    2  502    0  0.71739399733E+03  0.16241247296E+03 -0.57428829592E+03  0.14461824210E+04  0.11048097525E+04 0.  0.
   -9000010    2    1    2    0  501 -0.71739399733E+03 -0.16241247296E+03 -0.41387771026E+03  0.13313613861E+04  0.10296584009E+04 0.  0.
        -13    1    3    3    0    0  0.12862619443E+03  0.19838935196E+03 -0.78498202516E+03  0.81981694533E+03  0.10566000000E+00 0.  1.
         13    1    4    4    0    0 -0.82402978287E+03  0.10614627611E+03 -0.56551314255E+03  0.10050359399E+04  0.10566000000E+00 0. -1.
          4    1    3    3  502    0  0.58876780290E+03 -0.35976879000E+02  0.21069372924E+03  0.62636547566E+03  0.00000000000E+00 0.  1.
         -4    1    4    4    0  501  0.10663578554E+03 -0.26855874908E+03  0.15163543229E+03  0.32632544613E+03  0.00000000000E+00 0. -1.
</event>
<event>
 8    1  0.7446554E-006  0.1410292E+04  0.7818608E-02  0.8463073E-01
          2   -1    0    0  502    0  0.00000000000E+00  0.00000000000E+00  0.11281516219E+04  0.11281516219E+04  0.00000000000E+00 0.  1.
         -2   -1    0    0    0  501 -0.00000000000E+00 -0.00000000000E+00 -0.19863812011E+04  0.19863812011E+04  0.00000000000E+00 0. -1.
    9000010    2    1    2  502    0 -0.93943482018E+02 -0.97979807136E+03  0.90354884699E+02  0.14230034397E+04  0.10236919193E+04 0.  0.
   -9000010    2    1    2    0  501  0.93943482018E+02  0.97979807136E+03 -0.94858446398E+03  0.16915293833E+04  0.99630794982E+03 0.  0.
        -13    1    3    3    0    0  0.23430949006E+03 -0.77433795311E+03  0.42261754678E+03  0.91274629814E+03  0.10566000000E+00 0.  1.
         13    1    4    4    0    0  0.59073737501E+02  0.13325511402E+03  0.21035032432E+03  0.25591776410E+03  0.10566000000E+00 0. -1.
          4    1    3    3  502    0 -0.32825297208E+03 -0.20546011825E+03 -0.33226266208E+03  0.51025714153E+03  0.00000000000E+00 0.  1.
         -4    1    4    4    0  501  0.34869744517E+02  0.84654295734E+03 -0.11589347883E+04  0.14356116192E+04  0.00000000000E+00 0. -1.
</event>
<event>
 8    1  0.7446554E-006  0.1648437E+04  0.7818608E-02  0.8328846E-01
          4   -1    0    0  502    0  0.00000000000E+00  0.00000000000E+00  0.28330864884E+04  0.28330864884E+04  0.00000000000E+00 0.  1.
         -4   -1    0    0    0  501 -0.00000000000E+00 -0.00000000000E+00 -0.96756084985E+03  0.96756084985E+03  0.00000000000E+00 0. -1.
    9000010    2    1    2  502    0 -0.62706785254E+03 -0.10821052549E+04  0.10922989831E+04  0.19554618549E+04  0.10327381677E+04 0.  0.
   -9000010    2    1    2    0  501  0.62706785254E+03  0.10821052549E+04  0.77322665543E+03  0.18451854834E+04  0.11147484617E+04 0.  0.
        -13    1    3    3    0    0 -0.37645717022E+03 -0.42041586269E+03  0.11126821518E+04  0.12476101477E+04  0.10566000000E+00 0.  1.
         13    1    4    4    0    0  0.63354698298E+03  0.12431778830E+04  0.42037406354E+03  0.14572533730E+04  0.10566000000E+00 0. -1.
          4    1    3    3  502    0 -0.25061068232E+03 -0.66168939220E+03 -0.20383168631E+02  0.70785170721E+03  0.00000000000E+00 0.  1.
         -4    1    4    4    0  501 -0.64791304437E+01 -0.16107262816E+03  0.35285259189E+03  0.38793211039E+03  0.00000000000E+00 0. -1.
</event>
<event>
 8    1  0.7446554E-006  0.1551249E+04  0.7818608E-02  0.8380601E-01
          1   -1    0    0  502    0  0.00000000000E+00  0.00000000000E+00  0.32622055436E+04  0.32622055436E+04  0.00000000000E+00 0. -1.
         -1   -1    0    0    0  501 -0.00000000000E+00 -0.00000000000E+00 -0.75804928119E+03  0.75804928119E+03  0.00000000000E+00 0.  1.
    9000010    2    1    2  502    0 -0.25892999163E+03  0.11797007455E+04  0.15997545696E+04  0.22458736399E+04  0.10129141789E+04 0.  0.
   -9000010    2    1    2    0  501  0.25892999163E+03 -0.11797007455E+04  0.90440169282E+03  0.17743811849E+04  0.93367423536E+03 0.  0.
        -13    1    3    3    0    0  0.11675794304E+03  0.29298146911E+03  0.11322819218E+04  0.11753862855E+04  0.10566000000E+00 0.  1.
         13    1    4    4    0    0  0.32655935907E+03  0.14576913543E+02  0.14581270632E+03  0.35793135919E+03  0.10566000000E+00 0. -1.
          4    1    3    3  502    0 -0.37568793467E+03  0.88671927643E+03  0.46747264774E+03  0.10704873544E+04  0.00000000000E+00 0.  1.
         -4    1    4    4    0  501 -0.67629367438E+02 -0.11942776591E+04  0.75858898650E+03  0.14164498257E+04  0.00000000000E+00 0. -1.
</event>
<event>
 8    1  0.7446554E-006  0.1140198E+04  0.7818608E-02  0.8653009E-01
         -1   -1    0    0    0  501 -0.00000000000E+00  0.00000000000E+00  0.39639727734E+04  0.39639727734E+04  0.00000000000E+00 0. -1.
          1   -1    0    0  502    0  0.00000000000E+00 -0.00000000000E+00 -0.33877246204E+03  0.33877246204E+03  0.00000000000E+00 0.  1.
    9000010    2    1    2  502    0  0.12099577074E+03  0.48627248665E+03  0.14100559017E+04  0.18056663219E+04  0.10104812281E+04 0.  0.
   -9000010    2    1    2    0  501 -0.12099577074E+03 -0.48627248665E+03  0.22151444097E+04  0.24970789136E+04  0.10379968386E+04 0.  0.
        -13    1    3    3    0    0  0.21100323044E+03  0.77514208626E+03  0.11709185163E+04  0.14200062676E+04  0.10566000000E+00 0.  1.
         13    1    4    4    0    0 -0.42655128288E+02  0.35996232220E+02 -0.10428743560E+03  0.11828384966E+03  0.10566000000E+00 0. -1.
          4    1    3    3  502    0 -0.90007459698E+02 -0.28886959961E+03  0.23913738540E+03  0.38566005429E+03  0.00000000000E+00 0.  1.
         -4    1    4    4    0  501 -0.78340642456E+02 -0.52226871887E+03  0.23194318453E+04  0.23787950639E+04  0.00000000000E+00 0. -1.
</event>
<event>
 8    1  0.7446554E-006  0.1344208E+04  0.7818608E-02  0.8505224E-01
         -1   -1    0    0    0  501 -0.00000000000E+00  0.00000000000E+00  0.79350685508E+03  0.79350685508E+03  0.00000000000E+00 0.  1.
          1   -1    0    0  502    0  0.00000000000E+00 -0.00000000000E+00 -0.26026905800E+04  0.26026905800E+04  0.00000000000E+00 0. -1.
    9000010    2    1    2  502    0 -0.53954656920E+02  0.89525321175E+03 -0.15073505193E+04  0.20221177522E+04  0.10062132963E+04 0.  0.
   -9000010    2    1    2    0  501  0.53954656920E+02 -0.89525321175E+03 -0.30183320568E+03  0.13740796829E+04  0.99629427020E+03 0.  0.
        -13    1    3    3    0    0  0.85872870647E+02  0.10738651052E+04 -0.14120522661E+04  0.17760777087E+04  0.10566000000E+00 0.  1.
         13    1    4    4    0    0  0.65177254430E+02 -0.79266225693E+03 -0.63978043394E+03  0.10207254983E+04  0.10566000000E+00 0. -1.
          4    1    3    3  502    0 -0.13982752757E+03 -0.17861189341E+03 -0.95298253136E+02  0.24604004345E+03  0.00000000000E+00 0.  1.
         -4    1    4    4    0  501 -0.11222597509E+02 -0.10259095482E+03  0.33794722826E+03  0.35335418463E+03  0.00000000000E+00 0. -1.
</event>
<event>
 8    1  0.7446554E-006  0.1122065E+04  0.7818608E-02  0.8667679E-01
         -2   -1    0    0    0  501 -0.00000000000E+00  0.00000000000E+00  0.34300636124E+03  0.34300636124E+03  0.00000000000E+00 0. -1.
          2   -1    0    0  502    0  0.00000000000E+00 -0.00000000000E+00 -0.42629468920E+04  0.42629468920E+04  0.00000000000E+00 0.  1.
    9000010    2    1    2  502    0  0.37836580411E+03  0.34192479250E+03 -0.28241607376E+04  0.30403145883E+04  0.10037707301E+04 0.  0.
   -9000010    2    1    2    0  501 -0.37836580411E+03 -0.34192479250E+03 -0.10957797932E+04  0.15656386649E+04  0.99519738176E+03 0.  0.
        -13    1    3    3    0    0  0.56313215002E+03  0.44217647889E+03 -0.27061033448E+04  0.27992201022E+04  0.10566000000E+00 0.  1.
         13    1    4    4    0    0 -0.18195284509E+03 -0.67043909161E+03 -0.89638000655E+03  0.11340602015E+04  0.10566000000E+00 0. -1.
          4    1    3    3  502    0 -0.18476634591E+03 -0.10025168638E+03 -0.11805739278E+03  0.24109448603E+03  0.00000000000E+00 0.  1.
         -4    1    4    4    0  501 -0.19641295902E+03  0.32851429911E+03 -0.19939978661E+03  0.43157846342E+03  0.00000000000E+00 0. -1.
</event>
<event>
 8    1  0.7446554E-006  0.1274106E+04  0.7818608E-02  0.8552755E-01
          2   -1    0    0  502    0  0.00000000000E+00  0.00000000000E+00  0.10070636834E+04  0.10070636834E+04  0.00000000000E+00 0. -1.
         -2   -1    0    0    0  501 -0.00000000000E+00 -0.00000000000E+00 -0.16646765734E+04  0.16646765734E+04  0.00000000000E+00 0.  1.
    9000010    2    1    2  502    0 -0.59577714241E+02  0.75206066500E+03 -0.56800066877E+03  0.14006862916E+04  0.10344817930E+04 0.  0.
   -9000010    2    1    2    0  501  0.59577714241E+02 -0.75206066500E+03 -0.89612221232E+02  0.12710539651E+04  0.10190206496E+04 0.  0.
        -13    1    3    3    0    0 -0.24889316032E+03  0.76757927177E+03 -0.54609080059E+01  0.80694211464E+03  0.10566000000E+00 0.  1.
         13    1    4    4    0    0  0.20796207399E+03 -0.86390857769E+03 -0.34671415833E+03  0.95383278072E+03  0.10566000000E+00 0. -1.
          4    1    3    3  502    0  0.18931544608E+03 -0.15518606761E+02 -0.56253976077E+03  0.59374417700E+03  0.00000000000E+00 0.  1.
         -4    1    4    4    0  501 -0.14838435975E+03  0.11184791268E+03  0.25710193710E+03  0.31722118443E+03  0.00000000000E+00 0. -1.
</event>
<event>
 8    1  0.7446554E-006  0.1748955E+04  0.7818608E-02  0.8279056E-01
         -2   -1    0    0    0  501 -0.00000000000E+00  0.00000000000E+00  0.18526739006E+04  0.18526739006E+04  0.00000000000E+00 0.  1.
          2   -1    0    0  502    0  0.00000000000E+00 -0.00000000000E+00 -0.16513471684E+04  0.16513471684E+04  0.00000000000E+00 0. -1.
    9000010    2    1    2  502    0  0.83953682283E+03  0.11810484016E+04  0.84879652974E+02  0.17324733812E+04  0.94581290816E+03 0.  0.
   -9000010    2    1    2    0  501 -0.83953682283E+03 -0.11810484016E+04  0.11644707917E+03  0.17715476878E+04  0.10124840167E+04 0.  0.
        -13    1    3    3    0    0  0.18161321128E+03  0.10063054708E+04 -0.98995185801E+02  0.10273432323E+04  0.10566000000E+00 0.  1.
         13    1    4    4    0    0 -0.77079858556E+03 -0.13221575673E+04 -0.64770605869E+02  0.15318049272E+04  0.10566000000E+00 0. -1.
          4    1    3    3  502    0  0.65792361155E+03  0.17474293082E+03  0.18387483877E+03  0.70513014887E+03  0.00000000000E+00 0.  1.
         -4    1    4    4    0  501 -0.68738237263E+02  0.14110916572E+03  0.18121768504E+03  0.23974276065E+03  0.00000000000E+00 0. -1.
</event>
<event>
 8    1  0.7446554E-006  0.1404945E+04  0.7818608E-02  0.8466394E-01
         -2   -1    0    0    0  501 -0.00000000000E+00  0.00000000000E+00  0.51126496949E+03  0.51126496949E+03  0.00000000000E+00 0. -1.
          2   -1    0    0  502    0  0.00000000000E+00 -0.00000000000E+00 -0.39844227045E+04  0.39844227045E+04  0.00000000000E+00 0.  1.
    9000010    2    1    2  502    0 -0.10417392088E+04  0.14015388067E+03 -0.21869891211E+04  0.26289911296E+04  0.10118345984E+04 0.  0.
   -9000010    2    1    2    0  501  0.10417392088E+04 -0.14015388067E+03 -0.12861686139E+04  0.18666965444E+04  0.85174092069E+03 0.  0.
        -13    1    3    3    0    0 -0.10597281329E+04 -0.19937528012E+03 -0.13655907712E+04  0.17400035585E+04  0.10566000000E+00 0.  1.
         13    1    4    4    0    0  0.57043421531E+03  0.11145310645E+03 -0.11892982277E+04  0.13237247730E+04  0.10566000000E+00 0. -1.
          4    1    3    3  502    0  0.17988924169E+02  0.33952916080E+03 -0.82139834984E+03  0.88898757109E+03  0.00000000000E+00 0.  1.
         -4    1    4    4    0  501  0.47130499345E+03 -0.25160698712E+03 -0.96870386209E+02  0.54297177140E+03  0.00000000000E+00 0. -1.
</event>
<event>
 8    1  0.7446554E-006  0.1343316E+04  0.7818608E-02  0.8505810E-01
          2   -1    0    0  502    0  0.00000000000E+00  0.00000000000E+00  0.34351421531E+04  0.34351421531E+04  0.00000000000E+00 0. -1.
         -2   -1    0    0    0  501 -0.00000000000E+00 -0.00000000000E+00 -0.52731491590E+03  0.52731491590E+03  0.00000000000E+00 0.  1.
    9000010    2    1    2  502    0 -0.71794621406E+03 -0.55901483806E+03  0.13358312000E+04  0.18971527722E+04  0.99337771804E+03 0.  0.
   -9000010    2    1    2    0  501  0.71794621406E+03  0.55901483806E+03  0.15719960371E+04  0.20653042967E+04  0.98303913550E+03 0.  0.
        -13    1    3    3    0    0 -0.10584257506E+03 -0.42414343646E+03  0.11697068018E+04  0.12487250773E+04  0.10566000000E+00 0.  1.
         13    1    4    4    0    0  0.20211660185E+03  0.34912096143E+03  0.62344072430E+01  0.40345439079E+03  0.10566000000E+00 0. -1.
          4    1    3    3  502    0 -0.61210363900E+03 -0.13487140161E+03  0.16612439826E+03  0.64842769493E+03  0.00000000000E+00 0.  1.
         -4    1    4    4    0  501  0.51582961222E+03  0.20989387664E+03  0.15657616299E+04  0.16618499060E+04  0.00000000000E+00 0. -1.
</event>
<event>
 8    1  0.7446554E-006  0.1812136E+04  0.7818608E-02  0.8249489E-01
         -1   -1    0    0    0  501 -0.00000000000E+00  0.00000000000E+00  0.12977044512E+04  0.12977044512E+04  0.00000000000E+00 0.  1.
          1   -1    0    0  502    0  0.00000000000E+00 -0.00000000000E+00 -0.25826286107E+04  0.25826286107E+04  0.00000000000E+00 0. -1.
    9000010    2    1    2  502    0  0.95907788075E+03 -0.11659121894E+04 -0.36780460547E+03  0.18518357649E+04  0.10073896255E+04 0.  0.
   -9000010    2    1    2    0  501 -0.95907788075E+03  0.11659121894E+04 -0.91711955395E+03  0.20284972970E+04  0.99725192061E+03 0.  0.
        -13    1    3    3    0    0 -0.14043146737E+02 -0.24461704429E+03  0.27267473813E+03  0.36658727788E+03  0.10566000000E+00 0.  1.
         13    1    4    4    0    0 -0.83863439997E+03  0.12631473163E+04 -0.10334163086E+04  0.18348836686E+04  0.10566000000E+00 0. -1.
          4    1    3    3  502    0  0.97312102749E+03 -0.92129514508E+03 -0.64047934360E+03  0.14852484870E+04  0.00000000000E+00 0.  1.
         -4    1    4    4    0  501 -0.12044348078E+03 -0.97235126924E+02  0.11629675460E+03  0.19361362840E+03  0.00000000000E+00 0. -1.
</event>
<event>
 8    1  0.7446554E-006  0.1487879E+04  0.7818608E-02  0.8416509E-01
         -1   -1    0    0    0  501 -0.00000000000E+00  0.00000000000E+00  0.18304893577E+04  0.18304893577E+04  0.00000000000E+00 0.  1.
          1   -1    0    0  502    0  0.00000000000E+00 -0.00000000000E+00 -0.12721061596E+04  0.12721061596E+04  0.00000000000E+00 0. -1.
    9000010    2    1    2  502    0  0.11108748301E+04 -0.54784266238E+02  0.62102549034E+03  0.16002844374E+04  0.96860384936E+03 0.  0.
   -9000010    2    1    2    0  501 -0.11108748301E+04  0.54784266238E+02 -0.62642292287E+02  0.15023110799E+04  0.10079535306E+04 0.  0.
        -13    1    3    3    0    0  0.25173930960E+03 -0.32734320136E+03  0.56148346686E+03  0.69698633143E+03  0.10566000000E+00 0.  1.
         13    1    4    4    0    0  0.16488024881E+03  0.91541351452E+01  0.13145583460E+03  0.21106857239E+03  0.10566000000E+00 0. -1.
          4    1    3    3  502    0  0.85913552055E+03  0.27255893512E+03  0.59542023481E+02  0.90329810602E+03  0.00000000000E+00 0.  1.
         -4    1    4    4    0  501 -0.12757550790E+04  0.45630131093E+02 -0.19409812689E+03  0.12912425075E+04  0.00000000000E+00 0. -1.
</event>
<event>
 8    1  0.7446554E-006  0.1459300E+04  0.7818608E-02  0.8433315E-01
          2   -1    0    0  502    0  0.00000000000E+00  0.00000000000E+00  0.19443123641E+04  0.19443123641E+04  0.00000000000E+00 0.  1.
         -2   -1    0    0    0  501 -0.00000000000E+00 -0.00000000000E+00 -0.11305898273E+04  0.11305898273E+04  0.00000000000E+00 0. -1.
    9000010    2    1    2  502    0 -0.73864289041E+03  0.76763845821E+03  0.13479371420E+03  0.14642279695E+04  0.99545571438E+03 0.  0.
   -9000010    2    1    2    0  501  0.73864289041E+03 -0.76763845821E+03  0.67892882258E+03  0.16106742218E+04  0.99923219555E+03 0.  0.
        -13    1    3    3    0    0 -0.25774435373E+03  0.69670569667E+02  0.47981528140E+03  0.54909822034E+03  0.10566000000E+00 0.  1.
         13    1    4    4    0    0  0.66626821718E+03 -0.66671649990E+02  0.60443717930E+03  0.90205474391E+03  0.10566000000E+00 0. -1.
          4    1    3    3  502    0 -0.48089853668E+03  0.69796788854E+03 -0.34502156719E+03  0.91512974919E+03  0.00000000000E+00 0.  1.
         -4    1    4    4    0  501  0.72374673238E+02 -0.70096680822E+03  0.74491643280E+02  0.70861947791E+03  0.00000000000E+00 0. -1.
</event>
<event>
 8    1  0.7446554E-006  0.1605677E+04  0.7818608E-02  0.8351150E-01
         -1   -1    0    0    0  501 -0.00000000000E+00  0.00000000000E+00  0.96494670050E+03  0.96494670050E+03  0.00000000000E+00 0.  1.
          1   -1    0    0  502    0  0.00000000000E+00 -0.00000000000E+00 -0.27630226106E+04  0.27630226106E+04  0.00000000000E+00 0. -1.
    9000010    2    1    2  502    0  0.10086073453E+04 -0.75636770741E+03 -0.12366155920E+04  0.20252116481E+04  0.99140466590E+03 0.  0.
   -9000010    2    1    2    0  501 -0.10086073453E+04  0.75636770741E+03 -0.56146031810E+03  0.17027576629E+04  0.99737910748E+03 0.  0.
        -13    1    3    3    0    0  0.99989051780E+03 -0.61344015289E+03 -0.50063646725E+03  0.12754319865E+04  0.10566000000E+00 0.  1.
         13    1    4    4    0    0 -0.66035773537E+03  0.68422040631E+03 -0.82595928385E+03  0.12595390636E+04  0.10566000000E+00 0. -1.
          4    1    3    3  502    0  0.87168275201E+01 -0.14292755452E+03 -0.73597912471E+03  0.74977966159E+03  0.00000000000E+00 0.  1.
         -4    1    4    4    0  501 -0.34824960995E+03  0.72147301100E+02  0.26449896575E+03  0.44321859930E+03  0.00000000000E+00 0. -1.
</event>
<event>
 7    1  0.7446554E-006  0.7873054E+03  0.7818608E-02  0.9005129E-01
          1   -1    0    0  502    0  0.00000000000E+00  0.00000000000E+00  0.53975163482E+03  0.53975163482E+03  0.00000000000E+00 0.  1.
         -1   -1    0    0    0  501 -0.00000000000E+00 -0.00000000000E+00 -0.12670645379E+04  0.12670645379E+04  0.00000000000E+00 0. -1.
   -9000010    2    1    2    0  501  0.92750630171E+02  0.30657397630E+03 -0.57766649947E+03  0.11968119543E+04  0.99803305913E+03 0.  0.
        -13    1    1    2    0    0  0.14685352191E+03 -0.10128404034E+03  0.10282412855E+03  0.20590586757E+03  0.10566000000E+00 0.  1.
         13    1    3    3    0    0  0.11099531368E+03  0.37983862985E+03 -0.83747114890E+03  0.92625875477E+03  0.10566000000E+00 0. -1.
          4    1    1    2  502    0 -0.23960415209E+03 -0.20528993597E+03 -0.25247053216E+03  0.40409835080E+03  0.00000000000E+00 0.  1.
         -4    1    3    3    0  501 -0.18244683505E+02 -0.73264653548E+02  0.25980464943E+03  0.27055319958E+03  0.00000000000E+00 0. -1.
</event>
<event>
 8    1  0.7446554E-006  0.1123356E+04  0.7818608E-02  0.8666626E-01
          2   -1    0    0  502    0  0.00000000000E+00  0.00000000000E+00  0.12248949343E+04  0.12248949343E+04  0.00000000000E+00 0.  1.
         -2   -1    0    0    0  501 -0.00000000000E+00 -0.00000000000E+00 -0.10339131544E+04  0.10339131544E+04  0.00000000000E+00 0. -1.
    9000010    2    1    2  502    0  0.40127095335E+03 -0.24692057043E+03  0.15906324664E+03  0.11626742535E+04  0.10509624909E+04 0.  0.
   -9000010    2    1    2    0  501 -0.40127095335E+03  0.24692057043E+03  0.31918533295E+02  0.10961338351E+04  0.98919282532E+03 0.  0.
        -13    1    3    3    0    0  0.65260477826E+03 -0.15047995166E+03  0.41774197200E+03  0.78933236269E+03  0.10566000000E+00 0.  1.
         13    1    4    4    0    0 -0.67416502665E+03  0.87393197974E+02  0.23631147514E+03  0.71970770363E+03  0.10566000000E+00 0. -1.
          4    1    3    3  502    0 -0.25133382491E+03 -0.96440618767E+02 -0.25867872536E+03  0.37334189083E+03  0.00000000000E+00 0.  1.
         -4    1    4    4    0  501  0.27289407331E+03  0.15952737245E+03 -0.20439294185E+03  0.37642613151E+03  0.00000000000E+00 0. -1.
</event>
<event>
 8    1  0.7446554E-006  0.1559697E+04  0.7818608E-02  0.8375949E-01
          1   -1    0    0  502    0  0.00000000000E+00  0.00000000000E+00  0.21053652551E+04  0.21053652551E+04  0.00000000000E+00 0. -1.
         -1   -1    0    0    0  501 -0.00000000000E+00 -0.00000000000E+00 -0.11591866695E+04  0.11591866695E+04  0.00000000000E+00 0.  1.
    9000010    2    1    2  502    0 -0.11013102650E+04  0.43968662381E+03  0.55987347582E+03  0.16431737285E+04  0.99012775253E+03 0.  0.
   -9000010    2    1    2    0  501  0.11013102650E+04 -0.43968662381E+03  0.38630510974E+03  0.16213781961E+04  0.10360632172E+04 0.  0.
        -13    1    3    3    0    0 -0.12778640261E+04  0.38280642612E+03  0.58384145928E+03  0.14561415075E+04  0.10566000000E+00 0.  1.
         13    1    4    4    0    0  0.85979600258E+03 -0.30261996503E+03 -0.23459824241E+03  0.94120367392E+03  0.10566000000E+00 0. -1.
          4    1    3    3  502    0  0.17655376116E+03  0.56880197693E+02 -0.23967983457E+02  0.18703222103E+03  0.00000000000E+00 0.  1.
         -4    1    4    4    0  501  0.24151426238E+03 -0.13706665878E+03  0.62090335215E+03  0.68017452216E+03  0.00000000000E+00 0. -1.
</event>
<event>
 8    1  0.7446554E-006  0.1270671E+04  0.7818608E-02  0.8555164E-01
         -1   -1    0    0    0  501 -0.00000000000E+00  0.00000000000E+00  0.86255253020E+03  0.86255253020E+03  0.00000000000E+00 0. -1.
          1   -1    0    0  502    0  0.00000000000E+00 -0.00000000000E+00 -0.20056694266E+04  0.20056694266E+04  0.00000000000E+00 0.  1.
    9000010    2    1    2  502    0 -0.79063310303E+03  0.13433524196E+03 -0.94019924145E+03  0.15774270636E+04  0.98038506035E+03 0.  0.
   -9000010    2    1    2    0  501  0.79063310303E+03 -0.13433524196E+03 -0.20291765495E+03  0.12907948932E+04  0.99087295894E+03 0.  0.
        -13    1    3    3    0    0  0.92969693287E+02 -0.14762626626E+03 -0.53961794709E+03  0.56711940396E+03  0.10566000000E+00 0.  1.
         13    1    4    4    0    0  0.54064395252E+03  0.99532742659E+02  0.34188316504E+03  0.64736910643E+03  0.10566000000E+00 0. -1.
          4    1    3    3  502    0 -0.88360279632E+03  0.28196150822E+03 -0.40058129437E+03  0.10103076597E+04  0.00000000000E+00 0.  1.
         -4    1    4    4    0  501  0.24998915051E+03 -0.23386798462E+03 -0.54480081999E+03  0.64342578676E+03  0.00000000000E+00 0. -1.
</event>
<event>
 8    1  0.7446554E-006  0.1186370E+04  0.7818608E-02  0.8616897E-01
          1   -1    0    0  502    0  0.00000000000E+00  0.00000000000E+00  0.14117838227E+04  0.14117838227E+04  0.00000000000E+00 0.  1.
         -1   -1    0    0    0  501 -0.00000000000E+00 -0.00000000000E+00 -0.10274517353E+04  0.10274517353E+04  0.00000000000E+00 0. -1.
    9000010    2    1    2  502    0  0.62385533729E+03  0.16530545221E+03  0.40241871517E+03  0.12534038664E+04  0.99627258098E+03 0.  0.
   -9000010    2    1    2    0  501 -0.62385533729E+03 -0.16530545221E+03 -0.18086627715E+02  0.11858316916E+04  0.99465989178E+03 0.  0.
        -13    1    3    3    0    0  0.71536689007E+03  0.47039855361E+03  0.37180248281E+03  0.93341399391E+03  0.10566000000E+00 0.  1.
         13    1    4    4    0    0 -0.48360549091E+03 -0.51359982664E+03  0.22272271088E+03  0.73977325572E+03  0.10566000000E+00 0. -1.
          4    1    3    3  502    0 -0.91511552779E+02 -0.30509310140E+03  0.30616232360E+02  0.31998987249E+03  0.00000000000E+00 0.  1.
         -4    1    4    4    0  501 -0.14024984637E+03  0.34829437443E+03 -0.24080933859E+03  0.44605843588E+03  0.00000000000E+00 0. -1.
</event>
<event>
 8    1  0.7446554E-006  0.1242723E+04  0.7818608E-02  0.8575067E-01
         -2   -1    0    0    0  501 -0.00000000000E+00  0.00000000000E+00  0.38260811210E+03  0.38260811210E+03  0.00000000000E+00 0.  1.
          2   -1    0    0  502    0  0.00000000000E+00 -0.00000000000E+00 -0.40458822200E+04  0.40458822200E+04  0.00000000000E+00 0. -1.
    9000010    2    1    2  502    0  0.12947119400E+03  0.73178098870E+03 -0.19419321526E+04  0.23066950080E+04  0.99873678672E+03 0.  0.
   -9000010    2    1    2    0  501 -0.12947119400E+03 -0.73178098870E+03 -0.17213419554E+04  0.21217953242E+04  0.99334337708E+03 0.  0.
        -13    1    3    3    0    0  0.29512938503E+02 -0.17200495359E+03 -0.93004573238E+03  0.94627786251E+03  0.10566000000E+00 0.  1.
         13    1    4    4    0    0  0.36640221500E+03 -0.22566356173E+03 -0.10934118937E+04  0.11750422149E+04  0.10566000000E+00 0. -1.
          4    1    3    3  502    0  0.99958255493E+02  0.90378594229E+03 -0.10118864202E+04  0.13604171455E+04  0.00000000000E+00 0.  1.
         -4    1    4    4    0  501 -0.49587340899E+03 -0.50611742696E+03 -0.62793006169E+03  0.94675310932E+03  0.00000000000E+00 0. -1.
</event>
<event>
 8    1  0.7446554E-006  0.1236026E+04  0.7818608E-02  0.8579917E-01
          1   -1    0    0  502    0  0.00000000000E+00  0.00000000000E+00  0.23384573054E+04  0.23384573054E+04  0.00000000000E+00 0. -1.
         -1   -1    0    0    0  501 -0.00000000000E+00 -0.00000000000E+00 -0.78448351411E+03  0.78448351411E+03  0.00000000000E+00 0.  1.
    9000010    2    1    2  502    0  0.12573565221E+03 -0.72496129861E+03  0.14147364384E+04  0.18777096831E+04  0.99143135164E+03 0.  0.
   -9000010    2    1    2    0  501 -0.12573565221E+03  0.72496129861E+03  0.13923735290E+03  0.12452311365E+04  0.99490462057E+03 0.  0.
        -13    1    3    3    0    0  0.55279559156E+03 -0.42298053963E+03  0.95223880729E+03  0.11795144171E+04  0.10566000000E+00 0.  1.
         13    1    4    4    0    0 -0.35465162364E+03  0.59618128064E+03  0.45871748759E+03  0.83164393710E+03  0.10566000000E+00 0. -1.
          4    1    3    3  502    0 -0.42705993934E+03 -0.30198075899E+03  0.46249763111E+03  0.69819526593E+03  0.00000000000E+00 0.  1.
         -4    1    4    4    0  501  0.22891597143E+03  0.12878001797E+03 -0.31948013470E+03  0.41358719935E+03  0.00000000000E+00 0. -1.
</event>
<event>
 8    1  0.7446554E-006  0.1357047E+04  0.7818608E-02  0.8496843E-01
         -2   -1    0    0    0  501 -0.00000000000E+00  0.00000000000E+00  0.12453324705E+04  0.12453324705E+04  0.00000000000E+00 0. -1.
          2   -1    0    0  502    0  0.00000000000E+00 -0.00000000000E+00 -0.18571580886E+04  0.18571580886E+04  0.00000000000E+00 0.  1.
    9000010    2    1    2  502    0 -0.62880537085E+03 -0.66029977735E+03 -0.10069846361E+04  0.16938938152E+04  0.10118627424E+04 0.  0.
   -9000010    2    1    2    0  501  0.62880537085E+03  0.66029977735E+03  0.39515901797E+03  0.14085967439E+04  0.99829962788E+03 0.  0.
        -13    1    3    3    0    0 -0.81723519038E+03 -0.34751625058E+03 -0.37496573756E+03  0.96397106612E+03  0.10566000000E+00 0.  1.
         13    1    4    4    0    0 -0.13818753421E+03 -0.15198232255E+03 -0.40703548946E+02  0.20940680753E+03  0.10566000000E+00 0. -1.
          4    1    3    3  502    0  0.18842981953E+03 -0.31278352677E+03 -0.63201889859E+03  0.72992274912E+03  0.00000000000E+00 0.  1.
         -4    1    4    4    0  501  0.76699290506E+03  0.81228209989E+03  0.43586256691E+03  0.11991899364E+04  0.00000000000E+00 0. -1.
</event>
<event>
 8    1  0.7446554E-006  0.1138577E+04  0.7818608E-02  0.8654309E-01
         -2   -1    0    0    0  501 -0.00000000000E+00  0.00000000000E+00  0.32805655452E+03  0.32805655452E+03  0.00000000000E+00 0.  1.
          2   -1    0    0  502    0  0.00000000000E+00 -0.00000000000E+00 -0.40241938722E+04  0.40241938722E+04  0.00000000000E+00 0. -1.
    9000010    2    1    2  502    0  0.13487553036E+03 -0.50594148074E+03 -0.21559700829E+04  0.24429711265E+04  0.10226107450E+04 0.  0.
   -9000010    2    1    2    0  501 -0.13487553036E+03  0.50594148074E+03 -0.15401672348E+04  0.19092793002E+04  0.99953196279E+03 0.  0.
        -13    1    3    3    0    0  0.54476070930E+03 -0.48635788025E+03 -0.15162525901E+04  0.16829528057E+04  0.10566000000E+00 0.  1.
         13    1    4    4    0    0 -0.20677807064E+03 -0.90193424583E+02  0.30597770479E+02  0.22765820666E+03  0.10566000000E+00 0. -1.
          4    1    3    3  502    0 -0.40988517894E+03 -0.19583600494E+02 -0.63971749280E+03  0.76001832077E+03  0.00000000000E+00 0.  1.
         -4    1    4    4    0  501  0.71902540283E+02  0.59613490533E+03 -0.15707650053E+04  0.16816210936E+04  0.00000000000E+00 0. -1.
</event>
<event>
 8    1  0.7446554E-006  0.9877635E+03  0.7818608E-02  0.8786174E-01
         -2   -1    0    0    0  501 -0.00000000000E+00  0.00000000000E+00  0.45544550123E+03  0.45544550123E+03  0.00000000000E+00 0.  1.
          2   -1    0    0  502    0  0.00000000000E+00 -0.00000000000E+00 -0.24565745666E+04  0.24565745666E+04  0.00000000000E+00 0. -1.
    9000010    2    1    2  502    0 -0.38309983105E+02  0.17049341355E+03 -0.47953264852E+03  0.10977987849E+04  0.97194390385E+03 0.  0.
   -9000010    2    1    2    0  501  0.38309983105E+02 -0.17049341355E+03 -0.15215964168E+04  0.18142212829E+04  0.97242354394E+03 0.  0.
        -13    1    3    3    0    0  0.14105655890E+03  0.34627993151E+03 -0.68029150421E+03  0.77627526409E+03  0.10566000000E+00 0.  1.
         13    1    4    4    0    0 -0.13067209227E+03 -0.39059393146E+03 -0.14767778870E+04  0.15331378782E+04  0.10566000000E+00 0. -1.
          4    1    3    3  502    0 -0.17936654201E+03 -0.17578651797E+03  0.20075885568E+03  0.32152352080E+03  0.00000000000E+00 0.  1.
         -4    1    4    4    0  501  0.16898207538E+03  0.22010051791E+03 -0.44818529862E+02  0.28108340471E+03  0.00000000000E+00 0. -1.
</event>
<event>
 8    1  0.7446554E-006  0.1652032E+04  0.7818608E-02  0.8327003E-01
         -2   -1    0    0    0  501 -0.00000000000E+00  0.00000000000E+00  0.18846133514E+04  0.18846133514E+04  0.00000000000E+00 0. -1.
          2   -1    0    0  502    0  0.00000000000E+00 -0.00000000000E+00 -0.15781191096E+04  0.15781191096E+04  0.00000000000E+00 0.  1.
    9000010    2    1    2  502    0 -0.12272019858E+04 -0.39664311236E+03 -0.34432060947E+03  0.16782545638E+04  0.10171682389E+04 0.  0.
   -9000010    2    1    2    0  501  0.12272019858E+04  0.39664311236E+03  0.65081485123E+03  0.17844778972E+04  0.10475929184E+04 0.  0.
        -13    1    3    3    0    0 -0.52045543623E+03  0.20354344117E+03  0.21114036360E+03  0.59739773840E+03  0.10566000000E+00 0.  1.
         13    1    4    4    0    0  0.35032407737E+03 -0.36055415929E+03  0.18176375180E+03  0.53456929728E+03  0.10566000000E+00 0. -1.
          4    1    3    3  502    0 -0.70674654952E+03 -0.60018655354E+03 -0.55546097307E+03  0.10808568254E+04  0.00000000000E+00 0.  1.
         -4    1    4    4    0  501  0.87687790838E+03  0.75719727165E+03  0.46905109943E+03  0.12499086000E+04  0.00000000000E+00 0. -1.
</event>
<event>
 8    1  0.7446554E-006  0.1734040E+04  0.7818608E-02  0.8286223E-01
          2   -1    0    0  502    0  0.00000000000E+00  0.00000000000E+00  0.13941605745E+04  0.13941605745E+04  0.00000000000E+00 0. -1.
         -2   -1    0    0    0  501 -0.00000000000E+00 -0.00000000000E+00 -0.23022800319E+04  0.23022800319E+04  0.00000000000E+00 0.  1.
    9000010    2    1    2  502    0 -0.77867030626E+03  0.11534158887E+04 -0.92458917472E+03  0.19899961236E+04  0.10809827805E+04 0.  0.
   -9000010    2    1    2    0  501  0.77867030626E+03 -0.11534158887E+04  0.16469717331E+02  0.17064444827E+04  0.98741372428E+03 0.  0.
        -13    1    3    3    0    0 -0.10274111599E+04  0.10441390331E+04 -0.64635715669E+03  0.16011176087E+04  0.10566000000E+00 0.  1.
         13    1    4    4    0    0  0.44260685381E+03 -0.41611214204E+02  0.26654573436E+03  0.51834251210E+03  0.10566000000E+00 0. -1.
          4    1    3    3  502    0  0.24874085364E+03  0.10927685566E+03 -0.27823201802E+03  0.38887851484E+03  0.00000000000E+00 0.  1.
         -4    1    4    4    0  501  0.33606345245E+03 -0.11118046745E+04 -0.25007601703E+03  0.11881019706E+04  0.00000000000E+00 0. -1.
</event>
<event>
 8    1  0.7446554E-006  0.1595427E+04  0.7818608E-02  0.8356603E-01
          2   -1    0    0  502    0  0.00000000000E+00  0.00000000000E+00  0.33469863612E+04  0.33469863612E+04  0.00000000000E+00 0. -1.
         -2   -1    0    0    0  501 -0.00000000000E+00 -0.00000000000E+00 -0.76051595106E+03  0.76051595106E+03  0.00000000000E+00 0.  1.
    9000010    2    1    2  502    0 -0.11896638858E+03  0.12327139552E+04  0.13020550651E+04  0.20590901863E+04  0.10053697360E+04 0.  0.
   -9000010    2    1    2    0  501  0.11896638858E+03 -0.12327139552E+04  0.12844153451E+04  0.20484121260E+04  0.10062468694E+04 0.  0.
        -13    1    3    3    0    0 -0.21600325872E+03  0.13822798563E+04  0.12424441885E+04  0.18711019698E+04  0.10566000000E+00 0.  1.
         13    1    4    4    0    0  0.50104267065E+03 -0.59691984911E+03  0.96604601016E+03  0.12412098811E+04  0.10566000000E+00 0. -1.
          4    1    3    3  502    0  0.97036870138E+02 -0.14956590107E+03  0.59610876550E+02  0.18798821647E+03  0.00000000000E+00 0.  1.
         -4    1    4    4    0  501 -0.38207628207E+03 -0.63579410609E+03  0.31836933493E+03  0.80720224484E+03  0.00000000000E+00 0. -1.
</event>
<event>
 8    1  0.7446554E-006  0.1085345E+04  0.7818608E-02  0.8698294E-01
          1   -1    0    0  502    0  0.00000000000E+00  0.00000000000E+00  0.39939835959E+03  0.39939835959E+03  0.00000000000E+00 0. -1.
         -1   -1    0    0    0  501 -0.00000000000E+00 -0.00000000000E+00 -0.30450948255E+04  0.30450948255E+04  0.00000000000E+00 0.  1.
    9000010    2    1    2  502    0 -0.24187555478E+03 -0.33716532483E+03 -0.10103780692E+04  0.14783588540E+04  0.99624134536E+03 0.  0.
   -9000010    2    1    2    0  501  0.24187555478E+03  0.33716532483E+03 -0.16353183968E+04  0.19661343312E+04  0.10095710520E+04 0.  0.
        -13    1    3    3    0    0  0.23588951518E+03  0.20631781932E+03 -0.13135736604E+03  0.33980240540E+03  0.10566000000E+00 0.  1.
         13    1    4    4    0    0  0.12669464832E+02 -0.21905857551E+03 -0.12091116973E+04  0.12288605627E+04  0.10566000000E+00 0. -1.
          4    1    3    3  502    0 -0.47776506996E+03 -0.54348314415E+03 -0.87902070312E+03  0.11385564486E+04  0.00000000000E+00 0.  1.
         -4    1    4    4    0  501  0.22920608995E+03  0.55622390034E+03 -0.42620669949E+03  0.73727376847E+03  0.00000000000E+00 0. -1.
</event>
<event>
 8    1  0.7446554E-006  0.1103729E+04  0.7818608E-02  0.8682812E-01
          1   -1    0    0  502    0  0.00000000000E+00  0.00000000000E+00  0.15367690087E+04  0.15367690087E+04  0.00000000000E+00 0.  1.
         -1   -1    0    0    0  501 -0.00000000000E+00 -0.00000000000E+00 -0.83621671807E+03  0.83621671807E+03  0.00000000000E+00 0. -1.
    9000010    2    1    2  502    0  0.37874405335E+03 -0.17263602294E+03  0.72357157970E+02  0.10755088258E+04  0.98905683445E+03 0.  0.
   -9000010    2    1    2    0  501 -0.37874405335E+03  0.17263602294E+03  0.62819513264E+03  0.12974769009E+04  0.10562040188E+04 0.  0.
        -13    1    3    3    0    0 -0.16174523636E+01 -0.38190673254E+03  0.38362840584E+03  0.54131888333E+03  0.10566000000E+00 0.  1.
         13    1    4    4    0    0 -0.57073676599E+03 -0.13968271336E+03  0.71024916777E+03  0.92179477539E+03  0.10566000000E+00 0. -1.
          4    1    3    3  502    0  0.38036150571E+03  0.20927070960E+03 -0.31127124787E+03  0.53418994251E+03  0.00000000000E+00 0.  1.
         -4    1    4    4    0  501  0.19199271264E+03  0.31231873630E+03 -0.82054035127E+02  0.37568212552E+03  0.00000000000E+00 0. -1.
</event>
<event>
 8    1  0.7446554E-006  0.1145393E+04  0.7818608E-02  0.8648858E-01
          1   -1    0    0  502    0  0.00000000000E+00  0.00000000000E+00  0.92851887771E+03  0.92851887771E+03  0.00000000000E+00 0.  1.
         -1   -1    0    0    0  501 -0.00000000000E+00 -0.00000000000E+00 -0.14217716122E+04  0.14217716122E+04  0.00000000000E+00 0. -1.
    9000010    2    1    2  502    0  0.48133276808E+03 -0.21340486074E+03 -0.15192177442E+03  0.11381228765E+04  0.99750718709E+03 0.  0.
   -9000010    2    1    2    0  501 -0.48133276808E+03  0.21340486074E+03 -0.34133096009E+03  0.12121676134E+04  0.10371213191E+04 0.  0.
        -13    1    3    3    0    0 -0.23546019061E+03 -0.14754667043E+03 -0.29387956497E+03  0.40444620308E+03  0.10566000000E+00 0.  1.
         13    1    4    4    0    0 -0.66124578251E+03 -0.19691417130E+03 -0.82790318561E+02  0.69489238286E+03  0.10566000000E+00 0. -1.
          4    1    3    3  502    0  0.71679295869E+03 -0.65858190309E+02  0.14195779054E+03  0.73367667344E+03  0.00000000000E+00 0.  1.
         -4    1    4    4    0  501  0.17991301443E+03  0.41031903205E+03 -0.25854064152E+03  0.51727523055E+03  0.00000000000E+00 0. -1.
</event>
<event>
 8    1  0.7446554E-006  0.1324075E+04  0.7818608E-02  0.8518563E-01
         -1   -1    0    0    0  501 -0.00000000000E+00  0.00000000000E+00  0.14227776869E+04  0.14227776869E+04  0.00000000000E+00 0. -1.
          1   -1    0    0  502    0  0.00000000000E+00 -0.00000000000E+00 -0.19992049741E+04  0.19992049741E+04  0.00000000000E+00 0.  1.
    9000010    2    1    2  502    0  0.36117842557E+03 -0.76214394300E+03 -0.13467610907E+04  0.18825332553E+04  0.10093823739E+04 0.  0.
   -9000010    2    1    2    0  501 -0.36117842557E+03  0.76214394300E+03  0.77033380345E+03  0.15394494057E+04  0.10320741539E+04 0.  0.
        -13    1    3    3    0    0  0.48999161281E+03  0.49365277922E+02 -0.54419503588E+03  0.73394615575E+03  0.10566000000E+00 0.  1.
         13    1    4    4    0    0 -0.49790092708E+02  0.66522933964E+03  0.95481387167E+03  0.11647654993E+04  0.10566000000E+00 0. -1.
          4    1    3    3  502    0 -0.12881318724E+03 -0.81150922092E+03 -0.80256605483E+03  0.11485870995E+04  0.00000000000E+00 0.  1.
         -4    1    4    4    0  501 -0.31138833287E+03  0.96914603361E+02 -0.18448006822E+03  0.37468390646E+03  0.00000000000E+00 0. -1.
</event>
<event>
 8    1  0.7446554E-006  0.1524821E+04  0.7818608E-02  0.8395356E-01
          1   -1    0    0  502    0  0.00000000000E+00  0.00000000000E+00  0.24748114492E+04  0.24748114492E+04  0.00000000000E+00 0. -1.
         -1   -1    0    0    0  501 -0.00000000000E+00 -0.00000000000E+00 -0.10740638148E+04  0.10740638148E+04  0.00000000000E+00 0.  1.
    9000010    2    1    2  502    0  0.91107514472E+03 -0.68342805687E+03  0.13291881114E+04  0.20242160318E+04  0.10166502249E+04 0.  0.
   -9000010    2    1    2    0  501 -0.91107514472E+03  0.68342805687E+03  0.71559523035E+02  0.15246592321E+04  0.10111049305E+04 0.  0.
        -13    1    3    3    0    0 -0.21068245284E+03 -0.24265503408E+03  0.27223928916E+03  0.42116837871E+03  0.10566000000E+00 0.  1.
         13    1    4    4    0    0  0.74253022296E+00  0.54468626517E+03  0.22562386347E+03  0.58956748363E+03  0.10566000000E+00 0. -1.
          4    1    3    3  502    0  0.11217575976E+04 -0.44077302279E+03  0.10569488222E+04  0.16030476531E+04  0.00000000000E+00 0.  1.
         -4    1    4    4    0  501 -0.91181767494E+03  0.13874179170E+03 -0.15406434044E+03  0.93509174849E+03  0.00000000000E+00 0. -1.
</event>
<event>
 8    1  0.7446554E-006  0.1068172E+04  0.7818608E-02  0.8713048E-01
         -1   -1    0    0    0  501 -0.00000000000E+00  0.00000000000E+00  0.29198051944E+04  0.29198051944E+04  0.00000000000E+00 0. -1.
          1   -1    0    0  502    0  0.00000000000E+00 -0.00000000000E+00 -0.39084065748E+03  0.39084065748E+03  0.00000000000E+00 0.  1.
    9000010    2    1    2  502    0  0.25494750338E+03 -0.22592372276E+03  0.12504512232E+04  0.16358154065E+04  0.99811022669E+03 0.  0.
   -9000010    2    1    2    0  501 -0.25494750338E+03  0.22592372276E+03  0.12785133138E+04  0.16748304454E+04  0.10268500228E+04 0.  0.
        -13    1    3    3    0    0  0.16409528417E+02 -0.60577073452E+03  0.73027867893E+03  0.94896491794E+03  0.10566000000E+00 0.  1.
         13    1    4    4    0    0  0.51589972471E+02  0.42479810827E+03  0.12347762849E+04  0.13068234169E+04  0.10566000000E+00 0. -1.
          4    1    3    3  502    0  0.23853797497E+03  0.37984701176E+03  0.52017254423E+03  0.68685048855E+03  0.00000000000E+00 0.  1.
         -4    1    4    4    0  501 -0.30653747585E+03 -0.19887438551E+03  0.43737028840E+02  0.36800702848E+03  0.00000000000E+00 0. -1.
</event>
<event>
 8    1  0.7446554E-006  0.1113482E+04  0.7818608E-02  0.8674725E-01
          4   -1    0    0  502    0  0.00000000000E+00  0.00000000000E+00  0.45251538534E+03  0.45251538534E+03  0.00000000000E+00 0. -1.
         -4   -1    0    0    0  501 -0.00000000000E+00 -0.00000000000E+00 -0.31661178743E+04  0.31661178743E+04  0.00000000000E+00 0.  1.
    9000010    2    1    2  502    0  0.39960824537E+03 -0.30909172047E+03 -0.20210339149E+04  0.23076443697E+04  0.99268323775E+03 0.  0.
   -9000010    2    1    2    0  501 -0.39960824537E+03  0.30909172047E+03 -0.69256857405E+03  0.13109888899E+04  0.99187509206E+03 0.  0.
        -13    1    3    3    0    0  0.57358463069E+03 -0.54549594029E+03 -0.12176651801E+04  0.14523338637E+04  0.10566000000E+00 0.  1.
         13    1    4    4    0    0 -0.69471784010E+03  0.22168452337E+03 -0.68891498981E+03  0.10031853167E+04  0.10566000000E+00 0. -1.
          4    1    3    3  502    0 -0.17397638532E+03  0.23640421982E+03 -0.80336873479E+03  0.85531050610E+03  0.00000000000E+00 0.  1.
         -4    1    4    4    0  501  0.29510959473E+03  0.87407197102E+02 -0.36535842400E+01  0.30780357322E+03  0.00000000000E+00 0. -1.
</event>
<event>
 8    1  0.7446554E-006  0.1132862E+04  0.7818608E-02  0.8658909E-01
          2   -1    0    0  502    0  0.00000000000E+00  0.00000000000E+00  0.12449413411E+04  0.12449413411E+04  0.00000000000E+00 0. -1.
         -2   -1    0    0    0  501 -0.00000000000E+00 -0.00000000000E+00 -0.10340300307E+04  0.10340300307E+04  0.00000000000E+00 0.  1.
    9000010    2    1    2  502    0  0.33334180806E+03 -0.42087206967E+03  0.16805495758E+03  0.11422549073E+04  0.99410952333E+03 0.  0.
   -9000010    2    1    2    0  501 -0.33334180806E+03  0.42087206967E+03  0.42856352756E+02  0.11367164646E+04  0.10010182785E+04 0.  0.
        -13    1    3    3    0    0  0.31359023174E+03 -0.46724139341E+03 -0.32285841043E+03  0.64876106349E+03  0.10566000000E+00 0.  1.
         13    1    4    4    0    0  0.13973367705E+03  0.59983536465E+03  0.11269963768E+03  0.62612234003E+03  0.10566000000E+00 0. -1.
          4    1    3    3  502    0  0.19751576314E+02  0.46369323735E+02  0.49091336801E+03  0.49349384377E+03  0.00000000000E+00 0.  1.
         -4    1    4    4    0  501 -0.47307548511E+03 -0.17896329498E+03 -0.69843284920E+02  0.51059412453E+03  0.00000000000E+00 0. -1.
</event>
<event>
 8    1  0.7446554E-006  0.1194172E+04  0.7818608E-02  0.8610964E-01
         -2   -1    0    0    0  501 -0.00000000000E+00  0.00000000000E+00  0.49927520436E+03  0.49927520436E+03  0.00000000000E+00 0. -1.
          2   -1    0    0  502    0  0.00000000000E+00 -0.00000000000E+00 -0.34484112498E+04  0.34484112498E+04  0.00000000000E+00 0.  1.
    9000010    2    1    2  502    0  0.45618979951E+03  0.45257321946E+03 -0.65197553068E+03  0.13565592879E+04  0.10011240467E+04 0.  0.
   -9000010    2    1    2    0  501 -0.45618979951E+03 -0.45257321946E+03 -0.22971605147E+04  0.25911271662E+04  0.10119594404E+04 0.  0.
        -13    1    3    3    0    0 -0.16371698007E+03  0.20440329579E+03 -0.63691299615E+03  0.68865240341E+03  0.10566000000E+00 0.  1.
         13    1    4    4    0    0 -0.32773582598E+03  0.23863473347E+03 -0.13627285942E+04  0.14217547399E+04  0.10566000000E+00 0. -1.
          4    1    3    3  502    0  0.61990677958E+03  0.24816992367E+03 -0.15062534523E+02  0.66790688447E+03  0.00000000000E+00 0.  1.
         -4    1    4    4    0  501 -0.12845397353E+03 -0.69120795293E+03 -0.93443192048E+03  0.11693724264E+04  0.00000000000E+00 0. -1.
</event>
<event>
 8    1  0.7446554E-006  0.1111910E+04  0.7818608E-02  0.8676023E-01
          4   -1    0    0  502    0  0.00000000000E+00  0.00000000000E+00  0.16396548032E+04  0.16396548032E+04  0.00000000000E+00 0.  1.
         -4   -1    0    0    0  501 -0.00000000000E+00 -0.00000000000E+00 -0.23462902003E+04  0.23462902003E+04  0.00000000000E+00 0. -1.
    9000010    2    1    2  502    0  0.53180645973E+02  0.49412327652E+03  0.12890162313E+04  0.16987646551E+04  0.98856083044E+03 0.  0.
   -9000010    2    1    2    0  501 -0.53180645973E+02 -0.49412327652E+03 -0.19956516285E+04  0.22871803484E+04  0.10007909524E+04 0.  0.
        -13    1    3    3    0    0  0.32700325019E+03  0.66004740692E+03  0.64305706508E+03  0.97781189659E+03  0.10566000000E+00 0.  1.
         13    1    4    4    0    0 -0.17643959566E+03 -0.71509591566E+03 -0.90137572308E+03  0.11640323470E+04  0.10566000000E+00 0. -1.
          4    1    3    3  502    0 -0.27382260421E+03 -0.16592413040E+03  0.64595916622E+03  0.72095275854E+03  0.00000000000E+00 0.  1.
         -4    1    4    4    0  501  0.12325894969E+03  0.22097263914E+03 -0.10942759054E+04  0.11231480014E+04  0.00000000000E+00 0. -1.
</event>
<event>
 8    1  0.7446554E-006  0.1257828E+04  0.7818608E-02  0.8564244E-01
         -4   -1    0    0    0  501 -0.00000000000E+00  0.00000000000E+00  0.12782965654E+04  0.12782965654E+04  0.00000000000E+00 0. -1.
          4   -1    0    0  502    0  0.00000000000E+00 -0.00000000000E+00 -0.13221788678E+04  0.13221788678E+04  0.00000000000E+00 0.  1.
    9000010    2    1    2  502    0  0.14253458679E+03  0.76031787121E+03 -0.35064491527E+03  0.13067106718E+04  0.99304659992E+03 0.  0.
   -9000010    2    1    2    0  501 -0.14253458679E+03 -0.76031787121E+03  0.30676261286E+03  0.12937647614E+04  0.99061828342E+03 0.  0.
        -13    1    3    3    0    0 -0.22638917564E+03  0.70434720345E+03 -0.51246572774E+03  0.89998787499E+03  0.10566000000E+00 0.  1.
         13    1    4    4    0    0 -0.38380668924E+03  0.24761240616E+02  0.27320160205E+03  0.47176246170E+03  0.10566000000E+00 0. -1.
          4    1    3    3  502    0  0.36892376243E+03  0.55970667757E+02  0.16182081247E+03  0.40672279686E+03  0.00000000000E+00 0.  1.
         -4    1    4    4    0  501  0.24127210244E+03 -0.78507911183E+03  0.33561010812E+02  0.82200229969E+03  0.00000000000E+00 0. -1.
</event>
<event>
 8    1  0.7446554E-006  0.1172641E+04  0.7818608E-02  0.8627454E-01
          2   -1    0    0  502    0  0.00000000000E+00  0.00000000000E+00  0.22349829843E+04  0.22349829843E+04  0.00000000000E+00 0.  1.
         -2   -1    0    0    0  501 -0.00000000000E+00 -0.00000000000E+00 -0.65297565953E+03  0.65297565953E+03  0.00000000000E+00 0. -1.
    9000010    2    1    2  502    0  0.20396555813E+03 -0.59151511993E+03  0.44179800296E+03  0.12499010393E+04  0.98771202616E+03 0.  0.
   -9000010    2    1    2    0  501 -0.20396555813E+03  0.59151511993E+03  0.11402093218E+04  0.16380576045E+04  0.99582294220E+03 0.  0.
        -13    1    3    3    0    0 -0.61262956679E+02 -0.80129102937E+03  0.18333257109E+03  0.82427623185E+03  0.10566000000E+00 0.  1.
         13    1    4    4    0    0 -0.52510116739E+03  0.55271627400E+03  0.10584182587E+04  0.13044062776E+04  0.10566000000E+00 0. -1.
          4    1    3    3  502    0  0.26522851481E+03  0.20977590944E+03  0.25846543187E+03  0.42562480745E+03  0.00000000000E+00 0.  1.
         -4    1    4    4    0  501  0.32113560926E+03  0.38798845924E+02  0.81791063174E+02  0.33365132697E+03  0.00000000000E+00 0. -1.
</event>
<event>
 8    1  0.7446554E-006  0.1223681E+04  0.7818608E-02  0.8588940E-01
          2   -1    0    0  502    0  0.00000000000E+00  0.00000000000E+00  0.15135891655E+04  0.15135891655E+04  0.00000000000E+00 0. -1.
         -2   -1    0    0    0  501 -0.00000000000E+00 -0.00000000000E+00 -0.10149099131E+04  0.10149099131E+04  0.00000000000E+00 0.  1.
    9000010    2    1    2  502    0 -0.58209450246E+03  0.38985873360E+03  0.50253895323E+02  0.12326364514E+04  0.10129379672E+04 0.  0.
   -9000010    2    1    2    0  501  0.58209450246E+03 -0.38985873360E+03  0.44842535712E+03  0.12958626272E+04  0.99365527510E+03 0.  0.
        -13    1    3    3    0    0 -0.39675020242E+03  0.71691745732E+03  0.17248910823E+03  0.83733736771E+03  0.10566000000E+00 0.  1.
         13    1    4    4    0    0  0.21088067741E+03  0.27685384908E+03  0.40148986648E+03  0.53133119418E+03  0.10566000000E+00 0. -1.
          4    1    3    3  502    0 -0.18534430004E+03 -0.32705872372E+03 -0.12223521291E+03  0.39529908373E+03  0.00000000000E+00 0.  1.
         -4    1    4    4    0  501  0.37121382505E+03 -0.66671258268E+03  0.46935490640E+02  0.76453143303E+03  0.00000000000E+00 0. -1.
</event>
<event>
 8    1  0.7446554E-006  0.1250620E+04  0.7818608E-02  0.8569389E-01
         -2   -1    0    0    0  501 -0.00000000000E+00  0.00000000000E+00  0.14496523915E+04  0.14496523915E+04  0.00000000000E+00 0. -1.
          2   -1    0    0  502    0  0.00000000000E+00 -0.00000000000E+00 -0.11599392166E+04  0.11599392166E+04  0.00000000000E+00 0.  1.
    9000010    2    1    2  502    0 -0.60186571784E+03  0.45617662818E+03  0.48980671481E+03  0.13439677567E+04  0.99799762262E+03 0.  0.
   -9000010    2    1    2    0  501  0.60186571784E+03 -0.45617662818E+03 -0.20009353996E+03  0.12656238514E+04  0.99570419814E+03 0.  0.
        -13    1    3    3    0    0  0.69886838060E+02  0.55460171386E+03  0.12326906874E+03  0.57241812133E+03  0.10566000000E+00 0.  1.
         13    1    4    4    0    0  0.60926147432E+02 -0.10556536390E+03  0.37959611927E+03  0.39868441959E+03  0.10566000000E+00 0. -1.
          4    1    3    3  502    0 -0.67175255590E+03 -0.98425085683E+02  0.36653764608E+03  0.77154963537E+03  0.00000000000E+00 0.  1.
         -4    1    4    4    0  501  0.54093957040E+03 -0.35061126428E+03 -0.57968965923E+03  0.86693943185E+03  0.00000000000E+00 0. -1.
</event>
<event>
 8    1  0.7446554E-006  0.1292708E+04  0.7818608E-02  0.8539840E-01
         -2   -1    0    0    0  501 -0.00000000000E+00  0.00000000000E+00  0.77932499405E+03  0.77932499405E+03  0.00000000000E+00 0. -1.
          2   -1    0    0  502    0  0.00000000000E+00 -0.00000000000E+00 -0.29463999395E+04  0.29463999395E+04  0.00000000000E+00 0.  1.
    9000010    2    1    2  502    0 -0.16159475998E+03  0.74954175627E+03 -0.13291555011E+03  0.13329780356E+04  0.10822375844E+04 0.  0.
   -9000010    2    1    2    0  501  0.16159475998E+03 -0.74954175627E+03 -0.20341593953E+04  0.23927468979E+04  0.99975375025E+03 0.  0.
        -13    1    3    3    0    0 -0.33828094871E+03 -0.17167572549E+02  0.28446489828E+03  0.44232229802E+03  0.10566000000E+00 0.  1.
         13    1    4    4    0    0  0.43038765267E+03 -0.54962492647E+03 -0.19132182732E+04  0.20365964901E+04  0.10566000000E+00 0. -1.
          4    1    3    3  502    0  0.17668618874E+03  0.76670932882E+03 -0.41738044839E+03  0.89065573758E+03  0.00000000000E+00 0.  1.
         -4    1    4    4    0  501 -0.26879289269E+03 -0.19991682980E+03 -0.12094112215E+03  0.35615040787E+03  0.00000000000E+00 0. -1.
</event>
<event>
 8    1  0.7446554E-006  0.1143190E+04  0.7818608E-02  0.8650615E-01
         -4   -1    0    0    0  501 -0.00000000000E+00  0.00000000000E+00  0.12903573210E+04  0.12903573210E+04  0.00000000000E+00 0. -1.
          4   -1    0    0  502    0  0.00000000000E+00 -0.00000000000E+00 -0.17358269479E+04  0.17358269479E+04  0.00000000000E+00 0.  1.
    9000010    2    1    2  502    0  0.47570829378E+03  0.31859028858E+03 -0.11974358667E+04  0.16454574335E+04  0.97256329236E+03 0.  0.
   -9000010    2    1    2    0  501 -0.47570829378E+03 -0.31859028858E+03  0.75196623985E+03  0.13807268354E+04  0.10065561164E+04 0.  0.
        -13    1    3    3    0    0 -0.17397704973E+03 -0.22293707334E+03 -0.29774255757E+03  0.41063316263E+03  0.10566000000E+00 0.  1.
         13    1    4    4    0    0  0.11112420357E+03  0.15514123889E+03 -0.12187728157E+03  0.22643205504E+03  0.10566000000E+00 0. -1.
          4    1    3    3  502    0  0.64968534351E+03  0.54152736192E+03 -0.89969330917E+03  0.12348242708E+04  0.00000000000E+00 0.  1.
         -4    1    4    4    0  501 -0.58683249736E+03 -0.47373152747E+03  0.87384352142E+03  0.11542947804E+04  0.00000000000E+00 0. -1.
</event>
<event>
 8    1  0.7446554E-006  0.1214440E+04  0.7818608E-02  0.8595767E-01
         -1   -1    0    0    0  501 -0.00000000000E+00  0.00000000000E+00  0.35533582501E+04  0.35533582501E+04  0.00000000000E+00 0.  1.
          1   -1    0    0  502    0  0.00000000000E+00 -0.00000000000E+00 -0.42798323004E+03  0.42798323004E+03  0.00000000000E+00 0. -1.
    9000010    2    1    2  502    0  0.10799176845E+03 -0.71165302706E+03  0.11955432092E+04  0.16914489177E+04  0.95580522233E+03 0.  0.
   -9000010    2    1    2    0  501 -0.10799176845E+03  0.71165302706E+03  0.19298318108E+04  0.22898925624E+04  0.10006222446E+04 0.  0.
        -13    1    3    3    0    0  0.20107603998E+03 -0.69241152495E+03  0.13381681076E+04  0.15200523639E+04  0.10566000000E+00 0.  1.
         13    1    4    4    0    0 -0.30614755817E+03  0.86213349259E+02  0.14304400336E+04  0.14653729115E+04  0.10566000000E+00 0. -1.
          4    1    3    3  502    0 -0.93084271528E+02 -0.19241502108E+02 -0.14262489836E+03  0.17139655376E+03  0.00000000000E+00 0.  1.
         -4    1    4    4    0  501  0.19815578972E+03  0.62543967780E+03  0.49939177720E+03  0.82451965089E+03  0.00000000000E+00 0. -1.
</event>
<event>
 8    1  0.7446554E-006  0.1153251E+04  0.7818608E-02  0.8642622E-01
          1   -1    0    0  502    0  0.00000000000E+00  0.00000000000E+00  0.12218577167E+04  0.12218577167E+04  0.00000000000E+00 0. -1.
         -1   -1    0    0    0  501 -0.00000000000E+00 -0.00000000000E+00 -0.12510384179E+04  0.12510384179E+04  0.00000000000E+00 0.  1.
    9000010    2    1    2  502    0 -0.57413468941E+03  0.18637853378E+03 -0.46029336134E+03  0.12448372609E+04  0.98660135223E+03 0.  0.
   -9000010    2    1    2    0  501  0.57413468941E+03 -0.18637853378E+03  0.43111266019E+03  0.12280588737E+04  0.97872512588E+03 0.  0.
        -13    1    3    3    0    0 -0.13979677602E+03  0.40291679695E+03 -0.60335721405E+03  0.73886739187E+03  0.10566000000E+00 0.  1.
         13    1    4    4    0    0 -0.95927000776E+02  0.24849863808E+03 -0.81926551365E+02  0.27868536666E+03  0.10566000000E+00 0. -1.
          4    1    3    3  502    0 -0.43433791340E+03 -0.21653826317E+03  0.14306385271E+03  0.50596986905E+03  0.00000000000E+00 0.  1.
         -4    1    4    4    0  501  0.67006169019E+03 -0.43487717186E+03  0.51303921155E+03  0.94937350703E+03  0.00000000000E+00 0. -1.
</event>
<event>
 8    1  0.7446554E-006  0.1537164E+04  0.7818608E-02  0.8388427E-01
          2   -1    0    0  502    0  0.00000000000E+00  0.00000000000E+00  0.13570731444E+04  0.13570731444E+04  0.00000000000E+00 0. -1.
         -2   -1    0    0    0  501 -0.00000000000E+00 -0.00000000000E+00 -0.18382252533E+04  0.18382252533E+04  0.00000000000E+00 0.  1.
    9000010    2    1    2  502    0  0.71624399143E+03  0.90792147849E+03  0.12784319115E+03  0.15329849015E+04  0.99818433182E+03 0.  0.
   -9000010    2    1    2    0  501 -0.71624399143E+03 -0.90792147849E+03 -0.60899529996E+03  0.16623134962E+04  0.10271728277E+04 0.  0.
        -13    1    3    3    0    0  0.99214060700E+02  0.90236004188E+03  0.12153807144E+03  0.91589769570E+03  0.10566000000E+00 0.  1.
         13    1    4    4    0    0  0.21720515058E+03 -0.23926989526E+02 -0.24048842936E+03  0.32493887746E+03  0.10566000000E+00 0. -1.
          4    1    3    3  502    0  0.61702993074E+03  0.55614366066E+01  0.63051197003E+01  0.61708720578E+03  0.00000000000E+00 0.  1.
         -4    1    4    4    0  501 -0.93344914201E+03 -0.88399448896E+03 -0.36850687060E+03  0.13373746188E+04  0.00000000000E+00 0. -1.
</event>
<event>
 8    1  0.7446554E-006  0.1150836E+04  0.7818608E-02  0.8644533E-01
          1   -1    0    0  502    0  0.00000000000E+00  0.00000000000E+00  0.11481134169E+04  0.11481134169E+04  0.00000000000E+00 0. -1.
         -1   -1    0    0    0  501 -0.00000000000E+00 -0.00000000000E+00 -0.13281446354E+04  0.13281446354E+04  0.00000000000E+00 0.  1.
    9000010    2    1    2  502    0  0.48231317065E+03 -0.29294028271E+03  0.35636070719E+03  0.12290747262E+04  0.10320812589E+04 0.  0.
   -9000010    2    1    2    0  501 -0.48231317065E+03  0.29294028271E+03 -0.53639192577E+03  0.12471833261E+04  0.97432538051E+03 0.  0.
        -13    1    3    3    0    0  0.46799893382E+03 -0.36751827501E+03  0.67596807474E+03  0.90056956076E+03  0.10566000000E+00 0.  1.
         13    1    4    4    0    0 -0.16456149591E+03  0.28525960673E+03 -0.78003205951E+03  0.84670157328E+03  0.10566000000E+00 0. -1.
          4    1    3    3  502    0  0.14314236830E+02  0.74577992303E+02 -0.31960736755E+03  0.32850516542E+03  0.00000000000E+00 0.  1.
         -4    1    4    4    0  501 -0.31775167474E+03  0.76806759769E+01  0.24364013374E+03  0.40048175284E+03  0.00000000000E+00 0. -1.
</event>
<event>
 8    1  0.7446554E-006  0.1132835E+04  0.7818608E-02  0.8658931E-01
          2   -1    0    0  502    0  0.00000000000E+00  0.00000000000E+00  0.22208064261E+04  0.22208064261E+04  0.00000000000E+00 0. -1.
         -2   -1    0    0    0  501 -0.00000000000E+00 -0.00000000000E+00 -0.63722138001E+03  0.63722138001E+03  0.00000000000E+00 0.  1.
    9000010    2    1    2  502    0  0.20363151983E+03 -0.50586009511E+03  0.12197310319E+04  0.16562042209E+04  0.97872794961E+03 0.  0.
   -9000010    2    1    2    0  501 -0.20363151983E+03  0.50586009511E+03  0.36385401420E+03  0.12018235853E+04  0.10072884169E+04 0.  0.
        -13    1    3    3    0    0  0.37640880407E+03 -0.59441611467E+03  0.39076324218E+03  0.80480434129E+03  0.10566000000E+00 0.  1.
         13    1    4    4    0    0  0.31319316831E+03 -0.11841987751E+03  0.97977235674E+02  0.34887358447E+03  0.10566000000E+00 0. -1.
          4    1    3    3  502    0 -0.17277728423E+03  0.88556019559E+02  0.82896778974E+03  0.85139987960E+03  0.00000000000E+00 0.  1.
         -4    1    4    4    0  501 -0.51682468814E+03  0.62427997261E+03  0.26587677852E+03  0.85295000078E+03  0.00000000000E+00 0. -1.
</event>
<event>
 8    1  0.7446554E-006  0.1067209E+04  0.7818608E-02  0.8713884E-01
         -2   -1    0    0    0  501 -0.00000000000E+00  0.00000000000E+00  0.27292460576E+04  0.27292460576E+04  0.00000000000E+00 0.  1.
          2   -1    0    0  502    0  0.00000000000E+00 -0.00000000000E+00 -0.42724336434E+03  0.42724336434E+03  0.00000000000E+00 0. -1.
    9000010    2    1    2  502    0  0.25893548635E+03 -0.27477247069E+03  0.13855208127E+04  0.17454166579E+04  0.99210074613E+03 0.  0.
   -9000010    2    1    2    0  501 -0.25893548635E+03  0.27477247069E+03  0.91648188055E+03  0.14110727640E+04  0.10043106150E+04 0.  0.
        -13    1    3    3    0    0  0.20359132115E+02 -0.46257934794E+03  0.17112249162E+03  0.49363657249E+03  0.10566000000E+00 0.  1.
         13    1    4    4    0    0 -0.44472494457E+03 -0.25396831823E+03  0.41914817228E+03  0.66178953186E+03  0.10566000000E+00 0. -1.
          4    1    3    3  502    0  0.23857635423E+03  0.18780687724E+03  0.12143983211E+04  0.12517800854E+04  0.00000000000E+00 0.  1.
         -4    1    4    4    0  501  0.18578945822E+03  0.52874078892E+03  0.49733370827E+03  0.74928323219E+03  0.00000000000E+00 0. -1.
</event>
<event>
 8    1  0.7446554E-006  0.1382246E+04  0.7818608E-02  0.8480666E-01
         -2   -1    0    0    0  501 -0.00000000000E+00  0.00000000000E+00  0.83049804681E+03  0.83049804681E+03  0.00000000000E+00 0. -1.
          2   -1    0    0  502    0  0.00000000000E+00 -0.00000000000E+00 -0.23394194188E+04  0.23394194188E+04  0.00000000000E+00 0.  1.
    9000010    2    1    2  502    0  0.43267175189E+02  0.95807292133E+03 -0.95709335467E+03  0.16787624489E+04  0.99118106276E+03 0.  0.
   -9000010    2    1    2    0  501 -0.43267175189E+02 -0.95807292133E+03 -0.55182801728E+03  0.14911550167E+04  0.99962660635E+03 0.  0.
        -13    1    3    3    0    0 -0.27917658659E+03  0.28002710680E+02  0.33100294026E+02  0.28252320070E+03  0.10566000000E+00 0.  1.
         13    1    4    4    0    0  0.43035636953E+03 -0.70358219174E+03 -0.46411560442E+03  0.94638142985E+03  0.10566000000E+00 0. -1.
          4    1    3    3  502    0  0.32244376178E+03  0.93007021065E+03 -0.99019364870E+03  0.13962392482E+04  0.00000000000E+00 0.  1.
         -4    1    4    4    0  501 -0.47362354472E+03 -0.25449072959E+03 -0.87712412862E+02  0.54477358685E+03  0.00000000000E+00 0. -1.
</event>
<event>
 8    1  0.7446554E-006  0.1332447E+04  0.7818608E-02  0.8512987E-01
          2   -1    0    0  502    0  0.00000000000E+00  0.00000000000E+00  0.12394905248E+04  0.12394905248E+04  0.00000000000E+00 0. -1.
         -2   -1    0    0    0  501 -0.00000000000E+00 -0.00000000000E+00 -0.16893029775E+04  0.16893029775E+04  0.00000000000E+00 0.  1.
    9000010    2    1    2  502    0 -0.71201941568E+03 -0.53315640922E+03 -0.79559687743E+03  0.15495047505E+04  0.98831329818E+03 0.  0.
   -9000010    2    1    2    0  501  0.71201941568E+03  0.53315640922E+03  0.34578442475E+03  0.13792887519E+04  0.99581282762E+03 0.  0.
        -13    1    3    3    0    0 -0.10148797530E+03  0.22567506658E+03 -0.45461208072E+03  0.51759173091E+03  0.10566000000E+00 0.  1.
         13    1    4    4    0    0  0.94932097634E+03  0.54911806882E+03  0.26684149952E+03  0.11286918830E+04  0.10566000000E+00 0. -1.
          4    1    3    3  502    0 -0.61053144039E+03 -0.75883147579E+03 -0.34098479671E+03  0.10319130196E+04  0.00000000000E+00 0.  1.
         -4    1    4    4    0  501 -0.23730156066E+03 -0.15961659604E+02  0.78942925223E+02  0.25059686891E+03  0.00000000000E+00 0. -1.
</event>
<event>
 8    1  0.7446554E-006  0.1432705E+04  0.7818608E-02  0.8449312E-01
          1   -1    0    0  502    0  0.00000000000E+00  0.00000000000E+00  0.17631237191E+04  0.17631237191E+04  0.00000000000E+00 0.  1.
         -1   -1    0    0    0  501 -0.00000000000E+00 -0.00000000000E+00 -0.13736272677E+04  0.13736272677E+04  0.00000000000E+00 0. -1.
    9000010    2    1    2  502    0  0.34325643145E+03 -0.97371982359E+03  0.80582090896E+03  0.16346896804E+04  0.97821661259E+03 0.  0.
   -9000010    2    1    2    0  501 -0.34325643145E+03  0.97371982359E+03 -0.41632445754E+03  0.15020613064E+04  0.10084179896E+04 0.  0.
        -13    1    3    3    0    0  0.19777391742E+03 -0.11379277668E+04  0.81744962850E+03  0.14149975375E+04  0.10566000000E+00 0.  1.
         13    1    4    4    0    0 -0.42016494296E+03  0.11616586729E+04 -0.39948481008E+03  0.12982979536E+04  0.10566000000E+00 0. -1.
          4    1    3    3  502    0  0.14548251403E+03  0.16420794322E+03 -0.11628719545E+02  0.21969214283E+03  0.00000000000E+00 0.  1.
         -4    1    4    4    0  501  0.76908511509E+02 -0.18793884934E+03 -0.16839647466E+02  0.20376335284E+03  0.00000000000E+00 0. -1.
</event>
<event>
 8    1  0.7446554E-006  0.1364529E+04  0.7818608E-02  0.8492002E-01
         -1   -1    0    0    0  501 -0.00000000000E+00  0.00000000000E+00  0.16763866449E+04  0.16763866449E+04  0.00000000000E+00 0. -1.
          1   -1    0    0  502    0  0.00000000000E+00 -0.00000000000E+00 -0.12573687654E+04  0.12573687654E+04  0.00000000000E+00 0.  1.
    9000010    2    1    2  502    0 -0.48430660655E+03  0.74358944105E+03 -0.29439509975E+03  0.13691077418E+04  0.10001546820E+04 0.  0.
   -9000010    2    1    2    0  501  0.48430660655E+03 -0.74358944105E+03  0.71341297927E+03  0.15646476685E+04  0.10731663904E+04 0.  0.
        -13    1    3    3    0    0 -0.77738683276E+03  0.36666435452E+03 -0.19736280296E+03  0.88188725117E+03  0.10566000000E+00 0.  1.
         13    1    4    4    0    0  0.56112062540E+03  0.28468694721E+02  0.89265211177E+02  0.56888936703E+03  0.10566000000E+00 0. -1.
          4    1    3    3  502    0  0.29308022621E+03  0.37692508653E+03 -0.97032296794E+02  0.48722049061E+03  0.00000000000E+00 0.  1.
         -4    1    4    4    0  501 -0.76814018856E+02 -0.77205813577E+03  0.62414776810E+03  0.99575830146E+03  0.00000000000E+00 0. -1.
</event>
<event>
 8    1  0.7446554E-006  0.1026137E+04  0.7818608E-02  0.8750414E-01
         -2   -1    0    0    0  501 -0.00000000000E+00  0.00000000000E+00  0.12555673329E+04  0.12555673329E+04  0.00000000000E+00 0. -1.
          2   -1    0    0  502    0  0.00000000000E+00 -0.00000000000E+00 -0.83928812223E+03  0.83928812223E+03  0.00000000000E+00 0.  1.
    9000010    2    1    2  502    0  0.36582594671E+02 -0.30276947985E+03  0.18995365279E+03  0.10623891756E+04  0.99979034107E+03 0.  0.
   -9000010    2    1    2    0  501 -0.36582594671E+02  0.30276947985E+03  0.22632555790E+03  0.10324662795E+04  0.96008109870E+03 0.  0.
        -13    1    3    3    0    0  0.40816414936E+03 -0.23295410634E+03  0.41108662230E+03  0.62438594690E+03  0.10566000000E+00 0.  1.
         13    1    4    4    0    0 -0.35387808340E+03 -0.20187981676E+03  0.47858745699E+02  0.41021412583E+03  0.10566000000E+00 0. -1.
          4    1    3    3  502    0 -0.37158155469E+03 -0.69815373517E+02 -0.22113296951E+03  0.43800322872E+03  0.00000000000E+00 0.  1.
         -4    1    4    4    0  501  0.31729548873E+03  0.50464929661E+03  0.17846681221E+03  0.62225215371E+03  0.00000000000E+00 0. -1.
</event>
<event>
 8    1  0.7446554E-006  0.1030706E+04  0.7818608E-02  0.8746264E-01
          1   -1    0    0  502    0  0.00000000000E+00  0.00000000000E+00  0.42586100192E+03  0.42586100192E+03  0.00000000000E+00 0.  1.
         -1   -1    0    0    0  501 -0.00000000000E+00 -0.00000000000E+00 -0.27802893638E+04  0.27802893638E+04  0.00000000000E+00 0. -1.
    9000010    2    1    2  502    0 -0.14189388909E+03  0.22349143307E+03 -0.66157680422E+03  0.12233049664E+04  0.99433841142E+03 0.  0.
   -9000010    2    1    2    0  501  0.14189388909E+03 -0.22349143307E+03 -0.16928515577E+04  0.19828453994E+04  0.99792143235E+03 0.  0.
        -13    1    3    3    0    0 -0.28486532587E+03  0.56276363271E+03 -0.27084586215E+03  0.68644639441E+03  0.10566000000E+00 0.  1.
         13    1    4    4    0    0 -0.15658641135E+03 -0.48980015694E+03 -0.47152908105E+03  0.69768415734E+03  0.10566000000E+00 0. -1.
          4    1    3    3  502    0  0.14297143678E+03 -0.33927219964E+03 -0.39073094207E+03  0.53685857195E+03  0.00000000000E+00 0.  1.
         -4    1    4    4    0  501  0.29848030044E+03  0.26630872387E+03 -0.12213224767E+04  0.12851612421E+04  0.00000000000E+00 0. -1.
</event>
<event>
 8    1  0.7446554E-006  0.1341060E+04  0.7818608E-02  0.8507294E-01
         -2   -1    0    0    0  501 -0.00000000000E+00  0.00000000000E+00  0.64675897220E+03  0.64675897220E+03  0.00000000000E+00 0. -1.
          2   -1    0    0  502    0  0.00000000000E+00 -0.00000000000E+00 -0.27807759469E+04  0.27807759469E+04  0.00000000000E+00 0.  1.
    9000010    2    1    2  502    0 -0.22226715897E+03 -0.86836271858E+03 -0.10571426797E+04  0.17068025927E+04  0.99607627419E+03 0.  0.
   -9000010    2    1    2    0  501  0.22226715897E+03  0.86836271858E+03 -0.10768742950E+04  0.17207323265E+04  0.99890189266E+03 0.  0.
        -13    1    3    3    0    0 -0.47252944154E+03 -0.77087901322E+03 -0.11114586197E+04  0.14327870744E+04  0.10566000000E+00 0.  1.
         13    1    4    4    0    0  0.60734041539E+03  0.66652108213E+03 -0.65127110310E+03  0.11123249498E+04  0.10566000000E+00 0. -1.
          4    1    3    3  502    0  0.25026228257E+03 -0.97483705357E+02  0.54315939991E+02  0.27401551822E+03  0.00000000000E+00 0.  1.
         -4    1    4    4    0  501 -0.38507325642E+03  0.20184163645E+03 -0.42560319188E+03  0.60840737664E+03  0.00000000000E+00 0. -1.
</event>
<event>
 8    1  0.7446554E-006  0.1379314E+04  0.7818608E-02  0.8482530E-01
         -2   -1    0    0    0  501 -0.00000000000E+00  0.00000000000E+00  0.94740700343E+03  0.94740700343E+03  0.00000000000E+00 0.  1.
          2   -1    0    0  502    0  0.00000000000E+00 -0.00000000000E+00 -0.31839044943E+04  0.31839044943E+04  0.00000000000E+00 0. -1.
    9000010    2    1    2  502    0 -0.11479443919E+03 -0.91445532047E+03 -0.23587528757E+04  0.27186818157E+04  0.98899413046E+03 0.  0.
   -9000010    2    1    2    0  501  0.11479443919E+03  0.91445532047E+03  0.12225538486E+03  0.14126296820E+04  0.10635647338E+04 0.  0.
        -13    1    3    3    0    0  0.42093237360E+03 -0.23320372534E+03 -0.74422846573E+03  0.88625282004E+03  0.10566000000E+00 0.  1.
         13    1    4    4    0    0  0.48119622422E+03  0.18174249985E+03  0.26885300611E+03  0.58039821891E+03  0.10566000000E+00 0. -1.
          4    1    3    3  502    0 -0.53572681279E+03 -0.68125159513E+03 -0.16145244099E+04  0.18324289957E+04  0.00000000000E+00 0.  1.
         -4    1    4    4    0  501 -0.36640178504E+03  0.73271282062E+03 -0.14659762126E+03  0.83223146308E+03  0.00000000000E+00 0. -1.
</event>
<event>
 8    1  0.7446554E-006  0.1321459E+04  0.7818608E-02  0.8520314E-01
          1   -1    0    0  502    0  0.00000000000E+00  0.00000000000E+00  0.15388338753E+04  0.15388338753E+04  0.00000000000E+00 0. -1.
         -1   -1    0    0    0  501 -0.00000000000E+00 -0.00000000000E+00 -0.12590170889E+04  0.12590170889E+04  0.00000000000E+00 0.  1.
    9000010    2    1    2  502    0 -0.22559341160E+03  0.79772910302E+03  0.56790233840E+03  0.13807483341E+04  0.94693652749E+03 0.  0.
   -9000010    2    1    2    0  501  0.22559341160E+03 -0.79772910302E+03 -0.28808555197E+03  0.14171026301E+04  0.11126196430E+04 0.  0.
        -13    1    3    3    0    0 -0.57518735770E+03  0.34078581630E+03  0.19998942364E+03  0.69783325356E+03  0.10566000000E+00 0.  1.
         13    1    4    4    0    0  0.31163370374E+03 -0.98338656916E+03  0.37827327538E+02  0.10322769142E+04  0.10566000000E+00 0. -1.
          4    1    3    3  502    0  0.34959394609E+03  0.45694328673E+03  0.36791291476E+03  0.68291508058E+03  0.00000000000E+00 0.  1.
         -4    1    4    4    0  501 -0.86040292135E+02  0.18565746614E+03 -0.32591287951E+03  0.38482571592E+03  0.00000000000E+00 0. -1.
</event>
<event>
 8    1  0.7446554E-006  0.1134268E+04  0.7818608E-02  0.8657775E-01
          2   -1    0    0  502    0  0.00000000000E+00  0.00000000000E+00  0.24813401906E+04  0.24813401906E+04  0.00000000000E+00 0.  1.
         -2   -1    0    0    0  501 -0.00000000000E+00 -0.00000000000E+00 -0.59492426217E+03  0.59492426217E+03  0.00000000000E+00 0. -1.
    9000010    2    1    2  502    0  0.54789803976E+03  0.20212731462E+03  0.40501622765E+03  0.12209397514E+04  0.99277793015E+03 0.  0.
   -9000010    2    1    2    0  501 -0.54789803976E+03 -0.20212731462E+03  0.14813997007E+04  0.18553247013E+04  0.95217485828E+03 0.  0.
        -13    1    3    3    0    0 -0.15416555595E+03 -0.13886152053E+03 -0.15612849876E+03  0.25966451397E+03  0.10566000000E+00 0.  1.
         13    1    4    4    0    0 -0.61225130347E+03 -0.88694083120E+02  0.33886477571E+03  0.70537057379E+03  0.10566000000E+00 0. -1.
          4    1    3    3  502    0  0.70206359571E+03  0.34098883515E+03  0.56114472641E+03  0.96127523743E+03  0.00000000000E+00 0.  1.
         -4    1    4    4    0  501  0.64353263712E+02 -0.11343323150E+03  0.11425349250E+04  0.11499541275E+04  0.00000000000E+00 0. -1.
</event>
<event>
 8    1  0.7446554E-006  0.1121141E+04  0.7818608E-02  0.8668435E-01
         -1   -1    0    0    0  501 -0.00000000000E+00  0.00000000000E+00  0.45052747810E+03  0.45052747810E+03  0.00000000000E+00 0. -1.
          1   -1    0    0  502    0  0.00000000000E+00 -0.00000000000E+00 -0.34415436032E+04  0.34415436032E+04  0.00000000000E+00 0.  1.
    9000010    2    1    2  502    0  0.31211525639E+03 -0.40032257259E+03 -0.23518537158E+04  0.26093134922E+04  0.10097657674E+04 0.  0.
   -9000010    2    1    2    0  501 -0.31211525639E+03  0.40032257259E+03 -0.63916240933E+03  0.12827575891E+04  0.98957786526E+03 0.  0.
        -13    1    3    3    0    0  0.62779673737E+03 -0.33348358037E+03 -0.20410203581E+04  0.21612737345E+04  0.10566000000E+00 0.  1.
         13    1    4    4    0    0 -0.11536836156E+03  0.45294474475E+03  0.13156955235E+03  0.48557116772E+03  0.10566000000E+00 0. -1.
          4    1    3    3  502    0 -0.31568148098E+03 -0.66838992213E+02 -0.31083335764E+03  0.44803975776E+03  0.00000000000E+00 0.  1.
         -4    1    4    4    0  501 -0.19674689483E+03 -0.52622172162E+02 -0.77073196168E+03  0.79718642135E+03  0.00000000000E+00 0. -1.
</event>
<event>
 8    1  0.7446554E-006  0.1252184E+04  0.7818608E-02  0.8568269E-01
          1   -1    0    0  502    0  0.00000000000E+00  0.00000000000E+00  0.10524053658E+04  0.10524053658E+04  0.00000000000E+00 0. -1.
         -1   -1    0    0    0  501 -0.00000000000E+00 -0.00000000000E+00 -0.14917330535E+04  0.14917330535E+04  0.00000000000E+00 0.  1.
    9000010    2    1    2  502    0  0.51175916836E+03 -0.49103235481E+03 -0.18992629046E+03  0.12944142958E+04  0.10660329045E+04 0.  0.
   -9000010    2    1    2    0  501 -0.51175916836E+03  0.49103235481E+03 -0.24940139727E+03  0.12497241236E+04  0.99829810587E+03 0.  0.
        -13    1    3    3    0    0  0.74145508961E+03 -0.62293568729E+03  0.13843252252E+00  0.96840309310E+03  0.10566000000E+00 0.  1.
         13    1    4    4    0    0 -0.57632378044E+03 -0.11772492057E+02  0.15986671538E+03  0.59820152902E+03  0.10566000000E+00 0. -1.
          4    1    3    3  502    0 -0.22969592125E+03  0.13190333248E+03 -0.19006472298E+03  0.32601120269E+03  0.00000000000E+00 0.  1.
         -4    1    4    4    0  501  0.64564612082E+02  0.50280484686E+03 -0.40926811266E+03  0.65152259454E+03  0.00000000000E+00 0. -1.
</event>
<event>
 8    1  0.7446554E-006  0.1254934E+04  0.7818608E-02  0.8566305E-01
          1   -1    0    0  502    0  0.00000000000E+00  0.00000000000E+00  0.11768546718E+04  0.11768546718E+04  0.00000000000E+00 0. -1.
         -1   -1    0    0    0  501 -0.00000000000E+00 -0.00000000000E+00 -0.13436560937E+04  0.13436560937E+04  0.00000000000E+00 0.  1.
    9000010    2    1    2  502    0 -0.68432739555E+03  0.27409461711E+03 -0.16353326439E+03  0.12785991222E+04  0.10318142969E+04 0.  0.
   -9000010    2    1    2    0  501  0.68432739555E+03 -0.27409461711E+03 -0.32681575081E+01  0.12419116433E+04  0.99945085202E+03 0.  0.
        -13    1    3    3    0    0 -0.43884847066E+03  0.49105183666E+03 -0.48632800972E+03  0.81867871029E+03  0.10566000000E+00 0.  1.
         13    1    4    4    0    0 -0.55847856045E+02 -0.22938155234E+03  0.34869458967E+03  0.42109714747E+03  0.10566000000E+00 0. -1.
          4    1    3    3  502    0 -0.24547892489E+03 -0.21695721955E+03  0.32279474533E+03  0.45992041192E+03  0.00000000000E+00 0.  1.
         -4    1    4    4    0  501  0.74017525159E+03 -0.44713064770E+02 -0.35196274718E+03  0.82081449587E+03  0.00000000000E+00 0. -1.
</event>
<event>
 8    1  0.7446554E-006  0.1262740E+04  0.7818608E-02  0.8560758E-01
         -2   -1    0    0    0  501 -0.00000000000E+00  0.00000000000E+00  0.93517890096E+03  0.93517890096E+03  0.00000000000E+00 0. -1.
          2   -1    0    0  502    0  0.00000000000E+00 -0.00000000000E+00 -0.34101210590E+04  0.34101210590E+04  0.00000000000E+00 0.  1.
    9000010    2    1    2  502    0 -0.75310859624E+03 -0.13498990304E+03  0.29949689033E+03  0.12964568333E+04  0.10028494911E+04 0.  0.
   -9000010    2    1    2    0  501  0.75310859624E+03  0.13498990304E+03 -0.27744390484E+04  0.30488431266E+04  0.10062492464E+04 0.  0.
        -13    1    3    3    0    0 -0.54185230745E+03 -0.43508806950E+03  0.52033930982E+03  0.86813510459E+03  0.10566000000E+00 0.  1.
         13    1    4    4    0    0  0.13563390481E+03  0.23217402093E+02  0.56821549199E+02  0.14887680649E+03  0.10566000000E+00 0. -1.
          4    1    3    3  502    0 -0.21125628879E+03  0.30009816646E+03 -0.22084241949E+03  0.42832172874E+03  0.00000000000E+00 0.  1.
         -4    1    4    4    0  501  0.61747469143E+03  0.11177250095E+03 -0.28312605976E+04  0.28999663201E+04  0.00000000000E+00 0. -1.
</event>
<event>
 8    1  0.7446554E-006  0.1682337E+04  0.7818608E-02  0.8311655E-01
         -2   -1    0    0    0  501 -0.00000000000E+00  0.00000000000E+00  0.33361147993E+04  0.33361147993E+04  0.00000000000E+00 0. -1.
          2   -1    0    0  502    0  0.00000000000E+00 -0.00000000000E+00 -0.84868658806E+03  0.84868658806E+03  0.00000000000E+00 0.  1.
    9000010    2    1    2  502    0  0.12500538476E+04 -0.54742054073E+03  0.11973212041E+04  0.20554871717E+04  0.96392197654E+03 0.  0.
   -9000010    2    1    2    0  501 -0.12500538476E+04  0.54742054073E+03  0.12901070071E+04  0.21293142157E+04  0.10036428992E+04 0.  0.
        -13    1    3    3    0    0  0.47817547286E+03 -0.89161142601E+02  0.10345381738E+04  0.11431844718E+04  0.10566000000E+00 0.  1.
         13    1    4    4    0    0 -0.79465808438E+03 -0.14349922780E+03  0.91617679464E+03  0.12212507644E+04  0.10566000000E+00 0. -1.
          4    1    3    3  502    0  0.77187837470E+03 -0.45825939813E+03  0.16278303028E+03  0.91230269990E+03  0.00000000000E+00 0.  1.
         -4    1    4    4    0  501 -0.45539576318E+03  0.69091976853E+03  0.37393021247E+03  0.90806345124E+03  0.00000000000E+00 0. -1.
</event>
<event>
 8    1  0.7446554E-006  0.1575437E+04  0.7818608E-02  0.8367361E-01
         -2   -1    0    0    0  501 -0.00000000000E+00  0.00000000000E+00  0.22071456237E+04  0.22071456237E+04  0.00000000000E+00 0. -1.
          2   -1    0    0  502    0  0.00000000000E+00 -0.00000000000E+00 -0.15080687908E+04  0.15080687908E+04  0.00000000000E+00 0.  1.
    9000010    2    1    2  502    0  0.11660015288E+04  0.33359949934E+03  0.12864465296E+04  0.20344484611E+04  0.10065722409E+04 0.  0.
   -9000010    2    1    2    0  501 -0.11660015288E+04 -0.33359949934E+03 -0.58736969672E+03  0.16807659534E+04  0.10045510630E+04 0.  0.
        -13    1    3    3    0    0  0.96945812850E+03  0.27380152470E+02  0.35215242840E+03  0.10317994377E+04  0.10566000000E+00 0.  1.
         13    1    4    4    0    0 -0.60774399380E+03  0.31724265012E+03 -0.95337694683E+02  0.69215962628E+03  0.10566000000E+00 0. -1.
          4    1    3    3  502    0  0.19654340034E+03  0.30621934687E+03  0.93429410117E+03  0.10026490234E+04  0.00000000000E+00 0.  1.
         -4    1    4    4    0  501 -0.55825753504E+03 -0.65084214946E+03 -0.49203200204E+03  0.98860632709E+03  0.00000000000E+00 0. -1.
</event>
<event>
 8    1  0.7446554E-006  0.1186474E+04  0.7818608E-02  0.8616818E-01
         -2   -1    0    0    0  501 -0.00000000000E+00  0.00000000000E+00  0.89358152969E+03  0.89358152969E+03  0.00000000000E+00 0.  1.
          2   -1    0    0  502    0  0.00000000000E+00 -0.00000000000E+00 -0.15833170898E+04  0.15833170898E+04  0.00000000000E+00 0. -1.
    9000010    2    1    2  502    0 -0.62466599403E+03  0.12047699449E+03 -0.26933248897E+03  0.12429142836E+04  0.10332345409E+04 0.  0.
   -9000010    2    1    2    0  501  0.62466599403E+03 -0.12047699449E+03 -0.42040307118E+03  0.12339843359E+04  0.97018363662E+03 0.  0.
        -13    1    3    3    0    0 -0.79903715120E+03  0.38995947667E+03 -0.15714984122E+03  0.90289802647E+03  0.10566000000E+00 0.  1.
         13    1    4    4    0    0  0.77956439600E+03 -0.36995564913E+03 -0.35541513607E+03  0.93322438885E+03  0.10566000000E+00 0. -1.
          4    1    3    3  502    0  0.17437115717E+03 -0.26948248218E+03 -0.11218264776E+03  0.34001625713E+03  0.00000000000E+00 0.  1.
         -4    1    4    4    0  501 -0.15489840197E+03  0.24947865464E+03 -0.64987935112E+02  0.30075994708E+03  0.00000000000E+00 0. -1.
</event>
<event>
 8    1  0.7446554E-006  0.1412488E+04  0.7818608E-02  0.8461713E-01
         -2   -1    0    0    0  501 -0.00000000000E+00  0.00000000000E+00  0.72165757340E+03  0.72165757340E+03  0.00000000000E+00 0. -1.
          2   -1    0    0  502    0  0.00000000000E+00 -0.00000000000E+00 -0.28128613602E+04  0.28128613602E+04  0.00000000000E+00 0.  1.
    9000010    2    1    2  502    0  0.71693415148E+03 -0.69513648686E+03 -0.82361383730E+03  0.16456964995E+04  0.10162518894E+04 0.  0.
   -9000010    2    1    2    0  501 -0.71693415148E+03  0.69513648686E+03 -0.12675899495E+04  0.18888224341E+04  0.98166012166E+03 0.  0.
        -13    1    3    3    0    0  0.86312094205E+03 -0.74518493951E+03 -0.91863732107E+03  0.14642994549E+04  0.10566000000E+00 0.  1.
         13    1    4    4    0    0 -0.26975467313E+03 -0.50056772922E+02  0.79567325528E+02  0.28566454916E+03  0.10566000000E+00 0. -1.
          4    1    3    3  502    0 -0.14618679058E+03  0.50048452643E+02  0.95023483762E+02  0.18139704468E+03  0.00000000000E+00 0.  1.
         -4    1    4    4    0  501 -0.44717947835E+03  0.74519325979E+03 -0.13471572751E+04  0.16031578849E+04  0.00000000000E+00 0. -1.
</event>
<event>
 8    1  0.7446554E-006  0.1644240E+04  0.7818608E-02  0.8331004E-01
          1   -1    0    0  502    0  0.00000000000E+00  0.00000000000E+00  0.26029487669E+04  0.26029487669E+04  0.00000000000E+00 0. -1.
         -1   -1    0    0    0  501 -0.00000000000E+00 -0.00000000000E+00 -0.12344307653E+04  0.12344307653E+04  0.00000000000E+00 0.  1.
    9000010    2    1    2  502    0  0.14995203042E+02  0.13595978753E+04 -0.92093624126E+02  0.16087415680E+04  0.85489002714E+03 0.  0.
   -9000010    2    1    2    0  501 -0.14995203042E+02 -0.13595978753E+04  0.14606116258E+04  0.22286379642E+04  0.99232535782E+03 0.  0.
        -13    1    3    3    0    0 -0.59270511397E+02  0.12755718137E+04 -0.35292754812E+03  0.13248223695E+04  0.10566000000E+00 0.  1.
         13    1    4    4    0    0 -0.45753001397E+03 -0.90127540119E+03  0.11107417857E+04  0.15017917259E+04  0.10566000000E+00 0. -1.
          4    1    3    3  502    0  0.74265714439E+02  0.84026061564E+02  0.26083392399E+03  0.28391919848E+03  0.00000000000E+00 0.  1.
         -4    1    4    4    0  501  0.44253481093E+03 -0.45832247406E+03  0.34986984009E+03  0.72684623830E+03  0.00000000000E+00 0. -1.
</event>
<event>
 8    1  0.7446554E-006  0.1211834E+04  0.7818608E-02  0.8597704E-01
         -1   -1    0    0    0  501 -0.00000000000E+00  0.00000000000E+00  0.17586628920E+04  0.17586628920E+04  0.00000000000E+00 0. -1.
          1   -1    0    0  502    0  0.00000000000E+00 -0.00000000000E+00 -0.14926881864E+04  0.14926881864E+04  0.00000000000E+00 0.  1.
    9000010    2    1    2  502    0 -0.64248918755E+03  0.23259374472E+03 -0.94606300148E+03  0.15376037064E+04  0.10011482152E+04 0.  0.
   -9000010    2    1    2    0  501  0.64248918755E+03 -0.23259374472E+03  0.12120377070E+04  0.17137473720E+04  0.10005010973E+04 0.  0.
        -13    1    3    3    0    0 -0.78174539467E+03  0.42913943966E+03 -0.94132274610E+03  0.12966784660E+04  0.10566000000E+00 0.  1.
         13    1    4    4    0    0  0.47275153946E+03  0.29132806914E+03  0.25834762397E+03  0.61246189098E+03  0.10566000000E+00 0. -1.
          4    1    3    3  502    0  0.13925620711E+03 -0.19654569494E+03 -0.47402553783E+01  0.24092524035E+03  0.00000000000E+00 0.  1.
         -4    1    4    4    0  501  0.16973764809E+03 -0.52392181386E+03  0.95369008304E+03  0.11012854810E+04  0.00000000000E+00 0. -1.
</event>
<event>
 8    1  0.7446554E-006  0.1112987E+04  0.7818608E-02  0.8675133E-01
         -2   -1    0    0    0  501 -0.00000000000E+00  0.00000000000E+00  0.10230580592E+04  0.10230580592E+04  0.00000000000E+00 0.  1.
          2   -1    0    0  502    0  0.00000000000E+00 -0.00000000000E+00 -0.12301366064E+04  0.12301366064E+04  0.00000000000E+00 0. -1.
    9000010    2    1    2  502    0  0.40412619811E+03 -0.22875101473E+03  0.38206660359E+02  0.11008731382E+04  0.99740508656E+03 0.  0.
   -9000010    2    1    2    0  501 -0.40412619811E+03  0.22875101473E+03 -0.24528520760E+03  0.11523215274E+04  0.10256876029E+04 0.  0.
        -13    1    3    3    0    0  0.34373599445E+03 -0.96677999768E+02  0.50134131858E+03  0.61550320747E+03  0.10566000000E+00 0.  1.
         13    1    4    4    0    0 -0.45027323592E+03  0.63950562710E+02  0.32365370593E+03  0.55820013793E+03  0.10566000000E+00 0. -1.
          4    1    3    3  502    0  0.60390203651E+02 -0.13207301496E+03 -0.46313465822E+03  0.48536993070E+03  0.00000000000E+00 0.  1.
         -4    1    4    4    0  501  0.46147037818E+02  0.16480045202E+03 -0.56893891353E+03  0.59412138946E+03  0.00000000000E+00 0. -1.
</event>
<event>
 8    1  0.7446554E-006  0.1472778E+04  0.7818608E-02  0.8425340E-01
         -1   -1    0    0    0  501 -0.00000000000E+00  0.00000000000E+00  0.12071262195E+04  0.12071262195E+04  0.00000000000E+00 0. -1.
          1   -1    0    0  502    0  0.00000000000E+00 -0.00000000000E+00 -0.18003727810E+04  0.18003727810E+04  0.00000000000E+00 0.  1.
    9000010    2    1    2  502    0  0.10536117163E+04 -0.25176945980E+03 -0.22994628850E+03  0.14875640186E+04  0.99321996766E+03 0.  0.
   -9000010    2    1    2    0  501 -0.10536117163E+04  0.25176945980E+03 -0.36330027305E+03  0.15199349819E+04  0.10023620859E+04 0.  0.
        -13    1    3    3    0    0  0.43242042065E+03 -0.44361556154E+03  0.26164693754E+03  0.67248889785E+03  0.10566000000E+00 0.  1.
         13    1    4    4    0    0 -0.92314408122E+03  0.60203128086E+03 -0.27064262767E+03  0.11348498142E+04  0.10566000000E+00 0. -1.
          4    1    3    3  502    0  0.62119129567E+03  0.19184610174E+03 -0.49159322605E+03  0.81507512075E+03  0.00000000000E+00 0.  1.
         -4    1    4    4    0  501 -0.13046763510E+03 -0.35026182106E+03 -0.92657645377E+02  0.38508516765E+03  0.00000000000E+00 0. -1.
</event>
<event>
 8    1  0.7446554E-006  0.1090333E+04  0.7818608E-02  0.8694062E-01
         -1   -1    0    0    0  501 -0.00000000000E+00  0.00000000000E+00  0.26442053036E+04  0.26442053036E+04  0.00000000000E+00 0.  1.
          1   -1    0    0  502    0  0.00000000000E+00 -0.00000000000E+00 -0.44983070452E+03  0.44983070452E+03  0.00000000000E+00 0. -1.
    9000010    2    1    2  502    0  0.19469728484E+02  0.44072729991E+03  0.10839662661E+04  0.15209114936E+04  0.97137494417E+03 0.  0.
   -9000010    2    1    2    0  501 -0.19469728484E+02 -0.44072729991E+03  0.11104083330E+04  0.15731245145E+04  0.10232763307E+04 0.  0.
        -13    1    3    3    0    0 -0.37582683997E+03  0.42386420896E+03  0.29592757162E+03  0.63912426029E+03  0.10566000000E+00 0.  1.
         13    1    4    4    0    0  0.17921718702E+03 -0.47799668561E+03  0.72380149093E+02  0.51559531488E+03  0.10566000000E+00 0. -1.
          4    1    3    3  502    0  0.39529656845E+03  0.16863090950E+02  0.78803869445E+03  0.88178723330E+03  0.00000000000E+00 0.  1.
         -4    1    4    4    0  501 -0.19868691551E+03  0.37269385697E+02  0.10380281839E+04  0.10575291996E+04  0.00000000000E+00 0. -1.
</event>
<event>
 8    1  0.7446554E-006  0.1906130E+04  0.7818608E-02  0.8207719E-01
          2   -1    0    0  502    0  0.00000000000E+00  0.00000000000E+00  0.17870178068E+04  0.17870178068E+04  0.00000000000E+00 0. -1.
         -2   -1    0    0    0  501 -0.00000000000E+00 -0.00000000000E+00 -0.38300148059E+04  0.38300148059E+04  0.00000000000E+00 0.  1.
    9000010    2    1    2  502    0 -0.91535970239E+03 -0.13425429275E+04  0.90100126295E+03  0.21120509303E+04  0.10043161650E+04 0.  0.
   -9000010    2    1    2    0  501  0.91535970239E+03  0.13425429275E+04 -0.29439982620E+04  0.35049816825E+04  0.98866876686E+03 0.  0.
        -13    1    3    3    0    0 -0.33343969908E+03 -0.22245881473E+02 -0.10822560011E+03  0.35126870604E+03  0.10566000000E+00 0.  1.
         13    1    4    4    0    0  0.95231406072E+03  0.53259930316E+03 -0.17090443225E+04  0.20276579089E+04  0.10566000000E+00 0. -1.
          4    1    3    3  502    0 -0.58192000332E+03 -0.13202970461E+04  0.10092268631E+04  0.17607822243E+04  0.00000000000E+00 0.  1.
         -4    1    4    4    0  501 -0.36954358331E+02  0.80994362438E+03 -0.12349539395E+04  0.14773237736E+04  0.00000000000E+00 0. -1.
</event>
<event>
 8    1  0.7446554E-006  0.1050119E+04  0.7818608E-02  0.8728874E-01
          1   -1    0    0  502    0  0.00000000000E+00  0.00000000000E+00  0.11407682154E+04  0.11407682154E+04  0.00000000000E+00 0.  1.
         -1   -1    0    0    0  501 -0.00000000000E+00 -0.00000000000E+00 -0.10652421336E+04  0.10652421336E+04  0.00000000000E+00 0. -1.
    9000010    2    1    2  502    0  0.24386184040E+03 -0.14784385049E+03  0.37242731252E+03  0.11001289821E+04  0.99511570820E+03 0.  0.
   -9000010    2    1    2    0  501 -0.24386184040E+03  0.14784385049E+03 -0.29690123073E+03  0.11058813670E+04  0.10263999492E+04 0.  0.
        -13    1    3    3    0    0  0.33390164572E+03 -0.26642482843E+03 -0.22613128619E+03  0.48332997836E+03  0.10566000000E+00 0.  1.
         13    1    4    4    0    0 -0.11304468982E+03 -0.24612973391E+03 -0.55464959882E+03  0.61724803478E+03  0.10566000000E+00 0. -1.
          4    1    3    3  502    0 -0.90039805319E+02  0.11858097795E+03  0.59855859870E+03  0.61679900369E+03  0.00000000000E+00 0.  1.
         -4    1    4    4    0  501 -0.13081715059E+03  0.39397358439E+03  0.25774836809E+03  0.48863333220E+03  0.00000000000E+00 0. -1.
</event>
<event>
 8    1  0.7446554E-006  0.1211641E+04  0.7818608E-02  0.8597848E-01
          1   -1    0    0  502    0  0.00000000000E+00  0.00000000000E+00  0.64530513370E+03  0.64530513370E+03  0.00000000000E+00 0. -1.
         -1   -1    0    0    0  501 -0.00000000000E+00 -0.00000000000E+00 -0.29804987458E+04  0.29804987458E+04  0.00000000000E+00 0.  1.
    9000010    2    1    2  502    0 -0.67327956732E+03 -0.72925551919E+02 -0.28954240258E+03  0.12509597561E+04  0.10111587396E+04 0.  0.
   -9000010    2    1    2    0  501  0.67327956732E+03  0.72925551919E+02 -0.20456512095E+04  0.23748441233E+04  0.99828464252E+03 0.  0.
        -13    1    3    3    0    0  0.59138803687E+02  0.97616290196E+01  0.30074146705E+03  0.30665636904E+03  0.10566000000E+00 0.  1.
         13    1    4    4    0    0  0.79535068486E+03  0.25908473635E+03 -0.99045566250E+03  0.12964220158E+04  0.10566000000E+00 0. -1.
          4    1    3    3  502    0 -0.73241837101E+03 -0.82687180938E+02 -0.59028386964E+03  0.94430338707E+03  0.00000000000E+00 0.  1.
         -4    1    4    4    0  501 -0.12207111754E+03 -0.18615918444E+03 -0.10551955470E+04  0.10784221075E+04  0.00000000000E+00 0. -1.
</event>
<event>
 8    1  0.7446554E-006  0.1289756E+04  0.7818608E-02  0.8541875E-01
          2   -1    0    0  502    0  0.00000000000E+00  0.00000000000E+00  0.22596913724E+04  0.22596913724E+04  0.00000000000E+00 0.  1.
         -2   -1    0    0    0  501 -0.00000000000E+00 -0.00000000000E+00 -0.73620597572E+03  0.73620597572E+03  0.00000000000E+00 0. -1.
    9000010    2    1    2  502    0  0.57848822684E+03  0.50140196859E+03  0.77362322568E+03  0.15127159204E+04  0.10506017314E+04 0.  0.
   -9000010    2    1    2    0  501 -0.57848822684E+03 -0.50140196859E+03  0.74986217103E+03  0.14831814277E+04  0.10254176268E+04 0.  0.
        -13    1    3    3    0    0  0.85974273679E+03  0.53989291066E+03  0.62686869178E+03  0.11931497376E+04  0.10566000000E+00 0.  1.
         13    1    4    4    0    0  0.15595698306E+02 -0.65529670554E+03  0.29238177252E+03  0.71773540401E+03  0.10566000000E+00 0. -1.
          4    1    3    3  502    0 -0.28125450996E+03 -0.38490942072E+02  0.14675453391E+03  0.31956618284E+03  0.00000000000E+00 0.  1.
         -4    1    4    4    0  501 -0.59408392514E+03  0.15389473695E+03  0.45748039851E+03  0.76544602370E+03  0.00000000000E+00 0. -1.
</event>
<event>
 8    1  0.7446554E-006  0.1449638E+04  0.7818608E-02  0.8439086E-01
         -2   -1    0    0    0  501 -0.00000000000E+00  0.00000000000E+00  0.16654305363E+04  0.16654305363E+04  0.00000000000E+00 0. -1.
          2   -1    0    0  502    0  0.00000000000E+00 -0.00000000000E+00 -0.12755243507E+04  0.12755243507E+04  0.00000000000E+00 0.  1.
    9000010    2    1    2  502    0 -0.47969039098E+03 -0.81683829344E+03  0.72806874988E+02  0.15284469311E+04  0.11972975868E+04 0.  0.
   -9000010    2    1    2    0  501  0.47969039098E+03  0.81683829344E+03  0.31709931061E+03  0.14125079558E+04  0.99864862873E+03 0.  0.
        -13    1    3    3    0    0 -0.74219239219E+03 -0.84502859716E+03 -0.20718563569E+03  0.11436121615E+04  0.10566000000E+00 0.  1.
         13    1    4    4    0    0  0.32966546464E+02 -0.70621701998E+02  0.40746712865E+03  0.41485381771E+03  0.10566000000E+00 0. -1.
          4    1    3    3  502    0  0.26250200122E+03  0.28190303723E+02  0.27999251068E+03  0.38483476962E+03  0.00000000000E+00 0.  1.
         -4    1    4    4    0  501  0.44672384451E+03  0.88745999544E+03 -0.90367818038E+02  0.99765413811E+03  0.00000000000E+00 0. -1.
</event>
<event>
 8    1  0.7446554E-006  0.1462976E+04  0.7818608E-02  0.8431131E-01
         -2   -1    0    0    0  501 -0.00000000000E+00  0.00000000000E+00  0.15947768859E+04  0.15947768859E+04  0.00000000000E+00 0.  1.
          2   -1    0    0  502    0  0.00000000000E+00 -0.00000000000E+00 -0.16814213489E+04  0.16814213489E+04  0.00000000000E+00 0. -1.
    9000010    2    1    2  502    0 -0.27875330869E+03  0.10280439120E+04  0.69245166727E+03  0.16232121429E+04  0.10103220563E+04 0.  0.
   -9000010    2    1    2    0  501  0.27875330869E+03 -0.10280439120E+04 -0.77909613027E+03  0.16529860918E+04  0.99538663211E+03 0.  0.
        -13    1    3    3    0    0 -0.15376050257E+03 -0.63115276369E+02 -0.16168687259E+03  0.23188032731E+03  0.10566000000E+00 0.  1.
         13    1    4    4    0    0 -0.34623134215E+03 -0.53296603026E+03 -0.49852519915E+03  0.80774768155E+03  0.10566000000E+00 0. -1.
          4    1    3    3  502    0 -0.12499280612E+03  0.10911591884E+04  0.85413853986E+03  0.13913318156E+04  0.00000000000E+00 0.  1.
         -4    1    4    4    0  501  0.62498465084E+03 -0.49507788173E+03 -0.28057093113E+03  0.84523841025E+03  0.00000000000E+00 0. -1.
</event>
<event>
 8    1  0.7446554E-006  0.1283421E+04  0.7818608E-02  0.8546259E-01
         -2   -1    0    0    0  501 -0.00000000000E+00  0.00000000000E+00  0.11364171333E+04  0.11364171333E+04  0.00000000000E+00 0. -1.
          2   -1    0    0  502    0  0.00000000000E+00 -0.00000000000E+00 -0.14610391469E+04  0.14610391469E+04  0.00000000000E+00 0.  1.
    9000010    2    1    2  502    0 -0.40617676773E+03 -0.68868466081E+03 -0.46139508898E+02  0.12799472472E+04  0.99843375971E+03 0.  0.
   -9000010    2    1    2    0  501  0.40617676773E+03  0.68868466081E+03 -0.27848250471E+03  0.13175090330E+04  0.10094609541E+04 0.  0.
        -13    1    3    3    0    0 -0.73811419626E+03 -0.40242068256E+03 -0.22641900850E+02  0.84099205663E+03  0.10566000000E+00 0.  1.
         13    1    4    4    0    0  0.29777388407E+03 -0.18152335460E+03 -0.26915168444E+03  0.44052543025E+03  0.10566000000E+00 0. -1.
          4    1    3    3  502    0  0.33193742853E+03 -0.28626397825E+03 -0.23497608048E+02  0.43895519053E+03  0.00000000000E+00 0.  1.
         -4    1    4    4    0  501  0.10840288366E+03  0.87020801541E+03 -0.93308202769E+01  0.87698360274E+03  0.00000000000E+00 0. -1.
</event>
<event>
 7    1  0.7446554E-006  0.1538014E+04  0.7818608E-02  0.8387952E-01
          2   -1    0    0  502    0  0.00000000000E+00  0.00000000000E+00  0.26027067756E+04  0.26027067756E+04  0.00000000000E+00 0. -1.
         -2   -1    0    0    0  501 -0.00000000000E+00 -0.00000000000E+00 -0.11264743427E+04  0.11264743427E+04  0.00000000000E+00 0.  1.
    9000010    2    1    2  502    0  0.17638172360E+03  0.99362578168E+03  0.14947618025E+04  0.20595847502E+04  0.99457216450E+03 0.  0.
        -13    1    3    3    0    0  0.17253773793E+03  0.21081272296E+03 -0.94208164337E+02  0.28824722820E+03  0.10566000000E+00 0.  1.
         13    1    1    2    0    0  0.56778430401E+03 -0.33873938464E+03  0.10919656810E+03  0.67010990758E+03  0.10566000000E+00 0. -1.
          4    1    3    3  502    0  0.38439856697E+01  0.78281305872E+03  0.15889699669E+04  0.17713375220E+04  0.00000000000E+00 0.  1.
         -4    1    1    2    0  501 -0.74416602761E+03 -0.65488639704E+03 -0.12772593767E+03  0.99948646056E+03  0.00000000000E+00 0. -1.
</event>
<event>
 8    1  0.7446554E-006  0.1071639E+04  0.7818608E-02  0.8710046E-01
         -2   -1    0    0    0  501 -0.00000000000E+00  0.00000000000E+00  0.10661159893E+04  0.10661159893E+04  0.00000000000E+00 0. -1.
          2   -1    0    0  502    0  0.00000000000E+00 -0.00000000000E+00 -0.14071931375E+04  0.14071931375E+04  0.00000000000E+00 0.  1.
    9000010    2    1    2  502    0  0.28795283421E+03  0.29453067645E+03  0.42697092818E+03  0.11631231315E+04  0.10004429477E+04 0.  0.
   -9000010    2    1    2    0  501 -0.28795283421E+03 -0.29453067645E+03 -0.76804807644E+03  0.13101859952E+04  0.97827620858E+03 0.  0.
        -13    1    3    3    0    0  0.65004773574E+03  0.22727116199E+03  0.15651362297E+03  0.70619456608E+03  0.10566000000E+00 0.  1.
         13    1    4    4    0    0  0.18907971389E+03 -0.42854669681E+03 -0.64935955504E+03  0.80066925284E+03  0.10566000000E+00 0. -1.
          4    1    3    3  502    0 -0.36209490153E+03  0.67259514456E+02  0.27045730521E+03  0.45692856547E+03  0.00000000000E+00 0.  1.
         -4    1    4    4    0  501 -0.47703254810E+03  0.13401602036E+03 -0.11868852140E+03  0.50951674239E+03  0.00000000000E+00 0. -1.
</event>
<event>
 8    1  0.7446554E-006  0.1070739E+04  0.7818608E-02  0.8710824E-01
          2   -1    0    0  502    0  0.00000000000E+00  0.00000000000E+00  0.15578683314E+04  0.15578683314E+04  0.00000000000E+00 0.  1.
         -2   -1    0    0    0  501 -0.00000000000E+00 -0.00000000000E+00 -0.79563913978E+03  0.79563913978E+03  0.00000000000E+00 0. -1.
    9000010    2    1    2  502    0  0.98809864117E+02  0.21206115128E+03  0.55812821289E+02  0.10628198940E+04  0.10352476685E+04 0.  0.
   -9000010    2    1    2    0  501 -0.98809864117E+02 -0.21206115128E+03  0.70641637037E+03  0.12906875772E+04  0.10545695863E+04 0.  0.
        -13    1    3    3    0    0 -0.52587597037E+02 -0.32326784017E+03 -0.26439927836E+03  0.42092106316E+03  0.10566000000E+00 0.  1.
         13    1    4    4    0    0  0.34158300341E+03 -0.47621994130E+02  0.74303175769E+03  0.81917214714E+03  0.10566000000E+00 0. -1.
          4    1    3    3  502    0  0.15139746115E+03  0.53532899145E+03  0.32021209965E+03  0.64189883089E+03  0.00000000000E+00 0.  1.
         -4    1    4    4    0  501 -0.44039286753E+03 -0.16443915715E+03 -0.36615387322E+02  0.47151543004E+03  0.00000000000E+00 0. -1.
</event>
<event>
 8    1  0.7446554E-006  0.1435770E+04  0.7818608E-02  0.8447451E-01
          2   -1    0    0  502    0  0.00000000000E+00  0.00000000000E+00  0.22666045878E+04  0.22666045878E+04  0.00000000000E+00 0. -1.
         -2   -1    0    0    0  501 -0.00000000000E+00 -0.00000000000E+00 -0.11684717764E+04  0.11684717764E+04  0.00000000000E+00 0.  1.
    9000010    2    1    2  502    0  0.52978992048E+03  0.88762751310E+03  0.13563045986E+04  0.19717953748E+04  0.98987619128E+03 0.  0.
   -9000010    2    1    2    0  501 -0.52978992048E+03 -0.88762751310E+03 -0.25817178720E+03  0.14632809893E+04  0.10029848554E+04 0.  0.
        -13    1    3    3    0    0  0.43284708070E+03 -0.19899603273E+02  0.14874694562E+03  0.45812471498E+03  0.10566000000E+00 0.  1.
         13    1    4    4    0    0  0.24687477077E+02  0.19670766622E+03  0.55083296207E+02  0.20576092476E+03  0.10566000000E+00 0. -1.
          4    1    3    3  502    0  0.96942839781E+02  0.90752711638E+03  0.12075576530E+04  0.15136706599E+04  0.00000000000E+00 0.  1.
         -4    1    4    4    0  501 -0.55447739755E+03 -0.10843351793E+04 -0.31325508340E+03  0.12575200646E+04  0.00000000000E+00 0. -1.
</event>
<event>
 8    1  0.7446554E-006  0.1739361E+04  0.7818608E-02  0.8283658E-01
         -1   -1    0    0    0  501 -0.00000000000E+00  0.00000000000E+00  0.34380581080E+04  0.34380581080E+04  0.00000000000E+00 0. -1.
          1   -1    0    0  502    0  0.00000000000E+00 -0.00000000000E+00 -0.88383203002E+03  0.88383203002E+03  0.00000000000E+00 0.  1.
    9000010    2    1    2  502    0  0.66401438601E+03  0.12757242119E+04  0.11214316095E+04  0.20523227961E+04  0.94129306533E+03 0.  0.
   -9000010    2    1    2    0  501 -0.66401438601E+03 -0.12757242119E+04  0.14327944685E+04  0.22695673419E+04  0.10147160001E+04 0.  0.
        -13    1    3    3    0    0  0.41084824255E+03  0.91136726572E+03  0.12402738781E+04  0.15930052967E+04  0.10566000000E+00 0.  1.
         13    1    4    4    0    0 -0.27033609890E+02 -0.91632801232E+03  0.11831901487E+04  0.14967721207E+04  0.10566000000E+00 0. -1.
          4    1    3    3  502    0  0.25316614346E+03  0.36435694620E+03 -0.11884226861E+03  0.45931749939E+03  0.00000000000E+00 0.  1.
         -4    1    4    4    0  501 -0.63698077612E+03 -0.35939619960E+03  0.24960431976E+03  0.77279522118E+03  0.00000000000E+00 0. -1.
</event>
<event>
 8    1  0.7446554E-006  0.1627776E+04  0.7818608E-02  0.8339535E-01
         -1   -1    0    0    0  501 -0.00000000000E+00  0.00000000000E+00  0.10773857585E+04  0.10773857585E+04  0.00000000000E+00 0. -1.
          1   -1    0    0  502    0  0.00000000000E+00 -0.00000000000E+00 -0.26265762411E+04  0.26265762411E+04  0.00000000000E+00 0.  1.
    9000010    2    1    2  502    0  0.12244676095E+04 -0.41051635417E+03 -0.31017662694E+03  0.16633439379E+04  0.10013285736E+04 0.  0.
   -9000010    2    1    2    0  501 -0.12244676095E+04  0.41051635417E+03 -0.12390138557E+04  0.20406180617E+04  0.98036836706E+03 0.  0.
        -13    1    3    3    0    0  0.12344553282E+04 -0.64712454083E+03 -0.30339132263E+03  0.14264278581E+04  0.10566000000E+00 0.  1.
         13    1    4    4    0    0 -0.23379167429E+03  0.12915617490E+03 -0.92673625969E+03  0.96445838203E+03  0.10566000000E+00 0. -1.
          4    1    3    3  502    0 -0.99877186764E+01  0.23660818666E+03 -0.67853043053E+01  0.23691607981E+03  0.00000000000E+00 0.  1.
         -4    1    4    4    0  501 -0.99067593521E+03  0.28136017927E+03 -0.31227759605E+03  0.10761596796E+04  0.00000000000E+00 0. -1.
</event>
<event>
 8    1  0.7446554E-006  0.2382307E+04  0.7818608E-02  0.8028397E-01
          2   -1    0    0  502    0  0.00000000000E+00  0.00000000000E+00  0.25216781797E+04  0.25216781797E+04  0.00000000000E+00 0. -1.
         -2   -1    0    0    0  501 -0.00000000000E+00 -0.00000000000E+00 -0.24289068449E+04  0.24289068449E+04  0.00000000000E+00 0.  1.
    9000010    2    1    2  502    0  0.67518307492E+03 -0.20565025247E+04  0.71683823873E+03  0.24820157484E+04  0.98054591748E+03 0.  0.
   -9000010    2    1    2    0  501 -0.67518307492E+03  0.20565025247E+04 -0.62406690387E+03  0.24685692762E+04  0.10096038591E+04 0.  0.
        -13    1    3    3    0    0  0.91444823905E+03 -0.15022153601E+04  0.41460333005E+03  0.18068653803E+04  0.10566000000E+00 0.  1.
         13    1    4    4    0    0 -0.17860644616E+03 -0.27843859329E+02 -0.22570816461E+03  0.28917076244E+03  0.10566000000E+00 0. -1.
          4    1    3    3  502    0 -0.23926516413E+03 -0.55428716459E+03  0.30223490868E+03  0.67515036816E+03  0.00000000000E+00 0.  1.
         -4    1    4    4    0  501 -0.49657662876E+03  0.20843463840E+04 -0.39835873925E+03  0.21793985138E+04  0.00000000000E+00 0. -1.
</event>
<event>
 8    1  0.7446554E-006  0.1124471E+04  0.7818608E-02  0.8665716E-01
         -1   -1    0    0    0  501 -0.00000000000E+00  0.00000000000E+00  0.50736587870E+03  0.50736587870E+03  0.00000000000E+00 0. -1.
          1   -1    0    0  502    0  0.00000000000E+00 -0.00000000000E+00 -0.24961867960E+04  0.24961867960E+04  0.00000000000E+00 0.  1.
    9000010    2    1    2  502    0 -0.32710444766E+03 -0.50048474708E+03 -0.98493624903E+03  0.15210510306E+04  0.99298263897E+03 0.  0.
   -9000010    2    1    2    0  501  0.32710444766E+03  0.50048474708E+03 -0.10038846682E+04  0.14825016441E+04  0.91243870796E+03 0.  0.
        -13    1    3    3    0    0 -0.59955963963E+03 -0.59378237519E+03 -0.86700247281E+03  0.12098522925E+04  0.10566000000E+00 0.  1.
         13    1    4    4    0    0  0.21724841390E+02 -0.16053399266E+03  0.76892832626E+02  0.17931996656E+03  0.10566000000E+00 0. -1.
          4    1    3    3  502    0  0.27245519197E+03  0.93297628111E+02 -0.11793377623E+03  0.31119873814E+03  0.00000000000E+00 0.  1.
         -4    1    4    4    0  501  0.30537960627E+03  0.66101873974E+03 -0.10807775009E+04  0.13031816775E+04  0.00000000000E+00 0. -1.
</event>
<event>
 8    1  0.7446554E-006  0.1006096E+04  0.7818608E-02  0.8768885E-01
         -2   -1    0    0    0  501 -0.00000000000E+00  0.00000000000E+00  0.13228397644E+04  0.13228397644E+04  0.00000000000E+00 0.  1.
          2   -1    0    0  502    0  0.00000000000E+00 -0.00000000000E+00 -0.76549199282E+03  0.76549199282E+03  0.00000000000E+00 0. -1.
    9000010    2    1    2  502    0 -0.11992077051E+03  0.10087031513E+03  0.30000315903E+03  0.10541991305E+04  0.99838775020E+03 0.  0.
   -9000010    2    1    2    0  501  0.11992077051E+03 -0.10087031513E+03  0.25734461259E+03  0.10341326267E+04  0.98926651025E+03 0.  0.
        -13    1    3    3    0    0 -0.48725692846E+03  0.23840307485E+01 -0.10518841463E+03  0.49848732348E+03  0.10566000000E+00 0.  1.
         13    1    4    4    0    0  0.32600387010E+03 -0.39424977970E+03  0.39885533306E+03  0.64868867725E+03  0.10566000000E+00 0. -1.
          4    1    3    3  502    0  0.36733615795E+03  0.98486284381E+02  0.40519157366E+03  0.55571180707E+03  0.00000000000E+00 0.  1.
         -4    1    4    4    0  501 -0.20608309958E+03  0.29337946457E+03 -0.14151072048E+03  0.38544394946E+03  0.00000000000E+00 0. -1.
</event>
<event>
 8    1  0.7446554E-006  0.1195609E+04  0.7818608E-02  0.8609876E-01
         -2   -1    0    0    0  501 -0.00000000000E+00  0.00000000000E+00  0.10197625973E+04  0.10197625973E+04  0.00000000000E+00 0. -1.
          2   -1    0    0  502    0  0.00000000000E+00 -0.00000000000E+00 -0.26665297352E+04  0.26665297352E+04  0.00000000000E+00 0.  1.
    9000010    2    1    2  502    0  0.19470341301E+03  0.64550131071E+03  0.44855245938E+03  0.12702779048E+04  0.97868548856E+03 0.  0.
   -9000010    2    1    2    0  501 -0.19470341301E+03 -0.64550131071E+03 -0.20953195973E+04  0.24160144276E+04  0.99608239555E+03 0.  0.
        -13    1    3    3    0    0 -0.48669077289E+02 -0.25056421735E+03  0.14408303020E+03  0.29310584582E+03  0.10566000000E+00 0.  1.
         13    1    4    4    0    0 -0.29296526037E+03  0.13696762122E+03 -0.10976453219E+04  0.11442963065E+04  0.10566000000E+00 0. -1.
          4    1    3    3  502    0  0.24337249030E+03  0.89606552805E+03  0.30446942918E+03  0.97717205901E+03  0.00000000000E+00 0.  1.
         -4    1    4    4    0  501  0.98261847359E+02 -0.78246893193E+03 -0.99767427531E+03  0.12717181212E+04  0.00000000000E+00 0. -1.
</event>
<event>
 8    1  0.7446554E-006  0.1212910E+04  0.7818608E-02  0.8596904E-01
          2   -1    0    0  502    0  0.00000000000E+00  0.00000000000E+00  0.10757995993E+04  0.10757995993E+04  0.00000000000E+00 0. -1.
         -2   -1    0    0    0  501 -0.00000000000E+00 -0.00000000000E+00 -0.14604968604E+04  0.14604968604E+04  0.00000000000E+00 0.  1.
    9000010    2    1    2  502    0  0.52147189451E+03  0.46096583252E+03 -0.51298132195E+03  0.13209914727E+04  0.99872228317E+03 0.  0.
   -9000010    2    1    2    0  501 -0.52147189451E+03 -0.46096583252E+03  0.12828406088E+03  0.12153049870E+04  0.98797114104E+03 0.  0.
        -13    1    3    3    0    0 -0.74514121595E+02  0.51647115303E+03  0.16165891069E+02  0.52206910791E+03  0.10566000000E+00 0.  1.
         13    1    4    4    0    0 -0.75390931253E+03 -0.17760383668E+03  0.27302818131E+03  0.82125926070E+03  0.10566000000E+00 0. -1.
          4    1    3    3  502    0  0.59598601611E+03 -0.55505320519E+02 -0.52914721302E+03  0.79892236484E+03  0.00000000000E+00 0.  1.
         -4    1    4    4    0  501  0.23243741802E+03 -0.28336199584E+03 -0.14474412043E+03  0.39404572626E+03  0.00000000000E+00 0. -1.
</event>
<event>
 8    1  0.7446554E-006  0.1312844E+04  0.7818608E-02  0.8526111E-01
          1   -1    0    0  502    0  0.00000000000E+00  0.00000000000E+00  0.24453189872E+04  0.24453189872E+04  0.00000000000E+00 0.  1.
         -1   -1    0    0    0  501 -0.00000000000E+00 -0.00000000000E+00 -0.71216844078E+03  0.71216844078E+03  0.00000000000E+00 0. -1.
    9000010    2    1    2  502    0  0.39921968083E+02  0.88634492152E+03  0.10095615795E+04  0.16383580809E+04  0.93691063347E+03 0.  0.
   -9000010    2    1    2    0  501 -0.39921968083E+02 -0.88634492152E+03  0.72358896695E+03  0.15191293471E+04  0.99848480042E+03 0.  0.
        -13    1    3    3    0    0  0.41497325430E+03  0.18815047112E+03  0.57777667726E+03  0.73581879666E+03  0.10566000000E+00 0.  1.
         13    1    4    4    0    0 -0.46922893222E+03 -0.22641735388E+03  0.14102991136E+03  0.53974999401E+03  0.10566000000E+00 0. -1.
          4    1    3    3  502    0 -0.37505128622E+03  0.69819445039E+03  0.43178490225E+03  0.90253928428E+03  0.00000000000E+00 0.  1.
         -4    1    4    4    0  501  0.42930696414E+03 -0.65992756764E+03  0.58255905559E+03  0.97937935308E+03  0.00000000000E+00 0. -1.
</event>
<event>
 8    1  0.7446554E-006  0.1448830E+04  0.7818608E-02  0.8439571E-01
          2   -1    0    0  502    0  0.00000000000E+00  0.00000000000E+00  0.82798466099E+03  0.82798466099E+03  0.00000000000E+00 0.  1.
         -2   -1    0    0    0  501 -0.00000000000E+00 -0.00000000000E+00 -0.30572917832E+04  0.30572917832E+04  0.00000000000E+00 0. -1.
    9000010    2    1    2  502    0 -0.67845257616E+03  0.55301064385E+03 -0.19755487685E+04  0.25206628103E+04  0.12980097827E+04 0.  0.
   -9000010    2    1    2    0  501  0.67845257616E+03 -0.55301064385E+03 -0.25375835366E+03  0.13646136339E+04  0.10157058617E+04 0.  0.
        -13    1    3    3    0    0 -0.82265965694E+03 -0.10053783507E+01 -0.16929236802E+04  0.18822222292E+04  0.10566000000E+00 0.  1.
         13    1    4    4    0    0 -0.21351590764E+03  0.83004644909E+02  0.34886968580E+02  0.23172381326E+03  0.10566000000E+00 0. -1.
          4    1    3    3  502    0  0.14420708078E+03  0.55401602220E+03 -0.28262508830E+03  0.63844058106E+03  0.00000000000E+00 0.  1.
         -4    1    4    4    0  501  0.89196848379E+03 -0.63601528876E+03 -0.28864532224E+03  0.11328898206E+04  0.00000000000E+00 0. -1.
</event>
<event>
 8    1  0.7446554E-006  0.1335402E+04  0.7818608E-02  0.8511029E-01
         -2   -1    0    0    0  501 -0.00000000000E+00  0.00000000000E+00  0.10334754705E+04  0.10334754705E+04  0.00000000000E+00 0. -1.
          2   -1    0    0  502    0  0.00000000000E+00 -0.00000000000E+00 -0.20590751212E+04  0.20590751212E+04  0.00000000000E+00 0.  1.
    9000010    2    1    2  502    0  0.88253339717E+03 -0.11356505250E+03  0.10847676796E+03  0.13430494607E+04  0.10001262053E+04 0.  0.
   -9000010    2    1    2    0  501 -0.88253339717E+03  0.11356505250E+03 -0.11340764186E+04  0.17495011309E+04  0.99139430372E+03 0.  0.
        -13    1    3    3    0    0  0.17759006047E+03  0.27451784920E+03 -0.29722182852E+03  0.44185869418E+03  0.10566000000E+00 0.  1.
         13    1    4    4    0    0  0.20873467452E+03  0.11928560566E+03 -0.18743828797E+03  0.30484806547E+03  0.10566000000E+00 0. -1.
          4    1    3    3  502    0  0.70494333670E+03 -0.38808290170E+03  0.40569859647E+03  0.90119076656E+03  0.00000000000E+00 0.  1.
         -4    1    4    4    0  501 -0.10912680717E+04 -0.57205531543E+01 -0.94663813066E+03  0.14446530654E+04  0.00000000000E+00 0. -1.
</event>
<event>
 8    1  0.7446554E-006  0.1282031E+04  0.7818608E-02  0.8547225E-01
         -2   -1    0    0    0  501 -0.00000000000E+00  0.00000000000E+00  0.13697146143E+04  0.13697146143E+04  0.00000000000E+00 0.  1.
          2   -1    0    0  502    0  0.00000000000E+00 -0.00000000000E+00 -0.14363931117E+04  0.14363931117E+04  0.00000000000E+00 0. -1.
    9000010    2    1    2  502    0 -0.81104209480E+03 -0.10749140883E+03 -0.60260261311E+03  0.14179010697E+04  0.98892358233E+03 0.  0.
   -9000010    2    1    2    0  501  0.81104209480E+03  0.10749140883E+03  0.53592411575E+03  0.13882066563E+04  0.98516972153E+03 0.  0.
        -13    1    3    3    0    0 -0.27058665994E+02 -0.29303690037E+03 -0.53352489757E+03  0.60930421291E+03  0.10566000000E+00 0.  1.
         13    1    4    4    0    0 -0.97172882812E+02  0.32953980575E+03  0.17926368763E+03  0.38752359102E+03  0.10566000000E+00 0. -1.
          4    1    3    3  502    0 -0.78398342880E+03  0.18554549154E+03 -0.69077715547E+02  0.80859685682E+03  0.00000000000E+00 0.  1.
         -4    1    4    4    0  501  0.90821497761E+03 -0.22204839693E+03  0.35666042812E+03  0.10006830653E+04  0.00000000000E+00 0. -1.
</event>
<event>
 8    1  0.7446554E-006  0.1136686E+04  0.7818608E-02  0.8655828E-01
          1   -1    0    0  502    0  0.00000000000E+00  0.00000000000E+00  0.21950377635E+04  0.21950377635E+04  0.00000000000E+00 0. -1.
         -1   -1    0    0    0  501 -0.00000000000E+00 -0.00000000000E+00 -0.59088480353E+03  0.59088480353E+03  0.00000000000E+00 0.  1.
    9000010    2    1    2  502    0  0.11675757286E+03  0.63659896508E+03  0.80249332387E+03  0.13434573799E+04  0.86138935652E+03 0.  0.
   -9000010    2    1    2    0  501 -0.11675757286E+03 -0.63659896508E+03  0.80165963605E+03  0.14424651871E+04  0.10095330954E+04 0.  0.
        -13    1    3    3    0    0  0.15824411066E+03  0.38751274953E+03 -0.79471346236E+02  0.42605520258E+03  0.10566000000E+00 0.  1.
         13    1    4    4    0    0  0.36449229240E+03 -0.57620812175E+03  0.30070058968E+03  0.74517869440E+03  0.10566000000E+00 0. -1.
          4    1    3    3  502    0 -0.41486537799E+02  0.24908621555E+03  0.88196467011E+03  0.91740217730E+03  0.00000000000E+00 0.  1.
         -4    1    4    4    0  501 -0.48124986526E+03 -0.60390843327E+02  0.50095904637E+03  0.69728649271E+03  0.00000000000E+00 0. -1.
</event>
<event>
 8    1  0.7446554E-006  0.1062904E+04  0.7818608E-02  0.8717632E-01
         -1   -1    0    0    0  501 -0.00000000000E+00  0.00000000000E+00  0.13091738663E+04  0.13091738663E+04  0.00000000000E+00 0.  1.
          1   -1    0    0  502    0  0.00000000000E+00 -0.00000000000E+00 -0.88823703663E+03  0.88823703663E+03  0.00000000000E+00 0. -1.
    9000010    2    1    2  502    0  0.30878870072E+03 -0.14607161988E+03  0.27686268255E+02  0.10746870860E+04  0.10185766655E+04 0.  0.
   -9000010    2    1    2    0  501 -0.30878870072E+03  0.14607161988E+03  0.39325056143E+03  0.11227238169E+04  0.99457296628E+03 0.  0.
        -13    1    3    3    0    0  0.36134598491E+03 -0.13002290980E+03  0.48244057903E+03  0.61662452217E+03  0.10566000000E+00 0.  1.
         13    1    4    4    0    0 -0.57698757887E+03  0.30816257558E+03  0.46334735551E+03  0.80160440504E+03  0.10566000000E+00 0. -1.
          4    1    3    3  502    0 -0.52557284191E+02 -0.16048710075E+02 -0.45475431077E+03  0.45806256383E+03  0.00000000000E+00 0.  1.
         -4    1    4    4    0  501  0.26819887815E+03 -0.16209095571E+03 -0.70096794086E+02  0.32111941191E+03  0.00000000000E+00 0. -1.
</event>
<event>
 8    1  0.7446554E-006  0.1299290E+04  0.7818608E-02  0.8535324E-01
         -2   -1    0    0    0  501 -0.00000000000E+00  0.00000000000E+00  0.70673529424E+03  0.70673529424E+03  0.00000000000E+00 0.  1.
          2   -1    0    0  502    0  0.00000000000E+00 -0.00000000000E+00 -0.26130632077E+04  0.26130632077E+04  0.00000000000E+00 0. -1.
    9000010    2    1    2  502    0  0.78187204885E+03  0.26434838149E+03 -0.14427869393E+04  0.19448347685E+04  0.10097247927E+04 0.  0.
   -9000010    2    1    2    0  501 -0.78187204885E+03 -0.26434838149E+03 -0.46354097410E+03  0.13749637334E+04  0.99722167341E+03 0.  0.
        -13    1    3    3    0    0  0.68793720307E+03  0.27952123724E+03 -0.30447875518E+03  0.80255656558E+03  0.10566000000E+00 0.  1.
         13    1    4    4    0    0  0.14854027295E+03 -0.32112696190E+03 -0.58492627392E+02  0.35861976656E+03  0.10566000000E+00 0. -1.
          4    1    3    3  502    0  0.93934845776E+02 -0.15172855745E+02 -0.11383081842E+04  0.11422782029E+04  0.00000000000E+00 0.  1.
         -4    1    4    4    0  501 -0.93041232179E+03  0.56778580411E+02 -0.40504834671E+03  0.10163439668E+04  0.00000000000E+00 0. -1.
</event>
<event>
 8    1  0.7446554E-006  0.1213549E+04  0.7818608E-02  0.8596429E-01
         -2   -1    0    0    0  501 -0.00000000000E+00  0.00000000000E+00  0.84397654735E+03  0.84397654735E+03  0.00000000000E+00 0.  1.
          2   -1    0    0  502    0  0.00000000000E+00 -0.00000000000E+00 -0.17960872238E+04  0.17960872238E+04  0.00000000000E+00 0. -1.
    9000010    2    1    2  502    0 -0.98347931400E+02 -0.62510085996E+03 -0.70877549895E+03  0.14357972693E+04  0.10764421442E+04 0.  0.
   -9000010    2    1    2    0  501  0.98347931400E+02  0.62510085996E+03 -0.24333517752E+03  0.12042665019E+04  0.99530015486E+03 0.  0.
        -13    1    3    3    0    0 -0.48611081527E+03 -0.61349722422E+03 -0.69635715299E+03  0.10476620946E+04  0.10566000000E+00 0.  1.
         13    1    4    4    0    0 -0.38565465748E+03  0.33220943282E+03  0.13138585271E+03  0.52569465999E+03  0.10566000000E+00 0. -1.
          4    1    3    3  502    0  0.38776288387E+03 -0.11603635737E+02 -0.12418345957E+02  0.38813517464E+03  0.00000000000E+00 0.  1.
         -4    1    4    4    0  501  0.48400258888E+03  0.29289142714E+03 -0.37472103023E+03  0.67857184191E+03  0.00000000000E+00 0. -1.
</event>
<event>
 8    1  0.7446554E-006  0.1240813E+04  0.7818608E-02  0.8576447E-01
          2   -1    0    0  502    0  0.00000000000E+00  0.00000000000E+00  0.19183034446E+04  0.19183034446E+04  0.00000000000E+00 0. -1.
         -2   -1    0    0    0  501 -0.00000000000E+00 -0.00000000000E+00 -0.89692827799E+03  0.89692827799E+03  0.00000000000E+00 0.  1.
    9000010    2    1    2  502    0  0.67474593487E+03  0.21694606034E+03  0.96741079641E+03  0.15738489483E+04  0.10192002715E+04 0.  0.
   -9000010    2    1    2    0  501 -0.67474593487E+03 -0.21694606034E+03  0.53964370157E+02  0.12413827742E+04  0.10177285341E+04 0.  0.
        -13    1    3    3    0    0  0.48207683258E+03  0.60508927070E+03  0.78964151921E+03  0.11054704148E+04  0.10566000000E+00 0.  1.
         13    1    4    4    0    0  0.13502405068E+03 -0.23912393787E+03 -0.25465266988E+03  0.37451267717E+03  0.10566000000E+00 0. -1.
          4    1    3    3  502    0  0.19266910230E+03 -0.38814321036E+03  0.17776927720E+03  0.46837853350E+03  0.00000000000E+00 0.  1.
         -4    1    4    4    0  501 -0.80976998555E+03  0.22177877521E+02  0.30861704004E+03  0.86687009705E+03  0.00000000000E+00 0. -1.
</event>
<event>
 8    1  0.7446554E-006  0.1256159E+04  0.7818608E-02  0.8565432E-01
         -2   -1    0    0    0  501 -0.00000000000E+00  0.00000000000E+00  0.75122238587E+03  0.75122238587E+03  0.00000000000E+00 0. -1.
          2   -1    0    0  502    0  0.00000000000E+00 -0.00000000000E+00 -0.22366738900E+04  0.22366738900E+04  0.00000000000E+00 0.  1.
    9000010    2    1    2  502    0  0.73191122306E+03  0.23247791003E+03 -0.37876408243E+03  0.13198837447E+04  0.10044355890E+04 0.  0.
   -9000010    2    1    2    0  501 -0.73191122306E+03 -0.23247791003E+03 -0.11066874217E+04  0.16680125311E+04  0.98375237612E+03 0.  0.
        -13    1    3    3    0    0  0.93207160619E+03  0.14816356084E+03 -0.50322803964E+03  0.10695552304E+04  0.10566000000E+00 0.  1.
         13    1    4    4    0    0 -0.90970694256E+03 -0.20748059528E+01 -0.10147159577E+04  0.13627984121E+04  0.10566000000E+00 0. -1.
          4    1    3    3  502    0 -0.20016038313E+03  0.84314349186E+02  0.12446395721E+03  0.25032851435E+03  0.00000000000E+00 0.  1.
         -4    1    4    4    0  501  0.17779571950E+03 -0.23040310408E+03 -0.91971464021E+02  0.30521411899E+03  0.00000000000E+00 0. -1.
</event>
<event>
 8    1  0.7446554E-006  0.1329567E+04  0.7818608E-02  0.8514900E-01
          2   -1    0    0  502    0  0.00000000000E+00  0.00000000000E+00  0.16323830946E+04  0.16323830946E+04  0.00000000000E+00 0.  1.
         -2   -1    0    0    0  501 -0.00000000000E+00 -0.00000000000E+00 -0.10899891848E+04  0.10899891848E+04  0.00000000000E+00 0. -1.
    9000010    2    1    2  502    0  0.85947339314E+03  0.15033703957E+03  0.16146815316E+03  0.13385903910E+04  0.10022257886E+04 0.  0.
   -9000010    2    1    2    0  501 -0.85947339314E+03 -0.15033703957E+03  0.38092575665E+03  0.13837818885E+04  0.10042171796E+04 0.  0.
        -13    1    3    3    0    0  0.96664048862E+03 -0.17766755440E+03  0.14125207857E+03  0.99293089135E+03  0.10566000000E+00 0.  1.
         13    1    4    4    0    0 -0.33706820016E+02 -0.35756668733E+03 -0.14023799591E+03  0.38556036138E+03  0.10566000000E+00 0. -1.
          4    1    3    3  502    0 -0.10716709548E+03  0.32800459397E+03  0.20216074586E+02  0.34565949964E+03  0.00000000000E+00 0.  1.
         -4    1    4    4    0  501 -0.82576657313E+03  0.20722964776E+03  0.52116375256E+03  0.99822152711E+03  0.00000000000E+00 0. -1.
</event>
<event>
 8    1  0.7446554E-006  0.1047449E+04  0.7818608E-02  0.8731243E-01
          1   -1    0    0  502    0  0.00000000000E+00  0.00000000000E+00  0.18456594696E+04  0.18456594696E+04  0.00000000000E+00 0. -1.
         -1   -1    0    0    0  501 -0.00000000000E+00 -0.00000000000E+00 -0.59559268467E+03  0.59559268467E+03  0.00000000000E+00 0.  1.
    9000010    2    1    2  502    0 -0.45911389364E+02 -0.30478887328E+03  0.57001671080E+03  0.11901412176E+04  0.99825495455E+03 0.  0.
   -9000010    2    1    2    0  501  0.45911389364E+02  0.30478887328E+03  0.68005007417E+03  0.12511109367E+04  0.10038955920E+04 0.  0.
        -13    1    3    3    0    0  0.15312463231E+03 -0.62909564119E+03  0.25396255734E+03  0.69548937482E+03  0.10566000000E+00 0.  1.
         13    1    4    4    0    0  0.40056640053E+03  0.45207981169E+03  0.61428456486E+03  0.86149587066E+03  0.10566000000E+00 0. -1.
          4    1    3    3  502    0 -0.19903602168E+03  0.32430676792E+03  0.31605415346E+03  0.49465184278E+03  0.00000000000E+00 0.  1.
         -4    1    4    4    0  501 -0.35465501117E+03 -0.14729093841E+03  0.65765509314E+02  0.38961506606E+03  0.00000000000E+00 0. -1.
</event>
<event>
 8    1  0.7446554E-006  0.1363015E+04  0.7818608E-02  0.8492979E-01
         -1   -1    0    0    0  501 -0.00000000000E+00  0.00000000000E+00  0.40858822921E+04  0.40858822921E+04  0.00000000000E+00 0. -1.
          1   -1    0    0  502    0  0.00000000000E+00 -0.00000000000E+00 -0.46737083008E+03  0.46737083008E+03  0.00000000000E+00 0.  1.
    9000010    2    1    2  502    0  0.28869340713E+03  0.87375121143E+03  0.21839546635E+04  0.25742616278E+04  0.10051765483E+04 0.  0.
   -9000010    2    1    2    0  501 -0.28869340713E+03 -0.87375121143E+03  0.14345567985E+04  0.19789914944E+04  0.10058176097E+04 0.  0.
        -13    1    3    3    0    0  0.63171847799E+03  0.32281490851E+03  0.12430248112E+04  0.14312191981E+04  0.10566000000E+00 0.  1.
         13    1    4    4    0    0  0.73890665140E+02 -0.83668030394E+03  0.50386253661E+03  0.97947497588E+03  0.10566000000E+00 0. -1.
          4    1    3    3  502    0 -0.34302507085E+03  0.55093630293E+03  0.94092985227E+03  0.11430424297E+04  0.00000000000E+00 0.  1.
         -4    1    4    4    0  501 -0.36258407227E+03 -0.37070907488E+02  0.93069426192E+03  0.99951651853E+03  0.00000000000E+00 0. -1.
</event>
<event>
 8    1  0.7446554E-006  0.1082735E+04  0.7818608E-02  0.8700518E-01
          2   -1    0    0  502    0  0.00000000000E+00  0.00000000000E+00  0.20854143632E+04  0.20854143632E+04  0.00000000000E+00 0. -1.
         -2   -1    0    0    0  501 -0.00000000000E+00 -0.00000000000E+00 -0.60521890693E+03  0.60521890693E+03  0.00000000000E+00 0.  1.
    9000010    2    1    2  502    0  0.41830278071E+03 -0.29419370917E+02  0.10969286686E+04  0.15390467931E+04  0.99477123581E+03 0.  0.
   -9000010    2    1    2    0  501 -0.41830278071E+03  0.29419370917E+02  0.38326678768E+03  0.11515864770E+04  0.10017061784E+04 0.  0.
        -13    1    3    3    0    0  0.34566082878E+03 -0.37188677060E+03  0.10742937218E+04  0.11882290144E+04  0.10566000000E+00 0.  1.
         13    1    4    4    0    0 -0.66794736384E+03  0.27998580595E+03  0.32202913535E+03  0.79262128887E+03  0.10566000000E+00 0. -1.
          4    1    3    3  502    0  0.72641951931E+02  0.34246739969E+03  0.22634946740E+02  0.35081777869E+03  0.00000000000E+00 0.  1.
         -4    1    4    4    0  501  0.24964458312E+03 -0.25056643504E+03  0.61237652336E+02  0.35896518816E+03  0.00000000000E+00 0. -1.
</event>
<event>
 8    1  0.7446554E-006  0.1363929E+04  0.7818608E-02  0.8492389E-01
         -2   -1    0    0    0  501 -0.00000000000E+00  0.00000000000E+00  0.93610337092E+03  0.93610337092E+03  0.00000000000E+00 0. -1.
          2   -1    0    0  502    0  0.00000000000E+00 -0.00000000000E+00 -0.23764238202E+04  0.23764238202E+04  0.00000000000E+00 0.  1.
    9000010    2    1    2  502    0  0.44544465951E+02 -0.92751016716E+03 -0.51343076450E+02  0.13680602015E+04  0.10033410606E+04 0.  0.
   -9000010    2    1    2    0  501 -0.44544465951E+02  0.92751016716E+03 -0.13889773729E+04  0.19444669896E+04  0.99470317777E+03 0.  0.
        -13    1    3    3    0    0  0.83135883141E+02 -0.45009923720E+03 -0.52357979665E+03  0.69543994206E+03  0.10566000000E+00 0.  1.
         13    1    4    4    0    0  0.10854191374E+02  0.80079130546E+03 -0.15423918768E+04  0.17379175012E+04  0.10566000000E+00 0. -1.
          4    1    3    3  502    0 -0.38591417190E+02 -0.47741092996E+03  0.47223672020E+03  0.67262025945E+03  0.00000000000E+00 0.  1.
         -4    1    4    4    0  501 -0.55398657325E+02  0.12671886170E+03  0.15341450393E+03  0.20654948840E+03  0.00000000000E+00 0. -1.
</event>
<event>
 8    1  0.7446554E-006  0.1377546E+04  0.7818608E-02  0.8483656E-01
          1   -1    0    0  502    0  0.00000000000E+00  0.00000000000E+00  0.48511611860E+03  0.48511611860E+03  0.00000000000E+00 0.  1.
         -1   -1    0    0    0  501 -0.00000000000E+00 -0.00000000000E+00 -0.39717108842E+04  0.39717108842E+04  0.00000000000E+00 0. -1.
    9000010    2    1    2  502    0  0.87755796904E+03  0.35373071982E+03 -0.14662016098E+04  0.20100373855E+04  0.99763205601E+03 0.  0.
   -9000010    2    1    2    0  501 -0.87755796904E+03 -0.35373071982E+03 -0.20203931558E+04  0.24467896173E+04  0.10047673942E+04 0.  0.
        -13    1    3    3    0    0 -0.16468170028E+03  0.22340127163E+03 -0.11953975325E+03  0.30218860724E+03  0.10566000000E+00 0.  1.
         13    1    4    4    0    0 -0.46412590134E+03 -0.27763508782E+03 -0.19461596710E+04  0.20199088025E+04  0.10566000000E+00 0. -1.
          4    1    3    3  502    0  0.10422396693E+04  0.13032944819E+03 -0.13466618566E+04  0.17078487782E+04  0.00000000000E+00 0.  1.
         -4    1    4    4    0  501 -0.41343206770E+03 -0.76095632008E+02 -0.74233484795E+02  0.42688081484E+03  0.00000000000E+00 0. -1.
</event>
<event>
 8    1  0.7446554E-006  0.1348100E+04  0.7818608E-02  0.8502673E-01
         -2   -1    0    0    0  501 -0.00000000000E+00  0.00000000000E+00  0.79449002587E+03  0.79449002587E+03  0.00000000000E+00 0. -1.
          2   -1    0    0  502    0  0.00000000000E+00 -0.00000000000E+00 -0.25935664684E+04  0.25935664684E+04  0.00000000000E+00 0.  1.
    9000010    2    1    2  502    0  0.55654899402E+03 -0.73167446713E+03 -0.14742060163E+04  0.19895704405E+04  0.96954259878E+03 0.  0.
   -9000010    2    1    2    0  501 -0.55654899402E+03  0.73167446713E+03 -0.32487042624E+03  0.13984860537E+04  0.10025607912E+04 0.  0.
        -13    1    3    3    0    0  0.34472272640E+03  0.14887696419E+03 -0.71571551946E+03  0.80823686165E+03  0.10566000000E+00 0.  1.
         13    1    4    4    0    0 -0.62736849559E+03  0.51990058778E+03 -0.62322917015E+03  0.10258179469E+04  0.10566000000E+00 0. -1.
          4    1    3    3  502    0  0.21182626762E+03 -0.88055143133E+03 -0.75849049682E+03  0.11813335789E+04  0.00000000000E+00 0.  1.
         -4    1    4    4    0  501  0.70819501578E+02  0.21177387935E+03  0.29835874392E+03  0.37266810683E+03  0.00000000000E+00 0. -1.
</event>
<event>
 8    1  0.7446554E-006  0.1396763E+04  0.7818608E-02  0.8471507E-01
          1   -1    0    0  502    0  0.00000000000E+00  0.00000000000E+00  0.96644769569E+03  0.96644769569E+03  0.00000000000E+00 0. -1.
         -1   -1    0    0    0  501 -0.00000000000E+00 -0.00000000000E+00 -0.22295562217E+04  0.22295562217E+04  0.00000000000E+00 0.  1.
    9000010    2    1    2  502    0  0.61073457127E+03  0.76704553749E+03 -0.11203451548E+04  0.17856074075E+04  0.98583212293E+03 0.  0.
   -9000010    2    1    2    0  501 -0.61073457127E+03 -0.76704553749E+03 -0.14276337115E+03  0.14103965099E+04  0.10037337106E+04 0.  0.
        -13    1    3    3    0    0  0.43677385951E+03  0.83892453997E+03 -0.37596662186E+03  0.10177999312E+04  0.10566000000E+00 0.  1.
         13    1    4    4    0    0  0.22293246759E+03 -0.57704096709E+02  0.15307534677E+03  0.27651531755E+03  0.10566000000E+00 0. -1.
          4    1    3    3  502    0  0.17396071175E+03 -0.71879002486E+02 -0.74437853296E+03  0.76780747624E+03  0.00000000000E+00 0.  1.
         -4    1    4    4    0  501 -0.83366703886E+03 -0.70934144078E+03 -0.29583871792E+03  0.11338811923E+04  0.00000000000E+00 0. -1.
</event>
<event>
 8    1  0.7446554E-006  0.1075137E+04  0.7818608E-02  0.8707030E-01
          2   -1    0    0  502    0  0.00000000000E+00  0.00000000000E+00  0.23211177170E+04  0.23211177170E+04  0.00000000000E+00 0.  1.
         -2   -1    0    0    0  501 -0.00000000000E+00 -0.00000000000E+00 -0.66082304364E+03  0.66082304364E+03  0.00000000000E+00 0. -1.
    9000010    2    1    2  502    0 -0.37970092016E+03 -0.13252947741E+03  0.15732771041E+04  0.19085447541E+04  0.10027987738E+04 0.  0.
   -9000010    2    1    2    0  501  0.37970092016E+03  0.13252947741E+03  0.87017569259E+02  0.10733960066E+04  0.99139804238E+03 0.  0.
        -13    1    3    3    0    0 -0.61216499169E+03 -0.12452222621E+03  0.47198511161E+03  0.78295703497E+03  0.10566000000E+00 0.  1.
         13    1    4    4    0    0 -0.42519127124E+02  0.33087893027E+03 -0.31407454713E+03  0.45818290561E+03  0.10566000000E+00 0. -1.
          4    1    3    3  502    0  0.23246407153E+03 -0.80072512018E+01  0.11012919925E+04  0.11255877191E+04  0.00000000000E+00 0.  1.
         -4    1    4    4    0  501  0.42222004728E+03 -0.19834945286E+03  0.40109211639E+03  0.61521310097E+03  0.00000000000E+00 0. -1.
</event>
<event>
 8    1  0.7446554E-006  0.1300385E+04  0.7818608E-02  0.8534576E-01
         -2   -1    0    0    0  501 -0.00000000000E+00  0.00000000000E+00  0.10845197172E+04  0.10845197172E+04  0.00000000000E+00 0.  1.
          2   -1    0    0  502    0  0.00000000000E+00 -0.00000000000E+00 -0.18026268138E+04  0.18026268138E+04  0.00000000000E+00 0. -1.
    9000010    2    1    2  502    0 -0.40178734656E+03  0.72515544798E+03 -0.89102983401E+03  0.15817826871E+04  0.10103557831E+04 0.  0.
   -9000010    2    1    2    0  501  0.40178734656E+03 -0.72515544798E+03  0.17292273738E+03  0.13053638439E+04  0.99337253648E+03 0.  0.
        -13    1    3    3    0    0 -0.68719058070E+03  0.60995678812E+03 -0.39970502367E+03  0.10020191089E+04  0.10566000000E+00 0.  1.
         13    1    4    4    0    0  0.64082199030E+03 -0.20464932673E+03  0.26917930366E+03  0.72456309516E+03  0.10566000000E+00 0. -1.
          4    1    3    3  502    0  0.28540323414E+03  0.11519865986E+03 -0.49132481034E+03  0.57976357814E+03  0.00000000000E+00 0.  1.
         -4    1    4    4    0  501 -0.23903464374E+03 -0.52050612126E+03 -0.96256566274E+02  0.58080074873E+03  0.00000000000E+00 0. -1.
</event>
<event>
 8    1  0.7446554E-006  0.1424898E+04  0.7818608E-02  0.8454076E-01
          2   -1    0    0  502    0  0.00000000000E+00  0.00000000000E+00  0.29347556804E+04  0.29347556804E+04  0.00000000000E+00 0.  1.
         -2   -1    0    0    0  501 -0.00000000000E+00 -0.00000000000E+00 -0.83716361155E+03  0.83716361155E+03  0.00000000000E+00 0. -1.
    9000010    2    1    2  502    0 -0.44543531955E+03  0.92374063097E+03  0.25951149215E+03  0.14426752955E+04  0.98094669403E+03 0.  0.
   -9000010    2    1    2    0  501  0.44543531955E+03 -0.92374063097E+03  0.18380805767E+04  0.23292439964E+04  0.99756103135E+03 0.  0.
        -13    1    3    3    0    0 -0.65279296634E+03  0.93301716056E+03  0.38332486048E+02  0.11393546724E+04  0.10566000000E+00 0.  1.
         13    1    4    4    0    0  0.39618972360E+03 -0.11406002692E+04  0.15805055782E+04  0.19889527810E+04  0.10566000000E+00 0. -1.
          4    1    3    3  502    0  0.20735764679E+03 -0.92765295981E+01  0.22117900610E+03  0.30332062314E+03  0.00000000000E+00 0.  1.
         -4    1    4    4    0  501  0.49245595949E+02  0.21685963827E+03  0.25757499846E+03  0.34029121537E+03  0.00000000000E+00 0. -1.
</event>
<event>
 8    1  0.7446554E-006  0.1214978E+04  0.7818608E-02  0.8595368E-01
          4   -1    0    0  502    0  0.00000000000E+00  0.00000000000E+00  0.42478792905E+04  0.42478792905E+04  0.00000000000E+00 0. -1.
         -4   -1    0    0    0  501 -0.00000000000E+00 -0.00000000000E+00 -0.36526637568E+03  0.36526637568E+03  0.00000000000E+00 0.  1.
    9000010    2    1    2  502    0  0.55363220384E+03  0.39828758624E+03  0.14632960552E+04  0.19144012237E+04  0.10288610605E+04 0.  0.
   -9000010    2    1    2    0  501 -0.55363220384E+03 -0.39828758624E+03  0.24193168597E+04  0.26987444425E+04  0.98233694819E+03 0.  0.
        -13    1    3    3    0    0  0.51506256605E+02  0.34580519955E+03 -0.17348851299E+02  0.35005017399E+03  0.10566000000E+00 0.  1.
         13    1    4    4    0    0 -0.34618193739E+03  0.98632028459E+02  0.19340880514E+03  0.40862842276E+03  0.10566000000E+00 0. -1.
          4    1    3    3  502    0  0.50212594723E+03  0.52482386687E+02  0.14806449064E+04  0.15643510497E+04  0.00000000000E+00 0.  1.
         -4    1    4    4    0  501 -0.20745026644E+03 -0.49691961470E+03  0.22259080545E+04  0.22901160197E+04  0.00000000000E+00 0. -1.
</event>
<event>
 8    1  0.7446554E-006  0.1154842E+04  0.7818608E-02  0.8641366E-01
          2   -1    0    0  502    0  0.00000000000E+00  0.00000000000E+00  0.15310312221E+04  0.15310312221E+04  0.00000000000E+00 0. -1.
         -2   -1    0    0    0  501 -0.00000000000E+00 -0.00000000000E+00 -0.10082665079E+04  0.10082665079E+04  0.00000000000E+00 0.  1.
    9000010    2    1    2  502    0  0.45623991270E+03  0.35677333143E+03 -0.20716274246E+03  0.11721326770E+04  0.99776577548E+03 0.  0.
   -9000010    2    1    2    0  501 -0.45623991270E+03 -0.35677333143E+03  0.72992745665E+03  0.13671650530E+04  0.10004519590E+04 0.  0.
        -13    1    3    3    0    0  0.39221577708E+02 -0.31699831663E+03 -0.20538062495E+03  0.37974659600E+03  0.10566000000E+00 0.  1.
         13    1    4    4    0    0 -0.12237971144E+03 -0.42654453980E+03  0.88688773652E+03  0.99170908363E+03  0.10566000000E+00 0. -1.
          4    1    3    3  502    0  0.41701833500E+03  0.67377164806E+03 -0.17821175108E+01  0.79238608102E+03  0.00000000000E+00 0.  1.
         -4    1    4    4    0  501 -0.33386020126E+03  0.69771208368E+02 -0.15696027987E+03  0.37545596940E+03  0.00000000000E+00 0. -1.
</event>
<event>
 8    1  0.7446554E-006  0.2578984E+04  0.7818608E-02  0.7966506E-01
         -2   -1    0    0    0  501 -0.00000000000E+00  0.00000000000E+00  0.42169001926E+04  0.42169001926E+04  0.00000000000E+00 0.  1.
          2   -1    0    0  502    0  0.00000000000E+00 -0.00000000000E+00 -0.19412613424E+04  0.19412613424E+04  0.00000000000E+00 0. -1.
    9000010    2    1    2  502    0  0.77562757747E+03 -0.22488142712E+04 -0.19571776610E+03  0.25857498668E+04  0.99450146534E+03 0.  0.
   -9000010    2    1    2    0  501 -0.77562757747E+03  0.22488142712E+04  0.24713566163E+04  0.35724116682E+04  0.99787666413E+03 0.  0.
        -13    1    3    3    0    0  0.13466465453E+03 -0.15252170812E+04  0.19419619240E+03  0.15434163036E+04  0.10566000000E+00 0.  1.
         13    1    4    4    0    0 -0.29311313162E+03  0.67883032545E+03  0.14787645333E+04  0.16533210441E+04  0.10566000000E+00 0. -1.
          4    1    3    3  502    0  0.64096292294E+03 -0.72359718997E+03 -0.38991395850E+03  0.10423335632E+04  0.00000000000E+00 0.  1.
         -4    1    4    4    0  501 -0.48251444585E+03  0.15699839457E+04  0.99259208303E+03  0.19190906241E+04  0.00000000000E+00 0. -1.
</event>
<event>
 8    1  0.7446554E-006  0.1309312E+04  0.7818608E-02  0.8528501E-01
          2   -1    0    0  502    0  0.00000000000E+00  0.00000000000E+00  0.16065226519E+04  0.16065226519E+04  0.00000000000E+00 0. -1.
         -2   -1    0    0    0  501 -0.00000000000E+00 -0.00000000000E+00 -0.11345091979E+04  0.11345091979E+04  0.00000000000E+00 0.  1.
    9000010    2    1    2  502    0 -0.49717219325E+02 -0.87947226643E+03 -0.10034689643E+03  0.12976952592E+04  0.94762873359E+03 0.  0.
   -9000010    2    1    2    0  501  0.49717219325E+02  0.87947226643E+03  0.57236035045E+03  0.14433365906E+04  0.98978829737E+03 0.  0.
        -13    1    3    3    0    0  0.26706849976E+03 -0.93300167955E+03 -0.43647957351E+02  0.97145399940E+03  0.10566000000E+00 0.  1.
         13    1    4    4    0    0  0.19336164205E+03  0.16557351526E+03 -0.24174910176E+03  0.35106402968E+03  0.10566000000E+00 0. -1.
          4    1    3    3  502    0 -0.31678571908E+03  0.53529413122E+02 -0.56698939077E+02  0.32624125977E+03  0.00000000000E+00 0.  1.
         -4    1    4    4    0  501 -0.14364442272E+03  0.71389875117E+03  0.81410945221E+03  0.10922725609E+04  0.00000000000E+00 0. -1.
</event>
<event>
 8    1  0.7446554E-006  0.1047827E+04  0.7818608E-02  0.8730907E-01
         -1   -1    0    0    0  501 -0.00000000000E+00  0.00000000000E+00  0.18803274197E+04  0.18803274197E+04  0.00000000000E+00 0.  1.
          1   -1    0    0  502    0  0.00000000000E+00 -0.00000000000E+00 -0.58666195089E+03  0.58666195089E+03  0.00000000000E+00 0. -1.
    9000010    2    1    2  502    0  0.23779349522E+03 -0.19000949646E+03  0.56683200991E+03  0.11972362050E+04  0.10096666024E+04 0.  0.
   -9000010    2    1    2    0  501 -0.23779349522E+03  0.19000949646E+03  0.72683345892E+03  0.12697531656E+04  0.99565901265E+03 0.  0.
        -13    1    3    3    0    0 -0.51995041747E+02 -0.37067340773E+03  0.72878560662E+03  0.81928672096E+03  0.10566000000E+00 0.  1.
         13    1    4    4    0    0 -0.30779967328E+03 -0.33470938905E+03  0.13203535886E+03  0.47350222929E+03  0.10566000000E+00 0. -1.
          4    1    3    3  502    0  0.28978853697E+03  0.18066391127E+03 -0.16195359671E+03  0.37794948403E+03  0.00000000000E+00 0.  1.
         -4    1    4    4    0  501  0.70006178056E+02  0.52471888551E+03  0.59479810006E+03  0.79625093633E+03  0.00000000000E+00 0. -1.
</event>
<event>
 8    1  0.7446554E-006  0.1457352E+04  0.7818608E-02  0.8434475E-01
          1   -1    0    0  502    0  0.00000000000E+00  0.00000000000E+00  0.10526818285E+04  0.10526818285E+04  0.00000000000E+00 0.  1.
         -1   -1    0    0    0  501 -0.00000000000E+00 -0.00000000000E+00 -0.20948569648E+04  0.20948569648E+04  0.00000000000E+00 0. -1.
    9000010    2    1    2  502    0  0.48548043854E+03  0.92949646375E+03 -0.21388848622E+03  0.14574824456E+04  0.98936942670E+03 0.  0.
   -9000010    2    1    2    0  501 -0.48548043854E+03 -0.92949646375E+03 -0.82828665012E+03  0.16900563477E+04  0.10346867890E+04 0.  0.
        -13    1    3    3    0    0  0.52687694161E+02  0.19726507402E+03  0.37220900518E+03  0.42453392944E+03  0.10566000000E+00 0.  1.
         13    1    4    4    0    0  0.30786295114E+02 -0.88681857779E+03 -0.26789451926E+03  0.92691017391E+03  0.10566000000E+00 0. -1.
          4    1    3    3  502    0  0.43279274438E+03  0.73223138973E+03 -0.58609749141E+03  0.10329485162E+04  0.00000000000E+00 0.  1.
         -4    1    4    4    0  501 -0.51626673365E+03 -0.42677885963E+02 -0.56039213086E+03  0.76314617378E+03  0.00000000000E+00 0. -1.
</event>
<event>
 8    1  0.7446554E-006  0.1575738E+04  0.7818608E-02  0.8367198E-01
         -2   -1    0    0    0  501 -0.00000000000E+00  0.00000000000E+00  0.85396804172E+03  0.85396804172E+03  0.00000000000E+00 0.  1.
          2   -1    0    0  502    0  0.00000000000E+00 -0.00000000000E+00 -0.32498636765E+04  0.32498636765E+04  0.00000000000E+00 0. -1.
    9000010    2    1    2  502    0  0.20377483991E+03  0.12711887882E+04 -0.18924504446E+04  0.24926064766E+04  0.98705280577E+03 0.  0.
   -9000010    2    1    2    0  501 -0.20377483991E+03 -0.12711887882E+04 -0.50344519015E+03  0.16112252416E+04  0.82773461863E+03 0.  0.
        -13    1    3    3    0    0  0.15152403489E+02 -0.13823627587E+03 -0.43369670897E+03  0.45544671460E+03  0.10566000000E+00 0.  1.
         13    1    4    4    0    0  0.25224960345E+03 -0.66020962165E+03 -0.46867110151E+03  0.84803255805E+03  0.10566000000E+00 0. -1.
          4    1    3    3  502    0  0.18862243642E+03  0.14094250641E+04 -0.14587537356E+04  0.20371597620E+04  0.00000000000E+00 0.  1.
         -4    1    4    4    0  501 -0.45602444335E+03 -0.61097916657E+03 -0.34774088640E+02  0.76319268351E+03  0.00000000000E+00 0. -1.
</event>
<event>
 8    1  0.7446554E-006  0.1224101E+04  0.7818608E-02  0.8588631E-01
          1   -1    0    0  502    0  0.00000000000E+00  0.00000000000E+00  0.73537694222E+03  0.73537694222E+03  0.00000000000E+00 0.  1.
         -1   -1    0    0    0  501 -0.00000000000E+00 -0.00000000000E+00 -0.30562918770E+04  0.30562918770E+04  0.00000000000E+00 0. -1.
    9000010    2    1    2  502    0 -0.62840565426E+03  0.29905033295E+03 -0.68323086162E+02  0.12297398543E+04  0.10115667537E+04 0.  0.
   -9000010    2    1    2    0  501  0.62840565426E+03 -0.29905033295E+03 -0.22525918486E+04  0.25619289649E+04  0.10024895096E+04 0.  0.
        -13    1    3    3    0    0 -0.65666714208E+03 -0.16756347433E+03 -0.25813398073E+03  0.72520508588E+03  0.10566000000E+00 0.  1.
         13    1    4    4    0    0 -0.34612903265E+02 -0.18805938417E+03  0.19749482615E+02  0.19223537207E+03  0.10566000000E+00 0. -1.
          4    1    3    3  502    0  0.28261487822E+02  0.46661380728E+03  0.18981089457E+03  0.50453476841E+03  0.00000000000E+00 0.  1.
         -4    1    4    4    0  501  0.66301855752E+03 -0.11099094878E+03 -0.22723413312E+04  0.23696935928E+04  0.00000000000E+00 0. -1.
</event>
<event>
 8    1  0.7446554E-006  0.1124965E+04  0.7818608E-02  0.8665314E-01
          2   -1    0    0  502    0  0.00000000000E+00  0.00000000000E+00  0.20170294641E+04  0.20170294641E+04  0.00000000000E+00 0.  1.
         -2   -1    0    0    0  501 -0.00000000000E+00 -0.00000000000E+00 -0.63740799444E+03  0.63740799444E+03  0.00000000000E+00 0. -1.
    9000010    2    1    2  502    0 -0.43573621915E+03 -0.27232967128E+03  0.52274279485E+03  0.12389428682E+04  0.99884428147E+03 0.  0.
   -9000010    2    1    2    0  501  0.43573621915E+03  0.27232967128E+03  0.85687867484E+03  0.14154945904E+04  0.10026736106E+04 0.  0.
        -13    1    3    3    0    0 -0.12019200111E+03 -0.60202554991E+03  0.11013126546E+03  0.62370649080E+03  0.10566000000E+00 0.  1.
         13    1    4    4    0    0 -0.13919364442E+02  0.55850966279E+03  0.26294517786E+03  0.61746819340E+03  0.10566000000E+00 0. -1.
          4    1    3    3  502    0 -0.31554421804E+03  0.32969587862E+03  0.41261152940E+03  0.61523637743E+03  0.00000000000E+00 0.  1.
         -4    1    4    4    0  501  0.44965558359E+03 -0.28617999150E+03  0.59393349699E+03  0.79802639695E+03  0.00000000000E+00 0. -1.
</event>
<event>
 8    1  0.7446554E-006  0.1500060E+04  0.7818608E-02  0.8409465E-01
         -2   -1    0    0    0  501 -0.00000000000E+00  0.00000000000E+00  0.19150107961E+04  0.19150107961E+04  0.00000000000E+00 0. -1.
          2   -1    0    0  502    0  0.00000000000E+00 -0.00000000000E+00 -0.11957828651E+04  0.11957828651E+04  0.00000000000E+00 0.  1.
    9000010    2    1    2  502    0 -0.18725308363E+03  0.10895314310E+04  0.15805030525E+03  0.15209399368E+04  0.10325385881E+04 0.  0.
   -9000010    2    1    2    0  501  0.18725308363E+03 -0.10895314310E+04  0.56117762574E+03  0.15898537244E+04  0.99527487703E+03 0.  0.
        -13    1    3    3    0    0 -0.39361639159E+03 -0.65604256793E+01  0.88042528689E+02  0.40339608443E+03  0.10566000000E+00 0.  1.
         13    1    4    4    0    0 -0.26145909302E+03 -0.51990238812E+03 -0.12086455649E+03  0.59436319088E+03  0.10566000000E+00 0. -1.
          4    1    3    3  502    0  0.20636330796E+03  0.10960918567E+04  0.70007776557E+02  0.11175438524E+04  0.00000000000E+00 0.  1.
         -4    1    4    4    0  501  0.44871217665E+03 -0.56962904292E+03  0.68204218223E+03  0.99549053353E+03  0.00000000000E+00 0. -1.
</event>
<event>
 8    1  0.7446554E-006  0.1183989E+04  0.7818608E-02  0.8618717E-01
         -1   -1    0    0    0  501 -0.00000000000E+00  0.00000000000E+00  0.13047076162E+04  0.13047076162E+04  0.00000000000E+00 0. -1.
          1   -1    0    0  502    0  0.00000000000E+00 -0.00000000000E+00 -0.16394295988E+04  0.16394295988E+04  0.00000000000E+00 0.  1.
    9000010    2    1    2  502    0 -0.54197567366E+02 -0.62444449161E+03 -0.10314897167E+04  0.15699117069E+04  0.10038841729E+04 0.  0.
   -9000010    2    1    2    0  501  0.54197567366E+02  0.62444449161E+03  0.69676773413E+03  0.13742255080E+04  0.10050582929E+04 0.  0.
        -13    1    3    3    0    0 -0.41597667234E+03 -0.60689520310E+03 -0.94476023896E+03  0.11974682876E+04  0.10566000000E+00 0.  1.
         13    1    4    4    0    0  0.85973372680E+02  0.49053054508E+03 -0.14704436237E+03  0.51926264273E+03  0.10566000000E+00 0. -1.
          4    1    3    3  502    0  0.36177910497E+03 -0.17549288511E+02 -0.86729477721E+02  0.37244341936E+03  0.00000000000E+00 0.  1.
         -4    1    4    4    0  501 -0.31775805314E+02  0.13391394653E+03  0.84381209650E+03  0.85496286532E+03  0.00000000000E+00 0. -1.
</event>
<event>
 8    1  0.7446554E-006  0.1111331E+04  0.7818608E-02  0.8676501E-01
          2   -1    0    0  502    0  0.00000000000E+00  0.00000000000E+00  0.17506086776E+04  0.17506086776E+04  0.00000000000E+00 0.  1.
         -2   -1    0    0    0  501 -0.00000000000E+00 -0.00000000000E+00 -0.97459492853E+03  0.97459492853E+03  0.00000000000E+00 0. -1.
    9000010    2    1    2  502    0 -0.14440949776E+03 -0.48547074236E+03 -0.32686132870E+03  0.11626098034E+04  0.99412639136E+03 0.  0.
   -9000010    2    1    2    0  501  0.14440949776E+03  0.48547074236E+03  0.11028750778E+04  0.15625938028E+04  0.98429162880E+03 0.  0.
        -13    1    3    3    0    0  0.39337391123E+02 -0.76139664976E+03 -0.33078414170E+03  0.83107788334E+03  0.10566000000E+00 0.  1.
         13    1    4    4    0    0  0.33457854160E+03  0.55407948335E+03  0.11802855999E+04  0.13461132875E+04  0.10566000000E+00 0. -1.
          4    1    3    3  502    0 -0.18374688888E+03  0.27592590740E+03  0.39228130040E+01  0.33153192005E+03  0.00000000000E+00 0.  1.
         -4    1    4    4    0  501 -0.19016904384E+03 -0.68608740990E+02 -0.77410522060E+02  0.21648051529E+03  0.00000000000E+00 0. -1.
</event>
<event>
 8    1  0.7446554E-006  0.1298395E+04  0.7818608E-02  0.8535937E-01
          2   -1    0    0  502    0  0.00000000000E+00  0.00000000000E+00  0.10599982785E+04  0.10599982785E+04  0.00000000000E+00 0.  1.
         -2   -1    0    0    0  501 -0.00000000000E+00 -0.00000000000E+00 -0.16362416244E+04  0.16362416244E+04  0.00000000000E+00 0. -1.
    9000010    2    1    2  502    0  0.79197569944E+03  0.24275314560E+03 -0.63300189702E+02  0.13035368181E+04  0.10045131776E+04 0.  0.
   -9000010    2    1    2    0  501 -0.79197569944E+03 -0.24275314560E+03 -0.51294315613E+03  0.13927030848E+04  0.99516662059E+03 0.  0.
        -13    1    3    3    0    0  0.14899281021E+03 -0.34001322620E+03  0.16497697991E+03  0.40623302002E+03  0.10566000000E+00 0.  1.
         13    1    4    4    0    0 -0.29908982968E+03 -0.43847845624E+03 -0.65560347035E+03  0.84352475027E+03  0.10566000000E+00 0. -1.
          4    1    3    3  502    0  0.64298288923E+03  0.58276637180E+03 -0.22827716962E+03  0.89730379811E+03  0.00000000000E+00 0.  1.
         -4    1    4    4    0  501 -0.49288586977E+03  0.19572531065E+03  0.14266031423E+03  0.54917833451E+03  0.00000000000E+00 0. -1.
</event>
<event>
 8    1  0.7446554E-006  0.1478534E+04  0.7818608E-02  0.8421961E-01
         -4   -1    0    0    0  501 -0.00000000000E+00  0.00000000000E+00  0.14891195153E+04  0.14891195153E+04  0.00000000000E+00 0.  1.
          4   -1    0    0  502    0  0.00000000000E+00 -0.00000000000E+00 -0.14680416873E+04  0.14680416873E+04  0.00000000000E+00 0. -1.
    9000010    2    1    2  502    0 -0.10561914174E+04  0.26958220384E+03  0.15358745956E+02  0.14803930896E+04  0.10015552575E+04 0.  0.
   -9000010    2    1    2    0  501  0.10561914174E+04 -0.26958220384E+03  0.57190820184E+01  0.14767681131E+04  0.99629136153E+03 0.  0.
        -13    1    3    3    0    0 -0.12024852963E+04  0.31140522586E+03  0.18123178566E+03  0.12553043749E+04  0.10566000000E+00 0.  1.
         13    1    4    4    0    0 -0.12631015871E+03  0.74540937652E+01 -0.20812173805E+03  0.24356618961E+03  0.10566000000E+00 0. -1.
          4    1    3    3  502    0  0.14629387885E+03 -0.41823022018E+02 -0.16587303971E+03  0.22508871465E+03  0.00000000000E+00 0.  1.
         -4    1    4    4    0  501  0.11825015761E+04 -0.27703629760E+03  0.21384082007E+03  0.12332019235E+04  0.00000000000E+00 0. -1.
</event>
<event>
 8    1  0.7446554E-006  0.1358470E+04  0.7818608E-02  0.8495919E-01
          2   -1    0    0  502    0  0.00000000000E+00  0.00000000000E+00  0.22454152394E+04  0.22454152394E+04  0.00000000000E+00 0.  1.
         -2   -1    0    0    0  501 -0.00000000000E+00 -0.00000000000E+00 -0.82327208509E+03  0.82327208509E+03  0.00000000000E+00 0. -1.
    9000010    2    1    2  502    0 -0.68099079978E+03 -0.61892524699E+03  0.65349632092E+03  0.15158745347E+04  0.10119294603E+04 0.  0.
   -9000010    2    1    2    0  501  0.68099079978E+03  0.61892524699E+03  0.76864683341E+03  0.15528127898E+04  0.98670799885E+03 0.  0.
        -13    1    3    3    0    0 -0.23784069067E+03 -0.76852305184E+03  0.67135586074E+03  0.10478141907E+04  0.10566000000E+00 0.  1.
         13    1    4    4    0    0  0.31653822814E+03  0.82909888865E+03  0.33492107887E+03  0.94856394475E+03  0.10566000000E+00 0. -1.
          4    1    3    3  502    0 -0.44315010912E+03  0.14959780485E+03 -0.17859539825E+02  0.46806034396E+03  0.00000000000E+00 0.  1.
         -4    1    4    4    0  501  0.36445257164E+03 -0.21017364166E+03  0.43372575454E+03  0.60424884508E+03  0.00000000000E+00 0. -1.
</event>
<event>
 8    1  0.7446554E-006  0.1252926E+04  0.7818608E-02  0.8567739E-01
         -2   -1    0    0    0  501 -0.00000000000E+00  0.00000000000E+00  0.35760992197E+03  0.35760992197E+03  0.00000000000E+00 0. -1.
          2   -1    0    0  502    0  0.00000000000E+00 -0.00000000000E+00 -0.49292422690E+04  0.49292422690E+04  0.00000000000E+00 0.  1.
    9000010    2    1    2  502    0 -0.20155443035E+03  0.72897633509E+03 -0.14362972297E+04  0.19159562664E+04  0.10177956560E+04 0.  0.
   -9000010    2    1    2    0  501  0.20155443035E+03 -0.72897633509E+03 -0.31353351174E+04  0.33708959246E+04  0.98009303159E+03 0.  0.
        -13    1    3    3    0    0 -0.22623168266E+03  0.90349127865E+03 -0.71705617468E+03  0.11754347424E+04  0.10566000000E+00 0.  1.
         13    1    4    4    0    0  0.23302835840E+03  0.19271537743E+03 -0.10050501357E+04  0.10495557246E+04  0.10566000000E+00 0. -1.
          4    1    3    3  502    0  0.24677252308E+02 -0.17451494357E+03 -0.71924105501E+03  0.74052152401E+03  0.00000000000E+00 0.  1.
         -4    1    4    4    0  501 -0.31473928046E+02 -0.92169171252E+03 -0.21302849816E+04  0.23213402000E+04  0.00000000000E+00 0. -1.
</event>
<event>
 8    1  0.7446554E-006  0.1074962E+04  0.7818608E-02  0.8707180E-01
         -4   -1    0    0    0  501 -0.00000000000E+00  0.00000000000E+00  0.12990536473E+04  0.12990536473E+04  0.00000000000E+00 0. -1.
          4   -1    0    0  502    0  0.00000000000E+00 -0.00000000000E+00 -0.89769220953E+03  0.89769220953E+03  0.00000000000E+00 0.  1.
    9000010    2    1    2  502    0  0.15804751167E+03  0.12448734303E+03  0.30593192245E+03  0.11501679212E+04  0.10903282952E+04 0.  0.
   -9000010    2    1    2    0  501 -0.15804751167E+03 -0.12448734303E+03  0.95429515297E+02  0.10465779356E+04  0.10226155037E+04 0.  0.
        -13    1    3    3    0    0 -0.30019225607E+03 -0.27607258906E+03  0.35345134737E+03  0.53968447370E+03  0.10566000000E+00 0.  1.
         13    1    4    4    0    0  0.24052252363E+03  0.18570141930E+02 -0.35444491539E+03  0.42875067784E+03  0.10566000000E+00 0. -1.
          4    1    3    3  502    0  0.45823976774E+03  0.40055993209E+03 -0.47519424923E+02  0.61048344751E+03  0.00000000000E+00 0.  1.
         -4    1    4    4    0  501 -0.39857003530E+03 -0.14305748496E+03  0.44987443068E+03  0.61782725775E+03  0.00000000000E+00 0. -1.
</event>
<event>
 8    1  0.7446554E-006  0.1056717E+04  0.7818608E-02  0.8723052E-01
         -4   -1    0    0    0  501 -0.00000000000E+00  0.00000000000E+00  0.10272062418E+04  0.10272062418E+04  0.00000000000E+00 0. -1.
          4   -1    0    0  502    0  0.00000000000E+00 -0.00000000000E+00 -0.11039594509E+04  0.11039594509E+04  0.00000000000E+00 0.  1.
    9000010    2    1    2  502    0 -0.18408897969E+03  0.25264742082E+03  0.92900001507E+02  0.10684643505E+04  0.10174803125E+04 0.  0.
   -9000010    2    1    2    0  501  0.18408897969E+03 -0.25264742082E+03 -0.16965321069E+03  0.10627013422E+04  0.10014152281E+04 0.  0.
        -13    1    3    3    0    0  0.71212115150E+02 -0.18350766301E+03  0.42181037463E+03  0.46547849686E+03  0.10566000000E+00 0.  1.
         13    1    4    4    0    0 -0.36141714374E+03 -0.17316707031E+03  0.14711002182E+03  0.42690813498E+03  0.10566000000E+00 0. -1.
          4    1    3    3  502    0 -0.25530109484E+03  0.43615508383E+03 -0.32891037312E+03  0.60298585367E+03  0.00000000000E+00 0.  1.
         -4    1    4    4    0  501  0.54550612344E+03 -0.79480350507E+02 -0.31676323250E+03  0.63579320718E+03  0.00000000000E+00 0. -1.
</event>
<event>
 8    1  0.7446554E-006  0.1272803E+04  0.7818608E-02  0.8553668E-01
          2   -1    0    0  502    0  0.00000000000E+00  0.00000000000E+00  0.11270107446E+04  0.11270107446E+04  0.00000000000E+00 0. -1.
         -2   -1    0    0    0  501 -0.00000000000E+00 -0.00000000000E+00 -0.16327203571E+04  0.16327203571E+04  0.00000000000E+00 0.  1.
    9000010    2    1    2  502    0 -0.75509167576E+03 -0.19472707189E+03  0.22443010281E+03  0.12919101906E+04  0.10052765780E+04 0.  0.
   -9000010    2    1    2    0  501  0.75509167576E+03  0.19472707189E+03 -0.73013971535E+03  0.14678209111E+04  0.10066340705E+04 0.  0.
        -13    1    3    3    0    0 -0.68072637185E+03  0.30320070886E+03  0.11508732506E+02  0.74528620360E+03  0.10566000000E+00 0.  1.
         13    1    4    4    0    0  0.44578049403E+03  0.17287262079E+03  0.17646687521E+03  0.50965258862E+03  0.10566000000E+00 0. -1.
          4    1    3    3  502    0 -0.74365303911E+02 -0.49792778075E+03  0.21292137030E+03  0.54662398703E+03  0.00000000000E+00 0.  1.
         -4    1    4    4    0  501  0.30931118173E+03  0.21854451101E+02 -0.90660659056E+03  0.95816832249E+03  0.00000000000E+00 0. -1.
</event>
<event>
 8    1  0.7446554E-006  0.2027557E+04  0.7818608E-02  0.8157264E-01
          2   -1    0    0  502    0  0.00000000000E+00  0.00000000000E+00  0.31522747986E+04  0.31522747986E+04  0.00000000000E+00 0. -1.
         -2   -1    0    0    0  501 -0.00000000000E+00 -0.00000000000E+00 -0.13060457137E+04  0.13060457137E+04  0.00000000000E+00 0.  1.
    9000010    2    1    2  502    0 -0.15853133435E+04 -0.76761403832E+03  0.10066754364E+04  0.22604976996E+04  0.99699784701E+03 0.  0.
   -9000010    2    1    2    0  501  0.15853133435E+04  0.76761403832E+03  0.83955364852E+03  0.21978228128E+04  0.10114964552E+04 0.  0.
        -13    1    3    3    0    0 -0.12553926109E+04 -0.15022100864E+03  0.37806884882E+03  0.13196639817E+04  0.10566000000E+00 0.  1.
         13    1    4    4    0    0  0.74614542945E+03  0.86203183247E+03  0.24795822757E+03  0.11667541197E+04  0.10566000000E+00 0. -1.
          4    1    3    3  502    0 -0.32992073257E+03 -0.61739302968E+03  0.62860658755E+03  0.94083371793E+03  0.00000000000E+00 0.  1.
         -4    1    4    4    0  501  0.83916791401E+03 -0.94417794143E+02  0.59159542095E+03  0.10310686931E+04  0.00000000000E+00 0. -1.
</event>
<event>
 8    1  0.7446554E-006  0.1155167E+04  0.7818608E-02  0.8641109E-01
          2   -1    0    0  502    0  0.00000000000E+00  0.00000000000E+00  0.96569285931E+03  0.96569285931E+03  0.00000000000E+00 0. -1.
         -2   -1    0    0    0  501 -0.00000000000E+00 -0.00000000000E+00 -0.16943999770E+04  0.16943999770E+04  0.00000000000E+00 0.  1.
    9000010    2    1    2  502    0  0.43716540719E+03  0.41846218914E+03 -0.93563022139E+03  0.14865660938E+04  0.98399727791E+03 0.  0.
   -9000010    2    1    2    0  501 -0.43716540719E+03 -0.41846218914E+03  0.20692310368E+03  0.11735267426E+04  0.98393274554E+03 0.  0.
        -13    1    3    3    0    0  0.16122590545E+03 -0.21440387165E+03 -0.71197569904E+03  0.76083652643E+03  0.10566000000E+00 0.  1.
         13    1    4    4    0    0 -0.68021428197E+03 -0.63332029513E+02 -0.27059712415E+02  0.68369192957E+03  0.10566000000E+00 0. -1.
          4    1    3    3  502    0  0.27593950174E+03  0.63286606079E+03 -0.22365452235E+03  0.72572956732E+03  0.00000000000E+00 0.  1.
         -4    1    4    4    0  501  0.24304887478E+03 -0.35513015963E+03  0.23398281610E+03  0.48983481301E+03  0.00000000000E+00 0. -1.
</event>
<event>
 8    1  0.7446554E-006  0.1212312E+04  0.7818608E-02  0.8597349E-01
         -2   -1    0    0    0  501 -0.00000000000E+00  0.00000000000E+00  0.51368109038E+03  0.51368109038E+03  0.00000000000E+00 0.  1.
          2   -1    0    0  502    0  0.00000000000E+00 -0.00000000000E+00 -0.30679891220E+04  0.30679891220E+04  0.00000000000E+00 0. -1.
    9000010    2    1    2  502    0  0.69410839553E+03 -0.85023072509E+02 -0.17375626642E+04  0.21160287730E+04  0.98460061377E+03 0.  0.
   -9000010    2    1    2    0  501 -0.69410839553E+03  0.85023072509E+02 -0.81674536739E+03  0.14656414393E+04  0.99600022385E+03 0.  0.
        -13    1    3    3    0    0  0.24137117250E+03 -0.40543639973E+02  0.68012674554E+02  0.25402670080E+03  0.10566000000E+00 0.  1.
         13    1    4    4    0    0 -0.94082249461E+03  0.15550012159E+03 -0.70440102843E+03  0.11855412579E+04  0.10566000000E+00 0. -1.
          4    1    3    3  502    0  0.45273722302E+03 -0.44479432536E+02 -0.18055753388E+04  0.18620020722E+04  0.00000000000E+00 0.  1.
         -4    1    4    4    0  501  0.24671409908E+03 -0.70477049085E+02 -0.11234433896E+03  0.28010018142E+03  0.00000000000E+00 0. -1.
</event>
<event>
 8    1  0.7446554E-006  0.1436709E+04  0.7818608E-02  0.8446881E-01
          2   -1    0    0  502    0  0.00000000000E+00  0.00000000000E+00  0.14737622545E+04  0.14737622545E+04  0.00000000000E+00 0.  1.
         -2   -1    0    0    0  501 -0.00000000000E+00 -0.00000000000E+00 -0.16344578901E+04  0.16344578901E+04  0.00000000000E+00 0. -1.
    9000010    2    1    2  502    0 -0.22465481511E+03  0.10150949912E+04 -0.66754479021E+03  0.15738979306E+04  0.97501334456E+03 0.  0.
   -9000010    2    1    2    0  501  0.22465481511E+03 -0.10150949912E+04  0.50684915463E+03  0.15343222139E+04  0.10081472925E+04 0.  0.
        -13    1    3    3    0    0 -0.32362999650E+03  0.63566367931E+03  0.91891925907E+02  0.71920012864E+03  0.10566000000E+00 0.  1.
         13    1    4    4    0    0  0.56086984204E+03 -0.51273370272E+03  0.53471910921E+03  0.92919070515E+03  0.10566000000E+00 0. -1.
          4    1    3    3  502    0  0.98975181393E+02  0.37943131188E+03 -0.75943671611E+03  0.85469780200E+03  0.00000000000E+00 0.  1.
         -4    1    4    4    0  501 -0.33621502693E+03 -0.50236128847E+03 -0.27869954586E+02  0.60513150873E+03  0.00000000000E+00 0. -1.
</event>
<event>
 8    1  0.7446554E-006  0.2183873E+04  0.7818608E-02  0.8097382E-01
         -1   -1    0    0    0  501 -0.00000000000E+00  0.00000000000E+00  0.33672114991E+04  0.33672114991E+04  0.00000000000E+00 0.  1.
          1   -1    0    0  502    0  0.00000000000E+00 -0.00000000000E+00 -0.17105765686E+04  0.17105765686E+04  0.00000000000E+00 0. -1.
    9000010    2    1    2  502    0 -0.15527511771E+04 -0.11623748801E+04 -0.22376261010E+03  0.21978437650E+04  0.10091065007E+04 0.  0.
   -9000010    2    1    2    0  501  0.15527511771E+04  0.11623748801E+04  0.18803975406E+04  0.28799443027E+04  0.99801437680E+03 0.  0.
        -13    1    3    3    0    0 -0.15276970891E+04 -0.82099414689E+03  0.85632340468E+02  0.17364396604E+04  0.10566000000E+00 0.  1.
         13    1    4    4    0    0  0.15497507217E+04  0.82238561113E+03  0.12192556541E+04  0.21364994158E+04  0.10566000000E+00 0. -1.
          4    1    3    3  502    0 -0.25054088020E+02 -0.34138073320E+03 -0.30939495057E+03  0.46140410463E+03  0.00000000000E+00 0.  1.
         -4    1    4    4    0  501  0.30004554416E+01  0.33998926896E+03  0.66114188652E+03  0.74344488690E+03  0.00000000000E+00 0. -1.
</event>
<event>
 8    1  0.7446554E-006  0.1074258E+04  0.7818608E-02  0.8707787E-01
          2   -1    0    0  502    0  0.00000000000E+00  0.00000000000E+00  0.23190791440E+04  0.23190791440E+04  0.00000000000E+00 0. -1.
         -2   -1    0    0    0  501 -0.00000000000E+00 -0.00000000000E+00 -0.51049481954E+03  0.51049481954E+03  0.00000000000E+00 0.  1.
    9000010    2    1    2  502    0 -0.27785566313E+03  0.25060292384E+03  0.67825673589E+03  0.12690155511E+04  0.10051679831E+04 0.  0.
   -9000010    2    1    2    0  501  0.27785566313E+03 -0.25060292384E+03  0.11303275886E+04  0.15605584124E+04  0.10088094498E+04 0.  0.
        -13    1    3    3    0    0 -0.98322164781E+02  0.54042837834E+03  0.74096858225E+03  0.92236897783E+03  0.10566000000E+00 0.  1.
         13    1    4    4    0    0  0.46669210236E+03  0.25361576410E+03  0.47643222873E+03  0.71351955400E+03  0.10566000000E+00 0. -1.
          4    1    3    3  502    0 -0.17953349835E+03 -0.28982545450E+03 -0.62711846369E+02  0.34664657331E+03  0.00000000000E+00 0.  1.
         -4    1    4    4    0  501 -0.18883643922E+03 -0.50421868794E+03  0.65389535984E+03  0.84703885842E+03  0.00000000000E+00 0. -1.
</event>
<event>
 8    1  0.7446554E-006  0.1313999E+04  0.7818608E-02  0.8525331E-01
         -1   -1    0    0    0  501 -0.00000000000E+00  0.00000000000E+00  0.42970765840E+04  0.42970765840E+04  0.00000000000E+00 0. -1.
          1   -1    0    0  502    0  0.00000000000E+00 -0.00000000000E+00 -0.41465724312E+03  0.41465724312E+03  0.00000000000E+00 0.  1.
    9000010    2    1    2  502    0 -0.53472229959E+03 -0.64612960100E+03  0.15199455763E+04  0.20061728640E+04  0.10055265320E+04 0.  0.
   -9000010    2    1    2    0  501  0.53472229959E+03  0.64612960100E+03  0.23624737646E+04  0.27055609631E+04  0.10175295758E+04 0.  0.
        -13    1    3    3    0    0  0.13163011660E+03 -0.33409323664E+03  0.11040397693E+04  0.11609688203E+04  0.10566000000E+00 0.  1.
         13    1    4    4    0    0  0.77050242511E+03  0.56716515156E+03  0.12984023731E+04  0.16128233102E+04  0.10566000000E+00 0. -1.
          4    1    3    3  502    0 -0.66635241619E+03 -0.31203636436E+03  0.41590580698E+03  0.84520404373E+03  0.00000000000E+00 0.  1.
         -4    1    4    4    0  501 -0.23578012552E+03  0.78964449440E+02  0.10640713915E+04  0.10927376529E+04  0.00000000000E+00 0. -1.
</event>
<event>
 8    1  0.7446554E-006  0.1339590E+04  0.7818608E-02  0.8508263E-01
         -2   -1    0    0    0  501 -0.00000000000E+00  0.00000000000E+00  0.11720861656E+04  0.11720861656E+04  0.00000000000E+00 0. -1.
          2   -1    0    0  502    0  0.00000000000E+00 -0.00000000000E+00 -0.24037660340E+04  0.24037660340E+04  0.00000000000E+00 0.  1.
    9000010    2    1    2  502    0  0.87722571676E+03  0.24778851139E+03  0.46117117373E+03  0.14177434721E+04  0.98305320128E+03 0.  0.
   -9000010    2    1    2    0  501 -0.87722571676E+03 -0.24778851139E+03 -0.16928510421E+04  0.21581087276E+04  0.98018596444E+03 0.  0.
        -13    1    3    3    0    0  0.35803258493E+03 -0.32739626310E+03 -0.52653813309E+02  0.48800418050E+03  0.10566000000E+00 0.  1.
         13    1    4    4    0    0 -0.12086700271E+03 -0.50840628897E+03 -0.83563399298E+03  0.98558103087E+03  0.10566000000E+00 0. -1.
          4    1    3    3  502    0  0.51919313183E+03  0.57518477449E+03  0.51382498704E+03  0.92973929155E+03  0.00000000000E+00 0.  1.
         -4    1    4    4    0  501 -0.75635871405E+03  0.26061777759E+03 -0.85721704912E+03  0.11725276967E+04  0.00000000000E+00 0. -1.
</event>
<event>
 8    1  0.7446554E-006  0.1324089E+04  0.7818608E-02  0.8518554E-01
          1   -1    0    0  502    0  0.00000000000E+00  0.00000000000E+00  0.61201422857E+03  0.61201422857E+03  0.00000000000E+00 0. -1.
         -1   -1    0    0    0  501 -0.00000000000E+00 -0.00000000000E+00 -0.35258184482E+04  0.35258184482E+04  0.00000000000E+00 0.  1.
    9000010    2    1    2  502    0 -0.67059341829E+03 -0.40549362079E+03 -0.24061316653E+04  0.27796212197E+04  0.11500886596E+04 0.  0.
   -9000010    2    1    2    0  501  0.67059341829E+03  0.40549362079E+03 -0.50767255428E+03  0.13582114571E+04  0.98635000409E+03 0.  0.
        -13    1    3    3    0    0 -0.50623287940E+03 -0.69857010731E+03 -0.94169995116E+03  0.12771337957E+04  0.10566000000E+00 0.  1.
         13    1    4    4    0    0  0.34518818192E+03  0.66333299833E+03 -0.56751941996E+03  0.93874589257E+03  0.10566000000E+00 0. -1.
          4    1    3    3  502    0 -0.16436053889E+03  0.29307648652E+03 -0.14644317141E+04  0.15024874239E+04  0.00000000000E+00 0.  1.
         -4    1    4    4    0  501  0.32540523637E+03 -0.25783937754E+03  0.59846865679E+02  0.41946556449E+03  0.00000000000E+00 0. -1.
</event>
<event>
 8    1  0.7446554E-006  0.1076569E+04  0.7818608E-02  0.8705798E-01
          2   -1    0    0  502    0  0.00000000000E+00  0.00000000000E+00  0.22022417124E+04  0.22022417124E+04  0.00000000000E+00 0. -1.
         -2   -1    0    0    0  501 -0.00000000000E+00 -0.00000000000E+00 -0.56303308783E+03  0.56303308783E+03  0.00000000000E+00 0.  1.
    9000010    2    1    2  502    0  0.36698073740E+03 -0.10368622416E+03  0.47170381815E+03  0.11821194987E+04  0.10146311263E+04 0.  0.
   -9000010    2    1    2    0  501 -0.36698073740E+03  0.10368622416E+03  0.11675048064E+04  0.15831553014E+04  0.99894321203E+03 0.  0.
        -13    1    3    3    0    0  0.27670207284E+03 -0.55649991602E+03  0.29172402292E+03  0.68655597759E+03  0.10566000000E+00 0.  1.
         13    1    4    4    0    0  0.19185729962E+03 -0.27315528409E+03  0.65938388235E+03  0.73906031426E+03  0.10566000000E+00 0. -1.
          4    1    3    3  502    0  0.90278664552E+02  0.45281369186E+03  0.17997979522E+03  0.49556352116E+03  0.00000000000E+00 0.  1.
         -4    1    4    4    0  501 -0.55883803701E+03  0.37684150825E+03  0.50812092404E+03  0.84409498719E+03  0.00000000000E+00 0. -1.
</event>
<event>
 8    1  0.7446554E-006  0.1305487E+04  0.7818608E-02  0.8531098E-01
         -1   -1    0    0    0  501 -0.00000000000E+00  0.00000000000E+00  0.13225948722E+04  0.13225948722E+04  0.00000000000E+00 0. -1.
          1   -1    0    0  502    0  0.00000000000E+00 -0.00000000000E+00 -0.13043693004E+04  0.13043693004E+04  0.00000000000E+00 0.  1.
    9000010    2    1    2  502    0 -0.80302878377E+03  0.17482087441E+03 -0.13497410028E+03  0.13017294246E+04  0.10004318674E+04 0.  0.
   -9000010    2    1    2    0  501  0.80302878377E+03 -0.17482087441E+03  0.15319967212E+03  0.13252347481E+04  0.10282798414E+04 0.  0.
        -13    1    3    3    0    0  0.13040460908E+03 -0.17514822277E+03 -0.20878811255E+03  0.30211711159E+03  0.10566000000E+00 0.  1.
         13    1    4    4    0    0  0.96140819914E+03 -0.39973862148E+03  0.11583503743E+03  0.10476232424E+04  0.10566000000E+00 0. -1.
          4    1    3    3  502    0 -0.93343339285E+03  0.34996909718E+03  0.73814012272E+02  0.99961231298E+03  0.00000000000E+00 0.  1.
         -4    1    4    4    0  501 -0.15837941538E+03  0.22491774707E+03  0.37364634689E+02  0.27761150568E+03  0.00000000000E+00 0. -1.
</event>
<event>
 8    1  0.7446554E-006  0.1102925E+04  0.7818608E-02  0.8683483E-01
         -2   -1    0    0    0  501 -0.00000000000E+00  0.00000000000E+00  0.38253523128E+03  0.38253523128E+03  0.00000000000E+00 0.  1.
          2   -1    0    0  502    0  0.00000000000E+00 -0.00000000000E+00 -0.31945325148E+04  0.31945325148E+04  0.00000000000E+00 0. -1.
    9000010    2    1    2  502    0 -0.31037909222E+03 -0.30591567146E+03 -0.15509622295E+04  0.19173772608E+04  0.10396788658E+04 0.  0.
   -9000010    2    1    2    0  501  0.31037909222E+03  0.30591567146E+03 -0.12610350540E+04  0.16596904853E+04  0.98713905836E+03 0.  0.
        -13    1    3    3    0    0 -0.63568030502E+03 -0.37477021211E+03 -0.13208610701E+04  0.15130155782E+04  0.10566000000E+00 0.  1.
         13    1    4    4    0    0  0.18393733930E+03  0.30384431202E+03  0.35546692291E+02  0.35695642483E+03  0.10566000000E+00 0. -1.
          4    1    3    3  502    0  0.32530121280E+03  0.68854540655E+02 -0.23010115936E+03  0.40436168260E+03  0.00000000000E+00 0.  1.
         -4    1    4    4    0  501  0.12644175292E+03  0.20713594430E+01 -0.12965817463E+04  0.13027340604E+04  0.00000000000E+00 0. -1.
</event>
<event>
 8    1  0.7446554E-006  0.1250614E+04  0.7818608E-02  0.8569393E-01
          1   -1    0    0  502    0  0.00000000000E+00  0.00000000000E+00  0.70698799469E+03  0.70698799469E+03  0.00000000000E+00 0. -1.
         -1   -1    0    0    0  501 -0.00000000000E+00 -0.00000000000E+00 -0.23774796100E+04  0.23774796100E+04  0.00000000000E+00 0.  1.
    9000010    2    1    2  502    0 -0.51897676679E+03  0.53157851625E+03 -0.43114408550E+03  0.13265627295E+04  0.10109257388E+04 0.  0.
   -9000010    2    1    2    0  501  0.51897676679E+03 -0.53157851625E+03 -0.12393475298E+04  0.17579048751E+04  0.10011666430E+04 0.  0.
        -13    1    3    3    0    0  0.23111333238E+03  0.42240675741E+03 -0.68707700681E+02  0.48637598666E+03  0.10566000000E+00 0.  1.
         13    1    4    4    0    0  0.49555597263E+03 -0.58652219386E+03 -0.13943516451E+04  0.15917916093E+04  0.10566000000E+00 0. -1.
          4    1    3    3  502    0 -0.75009009917E+03  0.10917175884E+03 -0.36243638482E+03  0.84018674284E+03  0.00000000000E+00 0.  1.
         -4    1    4    4    0  501  0.23420794162E+02  0.54943677610E+02  0.15500411538E+03  0.16611326586E+03  0.00000000000E+00 0. -1.
</event>
<event>
 8    1  0.7446554E-006  0.1346339E+04  0.7818608E-02  0.8503827E-01
         -1   -1    0    0    0  501 -0.00000000000E+00  0.00000000000E+00  0.84825651793E+03  0.84825651793E+03  0.00000000000E+00 0.  1.
          1   -1    0    0  502    0  0.00000000000E+00 -0.00000000000E+00 -0.21878035074E+04  0.21878035074E+04  0.00000000000E+00 0. -1.
    9000010    2    1    2  502    0  0.90191334877E+03  0.56371564191E+02 -0.91296366172E+03  0.16505968024E+04  0.10365045656E+04 0.  0.
   -9000010    2    1    2    0  501 -0.90191334877E+03 -0.56371564191E+02 -0.42658332776E+03  0.13854632230E+04  0.95964033091E+03 0.  0.
        -13    1    3    3    0    0  0.71600066786E+03  0.39725673075E+03 -0.20650004371E+03  0.84445967679E+03  0.10566000000E+00 0.  1.
         13    1    4    4    0    0  0.85614917654E+02 -0.75356006000E+02 -0.37989815549E+03  0.39664979702E+03  0.10566000000E+00 0. -1.
          4    1    3    3  502    0  0.18591268091E+03 -0.34088516656E+03 -0.70646361801E+03  0.80613712560E+03  0.00000000000E+00 0.  1.
         -4    1    4    4    0  501 -0.98752826642E+03  0.18984441808E+02 -0.46685172268E+02  0.98881342594E+03  0.00000000000E+00 0. -1.
</event>
<event>
 8    1  0.7446554E-006  0.1117564E+04  0.7818608E-02  0.8671366E-01
          2   -1    0    0  502    0  0.00000000000E+00  0.00000000000E+00  0.79870163012E+03  0.79870163012E+03  0.00000000000E+00 0.  1.
         -2   -1    0    0    0  501 -0.00000000000E+00 -0.00000000000E+00 -0.19688338599E+04  0.19688338599E+04  0.00000000000E+00 0. -1.
    9000010    2    1    2  502    0  0.26730647542E+03  0.48070496916E+03  0.49088671284E+02  0.11024813613E+04  0.95421456451E+03 0.  0.
   -9000010    2    1    2    0  501 -0.26730647542E+03 -0.48070496916E+03 -0.12192209011E+04  0.16650541288E+04  0.99165297705E+03 0.  0.
        -13    1    3    3    0    0  0.58088028741E+03  0.18206917559E+03 -0.14835996724E+03  0.62656347169E+03  0.10566000000E+00 0.  1.
         13    1    4    4    0    0  0.33139537385E+03 -0.39761269769E+02 -0.64260892117E+03  0.72412021731E+03  0.10566000000E+00 0. -1.
          4    1    3    3  502    0 -0.31357381200E+03  0.29863579357E+03  0.19744863853E+03  0.47591788958E+03  0.00000000000E+00 0.  1.
         -4    1    4    4    0  501 -0.59870184926E+03 -0.44094369939E+03 -0.57661197989E+03  0.94093391144E+03  0.00000000000E+00 0. -1.
</event>
<event>
 8    1  0.7446554E-006  0.1040006E+04  0.7818608E-02  0.8737884E-01
         -2   -1    0    0    0  501 -0.00000000000E+00  0.00000000000E+00  0.12012231167E+04  0.12012231167E+04  0.00000000000E+00 0. -1.
          2   -1    0    0  502    0  0.00000000000E+00 -0.00000000000E+00 -0.98463373601E+03  0.98463373601E+03  0.00000000000E+00 0.  1.
    9000010    2    1    2  502    0 -0.27282701865E+03  0.56806112586E+02  0.42697624646E+03  0.11164077334E+04  0.99317470547E+03 0.  0.
   -9000010    2    1    2    0  501  0.27282701865E+03 -0.56806112586E+02 -0.21038686576E+03  0.10694491193E+04  0.10108398830E+04 0.  0.
        -13    1    3    3    0    0 -0.44947953878E+03 -0.28405833704E+02 -0.17508038463E+03  0.48320999516E+03  0.10566000000E+00 0.  1.
         13    1    4    4    0    0 -0.13349269425E+03 -0.18146337323E+03 -0.50455632272E+03  0.55256343455E+03  0.10566000000E+00 0. -1.
          4    1    3    3  502    0  0.17665252013E+03  0.85211946290E+02  0.60205663108E+03  0.63319773822E+03  0.00000000000E+00 0.  1.
         -4    1    4    4    0  501  0.40631971290E+03  0.12465726064E+03  0.29416945697E+03  0.51688568478E+03  0.00000000000E+00 0. -1.
</event>
<event>
 8    1  0.7446554E-006  0.1267716E+04  0.7818608E-02  0.8557244E-01
         -1   -1    0    0    0  501 -0.00000000000E+00  0.00000000000E+00  0.10107409736E+04  0.10107409736E+04  0.00000000000E+00 0.  1.
          1   -1    0    0  502    0  0.00000000000E+00 -0.00000000000E+00 -0.16723971857E+04  0.16723971857E+04  0.00000000000E+00 0. -1.
    9000010    2    1    2  502    0  0.13795031032E+03  0.75931299255E+03 -0.31288748330E+02  0.12604208595E+04  0.99603978262E+03 0.  0.
   -9000010    2    1    2    0  501 -0.13795031032E+03 -0.75931299255E+03 -0.63036746376E+03  0.14227172998E+04  0.10154678070E+04 0.  0.
        -13    1    3    3    0    0 -0.31265677935E+03  0.42577284370E+03  0.30173909417E+03  0.60834469523E+03  0.10566000000E+00 0.  1.
         13    1    4    4    0    0 -0.55270805358E+03 -0.39195491016E+03 -0.52863496687E+03  0.85940082816E+03  0.10566000000E+00 0. -1.
          4    1    3    3  502    0  0.45060708967E+03  0.33354014884E+03 -0.33302784250E+03  0.65207616428E+03  0.00000000000E+00 0.  1.
         -4    1    4    4    0  501  0.41475774326E+03 -0.36735808239E+03 -0.10173249690E+03  0.56331647163E+03  0.00000000000E+00 0. -1.
</event>
<event>
 8    1  0.7446554E-006  0.1500251E+04  0.7818608E-02  0.8409355E-01
          2   -1    0    0  502    0  0.00000000000E+00  0.00000000000E+00  0.23337581591E+04  0.23337581591E+04  0.00000000000E+00 0. -1.
         -2   -1    0    0    0  501 -0.00000000000E+00 -0.00000000000E+00 -0.15975313658E+04  0.15975313658E+04  0.00000000000E+00 0.  1.
    9000010    2    1    2  502    0 -0.10647522597E+04  0.96594268429E+02 -0.86517939185E+03  0.17540010379E+04  0.10885570419E+04 0.  0.
   -9000010    2    1    2    0  501  0.10647522597E+04 -0.96594268429E+02  0.16014061852E+04  0.21772884870E+04  0.10163934073E+04 0.  0.
        -13    1    3    3    0    0  0.38031063762E+02 -0.28671691020E+03 -0.40813590781E+03  0.50022782691E+03  0.10566000000E+00 0.  1.
         13    1    4    4    0    0  0.28905304478E+03  0.14804634694E+03 -0.57409900027E+02  0.32979583278E+03  0.10566000000E+00 0. -1.
          4    1    3    3  502    0 -0.11027833235E+04  0.38331117863E+03 -0.45704348404E+03  0.12537732110E+04  0.00000000000E+00 0.  1.
         -4    1    4    4    0  501  0.77569921495E+03 -0.24464061537E+03  0.16588160853E+04  0.18474926542E+04  0.00000000000E+00 0. -1.
</event>
<event>
 8    1  0.7446554E-006  0.1146280E+04  0.7818608E-02  0.8648151E-01
          2   -1    0    0  502    0  0.00000000000E+00  0.00000000000E+00  0.24487333585E+04  0.24487333585E+04  0.00000000000E+00 0.  1.
         -2   -1    0    0    0  501 -0.00000000000E+00 -0.00000000000E+00 -0.56219632424E+03  0.56219632424E+03  0.00000000000E+00 0. -1.
    9000010    2    1    2  502    0 -0.57617303375E+03  0.63409755912E+02  0.62317588168E+03  0.13060816141E+04  0.99070926165E+03 0.  0.
   -9000010    2    1    2    0  501  0.57617303375E+03 -0.63409755912E+02  0.12633611526E+04  0.17048480686E+04  0.98713189262E+03 0.  0.
        -13    1    3    3    0    0 -0.35354848215E+03  0.49383587823E+03  0.54342305543E+03  0.81497179840E+03  0.10566000000E+00 0.  1.
         13    1    4    4    0    0  0.41414676818E+03 -0.48297993026E+02 -0.13975293394E+02  0.41718768165E+03  0.10566000000E+00 0. -1.
          4    1    3    3  502    0 -0.22262455161E+03 -0.43042612231E+03  0.79752826259E+02  0.49110981567E+03  0.00000000000E+00 0.  1.
         -4    1    4    4    0  501  0.16202626557E+03 -0.15111762886E+02  0.12773364459E+04  0.12876603870E+04  0.00000000000E+00 0. -1.
</event>
<event>
 8    1  0.7446554E-006  0.1561309E+04  0.7818608E-02  0.8375064E-01
         -2   -1    0    0    0  501 -0.00000000000E+00  0.00000000000E+00  0.12413522902E+04  0.12413522902E+04  0.00000000000E+00 0. -1.
          2   -1    0    0  502    0  0.00000000000E+00 -0.00000000000E+00 -0.21590278266E+04  0.21590278266E+04  0.00000000000E+00 0.  1.
    9000010    2    1    2  502    0  0.49299739992E+03 -0.10714035572E+04  0.55461917623E+02  0.15506948081E+04  0.10052991320E+04 0.  0.
   -9000010    2    1    2    0  501 -0.49299739992E+03  0.10714035572E+04 -0.97313745407E+03  0.18496853087E+04  0.10408588848E+04 0.  0.
        -13    1    3    3    0    0  0.55921083660E+03 -0.11443458839E+04 -0.18854372116E+03  0.12875531087E+04  0.10566000000E+00 0.  1.
         13    1    4    4    0    0 -0.12363976432E+03  0.11596400721E+04 -0.57778803736E+03  0.13014956455E+04  0.10566000000E+00 0. -1.
          4    1    3    3  502    0 -0.66213436689E+02  0.72942326678E+02  0.24400563878E+03  0.26314169943E+03  0.00000000000E+00 0.  1.
         -4    1    4    4    0  501 -0.36935763559E+03 -0.88236514894E+02 -0.39534941671E+03  0.54818966319E+03  0.00000000000E+00 0. -1.
</event>
<event>
 8    1  0.7446554E-006  0.1622316E+04  0.7818608E-02  0.8342387E-01
          2   -1    0    0  502    0  0.00000000000E+00  0.00000000000E+00  0.43873848634E+04  0.43873848634E+04  0.00000000000E+00 0. -1.
         -2   -1    0    0    0  501 -0.00000000000E+00 -0.00000000000E+00 -0.59996469952E+03  0.59996469952E+03  0.00000000000E+00 0.  1.
    9000010    2    1    2  502    0  0.39048692559E+03 -0.12207522575E+04  0.18641558242E+04  0.24711401617E+04  0.99435438774E+03 0.  0.
   -9000010    2    1    2    0  501 -0.39048692559E+03  0.12207522575E+04  0.19232643397E+04  0.25162094013E+04  0.99481049323E+03 0.  0.
        -13    1    3    3    0    0  0.50437691679E+03 -0.13550473301E+04  0.16741818064E+04  0.22121107733E+04  0.10566000000E+00 0.  1.
         13    1    4    4    0    0 -0.56750416785E+03  0.36124882797E+03  0.12137671440E+04  0.13877292197E+04  0.10566000000E+00 0. -1.
          4    1    3    3  502    0 -0.11388999119E+03  0.13429507262E+03  0.18997401775E+03  0.25902938838E+03  0.00000000000E+00 0.  1.
         -4    1    4    4    0  501  0.17701724226E+03  0.85950342956E+03  0.70949719570E+03  0.11284801816E+04  0.00000000000E+00 0. -1.
</event>
<event>
 8    1  0.7446554E-006  0.1414586E+04  0.7818608E-02  0.8460416E-01
         -2   -1    0    0    0  501 -0.00000000000E+00  0.00000000000E+00  0.11019047991E+04  0.11019047991E+04  0.00000000000E+00 0.  1.
          2   -1    0    0  502    0  0.00000000000E+00 -0.00000000000E+00 -0.19564273889E+04  0.19564273889E+04  0.00000000000E+00 0. -1.
    9000010    2    1    2  502    0  0.87457986763E+03 -0.48788617193E+03 -0.83901254717E+03  0.16512891662E+04  0.10098965266E+04 0.  0.
   -9000010    2    1    2    0  501 -0.87457986763E+03  0.48788617193E+03 -0.15510042592E+02  0.14070430219E+04  0.98823410299E+03 0.  0.
        -13    1    3    3    0    0  0.19841459669E+03 -0.63810541695E+03 -0.17274690305E+03  0.69020893865E+03  0.10566000000E+00 0.  1.
         13    1    4    4    0    0 -0.96594824338E+03  0.60766168992E+02  0.26691546209E+02  0.96822568959E+03  0.10566000000E+00 0. -1.
          4    1    3    3  502    0  0.67616527093E+03  0.15021924502E+03 -0.66626564412E+03  0.96108022752E+03  0.00000000000E+00 0.  1.
         -4    1    4    4    0  501  0.91368375753E+02  0.42712000293E+03 -0.42201588801E+02  0.43881733226E+03  0.00000000000E+00 0. -1.
</event>
<event>
 8    1  0.7446554E-006  0.1324248E+04  0.7818608E-02  0.8518448E-01
          2   -1    0    0  502    0  0.00000000000E+00  0.00000000000E+00  0.23485367978E+04  0.23485367978E+04  0.00000000000E+00 0. -1.
         -2   -1    0    0    0  501 -0.00000000000E+00 -0.00000000000E+00 -0.76280584986E+03  0.76280584986E+03  0.00000000000E+00 0.  1.
    9000010    2    1    2  502    0  0.42396311840E+03 -0.72733664840E+03  0.56876463867E+03  0.14443251118E+04  0.10265566173E+04 0.  0.
   -9000010    2    1    2    0  501 -0.42396311840E+03  0.72733664840E+03  0.10169663093E+04  0.16670175359E+04  0.10178230027E+04 0.  0.
        -13    1    3    3    0    0  0.66773072934E+02 -0.91894133100E+03  0.41964432945E+03  0.10124293494E+04  0.10566000000E+00 0.  1.
         13    1    4    4    0    0 -0.12397327336E+03  0.29759112712E+03  0.10910781640E+04  0.11377088479E+04  0.10566000000E+00 0. -1.
          4    1    3    3  502    0  0.35719004547E+03  0.19160468260E+03  0.14912030922E+03  0.43189576242E+03  0.00000000000E+00 0.  1.
         -4    1    4    4    0  501 -0.29998984504E+03  0.42974552128E+03 -0.74111854697E+02  0.52930868800E+03  0.00000000000E+00 0. -1.
</event>
<event>
 8    1  0.7446554E-006  0.1516735E+04  0.7818608E-02  0.8399933E-01
         -2   -1    0    0    0  501 -0.00000000000E+00  0.00000000000E+00  0.10427797425E+04  0.10427797425E+04  0.00000000000E+00 0.  1.
          2   -1    0    0  502    0  0.00000000000E+00 -0.00000000000E+00 -0.23023723462E+04  0.23023723462E+04  0.00000000000E+00 0. -1.
    9000010    2    1    2  502    0 -0.32756556120E+02 -0.11699456131E+04 -0.96252343904E+03  0.17785560884E+04  0.93110937020E+03 0.  0.
   -9000010    2    1    2    0  501  0.32756556120E+02  0.11699456131E+04 -0.29706916463E+03  0.15665960004E+04  0.99806172666E+03 0.  0.
        -13    1    3    3    0    0 -0.39889585242E+03 -0.92629597792E+03 -0.45335803556E+03  0.11057466524E+04  0.10566000000E+00 0.  1.
         13    1    4    4    0    0  0.46627522139E+03  0.76012968992E+03  0.18033743135E+02  0.89192766222E+03  0.10566000000E+00 0. -1.
          4    1    3    3  502    0  0.36613929630E+03 -0.24364963518E+03 -0.50916540348E+03  0.67280943596E+03  0.00000000000E+00 0.  1.
         -4    1    4    4    0  501 -0.43351866527E+03  0.40981592319E+03 -0.31510290776E+03  0.67466833816E+03  0.00000000000E+00 0. -1.
</event>
<event>
 8    1  0.7446554E-006  0.1298575E+04  0.7818608E-02  0.8535814E-01
          2   -1    0    0  502    0  0.00000000000E+00  0.00000000000E+00  0.18259979549E+04  0.18259979549E+04  0.00000000000E+00 0. -1.
         -2   -1    0    0    0  501 -0.00000000000E+00 -0.00000000000E+00 -0.95517366668E+03  0.95517366668E+03  0.00000000000E+00 0.  1.
    9000010    2    1    2  502    0  0.19393731848E+03  0.80876682966E+03  0.68627421654E+03  0.14625695932E+04  0.98814070168E+03 0.  0.
   -9000010    2    1    2    0  501 -0.19393731848E+03 -0.80876682966E+03  0.18455007167E+03  0.13186020284E+04  0.10064477692E+04 0.  0.
        -13    1    3    3    0    0 -0.20407846308E+03 -0.12378129829E+03  0.28593315300E+03  0.37246155244E+03  0.10566000000E+00 0.  1.
         13    1    4    4    0    0  0.35466342641E+03 -0.57720617627E+02 -0.40744758472E+02  0.36163235784E+03  0.10566000000E+00 0. -1.
          4    1    3    3  502    0  0.39801578155E+03  0.93254812795E+03  0.40034106354E+03  0.10901080407E+04  0.00000000000E+00 0.  1.
         -4    1    4    4    0  501 -0.54860074489E+03 -0.75104621203E+03  0.22529483014E+03  0.95696967057E+03  0.00000000000E+00 0. -1.
</event>
<event>
 8    1  0.7446554E-006  0.1120493E+04  0.7818608E-02  0.8668965E-01
         -2   -1    0    0    0  501 -0.00000000000E+00  0.00000000000E+00  0.14153454874E+04  0.14153454874E+04  0.00000000000E+00 0. -1.
          2   -1    0    0  502    0  0.00000000000E+00 -0.00000000000E+00 -0.14851828235E+04  0.14851828235E+04  0.00000000000E+00 0.  1.
    9000010    2    1    2  502    0 -0.36563912391E+03 -0.35026445118E+03  0.88544032096E+03  0.14274408938E+04  0.99860191699E+03 0.  0.
   -9000010    2    1    2    0  501  0.36563912391E+03  0.35026445118E+03 -0.95527765699E+03  0.14730874171E+04  0.10005268521E+04 0.  0.
        -13    1    3    3    0    0 -0.42103730263E+03 -0.63809011031E+03  0.40626194524E+03  0.86572523262E+03  0.10566000000E+00 0.  1.
         13    1    4    4    0    0  0.43171654245E+03 -0.24690202280E+03 -0.28603465857E+03  0.57372085456E+03  0.10566000000E+00 0. -1.
          4    1    3    3  502    0  0.55398178727E+02  0.28782565912E+03  0.47917837572E+03  0.56171566118E+03  0.00000000000E+00 0.  1.
         -4    1    4    4    0  501 -0.66077418540E+02  0.59716647399E+03 -0.66924299843E+03  0.89936656255E+03  0.00000000000E+00 0. -1.
</event>
<event>
 8    1  0.7446554E-006  0.1219097E+04  0.7818608E-02  0.8592319E-01
         -2   -1    0    0    0  501 -0.00000000000E+00  0.00000000000E+00  0.70915789853E+03  0.70915789853E+03  0.00000000000E+00 0.  1.
          2   -1    0    0  502    0  0.00000000000E+00 -0.00000000000E+00 -0.20993740148E+04  0.20993740148E+04  0.00000000000E+00 0. -1.
    9000010    2    1    2  502    0  0.60086571156E+03  0.29059641663E+03 -0.63005741165E+03  0.13562427778E+04  0.99846694975E+03 0.  0.
   -9000010    2    1    2    0  501 -0.60086571156E+03 -0.29059641663E+03 -0.76015870466E+03  0.14522891355E+04  0.10420252378E+04 0.  0.
        -13    1    3    3    0    0  0.26307044565E+03 -0.37287313802E+03 -0.22858625441E+03  0.51038428983E+03  0.10566000000E+00 0.  1.
         13    1    4    4    0    0 -0.65652949960E+03  0.15831163702E+03 -0.73659084838E+03  0.99932959895E+03  0.10566000000E+00 0. -1.
          4    1    3    3  502    0  0.33779526591E+03  0.66346955465E+03 -0.40147115724E+03  0.84585848800E+03  0.00000000000E+00 0.  1.
         -4    1    4    4    0  501  0.55663788048E+02 -0.44890805365E+03 -0.23567856281E+02  0.45295953658E+03  0.00000000000E+00 0. -1.
</event>
<event>
 8    1  0.7446554E-006  0.1150512E+04  0.7818608E-02  0.8644789E-01
          2   -1    0    0  502    0  0.00000000000E+00  0.00000000000E+00  0.36924872513E+04  0.36924872513E+04  0.00000000000E+00 0. -1.
         -2   -1    0    0    0  501 -0.00000000000E+00 -0.00000000000E+00 -0.37834000729E+03  0.37834000729E+03  0.00000000000E+00 0.  1.
    9000010    2    1    2  502    0 -0.56406162927E+03  0.16604421492E+03  0.21321746964E+04  0.24258862283E+04  0.99650331349E+03 0.  0.
   -9000010    2    1    2    0  501  0.56406162927E+03 -0.16604421492E+03  0.11819725476E+04  0.16449410303E+04  0.98134381683E+03 0.  0.
        -13    1    3    3    0    0 -0.29550356906E+03  0.58501647829E+03  0.13104838528E+04  0.14652421571E+04  0.10566000000E+00 0.  1.
         13    1    4    4    0    0  0.66112995243E+03  0.24963177523E+03  0.84185579538E+03  0.10991496843E+04  0.10566000000E+00 0. -1.
          4    1    3    3  502    0 -0.26855806022E+03 -0.41897226337E+03  0.82169084356E+03  0.96064407122E+03  0.00000000000E+00 0.  1.
         -4    1    4    4    0  501 -0.97068323152E+02 -0.41567599015E+03  0.34011675221E+03  0.54579134592E+03  0.00000000000E+00 0. -1.
</event>
<event>
 8    1  0.7446554E-006  0.1309582E+04  0.7818608E-02  0.8528318E-01
          2   -1    0    0  502    0  0.00000000000E+00  0.00000000000E+00  0.18719713715E+04  0.18719713715E+04  0.00000000000E+00 0.  1.
         -2   -1    0    0    0  501 -0.00000000000E+00 -0.00000000000E+00 -0.97439047503E+03  0.97439047503E+03  0.00000000000E+00 0. -1.
    9000010    2    1    2  502    0 -0.63247943352E+02  0.85737328664E+03  0.80115578973E+03  0.15479964625E+04  0.10076473557E+04 0.  0.
   -9000010    2    1    2    0  501  0.63247943352E+02 -0.85737328664E+03  0.96425106724E+02  0.12983653840E+04  0.96817643758E+03 0.  0.
        -13    1    3    3    0    0 -0.30905245895E+03  0.64727715357E+03  0.36984127202E+02  0.71822626849E+03  0.10566000000E+00 0.  1.
         13    1    4    4    0    0  0.37821380706E+03 -0.66646042055E+03 -0.23641993751E+03  0.80194112878E+03  0.10566000000E+00 0. -1.
          4    1    3    3  502    0  0.24580451559E+03  0.21009613307E+03  0.76417166253E+03  0.82977019399E+03  0.00000000000E+00 0.  1.
         -4    1    4    4    0  501 -0.31496586371E+03 -0.19091286609E+03  0.33284504423E+03  0.49642425526E+03  0.00000000000E+00 0. -1.
</event>
<event>
 8    1  0.7446554E-006  0.1314602E+04  0.7818608E-02  0.8524924E-01
         -1   -1    0    0    0  501 -0.00000000000E+00  0.00000000000E+00  0.94889961223E+03  0.94889961223E+03  0.00000000000E+00 0.  1.
          1   -1    0    0  502    0  0.00000000000E+00 -0.00000000000E+00 -0.21126238272E+04  0.21126238272E+04  0.00000000000E+00 0. -1.
    9000010    2    1    2  502    0 -0.76046935340E+03  0.23350675241E+03  0.22891918884E+01  0.12673724410E+04  0.98660459302E+03 0.  0.
   -9000010    2    1    2    0  501  0.76046935340E+03 -0.23350675241E+03 -0.11660134068E+04  0.17941509984E+04  0.11074978552E+04 0.  0.
        -13    1    3    3    0    0 -0.97824177179E+03  0.49499751866E+02 -0.33287751821E+02  0.98005881206E+03  0.10566000000E+00 0.  1.
         13    1    4    4    0    0  0.47501510015E+03  0.20504284210E+03 -0.11607729385E+04  0.12708563012E+04  0.10566000000E+00 0. -1.
          4    1    3    3  502    0  0.21777241839E+03  0.18400700054E+03  0.35576943710E+02  0.28731362896E+03  0.00000000000E+00 0.  1.
         -4    1    4    4    0  501  0.28545425325E+03 -0.43854959451E+03 -0.52404683106E+01  0.52329469713E+03  0.00000000000E+00 0. -1.
</event>
<event>
 8    1  0.7446554E-006  0.1517910E+04  0.7818608E-02  0.8399266E-01
         -2   -1    0    0    0  501 -0.00000000000E+00  0.00000000000E+00  0.97419190767E+03  0.97419190767E+03  0.00000000000E+00 0.  1.
          2   -1    0    0  502    0  0.00000000000E+00 -0.00000000000E+00 -0.25245264889E+04  0.25245264889E+04  0.00000000000E+00 0. -1.
    9000010    2    1    2  502    0 -0.11050907643E+04  0.28006474831E+03 -0.33403839331E+03  0.15511336160E+04  0.99738256744E+03 0.  0.
   -9000010    2    1    2    0  501  0.11050907643E+04 -0.28006474831E+03 -0.12162961879E+04  0.19475847806E+04  0.10069996029E+04 0.  0.
        -13    1    3    3    0    0 -0.29487945247E+03  0.56616438620E+03 -0.25805007040E+03  0.68853892678E+03  0.10566000000E+00 0.  1.
         13    1    4    4    0    0  0.75083851006E+03 -0.61597617332E+03 -0.53304788192E+03  0.11078470878E+04  0.10566000000E+00 0. -1.
          4    1    3    3  502    0 -0.81021131184E+03 -0.28609963789E+03 -0.75988322910E+02  0.86259468921E+03  0.00000000000E+00 0.  1.
         -4    1    4    4    0  501  0.35425225426E+03  0.33591142500E+03 -0.68324830599E+03  0.83973769281E+03  0.00000000000E+00 0. -1.
</event>
<event>
 8    1  0.7446554E-006  0.1320618E+04  0.7818608E-02  0.8520878E-01
         -1   -1    0    0    0  501 -0.00000000000E+00  0.00000000000E+00  0.14365747891E+04  0.14365747891E+04  0.00000000000E+00 0.  1.
          1   -1    0    0  502    0  0.00000000000E+00 -0.00000000000E+00 -0.14191613626E+04  0.14191613626E+04  0.00000000000E+00 0. -1.
    9000010    2    1    2  502    0  0.73873803588E+03 -0.41602059867E+03  0.55150423596E+03  0.14417759011E+04  0.10274988090E+04 0.  0.
   -9000010    2    1    2    0  501 -0.73873803588E+03  0.41602059867E+03 -0.53409080942E+03  0.14139602506E+04  0.99760892813E+03 0.  0.
        -13    1    3    3    0    0  0.70762098104E+03  0.21867396928E+02  0.68279390867E+03  0.98357163885E+03  0.10566000000E+00 0.  1.
         13    1    4    4    0    0 -0.59384394211E+03 -0.15773102076E+03  0.35336066348E+01  0.61444462731E+03  0.10566000000E+00 0. -1.
          4    1    3    3  502    0  0.31117054839E+02 -0.43788799560E+03 -0.13128967272E+03  0.45820426226E+03  0.00000000000E+00 0.  1.
         -4    1    4    4    0  501 -0.14489409377E+03  0.57375161943E+03 -0.53762441606E+03  0.79951562333E+03  0.00000000000E+00 0. -1.
</event>
<event>
 8    1  0.7446554E-006  0.1081938E+04  0.7818608E-02  0.8701198E-01
          2   -1    0    0  502    0  0.00000000000E+00  0.00000000000E+00  0.28475668672E+04  0.28475668672E+04  0.00000000000E+00 0.  1.
         -2   -1    0    0    0  501 -0.00000000000E+00 -0.00000000000E+00 -0.70777842551E+03  0.70777842551E+03  0.00000000000E+00 0. -1.
    9000010    2    1    2  502    0  0.47039970648E+03 -0.63876421248E+02  0.22031537958E+04  0.24418587931E+04  0.93991044085E+03 0.  0.
   -9000010    2    1    2    0  501 -0.47039970648E+03  0.63876421248E+02 -0.63365354046E+02  0.11134864996E+04  0.10052268081E+04 0.  0.
        -13    1    3    3    0    0  0.32717345758E+03  0.38711080909E+03  0.68803844379E+03  0.85457250199E+03  0.10566000000E+00 0.  1.
         13    1    4    4    0    0  0.26749032254E+03  0.18998808692E+03 -0.14837538754E+03  0.36008584062E+03  0.10566000000E+00 0. -1.
          4    1    3    3  502    0  0.14322624890E+03 -0.45098723034E+03  0.15151153520E+04  0.15872862912E+04  0.00000000000E+00 0.  1.
         -4    1    4    4    0  501 -0.73789002902E+03 -0.12611166567E+03  0.85010033495E+02  0.75340065898E+03  0.00000000000E+00 0. -1.
</event>
<event>
 8    1  0.7446554E-006  0.1219022E+04  0.7818608E-02  0.8592374E-01
          2   -1    0    0  502    0  0.00000000000E+00  0.00000000000E+00  0.27945577675E+04  0.27945577675E+04  0.00000000000E+00 0.  1.
         -2   -1    0    0    0  501 -0.00000000000E+00 -0.00000000000E+00 -0.70353632368E+03  0.70353632368E+03  0.00000000000E+00 0. -1.
    9000010    2    1    2  502    0  0.53878089134E+03 -0.48161123500E+03  0.16433921884E+03  0.12032429308E+04  0.94791979673E+03 0.  0.
   -9000010    2    1    2    0  501 -0.53878089134E+03  0.48161123500E+03  0.19266822250E+04  0.22948511604E+04  0.10158755937E+04 0.  0.
        -13    1    3    3    0    0  0.73387946915E+02 -0.62562751797E+03  0.29976061414E+03  0.69760448604E+03  0.10566000000E+00 0.  1.
         13    1    4    4    0    0 -0.53942008649E+03  0.25944823566E+03  0.33142868678E+03  0.68420201862E+03  0.10566000000E+00 0. -1.
          4    1    3    3  502    0  0.46539294443E+03  0.14401628297E+03 -0.13542139529E+03  0.50563844473E+03  0.00000000000E+00 0.  1.
         -4    1    4    4    0  501  0.63919514560E+00  0.22216299934E+03  0.15952535382E+04  0.16106491418E+04  0.00000000000E+00 0. -1.
</event>
<event>
 8    1  0.7446554E-006  0.1324919E+04  0.7818608E-02  0.8518000E-01
         -2   -1    0    0    0  501 -0.00000000000E+00  0.00000000000E+00  0.51581047884E+03  0.51581047884E+03  0.00000000000E+00 0.  1.
          2   -1    0    0  502    0  0.00000000000E+00 -0.00000000000E+00 -0.34387212854E+04  0.34387212854E+04  0.00000000000E+00 0. -1.
    9000010    2    1    2  502    0 -0.88780324036E+02 -0.88503550649E+03 -0.16631311676E+04  0.21267822239E+04  0.98286700699E+03 0.  0.
   -9000010    2    1    2    0  501  0.88780324036E+02  0.88503550649E+03 -0.12597796390E+04  0.18277495404E+04  0.98104732298E+03 0.  0.
        -13    1    3    3    0    0  0.42633083593E+03 -0.60060369505E+03 -0.89169167638E+03  0.11565452162E+04  0.10566000000E+00 0.  1.
         13    1    4    4    0    0  0.45794898864E+03  0.40209283590E+03 -0.27078178025E+03  0.66687233303E+03  0.10566000000E+00 0. -1.
          4    1    3    3  502    0 -0.51511115997E+03 -0.28443181144E+03 -0.77143949120E+03  0.97023700768E+03  0.00000000000E+00 0.  1.
         -4    1    4    4    0  501 -0.36916866460E+03  0.48294267059E+03 -0.98899785873E+03  0.11608772074E+04  0.00000000000E+00 0. -1.
</event>
<event>
 8    1  0.7446554E-006  0.1219139E+04  0.7818608E-02  0.8592288E-01
          2   -1    0    0  502    0  0.00000000000E+00  0.00000000000E+00  0.20064071582E+04  0.20064071582E+04  0.00000000000E+00 0. -1.
         -2   -1    0    0    0  501 -0.00000000000E+00 -0.00000000000E+00 -0.81370679158E+03  0.81370679158E+03  0.00000000000E+00 0.  1.
    9000010    2    1    2  502    0 -0.54028665658E+03  0.38718246940E+03  0.18095980677E+03  0.12468452025E+04  0.10392577022E+04 0.  0.
   -9000010    2    1    2    0  501  0.54028665658E+03 -0.38718246940E+03  0.10117405598E+04  0.15732687472E+04  0.10048560368E+04 0.  0.
        -13    1    3    3    0    0 -0.64583354972E+02  0.22934304791E+03 -0.40862312396E+03  0.47301386023E+03  0.10566000000E+00 0.  1.
         13    1    4    4    0    0  0.42578498144E+03 -0.72549139196E+03  0.63366090527E+03  0.10531651173E+04  0.10566000000E+00 0. -1.
          4    1    3    3  502    0 -0.47570330161E+03  0.15783942149E+03  0.58958293074E+03  0.77383134232E+03  0.00000000000E+00 0.  1.
         -4    1    4    4    0  501  0.11450167514E+03  0.33830892256E+03  0.37807965457E+03  0.52010362996E+03  0.00000000000E+00 0. -1.
</event>
<event>
 8    1  0.7446554E-006  0.1268240E+04  0.7818608E-02  0.8556874E-01
         -2   -1    0    0    0  501 -0.00000000000E+00  0.00000000000E+00  0.88839440397E+03  0.88839440397E+03  0.00000000000E+00 0. -1.
          2   -1    0    0  502    0  0.00000000000E+00 -0.00000000000E+00 -0.18645138135E+04  0.18645138135E+04  0.00000000000E+00 0.  1.
    9000010    2    1    2  502    0  0.66075002920E+03  0.40879274306E+03 -0.25420696702E+03  0.12946063234E+04  0.10038337725E+04 0.  0.
   -9000010    2    1    2    0  501 -0.66075002920E+03 -0.40879274306E+03 -0.72191244246E+03  0.14583018940E+04  0.10008919680E+04 0.  0.
        -13    1    3    3    0    0  0.76420219854E+03  0.54127056192E+03  0.59866682500E+02  0.93838310529E+03  0.10566000000E+00 0.  1.
         13    1    4    4    0    0 -0.71775822394E+03 -0.41835940335E+03 -0.10351400522E+03  0.83720763186E+03  0.10566000000E+00 0. -1.
          4    1    3    3  502    0 -0.10345216934E+03 -0.13247781885E+03 -0.31407364952E+03  0.35622321816E+03  0.00000000000E+00 0.  1.
         -4    1    4    4    0  501  0.57008194739E+02  0.95666602875E+01 -0.61839843724E+03  0.62109426212E+03  0.00000000000E+00 0. -1.
</event>
<event>
 8    1  0.7446554E-006  0.1620432E+04  0.7818608E-02  0.8343374E-01
         -2   -1    0    0    0  501 -0.00000000000E+00  0.00000000000E+00  0.87054861593E+03  0.87054861593E+03  0.00000000000E+00 0.  1.
          2   -1    0    0  502    0  0.00000000000E+00 -0.00000000000E+00 -0.32449789537E+04  0.32449789537E+04  0.00000000000E+00 0. -1.
    9000010    2    1    2  502    0 -0.59299415159E+03  0.11314767246E+04 -0.64197025466E+03  0.17444212509E+04  0.99949889978E+03 0.  0.
   -9000010    2    1    2    0  501  0.59299415159E+03 -0.11314767246E+04 -0.17324600831E+04  0.23711063187E+04  0.99440715651E+03 0.  0.
        -13    1    3    3    0    0 -0.10497275215E+03 -0.48578337769E+02  0.18848862600E+03  0.22114951252E+03  0.10566000000E+00 0.  1.
         13    1    4    4    0    0  0.46610927411E+03 -0.39619893457E+03 -0.14491580272E+04  0.15729877464E+04  0.10566000000E+00 0. -1.
          4    1    3    3  502    0 -0.48802139945E+03  0.11800550624E+04 -0.83045888066E+03  0.15232717384E+04  0.00000000000E+00 0.  1.
         -4    1    4    4    0  501  0.12688487748E+03 -0.73527779002E+03 -0.28330205586E+03  0.79811857232E+03  0.00000000000E+00 0. -1.
</event>
<event>
 8    1  0.7446554E-006  0.1182429E+04  0.7818608E-02  0.8619913E-01
         -2   -1    0    0    0  501 -0.00000000000E+00  0.00000000000E+00  0.73035820234E+03  0.73035820234E+03  0.00000000000E+00 0. -1.
          2   -1    0    0  502    0  0.00000000000E+00 -0.00000000000E+00 -0.19362682823E+04  0.19362682823E+04  0.00000000000E+00 0.  1.
    9000010    2    1    2  502    0  0.35731887723E+03  0.51241625828E+03 -0.46198238834E+03  0.12712713711E+04  0.10062087110E+04 0.  0.
   -9000010    2    1    2    0  501 -0.35731887723E+03 -0.51241625828E+03 -0.74392769166E+03  0.13953551136E+04  0.10016687481E+04 0.  0.
        -13    1    3    3    0    0  0.14693749961E+03 -0.42092075555E+02  0.28143776200E+03  0.32026488515E+03  0.10566000000E+00 0.  1.
         13    1    4    4    0    0 -0.62373539597E+03 -0.20611450728E+03 -0.14648673413E+03  0.67304339291E+03  0.10566000000E+00 0. -1.
          4    1    3    3  502    0  0.21038137762E+03  0.55450833383E+03 -0.74342015034E+03  0.95100648593E+03  0.00000000000E+00 0.  1.
         -4    1    4    4    0  501  0.26641651874E+03 -0.30630175100E+03 -0.59744095752E+03  0.72231172070E+03  0.00000000000E+00 0. -1.
</event>
<event>
 8    1  0.7446554E-006  0.1406851E+04  0.7818608E-02  0.8465209E-01
          2   -1    0    0  502    0  0.00000000000E+00  0.00000000000E+00  0.32655816098E+04  0.32655816098E+04  0.00000000000E+00 0.  1.
         -2   -1    0    0    0  501 -0.00000000000E+00 -0.00000000000E+00 -0.98183307968E+03  0.98183307968E+03  0.00000000000E+00 0. -1.
    9000010    2    1    2  502    0  0.96491247209E+03  0.31653475600E+03 -0.18338066199E+03  0.13954204888E+04  0.93931865881E+03 0.  0.
   -9000010    2    1    2    0  501 -0.96491247209E+03 -0.31653475600E+03  0.24671291921E+04  0.28519942007E+04  0.10079157404E+04 0.  0.
        -13    1    3    3    0    0  0.74970794631E+03  0.64509744579E+03 -0.16052374378E+03  0.10019883247E+04  0.10566000000E+00 0.  1.
         13    1    4    4    0    0 -0.72111406746E+03 -0.37391248636E+03  0.24714318623E+04  0.26014979352E+04  0.10566000000E+00 0. -1.
          4    1    3    3  502    0  0.21520452578E+03 -0.32856268979E+03 -0.22856918202E+02  0.39343216410E+03  0.00000000000E+00 0.  1.
         -4    1    4    4    0  501 -0.24379840463E+03  0.57377730354E+02 -0.43026702218E+01  0.25049626546E+03  0.00000000000E+00 0. -1.
</event>
<event>
 8    1  0.7446554E-006  0.1697129E+04  0.7818608E-02  0.8304284E-01
          2   -1    0    0  502    0  0.00000000000E+00  0.00000000000E+00  0.18766253058E+04  0.18766253058E+04  0.00000000000E+00 0.  1.
         -2   -1    0    0    0  501 -0.00000000000E+00 -0.00000000000E+00 -0.15682584621E+04  0.15682584621E+04  0.00000000000E+00 0. -1.
    9000010    2    1    2  502    0  0.12488355948E+04 -0.59435831047E+03 -0.96619570778E+02  0.17073701688E+04  0.99645642551E+03 0.  0.
   -9000010    2    1    2    0  501 -0.12488355948E+04  0.59435831047E+03  0.40498641447E+03  0.17375135991E+04  0.97061185193E+03 0.  0.
        -13    1    3    3    0    0 -0.41100645657E+02 -0.27159645233E+03  0.20638292466E+03  0.34358087657E+03  0.10566000000E+00 0.  1.
         13    1    4    4    0    0 -0.31999877086E+03  0.63740518574E+03 -0.23705985854E+02  0.71361514074E+03  0.10566000000E+00 0. -1.
          4    1    3    3  502    0  0.12899362404E+04 -0.32276185814E+03 -0.30300249544E+03  0.13637892922E+04  0.00000000000E+00 0.  1.
         -4    1    4    4    0  501 -0.92883682389E+03 -0.43046875271E+02  0.42869240032E+03  0.10238984583E+04  0.00000000000E+00 0. -1.
</event>
<event>
 8    1  0.7446554E-006  0.1618882E+04  0.7818608E-02  0.8344187E-01
          1   -1    0    0  502    0  0.00000000000E+00  0.00000000000E+00  0.70055173167E+03  0.70055173167E+03  0.00000000000E+00 0. -1.
         -1   -1    0    0    0  501 -0.00000000000E+00 -0.00000000000E+00 -0.37649434862E+04  0.37649434862E+04  0.00000000000E+00 0.  1.
    9000010    2    1    2  502    0 -0.12255434755E+04  0.34910677911E+02 -0.13858569478E+04  0.21532475875E+04  0.11012266468E+04 0.  0.
   -9000010    2    1    2    0  501  0.12255434755E+04 -0.34910677911E+02 -0.16785348067E+04  0.23122476304E+04  0.10128348537E+04 0.  0.
        -13    1    3    3    0    0 -0.47804565114E+03 -0.50581132744E+03 -0.80006685406E+03  0.10604148838E+04  0.10566000000E+00 0.  1.
         13    1    4    4    0    0  0.10929624818E+04 -0.40055032649E+03 -0.10213660939E+04  0.15486110744E+04  0.10566000000E+00 0. -1.
          4    1    3    3  502    0 -0.74749782435E+03  0.54072200536E+03 -0.58579009374E+03  0.10928327038E+04  0.00000000000E+00 0.  1.
         -4    1    4    4    0  501  0.13258099365E+03  0.36563964858E+03 -0.65716871282E+03  0.76363655596E+03  0.00000000000E+00 0. -1.
</event>
<event>
 8    1  0.7446554E-006  0.1334421E+04  0.7818608E-02  0.8511679E-01
         -1   -1    0    0    0  501 -0.00000000000E+00  0.00000000000E+00  0.11316051505E+04  0.11316051505E+04  0.00000000000E+00 0.  1.
          1   -1    0    0  502    0  0.00000000000E+00 -0.00000000000E+00 -0.16928619895E+04  0.16928619895E+04  0.00000000000E+00 0. -1.
    9000010    2    1    2  502    0  0.32242672438E+03 -0.79737884991E+03 -0.65461594426E+03  0.14824552767E+04  0.10145834564E+04 0.  0.
   -9000010    2    1    2    0  501 -0.32242672438E+03  0.79737884991E+03  0.93359105237E+02  0.13420118633E+04  0.10259180746E+04 0.  0.
        -13    1    3    3    0    0  0.59678034411E+03 -0.14980827055E+03 -0.20876162596E+03  0.64974666192E+03  0.10566000000E+00 0.  1.
         13    1    4    4    0    0 -0.16695327207E+03 -0.22911640176E+03  0.10891106204E+03  0.30369285670E+03  0.10566000000E+00 0. -1.
          4    1    3    3  502    0 -0.27435361973E+03 -0.64757057936E+03 -0.44585431830E+03  0.83270861474E+03  0.00000000000E+00 0.  1.
         -4    1    4    4    0  501 -0.15547345231E+03  0.10264952517E+04 -0.15551956803E+02  0.10383190066E+04  0.00000000000E+00 0. -1.
</event>
<event>
 8    1  0.7446554E-006  0.1797604E+04  0.7818608E-02  0.8256179E-01
         -2   -1    0    0    0  501 -0.00000000000E+00  0.00000000000E+00  0.21444870667E+04  0.21444870667E+04  0.00000000000E+00 0. -1.
          2   -1    0    0  502    0  0.00000000000E+00 -0.00000000000E+00 -0.16665823401E+04  0.16665823401E+04  0.00000000000E+00 0.  1.
    9000010    2    1    2  502    0 -0.14112708883E+04  0.46304022281E+03 -0.35077409039E+03  0.18334083314E+04  0.10159979720E+04 0.  0.
   -9000010    2    1    2    0  501  0.14112708883E+04 -0.46304022281E+03  0.82867881703E+03  0.19776610754E+04  0.10091298128E+04 0.  0.
        -13    1    3    3    0    0 -0.13896185466E+04  0.56612008095E+03 -0.35419378421E+02  0.15009284442E+04  0.10566000000E+00 0.  1.
         13    1    4    4    0    0  0.43883656141E+03 -0.43966689714E+03  0.78892344625E+03  0.10041338174E+04  0.10566000000E+00 0. -1.
          4    1    3    3  502    0 -0.21652341731E+02 -0.10307985814E+03 -0.31535471197E+03  0.33247988724E+03  0.00000000000E+00 0.  1.
         -4    1    4    4    0  501  0.97243432690E+03 -0.23373325665E+02  0.39755370783E+02  0.97352725796E+03  0.00000000000E+00 0. -1.
</event>
<event>
 8    1  0.7446554E-006  0.1065653E+04  0.7818608E-02  0.8715237E-01
          2   -1    0    0  502    0  0.00000000000E+00  0.00000000000E+00  0.19069181115E+04  0.19069181115E+04  0.00000000000E+00 0. -1.
         -2   -1    0    0    0  501 -0.00000000000E+00 -0.00000000000E+00 -0.74042028401E+03  0.74042028401E+03  0.00000000000E+00 0.  1.
    9000010    2    1    2  502    0 -0.40904084720E+03  0.12395533620E+03 -0.34666856055E+01  0.10630071874E+04  0.97328974234E+03 0.  0.
   -9000010    2    1    2    0  501  0.40904084720E+03 -0.12395533620E+03  0.11699645131E+04  0.15843312081E+04  0.97908583638E+03 0.  0.
        -13    1    3    3    0    0  0.25272913579E+03 -0.14390119095E+03 -0.16027492415E+03  0.33206570330E+03  0.10566000000E+00 0.  1.
         13    1    4    4    0    0 -0.53271178936E+02  0.69378852456E+02 -0.14933595693E+03  0.17306785626E+03  0.10566000000E+00 0. -1.
          4    1    3    3  502    0 -0.66176998299E+03  0.26785652714E+03  0.15680823855E+03  0.73094148411E+03  0.00000000000E+00 0.  1.
         -4    1    4    4    0  501  0.46231202614E+03 -0.19333418865E+03  0.13193004701E+04  0.14112633519E+04  0.00000000000E+00 0. -1.
</event>
<event>
 8    1  0.7446554E-006  0.1143265E+04  0.7818608E-02  0.8650555E-01
         -2   -1    0    0    0  501 -0.00000000000E+00  0.00000000000E+00  0.10370934867E+04  0.10370934867E+04  0.00000000000E+00 0.  1.
          2   -1    0    0  502    0  0.00000000000E+00 -0.00000000000E+00 -0.13017675772E+04  0.13017675772E+04  0.00000000000E+00 0. -1.
    9000010    2    1    2  502    0 -0.49481431936E+03  0.38819488473E+03 -0.34225828021E+03  0.12185851773E+04  0.98603885566E+03 0.  0.
   -9000010    2    1    2    0  501  0.49481431936E+03 -0.38819488473E+03  0.77584189691E+02  0.11202758866E+04  0.92383022055E+03 0.  0.
        -13    1    3    3    0    0 -0.11007166330E+02  0.58560954756E+03 -0.37425383490E+03  0.69507240199E+03  0.10566000000E+00 0.  1.
         13    1    4    4    0    0  0.26599954846E+03 -0.27919202716E+03  0.49771083475E+03  0.62961895937E+03  0.10566000000E+00 0. -1.
          4    1    3    3  502    0 -0.48380715303E+03 -0.19741466283E+03  0.31995554693E+02  0.52351277534E+03  0.00000000000E+00 0.  1.
         -4    1    4    4    0  501  0.22881477090E+03 -0.10900285757E+03 -0.42012664506E+03  0.49065692722E+03  0.00000000000E+00 0. -1.
</event>
<event>
 8    1  0.7446554E-006  0.1316883E+04  0.7818608E-02  0.8523388E-01
          2   -1    0    0  502    0  0.00000000000E+00  0.00000000000E+00  0.28733737409E+04  0.28733737409E+04  0.00000000000E+00 0.  1.
         -2   -1    0    0    0  501 -0.00000000000E+00 -0.00000000000E+00 -0.81271193462E+03  0.81271193462E+03  0.00000000000E+00 0. -1.
    9000010    2    1    2  502    0  0.29325346244E+03 -0.79706964871E+03  0.19633758367E+04  0.23622256300E+04  0.10019718723E+04 0.  0.
   -9000010    2    1    2    0  501 -0.29325346244E+03  0.79706964871E+03  0.97285969588E+02  0.13238600455E+04  0.10108527302E+04 0.  0.
        -13    1    3    3    0    0  0.17751949815E+01 -0.40493541655E+03  0.18030989466E+04  0.18480101908E+04  0.10566000000E+00 0.  1.
         13    1    4    4    0    0 -0.49362833502E+03  0.74662894830E+03  0.38108906241E+03  0.97280656054E+03  0.10566000000E+00 0. -1.
          4    1    3    3  502    0  0.29147826745E+03 -0.39213423216E+03  0.16027689011E+03  0.51421543922E+03  0.00000000000E+00 0.  1.
         -4    1    4    4    0  501  0.20037487259E+03  0.50440700414E+02 -0.28380309282E+03  0.35105348498E+03  0.00000000000E+00 0. -1.
</event>
<event>
 8    1  0.7446554E-006  0.1683565E+04  0.7818608E-02  0.8311040E-01
          4   -1    0    0  502    0  0.00000000000E+00  0.00000000000E+00  0.20908665268E+04  0.20908665268E+04  0.00000000000E+00 0.  1.
         -4   -1    0    0    0  501 -0.00000000000E+00 -0.00000000000E+00 -0.13957807528E+04  0.13957807528E+04  0.00000000000E+00 0. -1.
    9000010    2    1    2  502    0 -0.80970386347E+03  0.10967621725E+04  0.64409754119E+03  0.18063884322E+04  0.99482154973E+03 0.  0.
   -9000010    2    1    2    0  501  0.80970386347E+03 -0.10967621725E+04  0.50988232882E+02  0.16802588474E+04  0.98089876390E+03 0.  0.
        -13    1    3    3    0    0 -0.77523916109E+03  0.68319301288E+03  0.85471264555E+03  0.13410004353E+04  0.10566000000E+00 0.  1.
         13    1    4    4    0    0  0.10277132836E+04 -0.79446930351E+03 -0.27927719697E+02  0.12992905896E+04  0.10566000000E+00 0. -1.
          4    1    3    3  502    0 -0.34464702377E+02  0.41356915961E+03 -0.21061510436E+03  0.46538799692E+03  0.00000000000E+00 0.  1.
         -4    1    4    4    0  501 -0.21800942015E+03 -0.30229286897E+03  0.78915952579E+02  0.38096825784E+03  0.00000000000E+00 0. -1.
</event>
<event>
 8    1  0.7446554E-006  0.1039381E+04  0.7818608E-02  0.8738444E-01
          2   -1    0    0  502    0  0.00000000000E+00  0.00000000000E+00  0.21701605758E+04  0.21701605758E+04  0.00000000000E+00 0.  1.
         -2   -1    0    0    0  501 -0.00000000000E+00 -0.00000000000E+00 -0.49792514289E+03  0.49792514289E+03  0.00000000000E+00 0. -1.
    9000010    2    1    2  502    0  0.26536201610E+03  0.16306602702E+03  0.82873619674E+03  0.13376307898E+04  0.10027187628E+04 0.  0.
   -9000010    2    1    2    0  501 -0.26536201610E+03 -0.16306602702E+03  0.84349923620E+03  0.13304549289E+04  0.98061808450E+03 0.  0.
        -13    1    3    3    0    0  0.11317227111E+03  0.81040669628E+02 -0.22784422670E+03  0.26699916832E+03  0.10566000000E+00 0.  1.
         13    1    4    4    0    0  0.91904540973E+02 -0.23566442745E+03 -0.13466274976E+03  0.28656279304E+03  0.10566000000E+00 0. -1.
          4    1    3    3  502    0  0.15218974499E+03  0.82025357390E+02  0.10565804234E+04  0.10706316215E+04  0.00000000000E+00 0.  1.
         -4    1    4    4    0  501 -0.35726655707E+03  0.72598400431E+02  0.97816198597E+03  0.10438921359E+04  0.00000000000E+00 0. -1.
</event>
<event>
 8    1  0.7446554E-006  0.1095546E+04  0.7818608E-02  0.8689664E-01
         -1   -1    0    0    0  501 -0.00000000000E+00  0.00000000000E+00  0.64775440864E+03  0.64775440864E+03  0.00000000000E+00 0.  1.
          1   -1    0    0  502    0  0.00000000000E+00 -0.00000000000E+00 -0.19583674590E+04  0.19583674590E+04  0.00000000000E+00 0. -1.
    9000010    2    1    2  502    0 -0.65324872301E+02 -0.21140827404E+03 -0.88582723284E+03  0.13419172738E+04  0.98340799574E+03 0.  0.
   -9000010    2    1    2    0  501  0.65324872301E+02  0.21140827404E+03 -0.42478581749E+03  0.12642045938E+04  0.11699613100E+04 0.  0.
        -13    1    3    3    0    0 -0.24258091769E+03 -0.40252254662E+03 -0.96173985291E+03  0.10704267644E+04  0.10566000000E+00 0.  1.
         13    1    4    4    0    0  0.29706682031E+03 -0.22791770016E+03 -0.62507782887E+03  0.72864084231E+03  0.10566000000E+00 0. -1.
          4    1    3    3  502    0  0.17725604539E+03  0.19111427258E+03  0.75912620066E+02  0.27149050941E+03  0.00000000000E+00 0.  1.
         -4    1    4    4    0  501 -0.23174194801E+03  0.43932597419E+03  0.20029201138E+03  0.53556375147E+03  0.00000000000E+00 0. -1.
</event>
<event>
 8    1  0.7446554E-006  0.1163525E+04  0.7818608E-02  0.8634547E-01
         -1   -1    0    0    0  501 -0.00000000000E+00  0.00000000000E+00  0.11606868738E+04  0.11606868738E+04  0.00000000000E+00 0.  1.
          1   -1    0    0  502    0  0.00000000000E+00 -0.00000000000E+00 -0.13781204994E+04  0.13781204994E+04  0.00000000000E+00 0. -1.
    9000010    2    1    2  502    0 -0.43146047458E+03  0.37290051045E+03  0.38978784952E+03  0.12130714567E+04  0.99719349157E+03 0.  0.
   -9000010    2    1    2    0  501  0.43146047458E+03 -0.37290051045E+03 -0.60722147513E+03  0.13257359165E+04  0.10313315997E+04 0.  0.
        -13    1    3    3    0    0  0.29939562278E+03 -0.26224033903E+02  0.19371491045E+03  0.35756246530E+03  0.10566000000E+00 0.  1.
         13    1    4    4    0    0 -0.23032403579E+03 -0.60435621359E+02 -0.54077909202E+03  0.59088379849E+03  0.10566000000E+00 0. -1.
          4    1    3    3  502    0 -0.73085609736E+03  0.39912454435E+03  0.19607293907E+03  0.85550899141E+03  0.00000000000E+00 0.  1.
         -4    1    4    4    0  501  0.66178451037E+03 -0.31246488909E+03 -0.66442383109E+02  0.73485211801E+03  0.00000000000E+00 0. -1.
</event>
<event>
 8    1  0.7446554E-006  0.2197138E+04  0.7818608E-02  0.8092540E-01
          1   -1    0    0  502    0  0.00000000000E+00  0.00000000000E+00  0.15458688706E+04  0.15458688706E+04  0.00000000000E+00 0.  1.
         -1   -1    0    0    0  501 -0.00000000000E+00 -0.00000000000E+00 -0.34179737451E+04  0.34179737451E+04  0.00000000000E+00 0. -1.
    9000010    2    1    2  502    0 -0.22539905218E+03  0.19410175405E+04 -0.16658838581E+04  0.27582058978E+04  0.10070635136E+04 0.  0.
   -9000010    2    1    2    0  501  0.22539905218E+03 -0.19410175405E+04 -0.20622101633E+03  0.22056367179E+04  0.10019742504E+04 0.  0.
        -13    1    3    3    0    0 -0.48721213487E+03  0.17279408605E+04 -0.11188829965E+04  0.21154324505E+04  0.10566000000E+00 0.  1.
         13    1    4    4    0    0 -0.37342570644E+03 -0.88033673356E+03 -0.24437147936E+03  0.98699389754E+03  0.10566000000E+00 0. -1.
          4    1    3    3  502    0  0.26181308269E+03  0.21307668003E+03 -0.54700086167E+03  0.64277344726E+03  0.00000000000E+00 0.  1.
         -4    1    4    4    0  501  0.59882475862E+03 -0.10606808070E+04  0.38150463026E+02  0.12186428204E+04  0.00000000000E+00 0. -1.
</event>
<event>
 8    1  0.2037654E-005  0.9291042E+03  0.7818608E-02  0.8844216E-01
          2   -1    0    0  502    0  0.00000000000E+00  0.00000000000E+00  0.13729384181E+04  0.13729384181E+04  0.00000000000E+00 0. -1.
         -2   -1    0    0    0  501 -0.00000000000E+00 -0.00000000000E+00 -0.64999705174E+03  0.64999705174E+03  0.00000000000E+00 0.  1.
    9000010    2    1    2  502    0  0.85654876814E+02  0.42595163354E+03  0.18344044669E+03  0.95858365665E+03  0.83454219622E+03 0.  0.
   -9000010    2    1    2    0  501 -0.85654876814E+02 -0.42595163354E+03  0.53950091967E+03  0.10643518132E+04  0.80809157146E+03 0.  0.
        -13    1    3    3    0    0 -0.32954438743E+03  0.11924996366E+03 -0.10682401751E+03  0.36637608956E+03  0.10566000000E+00 0.  1.
         13    1    4    4    0    0 -0.43847639701E+03 -0.15831486197E+03  0.20446744665E+03  0.50905018825E+03  0.10566000000E+00 0. -1.
          4    1    3    3  502    0  0.41519926425E+03  0.30670166988E+03  0.29026446420E+03  0.59220756709E+03  0.00000000000E+00 0.  1.
         -4    1    4    4    0  501  0.35282152020E+03 -0.26763677157E+03  0.33503347301E+03  0.55530162493E+03  0.00000000000E+00 0. -1.
</event>
<event>
 8    1  0.7446554E-006  0.1122813E+04  0.7818608E-02  0.8667069E-01
          1   -1    0    0  502    0  0.00000000000E+00  0.00000000000E+00  0.24522668718E+04  0.24522668718E+04  0.00000000000E+00 0.  1.
         -1   -1    0    0    0  501 -0.00000000000E+00 -0.00000000000E+00 -0.56120217870E+03  0.56120217870E+03  0.00000000000E+00 0. -1.
    9000010    2    1    2  502    0 -0.38430708402E+02  0.47190498852E+03  0.13768213068E+04  0.17724237977E+04  0.10107808714E+04 0.  0.
   -9000010    2    1    2    0  501  0.38430708402E+02 -0.47190498852E+03  0.51424338632E+03  0.12410452529E+04  0.10254637106E+04 0.  0.
        -13    1    3    3    0    0 -0.51609198731E+03  0.21355121015E+03  0.55500772235E+03  0.78739357487E+03  0.10566000000E+00 0.  1.
         13    1    4    4    0    0  0.38468963593E+03  0.46501989280E+02  0.47973510045E+03  0.61668008624E+03  0.10566000000E+00 0. -1.
          4    1    3    3  502    0  0.47766127891E+03  0.25835377838E+03  0.82181358447E+03  0.98503022278E+03  0.00000000000E+00 0.  1.
         -4    1    4    4    0  501 -0.34625892753E+03 -0.51840697781E+03  0.34508285871E+02  0.62436516665E+03  0.00000000000E+00 0. -1.
</event>
<event>
 8    1  0.7446554E-006  0.1216871E+04  0.7818608E-02  0.8593965E-01
          2   -1    0    0  502    0  0.00000000000E+00  0.00000000000E+00  0.15038230402E+04  0.15038230402E+04  0.00000000000E+00 0. -1.
         -2   -1    0    0    0  501 -0.00000000000E+00 -0.00000000000E+00 -0.10751063391E+04  0.10751063391E+04  0.00000000000E+00 0.  1.
    9000010    2    1    2  502    0 -0.13275381182E+03 -0.79222371323E+03  0.59267367591E+03  0.14000084936E+04  0.98159039815E+03 0.  0.
   -9000010    2    1    2    0  501  0.13275381182E+03  0.79222371323E+03 -0.16395697480E+03  0.11789208857E+04  0.84718981280E+03 0.  0.
        -13    1    3    3    0    0  0.61029201541E+02 -0.41309151539E+03 -0.22777284103E+03  0.47565706323E+03  0.10566000000E+00 0.  1.
         13    1    4    4    0    0  0.34190254304E+03  0.16524920028E+03  0.19490720837E+03  0.42684127983E+03  0.10566000000E+00 0. -1.
          4    1    3    3  502    0 -0.19378301336E+03 -0.37913219784E+03  0.82044651694E+03  0.92435143039E+03  0.00000000000E+00 0.  1.
         -4    1    4    4    0  501 -0.20914873122E+03  0.62697451295E+03 -0.35886418317E+03  0.75207960591E+03  0.00000000000E+00 0. -1.
</event>
<event>
 8    1  0.7446554E-006  0.1217875E+04  0.7818608E-02  0.8593222E-01
         -1   -1    0    0    0  501 -0.00000000000E+00  0.00000000000E+00  0.24410150788E+04  0.24410150788E+04  0.00000000000E+00 0.  1.
          1   -1    0    0  502    0  0.00000000000E+00 -0.00000000000E+00 -0.65299743171E+03  0.65299743171E+03  0.00000000000E+00 0. -1.
    9000010    2    1    2  502    0 -0.23708936291E+03 -0.66593368892E+03  0.48365455189E+03  0.13068780062E+04  0.98708122938E+03 0.  0.
   -9000010    2    1    2    0  501  0.23708936291E+03  0.66593368892E+03  0.13043630952E+04  0.17871345043E+04  0.99639731453E+03 0.  0.
        -13    1    3    3    0    0 -0.59258310205E+03 -0.36966666578E+03  0.47386334714E+03  0.84401105416E+03  0.10566000000E+00 0.  1.
         13    1    4    4    0    0  0.57522669248E+03  0.23975929672E+03  0.95582023102E+03  0.11410357546E+04  0.10566000000E+00 0. -1.
          4    1    3    3  502    0  0.35549373914E+03 -0.29626702314E+03  0.97912047494E+01  0.46286695200E+03  0.00000000000E+00 0.  1.
         -4    1    4    4    0  501 -0.33813732957E+03  0.42617439220E+03  0.34854286414E+03  0.64609874969E+03  0.00000000000E+00 0. -1.
</event>
<event>
 8    1  0.7446554E-006  0.1358333E+04  0.7818608E-02  0.8496008E-01
          2   -1    0    0  502    0  0.00000000000E+00  0.00000000000E+00  0.33357423517E+04  0.33357423517E+04  0.00000000000E+00 0.  1.
         -2   -1    0    0    0  501 -0.00000000000E+00 -0.00000000000E+00 -0.56480806159E+03  0.56480806159E+03  0.00000000000E+00 0. -1.
    9000010    2    1    2  502    0 -0.90573509056E+03 -0.24026297944E+03  0.16808060809E+04  0.21710355162E+04  0.10050889399E+04 0.  0.
   -9000010    2    1    2    0  501  0.90573509056E+03  0.24026297944E+03  0.10901282091E+04  0.17295148971E+04  0.96164437992E+03 0.  0.
        -13    1    3    3    0    0 -0.16706386144E+03 -0.49942170132E+03  0.36767866615E+03  0.64227718491E+03  0.10566000000E+00 0.  1.
         13    1    4    4    0    0  0.83695630696E+03 -0.10540226363E+03  0.10884459986E+04  0.13770694245E+04  0.10566000000E+00 0. -1.
          4    1    3    3  502    0 -0.73867122912E+03  0.25915872188E+03  0.13131274148E+04  0.15287583312E+04  0.00000000000E+00 0.  1.
         -4    1    4    4    0  501  0.68778783598E+02  0.34566524308E+03  0.16822105867E+01  0.35244547263E+03  0.00000000000E+00 0. -1.
</event>
<event>
 8    1  0.7446554E-006  0.1384370E+04  0.7818608E-02  0.8479318E-01
          2   -1    0    0  502    0  0.00000000000E+00  0.00000000000E+00  0.13746433874E+04  0.13746433874E+04  0.00000000000E+00 0.  1.
         -2   -1    0    0    0  501 -0.00000000000E+00 -0.00000000000E+00 -0.14022841793E+04  0.14022841793E+04  0.00000000000E+00 0. -1.
    9000010    2    1    2  502    0  0.82025948917E+03  0.54528245027E+03 -0.11534304524E+03  0.14195477175E+04  0.10157032657E+04 0.  0.
   -9000010    2    1    2    0  501 -0.82025948917E+03 -0.54528245027E+03  0.87702253411E+02  0.13573798492E+04  0.92985471428E+03 0.  0.
        -13    1    3    3    0    0  0.40264834758E+03  0.16252127581E+03  0.44570840942E+03  0.62224983270E+03  0.10566000000E+00 0.  1.
         13    1    4    4    0    0 -0.45327095200E+03 -0.67039466914E+03  0.35782974755E+03  0.88483089217E+03  0.10566000000E+00 0. -1.
          4    1    3    3  502    0  0.41761114160E+03  0.38276117446E+03 -0.56105145466E+03  0.79729788476E+03  0.00000000000E+00 0.  1.
         -4    1    4    4    0  501 -0.36698853717E+03  0.12511221886E+03 -0.27012749414E+03  0.47254895706E+03  0.00000000000E+00 0. -1.
</event>
<event>
 8    1  0.7446554E-006  0.1171380E+04  0.7818608E-02  0.8628431E-01
         -2   -1    0    0    0  501 -0.00000000000E+00  0.00000000000E+00  0.51952153390E+03  0.51952153390E+03  0.00000000000E+00 0.  1.
          2   -1    0    0  502    0  0.00000000000E+00 -0.00000000000E+00 -0.34288723593E+04  0.34288723593E+04  0.00000000000E+00 0. -1.
    9000010    2    1    2  502    0 -0.45247994240E+02 -0.59227620033E+03 -0.50260625300E+03  0.12690236279E+04  0.10024816428E+04 0.  0.
   -9000010    2    1    2    0  501  0.45247994240E+02  0.59227620033E+03 -0.24067445724E+04  0.26793702654E+04  0.10167433813E+04 0.  0.
        -13    1    3    3    0    0  0.11792876752E+02 -0.84413906200E+03 -0.54846914843E+03  0.10067413997E+04  0.10566000000E+00 0.  1.
         13    1    4    4    0    0  0.44640843056E+03  0.13024336672E+02 -0.67067016394E+03  0.80575964170E+03  0.10566000000E+00 0. -1.
          4    1    3    3  502    0 -0.57040870992E+02  0.25186286166E+03  0.45862895431E+02  0.26228222819E+03  0.00000000000E+00 0.  1.
         -4    1    4    4    0  501 -0.40116043632E+03  0.57925186366E+03 -0.17360744085E+04  0.18736106237E+04  0.00000000000E+00 0. -1.
</event>
<event>
 8    1  0.7446554E-006  0.1311402E+04  0.7818608E-02  0.8527086E-01
          2   -1    0    0  502    0  0.00000000000E+00  0.00000000000E+00  0.19425822396E+04  0.19425822396E+04  0.00000000000E+00 0. -1.
         -2   -1    0    0    0  501 -0.00000000000E+00 -0.00000000000E+00 -0.93737064110E+03  0.93737064110E+03  0.00000000000E+00 0.  1.
    9000010    2    1    2  502    0 -0.82966254922E+03  0.72574032588E+02  0.16126159804E+03  0.13157480042E+04  0.10057736186E+04 0.  0.
   -9000010    2    1    2    0  501  0.82966254922E+03 -0.72574032588E+02  0.84395000048E+03  0.15642048765E+04  0.10202344616E+04 0.  0.
        -13    1    3    3    0    0  0.17046598602E+03  0.22235966564E+03  0.11660860079E+03  0.30347990088E+03  0.10566000000E+00 0.  1.
         13    1    4    4    0    0  0.28082674849E+02 -0.38128092649E+03  0.34388118309E+02  0.38385718097E+03  0.10566000000E+00 0. -1.
          4    1    3    3  502    0 -0.10001285352E+04 -0.14978563306E+03  0.44652997253E+02  0.10122681033E+04  0.00000000000E+00 0.  1.
         -4    1    4    4    0  501  0.80157987437E+03  0.30870689391E+03  0.80956188217E+03  0.11803476956E+04  0.00000000000E+00 0. -1.
</event>
<event>
 8    1  0.7446554E-006  0.1125441E+04  0.7818608E-02  0.8664927E-01
          2   -1    0    0  502    0  0.00000000000E+00  0.00000000000E+00  0.35997396606E+04  0.35997396606E+04  0.00000000000E+00 0.  1.
         -2   -1    0    0    0  501 -0.00000000000E+00 -0.00000000000E+00 -0.40780387214E+03  0.40780387214E+03  0.00000000000E+00 0. -1.
    9000010    2    1    2  502    0  0.43801768747E+03 -0.33172588463E+03  0.86792029464E+03  0.14302408736E+04  0.99518930937E+03 0.  0.
   -9000010    2    1    2    0  501 -0.43801768747E+03  0.33172588463E+03  0.23240154938E+04  0.25773026592E+04  0.96929841867E+03 0.  0.
        -13    1    3    3    0    0  0.81595299628E+01  0.17302296237E+03  0.73361767206E+03  0.75378937599E+03  0.10566000000E+00 0.  1.
         13    1    4    4    0    0  0.11687165101E+03  0.50308956484E+03  0.13196622790E+04  0.14171332452E+04  0.10566000000E+00 0. -1.
          4    1    3    3  502    0  0.42985815751E+03 -0.50474884700E+03  0.13430262258E+03  0.67645149757E+03  0.00000000000E+00 0.  1.
         -4    1    4    4    0  501 -0.55488933848E+03 -0.17136368021E+03  0.10043532148E+04  0.11601694139E+04  0.00000000000E+00 0. -1.
</event>
<event>
 8    1  0.7446554E-006  0.1439576E+04  0.7818608E-02  0.8445145E-01
          4   -1    0    0  502    0  0.00000000000E+00  0.00000000000E+00  0.97188078142E+03  0.97188078142E+03  0.00000000000E+00 0.  1.
         -4   -1    0    0    0  501 -0.00000000000E+00 -0.00000000000E+00 -0.21379232481E+04  0.21379232481E+04  0.00000000000E+00 0. -1.
    9000010    2    1    2  502    0  0.44121304265E+03  0.92538448197E+03 -0.50760520050E+03  0.15346356343E+04  0.10229555719E+04 0.  0.
   -9000010    2    1    2    0  501 -0.44121304265E+03 -0.92538448197E+03 -0.65843726617E+03  0.15751683952E+04  0.99830378700E+03 0.  0.
        -13    1    3    3    0    0  0.11911614262E+03  0.92709445950E+03 -0.14890320195E+01  0.93471654562E+03  0.10566000000E+00 0.  1.
         13    1    4    4    0    0 -0.70203172665E+03 -0.93335328510E+03 -0.50453719943E+03  0.12722243107E+04  0.10566000000E+00 0. -1.
          4    1    3    3  502    0  0.32209690002E+03 -0.17099775306E+01 -0.50611616848E+03  0.59991908873E+03  0.00000000000E+00 0.  1.
         -4    1    4    4    0  501  0.26081868400E+03  0.79688031333E+01 -0.15390006674E+03  0.30294408443E+03  0.00000000000E+00 0. -1.
</event>
<event>
 8    1  0.7446554E-006  0.1204979E+04  0.7818608E-02  0.8602823E-01
          1   -1    0    0  502    0  0.00000000000E+00  0.00000000000E+00  0.40019010863E+04  0.40019010863E+04  0.00000000000E+00 0. -1.
         -1   -1    0    0    0  501 -0.00000000000E+00 -0.00000000000E+00 -0.37622670084E+03  0.37622670084E+03  0.00000000000E+00 0.  1.
    9000010    2    1    2  502    0 -0.32897067338E+03 -0.59570440211E+03  0.22321102683E+04  0.25386022639E+04  0.99954978168E+03 0.  0.
   -9000010    2    1    2    0  501  0.32897067338E+03  0.59570440211E+03  0.13935641172E+04  0.18395255232E+04  0.98931681638E+03 0.  0.
        -13    1    3    3    0    0  0.23059065954E+03 -0.42490803426E+03  0.44102349112E+03  0.65438568194E+03  0.10566000000E+00 0.  1.
         13    1    4    4    0    0  0.35196627774E+03  0.10660447616E+03  0.56780504259E+01  0.36780025343E+03  0.10566000000E+00 0. -1.
          4    1    3    3  502    0 -0.55956133291E+03 -0.17079636785E+03  0.17910867772E+04  0.18842165820E+04  0.00000000000E+00 0.  1.
         -4    1    4    4    0  501 -0.22995604360E+02  0.48909992595E+03  0.13878860668E+04  0.14717252698E+04  0.00000000000E+00 0. -1.
</event>
<event>
 8    1  0.7446554E-006  0.1658151E+04  0.7818608E-02  0.8323877E-01
          2   -1    0    0  502    0  0.00000000000E+00  0.00000000000E+00  0.16107123014E+04  0.16107123014E+04  0.00000000000E+00 0. -1.
         -2   -1    0    0    0  501 -0.00000000000E+00 -0.00000000000E+00 -0.17101044100E+04  0.17101044100E+04  0.00000000000E+00 0.  1.
    9000010    2    1    2  502    0 -0.10332214545E+03  0.13094725451E+04  0.21156408383E+02  0.16594154960E+04  0.10138137811E+04 0.  0.
   -9000010    2    1    2    0  501  0.10332214545E+03 -0.13094725451E+04 -0.12054851696E+03  0.16614012154E+04  0.10101129845E+04 0.  0.
        -13    1    3    3    0    0 -0.49257465775E+03  0.49819143585E+03  0.22680163258E+03  0.73638542349E+03  0.10566000000E+00 0.  1.
         13    1    4    4    0    0  0.16821823663E+03  0.12543742460E+03  0.47738770523E+02  0.21519973049E+03  0.10566000000E+00 0. -1.
          4    1    3    3  502    0  0.38925251230E+03  0.81128110924E+03 -0.20564522419E+03  0.92303007253E+03  0.00000000000E+00 0.  1.
         -4    1    4    4    0  501 -0.64896091183E+02 -0.14349099697E+04 -0.16828728749E+03  0.14462014849E+04  0.00000000000E+00 0. -1.
</event>
<event>
 8    1  0.7446554E-006  0.1179601E+04  0.7818608E-02  0.8622083E-01
          2   -1    0    0  502    0  0.00000000000E+00  0.00000000000E+00  0.17607828997E+04  0.17607828997E+04  0.00000000000E+00 0.  1.
         -2   -1    0    0    0  501 -0.00000000000E+00 -0.00000000000E+00 -0.80997275781E+03  0.80997275781E+03  0.00000000000E+00 0. -1.
    9000010    2    1    2  502    0 -0.63572124016E+03  0.56244386378E+02  0.68031026229E+03  0.13722844714E+04  0.10064977354E+04 0.  0.
   -9000010    2    1    2    0  501  0.63572124016E+03 -0.56244386378E+02  0.27049987962E+03  0.11984711861E+04  0.97767994401E+03 0.  0.
        -13    1    3    3    0    0 -0.10301105921E+03  0.87787393843E+02  0.81153513281E+03  0.82274369507E+03  0.10566000000E+00 0.  1.
         13    1    4    4    0    0 -0.13360697989E+03  0.25612409816E+03 -0.76062448237E+02  0.29872376191E+03  0.10566000000E+00 0. -1.
          4    1    3    3  502    0 -0.53271018095E+03 -0.31543007466E+02 -0.13122487052E+03  0.54954077633E+03  0.00000000000E+00 0.  1.
         -4    1    4    4    0  501  0.76932822005E+03 -0.31236848454E+03  0.34656232786E+03  0.89974742422E+03  0.00000000000E+00 0. -1.
</event>
<event>
 8    1  0.7446554E-006  0.1573302E+04  0.7818608E-02  0.8368520E-01
         -2   -1    0    0    0  501 -0.00000000000E+00  0.00000000000E+00  0.69879481818E+03  0.69879481818E+03  0.00000000000E+00 0.  1.
          2   -1    0    0  502    0  0.00000000000E+00 -0.00000000000E+00 -0.37060612937E+04  0.37060612937E+04  0.00000000000E+00 0. -1.
    9000010    2    1    2  502    0  0.12046949805E+04  0.14096729975E+03 -0.10394780739E+04  0.18847089551E+04  0.10002256764E+04 0.  0.
   -9000010    2    1    2    0  501 -0.12046949805E+04 -0.14096729975E+03 -0.19677884016E+04  0.25201471568E+04  0.10038868077E+04 0.  0.
        -13    1    3    3    0    0  0.12647501919E+04  0.11344551768E+03 -0.11774614271E+04  0.17317269868E+04  0.10566000000E+00 0.  1.
         13    1    4    4    0    0 -0.97672396728E+03  0.29963697504E+03 -0.98451839656E+03  0.14188194069E+04  0.10566000000E+00 0. -1.
          4    1    3    3  502    0 -0.60055211355E+02  0.27521782069E+02  0.13798335313E+03  0.15298196835E+03  0.00000000000E+00 0.  1.
         -4    1    4    4    0  501 -0.22797101322E+03 -0.44060427479E+03 -0.98327000503E+03  0.11013277499E+04  0.00000000000E+00 0. -1.
</event>
<event>
 8    1  0.7446554E-006  0.1178462E+04  0.7818608E-02  0.8622960E-01
         -1   -1    0    0    0  501 -0.00000000000E+00  0.00000000000E+00  0.90527712089E+03  0.90527712089E+03  0.00000000000E+00 0. -1.
          1   -1    0    0  502    0  0.00000000000E+00 -0.00000000000E+00 -0.16071965360E+04  0.16071965360E+04  0.00000000000E+00 0.  1.
    9000010    2    1    2  502    0 -0.58731980324E+03 -0.20154013073E+03 -0.61845960460E+03  0.13295455645E+04  0.99981805843E+03 0.  0.
   -9000010    2    1    2    0  501  0.58731980324E+03  0.20154013073E+03 -0.83459810509E+02  0.11829280924E+04  0.10033894340E+04 0.  0.
        -13    1    3    3    0    0 -0.77611735542E+03 -0.40608114061E+03 -0.57504600039E+03  0.10478253461E+04  0.10566000000E+00 0.  1.
         13    1    4    4    0    0  0.50595849170E+02  0.51029841230E+03  0.12815105490E+03  0.52857082173E+03  0.10566000000E+00 0. -1.
          4    1    3    3  502    0  0.18879755218E+03  0.20454100988E+03 -0.43413604208E+02  0.28172021842E+03  0.00000000000E+00 0.  1.
         -4    1    4    4    0  501  0.53672395407E+03 -0.30875828157E+03 -0.21161086541E+03  0.65435727066E+03  0.00000000000E+00 0. -1.
</event>
<event>
 8    1  0.7446554E-006  0.1598377E+04  0.7818608E-02  0.8355029E-01
          2   -1    0    0  502    0  0.00000000000E+00  0.00000000000E+00  0.12983274864E+04  0.12983274864E+04  0.00000000000E+00 0. -1.
         -2   -1    0    0    0  501 -0.00000000000E+00 -0.00000000000E+00 -0.19678106540E+04  0.19678106540E+04  0.00000000000E+00 0.  1.
    9000010    2    1    2  502    0  0.12524150808E+04  0.93092621761E+02 -0.34237167102E+03  0.16361310313E+04  0.99120967492E+03 0.  0.
   -9000010    2    1    2    0  501 -0.12524150808E+04 -0.93092621761E+02 -0.32711149662E+03  0.16300071092E+04  0.98626136187E+03 0.  0.
        -13    1    3    3    0    0  0.33848953675E+03  0.41741291935E+03 -0.39186108903E+03  0.66510437977E+03  0.10566000000E+00 0.  1.
         13    1    4    4    0    0 -0.95741166729E+03 -0.18420431847E+01 -0.67000333792E+03  0.11685653502E+04  0.10566000000E+00 0. -1.
          4    1    3    3  502    0  0.91392554403E+03 -0.32432029759E+03  0.49489418017E+02  0.97102665152E+03  0.00000000000E+00 0.  1.
         -4    1    4    4    0  501 -0.29500341349E+03 -0.91250578576E+02  0.34289184129E+03  0.46144175894E+03  0.00000000000E+00 0. -1.
</event>
<event>
 8    1  0.7446554E-006  0.1032886E+04  0.7818608E-02  0.8744291E-01
         -1   -1    0    0    0  501 -0.00000000000E+00  0.00000000000E+00  0.61863131417E+03  0.61863131417E+03  0.00000000000E+00 0. -1.
          1   -1    0    0  502    0  0.00000000000E+00 -0.00000000000E+00 -0.20658858655E+04  0.20658858655E+04  0.00000000000E+00 0.  1.
    9000010    2    1    2  502    0 -0.10033472028E+03 -0.25293937293E+03 -0.17600120887E+03  0.10443473251E+04  0.99279379904E+03 0.  0.
   -9000010    2    1    2    0  501  0.10033472028E+03  0.25293937293E+03 -0.12712533424E+04  0.16401698546E+04  0.10000133543E+04 0.  0.
        -13    1    3    3    0    0 -0.43599513472E+03  0.11430996000E+02  0.19568686891E+03  0.47803324884E+03  0.10566000000E+00 0.  1.
         13    1    4    4    0    0 -0.22219847598E+03 -0.29369179512E+02 -0.11810756909E+04  0.12021541125E+04  0.10566000000E+00 0. -1.
          4    1    3    3  502    0  0.33566041444E+03 -0.26437036893E+03 -0.37168807778E+03  0.56631407625E+03  0.00000000000E+00 0.  1.
         -4    1    4    4    0  501  0.32253319625E+03  0.28230855244E+03 -0.90177651561E+02  0.43801574208E+03  0.00000000000E+00 0. -1.
</event>
<event>
 8    1  0.7446554E-006  0.1368918E+04  0.7818608E-02  0.8489177E-01
          1   -1    0    0  502    0  0.00000000000E+00  0.00000000000E+00  0.36273372175E+04  0.36273372175E+04  0.00000000000E+00 0.  1.
         -1   -1    0    0    0  501 -0.00000000000E+00 -0.00000000000E+00 -0.61641631805E+03  0.61641631805E+03  0.00000000000E+00 0. -1.
    9000010    2    1    2  502    0  0.92626872473E+03  0.12740595444E+03  0.23710488209E+04  0.27444287920E+04  0.10177479332E+04 0.  0.
   -9000010    2    1    2    0  501 -0.92626872473E+03 -0.12740595444E+03  0.63987207849E+03  0.14993247435E+04  0.98200426781E+03 0.  0.
        -13    1    3    3    0    0 -0.19577905355E+03  0.93010000436E+02  0.68816323990E+03  0.72149078574E+03  0.10566000000E+00 0.  1.
         13    1    4    4    0    0 -0.23269677353E+03 -0.36940788643E+03  0.62775190008E+03  0.76464529959E+03  0.10566000000E+00 0. -1.
          4    1    3    3  502    0  0.11220477783E+04  0.34395954003E+02  0.16828855810E+04  0.20229380063E+04  0.00000000000E+00 0.  1.
         -4    1    4    4    0  501 -0.69357195120E+03  0.24200193199E+03  0.12120178407E+02  0.73467944391E+03  0.00000000000E+00 0. -1.
</event>
<event>
 8    1  0.7446554E-006  0.9995135E+03  0.7818608E-02  0.8775049E-01
         -2   -1    0    0    0  501 -0.00000000000E+00  0.00000000000E+00  0.58863599999E+03  0.58863599999E+03  0.00000000000E+00 0. -1.
          2   -1    0    0  502    0  0.00000000000E+00 -0.00000000000E+00 -0.17060947686E+04  0.17060947686E+04  0.00000000000E+00 0.  1.
    9000010    2    1    2  502    0 -0.21385504440E+03 -0.19776539817E+03 -0.48134169446E+03  0.11173359638E+04  0.96535211006E+03 0.  0.
   -9000010    2    1    2    0  501  0.21385504440E+03  0.19776539817E+03 -0.63611707417E+03  0.11773948048E+04  0.94697859621E+03 0.  0.
        -13    1    3    3    0    0  0.95624686070E+02 -0.14465954149E+03 -0.70873652955E+03  0.72964233911E+03  0.10566000000E+00 0.  1.
         13    1    4    4    0    0  0.37255303241E+03 -0.23177956733E+03 -0.62164632550E+02  0.44315006769E+03  0.10566000000E+00 0. -1.
          4    1    3    3  502    0 -0.30947973047E+03 -0.53105856680E+02  0.22739483509E+03  0.38769362467E+03  0.00000000000E+00 0.  1.
         -4    1    4    4    0  501 -0.15869798801E+03  0.42954496550E+03 -0.57395244162E+03  0.73424473715E+03  0.00000000000E+00 0. -1.
</event>
<event>
 8    1  0.7446554E-006  0.1847495E+04  0.7818608E-02  0.8233478E-01
         -2   -1    0    0    0  501 -0.00000000000E+00  0.00000000000E+00  0.10676851403E+04  0.10676851403E+04  0.00000000000E+00 0.  1.
          2   -1    0    0  502    0  0.00000000000E+00 -0.00000000000E+00 -0.37228053151E+04  0.37228053151E+04  0.00000000000E+00 0. -1.
    9000010    2    1    2  502    0  0.11226990279E+04 -0.10875068696E+04 -0.42377257395E+03  0.18899225545E+04  0.97421751615E+03 0.  0.
   -9000010    2    1    2    0  501 -0.11226990279E+04  0.10875068696E+04 -0.22313476009E+04  0.29005679009E+04  0.99561927127E+03 0.  0.
        -13    1    3    3    0    0  0.23483642158E+03 -0.40094775597E+03  0.30124595758E+03  0.55376564180E+03  0.10566000000E+00 0.  1.
         13    1    4    4    0    0 -0.34340559266E+03  0.72318401216E+03 -0.44036241839E+03  0.91369666039E+03  0.10566000000E+00 0. -1.
          4    1    3    3  502    0  0.88786260633E+03 -0.68655911368E+03 -0.72501853153E+03  0.13361569127E+04  0.00000000000E+00 0.  1.
         -4    1    4    4    0  501 -0.77929343525E+03  0.36432285748E+03 -0.17909851825E+04  0.19868712406E+04  0.00000000000E+00 0. -1.
</event>
<event>
 8    1  0.7446554E-006  0.1306898E+04  0.7818608E-02  0.8530139E-01
          2   -1    0    0  502    0  0.00000000000E+00  0.00000000000E+00  0.18984824525E+04  0.18984824525E+04  0.00000000000E+00 0. -1.
         -2   -1    0    0    0  501 -0.00000000000E+00 -0.00000000000E+00 -0.12303956358E+04  0.12303956358E+04  0.00000000000E+00 0.  1.
    9000010    2    1    2  502    0 -0.58008991818E+03  0.51751633141E+03 -0.48415021709E+03  0.13496393022E+04  0.99136136032E+03 0.  0.
   -9000010    2    1    2    0  501  0.58008991818E+03 -0.51751633141E+03  0.11522370338E+04  0.17792387862E+04  0.11107263434E+04 0.  0.
        -13    1    3    3    0    0 -0.13946796806E+03  0.56208067681E+03 -0.65558654772E+03  0.87474552532E+03  0.10566000000E+00 0.  1.
         13    1    4    4    0    0  0.41563643408E+03  0.19398222156E+03  0.56056528548E+02  0.46208775484E+03  0.10566000000E+00 0. -1.
          4    1    3    3  502    0 -0.44062195012E+03 -0.44564345398E+02  0.17143633063E+03  0.47489377683E+03  0.00000000000E+00 0.  1.
         -4    1    4    4    0  501  0.16445348410E+03 -0.71149855298E+03  0.10961805053E+04  0.13171510314E+04  0.00000000000E+00 0. -1.
</event>
<event>
 8    1  0.7446554E-006  0.1072804E+04  0.7818608E-02  0.8709041E-01
         -2   -1    0    0    0  501 -0.00000000000E+00  0.00000000000E+00  0.88646338953E+03  0.88646338953E+03  0.00000000000E+00 0. -1.
          2   -1    0    0  502    0  0.00000000000E+00 -0.00000000000E+00 -0.13427213140E+04  0.13427213140E+04  0.00000000000E+00 0.  1.
    9000010    2    1    2  502    0 -0.10289498611E+03 -0.42168784770E+03 -0.42921266793E+03  0.11488295772E+04  0.97323063252E+03 0.  0.
   -9000010    2    1    2    0  501  0.10289498611E+03  0.42168784770E+03 -0.27045256538E+02  0.10803551263E+04  0.98895284722E+03 0.  0.
        -13    1    3    3    0    0 -0.31434021522E+02  0.31629541248E+03 -0.18726636755E+03  0.36891677821E+03  0.10566000000E+00 0.  1.
         13    1    4    4    0    0 -0.31780591216E+02 -0.16096490503E+03 -0.36019545853E+03  0.39580359541E+03  0.10566000000E+00 0. -1.
          4    1    3    3  502    0 -0.71460964587E+02 -0.73798326018E+03 -0.24194630039E+03  0.77991279900E+03  0.00000000000E+00 0.  1.
         -4    1    4    4    0  501  0.13467557732E+03  0.58265275274E+03  0.33315020199E+03  0.68455153092E+03  0.00000000000E+00 0. -1.
</event>
<event>
 8    1  0.7446554E-006  0.1129985E+04  0.7818608E-02  0.8661237E-01
         -2   -1    0    0    0  501 -0.00000000000E+00  0.00000000000E+00  0.50278700833E+03  0.50278700833E+03  0.00000000000E+00 0.  1.
          2   -1    0    0  502    0  0.00000000000E+00 -0.00000000000E+00 -0.27219483457E+04  0.27219483457E+04  0.00000000000E+00 0. -1.
    9000010    2    1    2  502    0 -0.50825946627E+03  0.91555890783E+02 -0.68500604237E+03  0.13145441967E+04  0.99603363441E+03 0.  0.
   -9000010    2    1    2    0  501  0.50825946627E+03 -0.91555890783E+02 -0.15341552950E+04  0.19101911573E+04  0.10141437877E+04 0.  0.
        -13    1    3    3    0    0 -0.41533527061E+03  0.48324391797E+03 -0.65036625564E+03  0.91049675941E+03  0.10566000000E+00 0.  1.
         13    1    4    4    0    0  0.55197438616E+03  0.37540280533E+03 -0.94949588479E+03  0.11606659449E+04  0.10566000000E+00 0. -1.
          4    1    3    3  502    0 -0.92924195658E+02 -0.39168802719E+03 -0.34639786738E+02  0.40404743732E+03  0.00000000000E+00 0.  1.
         -4    1    4    4    0  501 -0.43714919893E+02 -0.46695869612E+03 -0.58465941023E+03  0.74952521243E+03  0.00000000000E+00 0. -1.
</event>
<event>
 8    1  0.7446554E-006  0.1422383E+04  0.7818608E-02  0.8455617E-01
         -2   -1    0    0    0  501 -0.00000000000E+00  0.00000000000E+00  0.11870273069E+04  0.11870273069E+04  0.00000000000E+00 0.  1.
          2   -1    0    0  502    0  0.00000000000E+00 -0.00000000000E+00 -0.17173819787E+04  0.17173819787E+04  0.00000000000E+00 0. -1.
    9000010    2    1    2  502    0 -0.63300343058E+03 -0.78142142921E+03 -0.39148397877E+03  0.14756284509E+04  0.10064327233E+04 0.  0.
   -9000010    2    1    2    0  501  0.63300343058E+03  0.78142142921E+03 -0.13887069303E+03  0.14287808346E+04  0.10053938585E+04 0.  0.
        -13    1    3    3    0    0 -0.36247564121E+03 -0.54760554724E+03  0.28076044459E+03  0.71420365740E+03  0.10566000000E+00 0.  1.
         13    1    4    4    0    0  0.13846679565E+02 -0.19025812814E+03 -0.19818432465E+03  0.27507621409E+03  0.10566000000E+00 0. -1.
          4    1    3    3  502    0 -0.27052778937E+03 -0.23381588197E+03 -0.67224442336E+03  0.76142479354E+03  0.00000000000E+00 0.  1.
         -4    1    4    4    0  501  0.61915675101E+03  0.97167955735E+03  0.59313631617E+02  0.11537046205E+04  0.00000000000E+00 0. -1.
</event>
<event>
 8    1  0.7446554E-006  0.1321933E+04  0.7818608E-02  0.8519997E-01
         -1   -1    0    0    0  501 -0.00000000000E+00  0.00000000000E+00  0.12289307062E+04  0.12289307062E+04  0.00000000000E+00 0.  1.
          1   -1    0    0  502    0  0.00000000000E+00 -0.00000000000E+00 -0.14276303213E+04  0.14276303213E+04  0.00000000000E+00 0. -1.
    9000010    2    1    2  502    0 -0.66888030624E+03  0.29134527430E+03 -0.13028924945E+03  0.14099153591E+04  0.11994178164E+04 0.  0.
   -9000010    2    1    2    0  501  0.66888030624E+03 -0.29134527430E+03 -0.68410365699E+02  0.12466456685E+04  0.10085447494E+04 0.  0.
        -13    1    3    3    0    0 -0.91731973008E+03  0.18933950493E+03 -0.40971953107E+03  0.10223478081E+04  0.10566000000E+00 0.  1.
         13    1    4    4    0    0 -0.22258960264E+03 -0.23488286839E+03  0.97806009678E+02  0.33805638547E+03  0.10566000000E+00 0. -1.
          4    1    3    3  502    0  0.24843942384E+03  0.10200576937E+03  0.27943028162E+03  0.38756755100E+03  0.00000000000E+00 0.  1.
         -4    1    4    4    0  501  0.89146990888E+03 -0.56462405913E+02 -0.16621637538E+03  0.90858928299E+03  0.00000000000E+00 0. -1.
</event>
<event>
 8    1  0.7446554E-006  0.1454263E+04  0.7818608E-02  0.8436318E-01
         -2   -1    0    0    0  501 -0.00000000000E+00  0.00000000000E+00  0.11876593769E+04  0.11876593769E+04  0.00000000000E+00 0. -1.
          2   -1    0    0  502    0  0.00000000000E+00 -0.00000000000E+00 -0.17830662778E+04  0.17830662778E+04  0.00000000000E+00 0.  1.
    9000010    2    1    2  502    0 -0.16917701591E+03 -0.10468880861E+04 -0.24646404070E+03  0.14841490341E+04  0.10086418118E+04 0.  0.
   -9000010    2    1    2    0  501  0.16917701591E+03  0.10468880861E+04 -0.34894286014E+03  0.14865766207E+04  0.98160756007E+03 0.  0.
        -13    1    3    3    0    0 -0.11075852366E+03  0.19238785135E+03 -0.56166671556E+02  0.22898742776E+03  0.10566000000E+00 0.  1.
         13    1    4    4    0    0  0.38121498406E+03  0.99719861265E+03 -0.54043588014E+03  0.11965788268E+04  0.10566000000E+00 0. -1.
          4    1    3    3  502    0 -0.58418492243E+02 -0.12392759374E+04 -0.19029736915E+03  0.12551616063E+04  0.00000000000E+00 0.  1.
         -4    1    4    4    0  501 -0.21203796815E+03  0.49689473410E+02  0.19149302000E+03  0.28999779381E+03  0.00000000000E+00 0. -1.
</event>
<event>
 8    1  0.7446554E-006  0.1231238E+04  0.7818608E-02  0.8583403E-01
          2   -1    0    0  502    0  0.00000000000E+00  0.00000000000E+00  0.14790921252E+04  0.14790921252E+04  0.00000000000E+00 0.  1.
         -2   -1    0    0    0  501 -0.00000000000E+00 -0.00000000000E+00 -0.15953967967E+04  0.15953967967E+04  0.00000000000E+00 0. -1.
    9000010    2    1    2  502    0 -0.67326794645E+03  0.28492311455E+03 -0.97696283338E+03  0.15630979118E+04  0.97690726020E+03 0.  0.
   -9000010    2    1    2    0  501  0.67326794645E+03 -0.28492311455E+03  0.86065816189E+03  0.15113910102E+04  0.10045393995E+04 0.  0.
        -13    1    3    3    0    0 -0.73530033933E+03  0.46833455521E+03 -0.10422381623E+04  0.13587730652E+04  0.10566000000E+00 0.  1.
         13    1    4    4    0    0 -0.24947409933E+03 -0.19226529228E+03  0.22451557598E+03  0.38679519629E+03  0.10566000000E+00 0. -1.
          4    1    3    3  502    0  0.62032392880E+02 -0.18341144066E+03  0.65275328966E+02  0.20432484652E+03  0.00000000000E+00 0.  1.
         -4    1    4    4    0  501  0.92274204578E+03 -0.92657822272E+02  0.63614258591E+03  0.11245958139E+04  0.00000000000E+00 0. -1.
</event>
<event>
 8    1  0.7446554E-006  0.1238155E+04  0.7818608E-02  0.8578371E-01
         -1   -1    0    0    0  501 -0.00000000000E+00  0.00000000000E+00  0.10899207904E+04  0.10899207904E+04  0.00000000000E+00 0.  1.
          1   -1    0    0  502    0  0.00000000000E+00 -0.00000000000E+00 -0.15123878698E+04  0.15123878698E+04  0.00000000000E+00 0. -1.
    9000010    2    1    2  502    0  0.34168064760E+03  0.51860990275E+03  0.13573341689E+03  0.11723475345E+04  0.98502450986E+03 0.  0.
   -9000010    2    1    2    0  501 -0.34168064760E+03 -0.51860990275E+03 -0.55820049637E+03  0.14299611257E+04  0.11608183022E+04 0.  0.
        -13    1    3    3    0    0  0.10398375538E+03 -0.29642787561E+03  0.61655457286E+02  0.32013046308E+03  0.10566000000E+00 0.  1.
         13    1    4    4    0    0  0.37094509654E+03 -0.16256255216E+03 -0.48220853715E+03  0.62972369534E+03  0.10566000000E+00 0. -1.
          4    1    3    3  502    0  0.23769689222E+03  0.81503777835E+03  0.74077959608E+02  0.85221707142E+03  0.00000000000E+00 0.  1.
         -4    1    4    4    0  501 -0.71262574414E+03 -0.35604735059E+03 -0.75991959216E+02  0.80023743035E+03  0.00000000000E+00 0. -1.
</event>
<event>
 8    1  0.7446554E-006  0.2138995E+04  0.7818608E-02  0.8114034E-01
         -2   -1    0    0    0  501 -0.00000000000E+00  0.00000000000E+00  0.22013253621E+04  0.22013253621E+04  0.00000000000E+00 0.  1.
          2   -1    0    0  502    0  0.00000000000E+00 -0.00000000000E+00 -0.24296033588E+04  0.24296033588E+04  0.00000000000E+00 0. -1.
    9000010    2    1    2  502    0  0.12320512193E+04 -0.14227256142E+04  0.76588404778E+03  0.22772803694E+04  0.10282651050E+04 0.  0.
   -9000010    2    1    2    0  501 -0.12320512193E+04  0.14227256142E+04 -0.99416204445E+03  0.23536483515E+04  0.10045914649E+04 0.  0.
        -13    1    3    3    0    0  0.13602293234E+04 -0.13315321668E+04  0.86558539440E+03  0.20910379742E+04  0.10566000000E+00 0.  1.
         13    1    4    4    0    0  0.67957693550E+02  0.56661733629E+03 -0.18903603694E+03  0.60117226177E+03  0.10566000000E+00 0. -1.
          4    1    3    3  502    0 -0.12817810418E+03 -0.91193447452E+02 -0.99701346623E+02  0.18624239520E+03  0.00000000000E+00 0.  1.
         -4    1    4    4    0  501 -0.13000089128E+04  0.85610827796E+03 -0.80512600750E+03  0.17524760897E+04  0.00000000000E+00 0. -1.
</event>
<event>
 8    1  0.7446554E-006  0.1052898E+04  0.7818608E-02  0.8726416E-01
          2   -1    0    0  502    0  0.00000000000E+00  0.00000000000E+00  0.19828220917E+04  0.19828220917E+04  0.00000000000E+00 0.  1.
         -2   -1    0    0    0  501 -0.00000000000E+00 -0.00000000000E+00 -0.59403440954E+03  0.59403440954E+03  0.00000000000E+00 0. -1.
    9000010    2    1    2  502    0 -0.36691920345E+03 -0.64180665648E+02  0.37816876350E+03  0.11129149962E+04  0.97817141413E+03 0.  0.
   -9000010    2    1    2    0  501  0.36691920345E+03  0.64180665648E+02  0.10106189187E+04  0.14639415050E+04  0.99147630917E+03 0.  0.
        -13    1    3    3    0    0 -0.67941236207E+03 -0.14506594403E+03  0.13244953721E+03  0.70723982985E+03  0.10566000000E+00 0.  1.
         13    1    4    4    0    0  0.84817442456E+02 -0.21767786854E+03  0.10382463938E+04  0.10642054493E+04  0.10566000000E+00 0. -1.
          4    1    3    3  502    0  0.31249315862E+03  0.80885278384E+02  0.24571922629E+03  0.40567516637E+03  0.00000000000E+00 0.  1.
         -4    1    4    4    0  501  0.28210176100E+03  0.28185853419E+03 -0.27627475106E+02  0.39973605571E+03  0.00000000000E+00 0. -1.
</event>
<event>
 8    1  0.7446554E-006  0.1184364E+04  0.7818608E-02  0.8618431E-01
          2   -1    0    0  502    0  0.00000000000E+00  0.00000000000E+00  0.16491468421E+04  0.16491468421E+04  0.00000000000E+00 0. -1.
         -2   -1    0    0    0  501 -0.00000000000E+00 -0.00000000000E+00 -0.86000734610E+03  0.86000734610E+03  0.00000000000E+00 0.  1.
    9000010    2    1    2  502    0 -0.19687985984E+03  0.62898077913E+03  0.26607206252E+03  0.12217326182E+04  0.99370908631E+03 0.  0.
   -9000010    2    1    2    0  501  0.19687985984E+03 -0.62898077913E+03  0.52306743346E+03  0.12874215700E+04  0.97441072406E+03 0.  0.
        -13    1    3    3    0    0 -0.53154040632E+03  0.38529083560E+03  0.42079859203E+03  0.77977926221E+03  0.10566000000E+00 0.  1.
         13    1    4    4    0    0  0.24626394608E+03  0.57660982696E+02  0.54268141672E+03  0.59872685866E+03  0.10566000000E+00 0. -1.
          4    1    3    3  502    0  0.33466054648E+03  0.24368994353E+03 -0.15472652951E+03  0.44195335600E+03  0.00000000000E+00 0.  1.
         -4    1    4    4    0  501 -0.49384086242E+02 -0.68664176183E+03 -0.19613983257E+02  0.68869471132E+03  0.00000000000E+00 0. -1.
</event>
<event>
 8    1  0.7446554E-006  0.1049861E+04  0.7818608E-02  0.8729102E-01
          2   -1    0    0  502    0  0.00000000000E+00  0.00000000000E+00  0.37979515660E+04  0.37979515660E+04  0.00000000000E+00 0.  1.
         -2   -1    0    0    0  501 -0.00000000000E+00 -0.00000000000E+00 -0.29045970031E+03  0.29045970031E+03  0.00000000000E+00 0. -1.
    9000010    2    1    2  502    0 -0.71954973813E+02 -0.31897539593E+03  0.18177788676E+04  0.21005198989E+04  0.10004703957E+04 0.  0.
   -9000010    2    1    2    0  501  0.71954973813E+02  0.31897539593E+03  0.16897129981E+04  0.19878913674E+04  0.99481618965E+03 0.  0.
        -13    1    3    3    0    0 -0.42702329959E+03 -0.49660960909E+03  0.10979962742E+04  0.12785014007E+04  0.10566000000E+00 0.  1.
         13    1    4    4    0    0  0.85908069963E+02 -0.54504558682E+02 -0.10996778758E+03  0.14981277940E+03  0.10566000000E+00 0. -1.
          4    1    3    3  502    0  0.35506832578E+03  0.17763421317E+03  0.71978259342E+03  0.82201849824E+03  0.00000000000E+00 0.  1.
         -4    1    4    4    0  501 -0.13953096150E+02  0.37347995461E+03  0.17996807856E+04  0.18380785880E+04  0.00000000000E+00 0. -1.
</event>
<event>
 8    1  0.7446554E-006  0.1351506E+04  0.7818608E-02  0.8500448E-01
         -2   -1    0    0    0  501 -0.00000000000E+00  0.00000000000E+00  0.91917367562E+03  0.91917367562E+03  0.00000000000E+00 0.  1.
          2   -1    0    0  502    0  0.00000000000E+00 -0.00000000000E+00 -0.21544231880E+04  0.21544231880E+04  0.00000000000E+00 0. -1.
    9000010    2    1    2  502    0 -0.87641076963E+03 -0.12158852183E+03 -0.10411468766E+04  0.16976568301E+04  0.10075575856E+04 0.  0.
   -9000010    2    1    2    0  501  0.87641076963E+03  0.12158852183E+03 -0.19410263575E+03  0.13759400335E+04  0.10356908501E+04 0.  0.
        -13    1    3    3    0    0 -0.14020532142E+03  0.36058789380E+03 -0.81126728888E+02  0.39530079511E+03  0.10566000000E+00 0.  1.
         13    1    4    4    0    0  0.33549941722E+03 -0.39923879695E+03 -0.32392304974E+03  0.61390359933E+03  0.10566000000E+00 0. -1.
          4    1    3    3  502    0 -0.73620544821E+03 -0.48217641563E+03 -0.96002014775E+03  0.13023560350E+04  0.00000000000E+00 0.  1.
         -4    1    4    4    0  501  0.54091135241E+03  0.52082731879E+03  0.12982041399E+03  0.76203643420E+03  0.00000000000E+00 0. -1.
</event>
<event>
 8    1  0.7446554E-006  0.1043450E+04  0.7818608E-02  0.8734804E-01
         -2   -1    0    0    0  501 -0.00000000000E+00  0.00000000000E+00  0.97490884536E+03  0.97490884536E+03  0.00000000000E+00 0.  1.
          2   -1    0    0  502    0  0.00000000000E+00 -0.00000000000E+00 -0.12935216553E+04  0.12935216553E+04  0.00000000000E+00 0. -1.
    9000010    2    1    2  502    0  0.20860411875E+03  0.15749532497E+03  0.26261460678E+03  0.10475242015E+04  0.97980613663E+03 0.  0.
   -9000010    2    1    2    0  501 -0.20860411875E+03 -0.15749532497E+03 -0.58122741670E+03  0.12209062991E+04  0.10413771773E+04 0.  0.
        -13    1    3    3    0    0 -0.18184467942E+03 -0.24894162788E+03 -0.15596465134E+03  0.34549154136E+03  0.10566000000E+00 0.  1.
         13    1    4    4    0    0  0.31582111236E+03 -0.52495515015E+02  0.11745325700E+03  0.34101910921E+03  0.10566000000E+00 0. -1.
          4    1    3    3  502    0  0.39044879817E+03  0.40643695285E+03  0.41857925811E+03  0.70203266018E+03  0.00000000000E+00 0.  1.
         -4    1    4    4    0  501 -0.52442523111E+03 -0.10499980996E+03 -0.69868067370E+03  0.87988718988E+03  0.00000000000E+00 0. -1.
</event>
<event>
 8    1  0.7446554E-006  0.1402958E+04  0.7818608E-02  0.8467633E-01
         -1   -1    0    0    0  501 -0.00000000000E+00  0.00000000000E+00  0.14394201302E+04  0.14394201302E+04  0.00000000000E+00 0. -1.
          1   -1    0    0  502    0  0.00000000000E+00 -0.00000000000E+00 -0.14909783860E+04  0.14909783860E+04  0.00000000000E+00 0.  1.
    9000010    2    1    2  502    0 -0.88134350319E+03 -0.47071676404E+03  0.39606143840E+03  0.14491664057E+04  0.97204833519E+03 0.  0.
   -9000010    2    1    2    0  501  0.88134350319E+03  0.47071676404E+03 -0.44761969415E+03  0.14812321105E+04  0.99766955052E+03 0.  0.
        -13    1    3    3    0    0 -0.87059285947E+03 -0.54886802605E+03 -0.16329335586E+02  0.10292981567E+04  0.10566000000E+00 0.  1.
         13    1    4    4    0    0  0.24947929470E+03  0.50407392121E+03  0.17948332039E+03  0.59037675258E+03  0.10566000000E+00 0. -1.
          4    1    3    3  502    0 -0.10750643715E+02  0.78151262008E+02  0.41239077398E+03  0.41986824905E+03  0.00000000000E+00 0.  1.
         -4    1    4    4    0  501  0.63186420848E+03 -0.33357157166E+02 -0.62710301454E+03  0.89085535793E+03  0.00000000000E+00 0. -1.
</event>
<event>
 8    1  0.7446554E-006  0.1112122E+04  0.7818608E-02  0.8675848E-01
         -2   -1    0    0    0  501 -0.00000000000E+00  0.00000000000E+00  0.86158247622E+03  0.86158247622E+03  0.00000000000E+00 0. -1.
          2   -1    0    0  502    0  0.00000000000E+00 -0.00000000000E+00 -0.14817202576E+04  0.14817202576E+04  0.00000000000E+00 0.  1.
    9000010    2    1    2  502    0 -0.44979815751E+03 -0.14793617730E+03 -0.51558334707E+03  0.12213931403E+04  0.10008853683E+04 0.  0.
   -9000010    2    1    2    0  501  0.44979815751E+03  0.14793617730E+03 -0.10455443433E+03  0.11219095935E+04  0.10117045078E+04 0.  0.
        -13    1    3    3    0    0 -0.36432385486E+03  0.22360535262E+03  0.15110718121E+03  0.45339234258E+03  0.10566000000E+00 0.  1.
         13    1    4    4    0    0  0.45156293304E+03 -0.18285580710E+02 -0.51136320503E+03  0.68244837429E+03  0.10566000000E+00 0. -1.
          4    1    3    3  502    0 -0.85474302649E+02 -0.37154152991E+03 -0.66669052828E+03  0.76800079776E+03  0.00000000000E+00 0.  1.
         -4    1    4    4    0  501 -0.17647755303E+01  0.16622175801E+03  0.40680877070E+03  0.43946121920E+03  0.00000000000E+00 0. -1.
</event>
<event>
 8    1  0.7446554E-006  0.1202012E+04  0.7818608E-02  0.8605049E-01
          1   -1    0    0  502    0  0.00000000000E+00  0.00000000000E+00  0.26834574902E+04  0.26834574902E+04  0.00000000000E+00 0.  1.
         -1   -1    0    0    0  501 -0.00000000000E+00 -0.00000000000E+00 -0.57603457455E+03  0.57603457455E+03  0.00000000000E+00 0. -1.
    9000010    2    1    2  502    0  0.52710142885E+03 -0.21077993413E+02  0.60799814402E+03  0.13120533091E+04  0.10361186923E+04 0.  0.
   -9000010    2    1    2    0  501 -0.52710142885E+03  0.21077993413E+02  0.14994247717E+04  0.19474387557E+04  0.11251501515E+04 0.  0.
        -13    1    3    3    0    0  0.10780410707E+03 -0.50297119084E+03  0.35500350120E+03  0.62500339306E+03  0.10566000000E+00 0.  1.
         13    1    4    4    0    0 -0.30306286460E+03 -0.54072797875E+03  0.92367928863E+03  0.11123925954E+04  0.10566000000E+00 0. -1.
          4    1    3    3  502    0  0.41929732178E+03  0.48189319742E+03  0.25299464282E+03  0.68704991600E+03  0.00000000000E+00 0.  1.
         -4    1    4    4    0  501 -0.22403856425E+03  0.56180597216E+03  0.57574548303E+03  0.83504616032E+03  0.00000000000E+00 0. -1.
</event>
<event>
 8    1  0.7446554E-006  0.2042693E+04  0.7818608E-02  0.8151228E-01
          1   -1    0    0  502    0  0.00000000000E+00  0.00000000000E+00  0.17946165669E+04  0.17946165669E+04  0.00000000000E+00 0. -1.
         -1   -1    0    0    0  501 -0.00000000000E+00 -0.00000000000E+00 -0.23437066998E+04  0.23437066998E+04  0.00000000000E+00 0.  1.
    9000010    2    1    2  502    0 -0.44142990632E+03 -0.17144437966E+04 -0.45680416906E+03  0.20800595389E+04  0.99186679697E+03 0.  0.
   -9000010    2    1    2    0  501  0.44142990632E+03  0.17144437966E+04 -0.92285963797E+02  0.20582637278E+04  0.10458274142E+04 0.  0.
        -13    1    3    3    0    0 -0.46126549213E+03 -0.17648591214E+04 -0.60533351425E+03  0.19219579203E+04  0.10566000000E+00 0.  1.
         13    1    4    4    0    0 -0.26476490401E+02  0.83968752779E+03  0.42277657436E+03  0.94048720984E+03  0.10566000000E+00 0. -1.
          4    1    3    3  502    0  0.19835585809E+02  0.50415324852E+02  0.14852934519E+03  0.15810161867E+03  0.00000000000E+00 0.  1.
         -4    1    4    4    0  501  0.46790639672E+03  0.87475626876E+03 -0.51506253816E+03  0.11177765179E+04  0.00000000000E+00 0. -1.
</event>
<event>
 8    1  0.7446554E-006  0.1316512E+04  0.7818608E-02  0.8523638E-01
         -2   -1    0    0    0  501 -0.00000000000E+00  0.00000000000E+00  0.83919079873E+03  0.83919079873E+03  0.00000000000E+00 0.  1.
          2   -1    0    0  502    0  0.00000000000E+00 -0.00000000000E+00 -0.22040672297E+04  0.22040672297E+04  0.00000000000E+00 0. -1.
    9000010    2    1    2  502    0  0.37031314784E+03 -0.71157221595E+03 -0.10789816699E+04  0.17295553285E+04  0.10879767205E+04 0.  0.
   -9000010    2    1    2    0  501 -0.37031314784E+03  0.71157221595E+03 -0.28589476111E+03  0.13137027000E+04  0.10003060149E+04 0.  0.
        -13    1    3    3    0    0  0.12409066068E+03  0.25631974078E+03 -0.49927770082E+03  0.57478390312E+03  0.10566000000E+00 0.  1.
         13    1    4    4    0    0 -0.18790903010E+03 -0.23534779191E+03  0.20529129351E+02  0.30186063517E+03  0.10566000000E+00 0. -1.
          4    1    3    3  502    0  0.24622248716E+03 -0.96789195674E+03 -0.57970396908E+03  0.11547714254E+04  0.00000000000E+00 0.  1.
         -4    1    4    4    0  501 -0.18240411774E+03  0.94692000787E+03 -0.30642389046E+03  0.10118420648E+04  0.00000000000E+00 0. -1.
</event>
<event>
 8    1  0.7446554E-006  0.1024964E+04  0.7818608E-02  0.8751483E-01
         -2   -1    0    0    0  501 -0.00000000000E+00  0.00000000000E+00  0.11018678073E+04  0.11018678073E+04  0.00000000000E+00 0.  1.
          2   -1    0    0  502    0  0.00000000000E+00 -0.00000000000E+00 -0.10703710727E+04  0.10703710727E+04  0.00000000000E+00 0. -1.
    9000010    2    1    2  502    0 -0.24946002444E+03  0.14146993459E+03 -0.34256239651E+03  0.10971379722E+04  0.10020572280E+04 0.  0.
   -9000010    2    1    2    0  501  0.24946002444E+03 -0.14146993459E+03  0.37405913108E+03  0.10751009079E+04  0.96626998422E+03 0.  0.
        -13    1    3    3    0    0  0.15966601792E+03  0.41503289967E+03  0.75911158306E+02  0.45111867641E+03  0.10566000000E+00 0.  1.
         13    1    4    4    0    0 -0.13759237032E+03  0.35327986501E+03  0.15940080598E+03  0.41127478831E+03  0.10566000000E+00 0. -1.
          4    1    3    3  502    0 -0.40912604236E+03 -0.27356296509E+03 -0.41847355481E+03  0.64601929575E+03  0.00000000000E+00 0.  1.
         -4    1    4    4    0  501  0.38705239476E+03 -0.49474979960E+03  0.21465832510E+03  0.66382611957E+03  0.00000000000E+00 0. -1.
</event>
<event>
 8    1  0.7446554E-006  0.1150372E+04  0.7818608E-02  0.8644901E-01
          1   -1    0    0  502    0  0.00000000000E+00  0.00000000000E+00  0.14989393078E+04  0.14989393078E+04  0.00000000000E+00 0.  1.
         -1   -1    0    0    0  501 -0.00000000000E+00 -0.00000000000E+00 -0.89945271267E+03  0.89945271267E+03  0.00000000000E+00 0. -1.
    9000010    2    1    2  502    0  0.37085360659E+03  0.42144195614E+03  0.13507668921E+03  0.11505272925E+04  0.99514904353E+03 0.  0.
   -9000010    2    1    2    0  501 -0.37085360659E+03 -0.42144195614E+03  0.46440990587E+03  0.12478647280E+04  0.10130864221E+04 0.  0.
        -13    1    3    3    0    0  0.30338867454E+03 -0.21848752448E+03 -0.20110088124E+03  0.42452686816E+03  0.10566000000E+00 0.  1.
         13    1    4    4    0    0 -0.80374426577E+02 -0.15139232872E+03 -0.32330710403E+03  0.36593330037E+03  0.10566000000E+00 0. -1.
          4    1    3    3  502    0  0.67464932051E+02  0.63992948062E+03  0.33617757045E+03  0.72600042431E+03  0.00000000000E+00 0.  1.
         -4    1    4    4    0  501 -0.29047918001E+03 -0.27004962742E+03  0.78771700989E+03  0.88193142759E+03  0.00000000000E+00 0. -1.
</event>
<event>
 8    1  0.7446554E-006  0.1485290E+04  0.7818608E-02  0.8418015E-01
          2   -1    0    0  502    0  0.00000000000E+00  0.00000000000E+00  0.14134329747E+04  0.14134329747E+04  0.00000000000E+00 0. -1.
         -2   -1    0    0    0  501 -0.00000000000E+00 -0.00000000000E+00 -0.17821891528E+04  0.17821891528E+04  0.00000000000E+00 0.  1.
    9000010    2    1    2  502    0  0.86883959225E+03 -0.68314787863E+03 -0.74755276819E+03  0.16629772223E+04  0.99251440275E+03 0.  0.
   -9000010    2    1    2    0  501 -0.86883959225E+03  0.68314787863E+03  0.37879659003E+03  0.15326449051E+04  0.99193764294E+03 0.  0.
        -13    1    3    3    0    0  0.37758166595E+03  0.17043819121E+03  0.19390097981E+02  0.41472048243E+03  0.10566000000E+00 0.  1.
         13    1    4    4    0    0 -0.80410305494E+03  0.63140132752E+03 -0.11783782038E+03  0.10291429067E+04  0.10566000000E+00 0. -1.
          4    1    3    3  502    0  0.49125792630E+03 -0.85358606984E+03 -0.76694286617E+03  0.12482567399E+04  0.00000000000E+00 0.  1.
         -4    1    4    4    0  501 -0.64736537314E+02  0.51746551109E+02  0.49663441041E+03  0.50350199843E+03  0.00000000000E+00 0. -1.
</event>
<event>
 8    1  0.7446554E-006  0.1374206E+04  0.7818608E-02  0.8485789E-01
         -2   -1    0    0    0  501 -0.00000000000E+00  0.00000000000E+00  0.12039500098E+04  0.12039500098E+04  0.00000000000E+00 0.  1.
          2   -1    0    0  502    0  0.00000000000E+00 -0.00000000000E+00 -0.15831349373E+04  0.15831349373E+04  0.00000000000E+00 0. -1.
    9000010    2    1    2  502    0 -0.92411376201E+03  0.12905547936E+03 -0.32442477647E+03  0.14223939241E+04  0.10233823713E+04 0.  0.
   -9000010    2    1    2    0  501  0.92411376201E+03 -0.12905547936E+03 -0.54760151017E+02  0.13646910230E+04  0.99435474163E+03 0.  0.
        -13    1    3    3    0    0 -0.26634510570E+03 -0.40851049624E+03  0.57402664109E+02  0.49103525116E+03  0.10566000000E+00 0.  1.
         13    1    4    4    0    0  0.11322918979E+04 -0.79757897071E+02 -0.11900150704E+03  0.11413183754E+04  0.10566000000E+00 0. -1.
          4    1    3    3  502    0 -0.65776865631E+03  0.53756597560E+03 -0.38182744058E+03  0.93135867298E+03  0.00000000000E+00 0.  1.
         -4    1    4    4    0  501 -0.20817813587E+03 -0.49297582289E+02  0.64241356023E+02  0.22337264760E+03  0.00000000000E+00 0. -1.
</event>
<event>
 8    1  0.7446554E-006  0.1146280E+04  0.7818608E-02  0.8648151E-01
         -1   -1    0    0    0  501 -0.00000000000E+00  0.00000000000E+00  0.77156816294E+03  0.77156816294E+03  0.00000000000E+00 0.  1.
          1   -1    0    0  502    0  0.00000000000E+00 -0.00000000000E+00 -0.26514528674E+04  0.26514528674E+04  0.00000000000E+00 0. -1.
    9000010    2    1    2  502    0  0.53966048820E+03 -0.20899152555E+03 -0.19572626646E+04  0.22623278046E+04  0.97587860770E+03 0.  0.
   -9000010    2    1    2    0  501 -0.53966048820E+03  0.20899152555E+03  0.77377960116E+02  0.11606932258E+04  0.10031502955E+04 0.  0.
        -13    1    3    3    0    0 -0.16685621330E+03  0.23496943457E+03 -0.65599424413E+03  0.71650547144E+03  0.10566000000E+00 0.  1.
         13    1    4    4    0    0  0.80648880073E+02 -0.19272802331E+03  0.32060460352E+03  0.38266912051E+03  0.10566000000E+00 0. -1.
          4    1    3    3  502    0  0.70651670150E+03 -0.44396096012E+03 -0.13012684205E+04  0.15458223332E+04  0.00000000000E+00 0.  1.
         -4    1    4    4    0  501 -0.62030936827E+03  0.40171954886E+03 -0.24322664341E+03  0.77802410526E+03  0.00000000000E+00 0. -1.
</event>
<event>
 8    1  0.7446554E-006  0.1081928E+04  0.7818608E-02  0.8701207E-01
          1   -1    0    0  502    0  0.00000000000E+00  0.00000000000E+00  0.15788182899E+04  0.15788182899E+04  0.00000000000E+00 0.  1.
         -1   -1    0    0    0  501 -0.00000000000E+00 -0.00000000000E+00 -0.96019057794E+03  0.96019057794E+03  0.00000000000E+00 0. -1.
    9000010    2    1    2  502    0  0.41607821353E+03  0.98590031914E+02 -0.29639208280E+03  0.11229269519E+04  0.99512592090E+03 0.  0.
   -9000010    2    1    2    0  501 -0.41607821353E+03 -0.98590031914E+02  0.91501979481E+03  0.14160819160E+04  0.99256520876E+03 0.  0.
        -13    1    3    3    0    0 -0.28287778147E+03  0.91845424610E+02  0.10677617332E+03  0.31600092346E+03  0.10566000000E+00 0.  1.
         13    1    4    4    0    0 -0.28086702378E+03 -0.40100838817E+03  0.96401290014E+03  0.10812099219E+04  0.10566000000E+00 0. -1.
          4    1    3    3  502    0  0.69895599500E+03  0.67446073031E+01 -0.40316825612E+03  0.80692602847E+03  0.00000000000E+00 0.  1.
         -4    1    4    4    0  501 -0.13521118975E+03  0.30241835625E+03 -0.48993105330E+02  0.33487199405E+03  0.00000000000E+00 0. -1.
</event>
<event>
 8    1  0.7446554E-006  0.1667131E+04  0.7818608E-02  0.8319314E-01
         -1   -1    0    0    0  501 -0.00000000000E+00  0.00000000000E+00  0.14468562479E+04  0.14468562479E+04  0.00000000000E+00 0. -1.
          1   -1    0    0  502    0  0.00000000000E+00 -0.00000000000E+00 -0.19225850117E+04  0.19225850117E+04  0.00000000000E+00 0.  1.
    9000010    2    1    2  502    0 -0.13979587751E+03  0.13267504070E+04 -0.28706747842E+03  0.16912757938E+04  0.99909786503E+03 0.  0.
   -9000010    2    1    2    0  501  0.13979587751E+03 -0.13267504070E+04 -0.18866128532E+03  0.16781654657E+04  0.10004182725E+04 0.  0.
        -13    1    3    3    0    0  0.34912125205E+03  0.74800548860E+03 -0.41339527099E+03  0.92319744413E+03  0.10566000000E+00 0.  1.
         13    1    4    4    0    0  0.52063771107E+03 -0.47196990953E+03 -0.23570890027E+03  0.74120032280E+03  0.10566000000E+00 0. -1.
          4    1    3    3  502    0 -0.48891712957E+03  0.57874491838E+03  0.12632779257E+03  0.76807834972E+03  0.00000000000E+00 0.  1.
         -4    1    4    4    0  501 -0.38084183355E+03 -0.85478049745E+03  0.47047614952E+02  0.93696514293E+03  0.00000000000E+00 0. -1.
</event>
<event>
 8    1  0.7446554E-006  0.1046007E+04  0.7818608E-02  0.8732525E-01
         -1   -1    0    0    0  501 -0.00000000000E+00  0.00000000000E+00  0.10927230583E+04  0.10927230583E+04  0.00000000000E+00 0.  1.
          1   -1    0    0  502    0  0.00000000000E+00 -0.00000000000E+00 -0.10336960497E+04  0.10336960497E+04  0.00000000000E+00 0. -1.
    9000010    2    1    2  502    0 -0.15573862410E+03  0.26518920569E+03  0.21774614068E+03  0.10675917351E+04  0.99887882007E+03 0.  0.
   -9000010    2    1    2    0  501  0.15573862410E+03 -0.26518920569E+03 -0.15871913212E+03  0.10588273730E+04  0.10006716789E+04 0.  0.
        -13    1    3    3    0    0 -0.30681523164E+03 -0.31831888365E+03  0.10457110326E+03  0.45431005366E+03  0.10566000000E+00 0.  1.
         13    1    4    4    0    0  0.47933052035E+03  0.16643959665E+03 -0.77428228307E+02  0.51327870477E+03  0.10566000000E+00 0. -1.
          4    1    3    3  502    0  0.15107660754E+03  0.58350808934E+03  0.11317503742E+03  0.61328168142E+03  0.00000000000E+00 0.  1.
         -4    1    4    4    0  501 -0.32359189625E+03 -0.43162880233E+03 -0.81290903817E+02  0.54554866819E+03  0.00000000000E+00 0. -1.
</event>
<event>
 7    1  0.7446554E-006  0.8382152E+03  0.7818608E-02  0.8943551E-01
         -2   -1    0    0    0  501 -0.00000000000E+00  0.00000000000E+00  0.57803891595E+03  0.57803891595E+03  0.00000000000E+00 0. -1.
          2   -1    0    0  502    0  0.00000000000E+00 -0.00000000000E+00 -0.12978405104E+04  0.12978405104E+04  0.00000000000E+00 0.  1.
   -9000010    2    1    2    0  501 -0.14601697159E+03 -0.37131347529E+03 -0.49687717086E+03  0.11871153037E+04  0.10015793370E+04 0.  0.
        -13    1    1    2    0    0  0.18157622594E+03  0.22318558515E+02 -0.27887788122E+03  0.33352800134E+03  0.10566000000E+00 0.  1.
         13    1    3    3    0    0 -0.45606464378E+02 -0.71184087975E+03 -0.40556959083E+03  0.82053890331E+03  0.10566000000E+00 0. -1.
          4    1    1    2  502    0 -0.35559254341E+02  0.34899491678E+03  0.55953457585E+02  0.35523612136E+03  0.00000000000E+00 0.  1.
         -4    1    3    3    0  501 -0.10041050722E+03  0.34052740445E+03 -0.91307580028E+02  0.36657640038E+03  0.00000000000E+00 0. -1.
</event>
<event>
 8    1  0.7446554E-006  0.2250050E+04  0.7818608E-02  0.8073566E-01
          4   -1    0    0  502    0  0.00000000000E+00  0.00000000000E+00  0.27629924284E+04  0.27629924284E+04  0.00000000000E+00 0. -1.
         -4   -1    0    0    0  501 -0.00000000000E+00 -0.00000000000E+00 -0.18643714429E+04  0.18643714429E+04  0.00000000000E+00 0.  1.
    9000010    2    1    2  502    0 -0.48383048598E+01 -0.20198537619E+04  0.14568599543E+03  0.22530455509E+04  0.98750048943E+03 0.  0.
   -9000010    2    1    2    0  501  0.48383048598E+01  0.20198537619E+04  0.75293499006E+03  0.23743183203E+04  0.99531088539E+03 0.  0.
        -13    1    3    3    0    0 -0.38292155560E+03 -0.73980844718E+03  0.34852996701E+03  0.90300531855E+03  0.10566000000E+00 0.  1.
         13    1    4    4    0    0 -0.47852936463E+03  0.12941544402E+04  0.46802381481E+03  0.14570080200E+04  0.10566000000E+00 0. -1.
          4    1    3    3  502    0  0.37808325074E+03 -0.12800453147E+04 -0.20284397158E+03  0.13500402323E+04  0.00000000000E+00 0.  1.
         -4    1    4    4    0  501  0.48336766949E+03  0.72569932165E+03  0.28491117525E+03  0.91731030035E+03  0.00000000000E+00 0. -1.
</event>
<event>
 8    1  0.7446554E-006  0.1183339E+04  0.7818608E-02  0.8619215E-01
          2   -1    0    0  502    0  0.00000000000E+00  0.00000000000E+00  0.16831956539E+04  0.16831956539E+04  0.00000000000E+00 0. -1.
         -2   -1    0    0    0  501 -0.00000000000E+00 -0.00000000000E+00 -0.84117597327E+03  0.84117597327E+03  0.00000000000E+00 0.  1.
    9000010    2    1    2  502    0  0.41943320866E+03 -0.46743901395E+03  0.29183576759E+03  0.12268325188E+04  0.10126828061E+04 0.  0.
   -9000010    2    1    2    0  501 -0.41943320866E+03  0.46743901395E+03  0.55018391301E+03  0.12975391083E+04  0.99321797765E+03 0.  0.
        -13    1    3    3    0    0  0.84028867643E+02  0.13903846265E+03 -0.28306801231E+03  0.32637410352E+03  0.10566000000E+00 0.  1.
         13    1    4    4    0    0 -0.49779516199E+02  0.70337415742E+03  0.19061806946E+03  0.73044401916E+03  0.10566000000E+00 0. -1.
          4    1    3    3  502    0  0.33540434102E+03 -0.60647747660E+03  0.57490377989E+03  0.90045841532E+03  0.00000000000E+00 0.  1.
         -4    1    4    4    0  501 -0.36965369246E+03 -0.23593514347E+03  0.35956584355E+03  0.56709508913E+03  0.00000000000E+00 0. -1.
</event>
<event>
 8    1  0.7446554E-006  0.1203196E+04  0.7818608E-02  0.8604160E-01
         -1   -1    0    0    0  501 -0.00000000000E+00  0.00000000000E+00  0.46780411547E+03  0.46780411547E+03  0.00000000000E+00 0. -1.
          1   -1    0    0  502    0  0.00000000000E+00 -0.00000000000E+00 -0.32580279235E+04  0.32580279235E+04  0.00000000000E+00 0.  1.
    9000010    2    1    2  502    0  0.24438618138E+02 -0.69243301496E+03 -0.95892879575E+03  0.15245796169E+04  0.96163290646E+03 0.  0.
   -9000010    2    1    2    0  501 -0.24438618138E+02  0.69243301496E+03 -0.18312950123E+04  0.22012524221E+04  0.10058877061E+04 0.  0.
        -13    1    3    3    0    0 -0.41632858013E+03 -0.11014694131E+03 -0.50929082803E+03  0.66696251318E+03  0.10566000000E+00 0.  1.
         13    1    4    4    0    0 -0.46885635243E+03  0.30497938115E+03 -0.12677368869E+04  0.13856390323E+04  0.10566000000E+00 0. -1.
          4    1    3    3  502    0  0.44076719826E+03 -0.58228607366E+03 -0.44963796772E+03  0.85761710376E+03  0.00000000000E+00 0.  1.
         -4    1    4    4    0  501  0.44441773429E+03  0.38745363381E+03 -0.56355812541E+03  0.81561338980E+03  0.00000000000E+00 0. -1.
</event>
<event>
 8    1  0.7446554E-006  0.1229046E+04  0.7818608E-02  0.8585005E-01
         -2   -1    0    0    0  501 -0.00000000000E+00  0.00000000000E+00  0.13569113296E+04  0.13569113296E+04  0.00000000000E+00 0.  1.
          2   -1    0    0  502    0  0.00000000000E+00 -0.00000000000E+00 -0.13590197803E+04  0.13590197803E+04  0.00000000000E+00 0. -1.
    9000010    2    1    2  502    0 -0.60423503438E+03 -0.36974169536E+03 -0.57779922190E+03  0.13340006525E+04  0.97154356665E+03 0.  0.
   -9000010    2    1    2    0  501  0.60423503438E+03  0.36974169536E+03  0.57569077121E+03  0.13819304574E+04  0.10375466385E+04 0.  0.
        -13    1    3    3    0    0 -0.73361419944E+03  0.76648597686E+02 -0.35239413516E+03  0.81746341741E+03  0.10566000000E+00 0.  1.
         13    1    4    4    0    0  0.64572814313E+03  0.62621787116E+03  0.65222025341E+03  0.11110827724E+04  0.10566000000E+00 0. -1.
          4    1    3    3  502    0  0.12937916506E+03 -0.44639029305E+03 -0.22540508674E+03  0.51653723506E+03  0.00000000000E+00 0.  1.
         -4    1    4    4    0  501 -0.41493108751E+02 -0.25647617580E+03 -0.76529482205E+02  0.27084768501E+03  0.00000000000E+00 0. -1.
</event>
<event>
 8    1  0.7446554E-006  0.1135284E+04  0.7818608E-02  0.8656956E-01
          1   -1    0    0  502    0  0.00000000000E+00  0.00000000000E+00  0.12139203772E+04  0.12139203772E+04  0.00000000000E+00 0. -1.
         -1   -1    0    0    0  501 -0.00000000000E+00 -0.00000000000E+00 -0.10870830740E+04  0.10870830740E+04  0.00000000000E+00 0.  1.
    9000010    2    1    2  502    0  0.51862087644E+03  0.13449279098E+03  0.23926637183E+03  0.11648057792E+04  0.10062147794E+04 0.  0.
   -9000010    2    1    2    0  501 -0.51862087644E+03 -0.13449279098E+03 -0.11242906870E+03  0.11361976720E+04  0.99561485027E+03 0.  0.
        -13    1    3    3    0    0  0.77826690798E+03  0.28522797107E+03  0.24560873762E+03  0.86451028837E+03  0.10566000000E+00 0.  1.
         13    1    4    4    0    0 -0.12460669585E+03 -0.50258167232E+03 -0.25683425697E+03  0.57799568573E+03  0.10566000000E+00 0. -1.
          4    1    3    3  502    0 -0.25964603155E+03 -0.15073518010E+03 -0.63423657942E+01  0.30029549084E+03  0.00000000000E+00 0.  1.
         -4    1    4    4    0  501 -0.39401418059E+03  0.36808888135E+03  0.14440518828E+03  0.55820198627E+03  0.00000000000E+00 0. -1.
</event>
<event>
 8    1  0.7446554E-006  0.1264384E+04  0.7818608E-02  0.8559595E-01
         -1   -1    0    0    0  501 -0.00000000000E+00  0.00000000000E+00  0.14421929174E+04  0.14421929174E+04  0.00000000000E+00 0. -1.
          1   -1    0    0  502    0  0.00000000000E+00 -0.00000000000E+00 -0.11086330521E+04  0.11086330521E+04  0.00000000000E+00 0.  1.
    9000010    2    1    2  502    0  0.38508833411E+02  0.77366383195E+03  0.17970552744E+03  0.12844979609E+04  0.10087627470E+04 0.  0.
   -9000010    2    1    2    0  501 -0.38508833411E+02 -0.77366383195E+03  0.15385433785E+03  0.12663280086E+04  0.98988727289E+03 0.  0.
        -13    1    3    3    0    0 -0.21597861897E+03 -0.13643463094E+03 -0.13439232788E+03  0.28865633777E+03  0.10566000000E+00 0.  1.
         13    1    4    4    0    0 -0.27115141039E+03 -0.63460195428E+03  0.48122414923E+03  0.84132004653E+03  0.10566000000E+00 0. -1.
          4    1    3    3  502    0  0.25448745238E+03  0.91009846289E+03  0.31409785532E+03  0.99584162310E+03  0.00000000000E+00 0.  1.
         -4    1    4    4    0  501  0.23264257698E+03 -0.13906187767E+03 -0.32736981137E+03  0.42500796209E+03  0.00000000000E+00 0. -1.
</event>
<event>
 8    1  0.7446554E-006  0.1311721E+04  0.7818608E-02  0.8526870E-01
         -1   -1    0    0    0  501 -0.00000000000E+00  0.00000000000E+00  0.14683753832E+04  0.14683753832E+04  0.00000000000E+00 0.  1.
          1   -1    0    0  502    0  0.00000000000E+00 -0.00000000000E+00 -0.12104846138E+04  0.12104846138E+04  0.00000000000E+00 0. -1.
    9000010    2    1    2  502    0 -0.46147505996E+03 -0.61186882541E+03 -0.10953023295E+03  0.12651930701E+04  0.10006867353E+04 0.  0.
   -9000010    2    1    2    0  501  0.46147505996E+03  0.61186882541E+03  0.36742100237E+03  0.14136669270E+04  0.11296518477E+04 0.  0.
        -13    1    3    3    0    0 -0.69539311542E+02  0.32428921819E+02 -0.43651867644E+03  0.44321091690E+03  0.10566000000E+00 0.  1.
         13    1    4    4    0    0  0.12766972706E+03  0.47418619320E+02  0.67553217436E+03  0.68912394707E+03  0.10566000000E+00 0. -1.
          4    1    3    3  502    0 -0.39193574842E+03 -0.64429774723E+03  0.32698844349E+03  0.82198215318E+03  0.00000000000E+00 0.  1.
         -4    1    4    4    0  501  0.33380533289E+03  0.56445020609E+03 -0.30811117199E+03  0.72454297991E+03  0.00000000000E+00 0. -1.
</event>
<event>
 8    1  0.7446554E-006  0.1083897E+04  0.7818608E-02  0.8699527E-01
         -2   -1    0    0    0  501 -0.00000000000E+00  0.00000000000E+00  0.51491514291E+03  0.51491514291E+03  0.00000000000E+00 0. -1.
          2   -1    0    0  502    0  0.00000000000E+00 -0.00000000000E+00 -0.25666295788E+04  0.25666295788E+04  0.00000000000E+00 0.  1.
    9000010    2    1    2  502    0 -0.13883456758E+03 -0.22452405766E+03 -0.14719336013E+04  0.17892020409E+04  0.98232852296E+03 0.  0.
   -9000010    2    1    2    0  501  0.13883456758E+03  0.22452405766E+03 -0.57978083462E+03  0.12923426808E+04  0.11244188271E+04 0.  0.
        -13    1    3    3    0    0 -0.41294267516E+03 -0.47321123552E+03 -0.10856645901E+04  0.12542400646E+04  0.10566000000E+00 0.  1.
         13    1    4    4    0    0  0.57237650823E+02  0.66109253037E+03 -0.16302596717E+03  0.68329858739E+03  0.10566000000E+00 0. -1.
          4    1    3    3  502    0  0.27410810757E+03  0.24868717786E+03 -0.38626901120E+03  0.53496197630E+03  0.00000000000E+00 0.  1.
         -4    1    4    4    0  501  0.81596916760E+02 -0.43656847272E+03 -0.41675486744E+03  0.60904409342E+03  0.00000000000E+00 0. -1.
</event>
<event>
 8    1  0.7446554E-006  0.1516497E+04  0.7818608E-02  0.8400067E-01
          1   -1    0    0  502    0  0.00000000000E+00  0.00000000000E+00  0.12652348891E+04  0.12652348891E+04  0.00000000000E+00 0.  1.
         -1   -1    0    0    0  501 -0.00000000000E+00 -0.00000000000E+00 -0.21429921866E+04  0.21429921866E+04  0.00000000000E+00 0. -1.
    9000010    2    1    2  502    0 -0.11280499429E+04 -0.15190686840E+03 -0.11027187134E+04  0.18745845707E+04  0.10012524066E+04 0.  0.
   -9000010    2    1    2    0  501  0.11280499429E+04  0.15190686840E+03  0.22496141583E+03  0.15336425050E+04  0.10029353540E+04 0.  0.
        -13    1    3    3    0    0 -0.10513951719E+04 -0.25314271007E+03 -0.38840864359E+03  0.11490754217E+04  0.10566000000E+00 0.  1.
         13    1    4    4    0    0  0.22977152749E+03 -0.60307141390E+02 -0.36696245760E+03  0.43714226815E+03  0.10566000000E+00 0. -1.
          4    1    3    3  502    0 -0.76654770970E+02  0.10123584167E+03 -0.71431006978E+03  0.72550914904E+03  0.00000000000E+00 0.  1.
         -4    1    4    4    0  501  0.89827841538E+03  0.21221400979E+03  0.59192387343E+03  0.10965002369E+04  0.00000000000E+00 0. -1.
</event>
<event>
 8    1  0.7446554E-006  0.1099381E+04  0.7818608E-02  0.8686445E-01
         -2   -1    0    0    0  501 -0.00000000000E+00  0.00000000000E+00  0.69497352282E+03  0.69497352282E+03  0.00000000000E+00 0.  1.
          2   -1    0    0  502    0  0.00000000000E+00 -0.00000000000E+00 -0.17561825962E+04  0.17561825962E+04  0.00000000000E+00 0. -1.
    9000010    2    1    2  502    0 -0.30708649963E+03 -0.35146202418E+03 -0.64837546259E+03  0.12711952750E+04  0.98879675064E+03 0.  0.
   -9000010    2    1    2    0  501  0.30708649963E+03  0.35146202418E+03 -0.41283361083E+03  0.11799608440E+04  0.10020221208E+04 0.  0.
        -13    1    3    3    0    0  0.35746761246E+03 -0.18930777774E+03 -0.18380670947E+03  0.44430332688E+03  0.10566000000E+00 0.  1.
         13    1    4    4    0    0  0.37094984451E+02 -0.21948944920E+03 -0.49530630665E+03  0.54302854874E+03  0.10566000000E+00 0. -1.
          4    1    3    3  502    0 -0.66455411209E+03 -0.16215424645E+03 -0.46456875313E+03  0.82689194815E+03  0.00000000000E+00 0.  1.
         -4    1    4    4    0  501  0.26999151518E+03  0.57095147338E+03  0.82472695824E+02  0.63693229529E+03  0.00000000000E+00 0. -1.
</event>
<event>
 8    1  0.7446554E-006  0.1275704E+04  0.7818608E-02  0.8551637E-01
         -2   -1    0    0    0  501 -0.00000000000E+00  0.00000000000E+00  0.54250128150E+03  0.54250128150E+03  0.00000000000E+00 0.  1.
          2   -1    0    0  502    0  0.00000000000E+00 -0.00000000000E+00 -0.30028530829E+04  0.30028530829E+04  0.00000000000E+00 0. -1.
    9000010    2    1    2  502    0  0.81617801504E+03  0.18458488264E+02 -0.12867826748E+04  0.18123379806E+04  0.98095465539E+03 0.  0.
   -9000010    2    1    2    0  501 -0.81617801504E+03 -0.18458488264E+02 -0.11735691266E+04  0.17330163837E+04  0.97958870113E+03 0.  0.
        -13    1    3    3    0    0  0.95683714606E+03 -0.23536212559E+03 -0.96886011254E+03  0.13818909447E+04  0.10566000000E+00 0.  1.
         13    1    4    4    0    0  0.53441565308E+02  0.32916326628E+03 -0.37916344875E+03  0.50494493641E+03  0.10566000000E+00 0. -1.
          4    1    3    3  502    0 -0.14065913102E+03  0.25382061386E+03 -0.31792256224E+03  0.43044703593E+03  0.00000000000E+00 0.  1.
         -4    1    4    4    0  501 -0.86961958034E+03 -0.34762175454E+03 -0.79440567782E+03  0.12280714473E+04  0.00000000000E+00 0. -1.
</event>
<event>
 8    1  0.7446554E-006  0.1669897E+04  0.7818608E-02  0.8317915E-01
         -2   -1    0    0    0  501 -0.00000000000E+00  0.00000000000E+00  0.84175231853E+03  0.84175231853E+03  0.00000000000E+00 0. -1.
          2   -1    0    0  502    0  0.00000000000E+00 -0.00000000000E+00 -0.33372817750E+04  0.33372817750E+04  0.00000000000E+00 0.  1.
    9000010    2    1    2  502    0 -0.37104862212E+03 -0.12915953196E+04 -0.10703099948E+04  0.19851702259E+04  0.99470688723E+03 0.  0.
   -9000010    2    1    2    0  501  0.37104862212E+03  0.12915953196E+04 -0.14252194616E+04  0.21938638676E+04  0.98787276818E+03 0.  0.
        -13    1    3    3    0    0  0.20588987162E+03  0.48912214696E+02 -0.15785537232E+03  0.26401017730E+03  0.10566000000E+00 0.  1.
         13    1    4    4    0    0  0.20243906278E+03  0.10356285809E+04 -0.15397646080E+04  0.18666502594E+04  0.10566000000E+00 0. -1.
          4    1    3    3  502    0 -0.57693849374E+03 -0.13405075343E+04 -0.91245462249E+03  0.17211600487E+04  0.00000000000E+00 0.  1.
         -4    1    4    4    0  501  0.16860955933E+03  0.25596673865E+03  0.11454514638E+03  0.32721360814E+03  0.00000000000E+00 0. -1.
</event>
<event>
 8    1  0.7446554E-006  0.1186417E+04  0.7818608E-02  0.8616862E-01
          2   -1    0    0  502    0  0.00000000000E+00  0.00000000000E+00  0.12433131296E+04  0.12433131296E+04  0.00000000000E+00 0. -1.
         -2   -1    0    0    0  501 -0.00000000000E+00 -0.00000000000E+00 -0.12732898435E+04  0.12732898435E+04  0.00000000000E+00 0.  1.
    9000010    2    1    2  502    0 -0.57345211802E+03  0.25244706959E+03 -0.43385478715E+03  0.12579360725E+04  0.10007978474E+04 0.  0.
   -9000010    2    1    2    0  501  0.57345211802E+03 -0.25244706959E+03  0.40387807324E+03  0.12586669006E+04  0.10141735621E+04 0.  0.
        -13    1    3    3    0    0 -0.19023388546E+03  0.53777579307E+03 -0.52068279090E+03  0.77233562308E+03  0.10566000000E+00 0.  1.
         13    1    4    4    0    0  0.10143210795E+03  0.23873220557E+03 -0.21606376883E+03  0.33758717669E+03  0.10566000000E+00 0. -1.
          4    1    3    3  502    0 -0.38321823256E+03 -0.28532872347E+03  0.86828003741E+02  0.48560044938E+03  0.00000000000E+00 0.  1.
         -4    1    4    4    0  501  0.47202001007E+03 -0.49117927517E+03  0.61994184207E+03  0.92107972392E+03  0.00000000000E+00 0. -1.
</event>
<event>
 8    1  0.7446554E-006  0.1125995E+04  0.7818608E-02  0.8664476E-01
          2   -1    0    0  502    0  0.00000000000E+00  0.00000000000E+00  0.13021162202E+04  0.13021162202E+04  0.00000000000E+00 0.  1.
         -2   -1    0    0    0  501 -0.00000000000E+00 -0.00000000000E+00 -0.98491775487E+03  0.98491775487E+03  0.00000000000E+00 0. -1.
    9000010    2    1    2  502    0  0.57306902333E+03  0.17443815498E+02  0.35401666413E+02  0.11116468443E+04  0.95173159889E+03 0.  0.
   -9000010    2    1    2    0  501 -0.57306902333E+03 -0.17443815498E+02  0.28179679897E+03  0.11753871308E+04  0.98661698704E+03 0.  0.
        -13    1    3    3    0    0  0.37526763656E+03  0.15361527919E+03  0.46654739335E+03  0.61813423660E+03  0.10566000000E+00 0.  1.
         13    1    4    4    0    0 -0.29593887568E+03  0.46106220198E+03 -0.14467926577E+02  0.54805793882E+03  0.10566000000E+00 0. -1.
          4    1    3    3  502    0  0.19780138676E+03 -0.13617146369E+03 -0.43114572694E+03  0.49351260773E+03  0.00000000000E+00 0.  1.
         -4    1    4    4    0  501 -0.27713014765E+03 -0.47850601748E+03  0.29626472554E+03  0.62732919197E+03  0.00000000000E+00 0. -1.
</event>
<event>
 8    1  0.7446554E-006  0.1099436E+04  0.7818608E-02  0.8686399E-01
          2   -1    0    0  502    0  0.00000000000E+00  0.00000000000E+00  0.18601666592E+04  0.18601666592E+04  0.00000000000E+00 0. -1.
         -2   -1    0    0    0  501 -0.00000000000E+00 -0.00000000000E+00 -0.65166201144E+03  0.65166201144E+03  0.00000000000E+00 0.  1.
    9000010    2    1    2  502    0 -0.32240454139E+03  0.34499808667E+03  0.53686452721E+03  0.12227003665E+04  0.99186909291E+03 0.  0.
   -9000010    2    1    2    0  501  0.32240454139E+03 -0.34499808667E+03  0.67164012050E+03  0.12891283041E+04  0.99387271061E+03 0.  0.
        -13    1    3    3    0    0 -0.67018775641E+03  0.11587557005E+03  0.29760873682E+03  0.74239460395E+03  0.10566000000E+00 0.  1.
         13    1    4    4    0    0  0.38238550119E+03 -0.61343717900E+03  0.70782278580E+03  0.10117000303E+04  0.10566000000E+00 0. -1.
          4    1    3    3  502    0  0.34778321502E+03  0.22912251661E+03  0.23925579039E+03  0.48030576251E+03  0.00000000000E+00 0.  1.
         -4    1    4    4    0  501 -0.59980959799E+02  0.26843909234E+03 -0.36182665294E+02  0.27742827379E+03  0.00000000000E+00 0. -1.
</event>
<event>
 8    1  0.7446554E-006  0.1106858E+04  0.7818608E-02  0.8680208E-01
         -4   -1    0    0    0  501 -0.00000000000E+00  0.00000000000E+00  0.31493912979E+04  0.31493912979E+04  0.00000000000E+00 0. -1.
          4   -1    0    0  502    0  0.00000000000E+00 -0.00000000000E+00 -0.38909122212E+03  0.38909122212E+03  0.00000000000E+00 0.  1.
    9000010    2    1    2  502    0 -0.41390343087E+03 -0.26648318497E+03  0.14130804698E+04  0.18004567967E+04  0.10012586702E+04 0.  0.
   -9000010    2    1    2    0  501  0.41390343087E+03  0.26648318497E+03  0.13472196060E+04  0.17380257234E+04  0.98153115609E+03 0.  0.
        -13    1    3    3    0    0  0.22035009019E+03 -0.10817042654E+03  0.21884297126E+01  0.24547872375E+03  0.10566000000E+00 0.  1.
         13    1    4    4    0    0 -0.66398427157E+02  0.21075012839E+03  0.12175196650E+04  0.12374079819E+04  0.10566000000E+00 0. -1.
          4    1    3    3  502    0 -0.63425352106E+03 -0.15831275842E+03  0.14108920401E+04  0.15549780729E+04  0.00000000000E+00 0.  1.
         -4    1    4    4    0  501  0.48030185803E+03  0.55733056577E+02  0.12969994099E+03  0.50061774151E+03  0.00000000000E+00 0. -1.
</event>
<event>
 8    1  0.7446554E-006  0.1458132E+04  0.7818608E-02  0.8434010E-01
          2   -1    0    0  502    0  0.00000000000E+00  0.00000000000E+00  0.30729550472E+04  0.30729550472E+04  0.00000000000E+00 0.  1.
         -2   -1    0    0    0  501 -0.00000000000E+00 -0.00000000000E+00 -0.74540785302E+03  0.74540785302E+03  0.00000000000E+00 0. -1.
    9000010    2    1    2  502    0  0.94528464309E+03  0.48621472789E+03  0.16755515340E+04  0.22213706607E+04  0.99852233373E+03 0.  0.
   -9000010    2    1    2    0  501 -0.94528464309E+03 -0.48621472789E+03  0.65199566018E+03  0.15969922396E+04  0.99765628061E+03 0.  0.
        -13    1    3    3    0    0  0.10654340994E+04  0.65501387790E+03  0.14584355761E+04  0.19212567088E+04  0.10566000000E+00 0.  1.
         13    1    4    4    0    0 -0.71545381469E+02  0.28179292993E+03  0.17758628934E+03  0.34068005268E+03  0.10566000000E+00 0. -1.
          4    1    3    3  502    0 -0.12014945636E+03 -0.16879915001E+03  0.21711595796E+03  0.30011395187E+03  0.00000000000E+00 0.  1.
         -4    1    4    4    0  501 -0.87373926162E+03 -0.76800765781E+03  0.47440937083E+03  0.12563121869E+04  0.00000000000E+00 0. -1.
</event>
<event>
 8    1  0.7446554E-006  0.1048978E+04  0.7818608E-02  0.8729885E-01
         -2   -1    0    0    0  501 -0.00000000000E+00  0.00000000000E+00  0.10275037208E+04  0.10275037208E+04  0.00000000000E+00 0. -1.
          2   -1    0    0  502    0  0.00000000000E+00 -0.00000000000E+00 -0.11776939643E+04  0.11776939643E+04  0.00000000000E+00 0.  1.
    9000010    2    1    2  502    0 -0.17178214287E+03  0.29140724926E+03 -0.40698879033E+03  0.11233618157E+04  0.99089585934E+03 0.  0.
   -9000010    2    1    2    0  501  0.17178214287E+03 -0.29140724926E+03  0.25679854676E+03  0.10818358693E+04  0.99498545970E+03 0.  0.
        -13    1    3    3    0    0 -0.42876212830E+03 -0.20714485323E+03 -0.11007582765E+03  0.48873576898E+03  0.10566000000E+00 0.  1.
         13    1    4    4    0    0  0.16129043975E+03  0.35589084159E+03  0.17903793928E+03  0.42979936243E+03  0.10566000000E+00 0. -1.
          4    1    3    3  502    0  0.25697998543E+03  0.49855210249E+03 -0.29691296268E+03  0.63462604675E+03  0.00000000000E+00 0.  1.
         -4    1    4    4    0  501  0.10491703122E+02 -0.64729809085E+03  0.77760607487E+02  0.65203650690E+03  0.00000000000E+00 0. -1.
</event>
<event>
 8    1  0.7446554E-006  0.1154230E+04  0.7818608E-02  0.8641849E-01
          2   -1    0    0  502    0  0.00000000000E+00  0.00000000000E+00  0.22263252027E+04  0.22263252027E+04  0.00000000000E+00 0. -1.
         -2   -1    0    0    0  501 -0.00000000000E+00 -0.00000000000E+00 -0.62888410632E+03  0.62888410632E+03  0.00000000000E+00 0.  1.
    9000010    2    1    2  502    0  0.59510089073E+03  0.74481789872E+02  0.11156278410E+04  0.16081867413E+04  0.99093214095E+03 0.  0.
   -9000010    2    1    2    0  501 -0.59510089073E+03 -0.74481789872E+02  0.48181325534E+03  0.12470225677E+04  0.98144213494E+03 0.  0.
        -13    1    3    3    0    0  0.58834792294E+02 -0.29065629627E+03 -0.23270724455E+02  0.29746286008E+03  0.10566000000E+00 0.  1.
         13    1    4    4    0    0 -0.10721429108E+03 -0.32817213381E+03  0.59282504108E+03  0.68602725464E+03  0.10566000000E+00 0. -1.
          4    1    3    3  502    0  0.53626609843E+03  0.36513808614E+03  0.11388985655E+04  0.13107238812E+04  0.00000000000E+00 0.  1.
         -4    1    4    4    0  501 -0.48788659965E+03  0.25369034394E+03 -0.11101178574E+03  0.56099531308E+03  0.00000000000E+00 0. -1.
</event>
<event>
 8    1  0.7446554E-006  0.1258207E+04  0.7818608E-02  0.8563974E-01
         -1   -1    0    0    0  501 -0.00000000000E+00  0.00000000000E+00  0.13658035134E+04  0.13658035134E+04  0.00000000000E+00 0. -1.
          1   -1    0    0  502    0  0.00000000000E+00 -0.00000000000E+00 -0.11748931651E+04  0.11748931651E+04  0.00000000000E+00 0.  1.
    9000010    2    1    2  502    0  0.41950951238E+02  0.75351384225E+03 -0.51763694870E+02  0.12608399576E+04  0.10087095348E+04 0.  0.
   -9000010    2    1    2    0  501 -0.41950951238E+02 -0.75351384225E+03  0.24267404314E+03  0.12798567209E+04  0.10047883071E+04 0.  0.
        -13    1    3    3    0    0 -0.53801256610E+02  0.99635992392E+03 -0.60588431195E+02  0.99964925967E+03  0.10566000000E+00 0.  1.
         13    1    4    4    0    0 -0.31683672127E+03 -0.88632729354E+03  0.11243302781E+03  0.94794661038E+03  0.10566000000E+00 0. -1.
          4    1    3    3  502    0  0.95752207848E+02 -0.24284608167E+03  0.88247363249E+01  0.26119069788E+03  0.00000000000E+00 0.  1.
         -4    1    4    4    0  501  0.27488577003E+03  0.13281345129E+03  0.13024101533E+03  0.33191011054E+03  0.00000000000E+00 0. -1.
</event>
<event>
 8    1  0.7446554E-006  0.1353874E+04  0.7818608E-02  0.8498905E-01
         -2   -1    0    0    0  501 -0.00000000000E+00  0.00000000000E+00  0.67933199425E+03  0.67933199425E+03  0.00000000000E+00 0. -1.
          2   -1    0    0  502    0  0.00000000000E+00 -0.00000000000E+00 -0.28493210164E+04  0.28493210164E+04  0.00000000000E+00 0.  1.
    9000010    2    1    2  502    0 -0.89720934562E+03  0.23025970035E+03 -0.67312829249E+03  0.15053202317E+04  0.97718123309E+03 0.  0.
   -9000010    2    1    2    0  501  0.89720934562E+03 -0.23025970035E+03 -0.14968607297E+04  0.20233327790E+04  0.99763688335E+03 0.  0.
        -13    1    3    3    0    0 -0.87700571376E+03  0.41072337919E+02 -0.79050433680E+02  0.88151854271E+03  0.10566000000E+00 0.  1.
         13    1    4    4    0    0 -0.17823779689E+03 -0.21426661026E+03 -0.39615570633E+03  0.48437407790E+03  0.10566000000E+00 0. -1.
          4    1    3    3  502    0 -0.20203631857E+02  0.18918736243E+03 -0.59407785881E+03  0.62380168898E+03  0.00000000000E+00 0.  1.
         -4    1    4    4    0  501  0.10754471425E+04 -0.15993090088E+02 -0.11007050233E+04  0.15389587011E+04  0.00000000000E+00 0. -1.
</event>
<event>
 8    1  0.7446554E-006  0.1083475E+04  0.7818608E-02  0.8699887E-01
          1   -1    0    0  502    0  0.00000000000E+00  0.00000000000E+00  0.19425131612E+04  0.19425131612E+04  0.00000000000E+00 0.  1.
         -1   -1    0    0    0  501 -0.00000000000E+00 -0.00000000000E+00 -0.60452482591E+03  0.60452482591E+03  0.00000000000E+00 0. -1.
    9000010    2    1    2  502    0 -0.19657940586E+03  0.38539047215E+03  0.65071408517E+03  0.12688627695E+04  0.99970727127E+03 0.  0.
   -9000010    2    1    2    0  501  0.19657940586E+03 -0.38539047215E+03  0.68727425011E+03  0.12781752177E+04  0.98702417058E+03 0.  0.
        -13    1    3    3    0    0  0.36334888164E+02  0.15022192627E+03  0.86228904042E+03  0.87603039424E+03  0.10566000000E+00 0.  1.
         13    1    4    4    0    0  0.40449642359E+03 -0.10457822749E+03 -0.88749083458E+02  0.42711868765E+03  0.10566000000E+00 0. -1.
          4    1    3    3  502    0 -0.23291429403E+03  0.23516854588E+03 -0.21157495525E+03  0.39283237522E+03  0.00000000000E+00 0.  1.
         -4    1    4    4    0  501 -0.20791701772E+03 -0.28081224466E+03  0.77602333357E+03  0.85105653000E+03  0.00000000000E+00 0. -1.
</event>
<event>
 8    1  0.7446554E-006  0.1276495E+04  0.7818608E-02  0.8551084E-01
          2   -1    0    0  502    0  0.00000000000E+00  0.00000000000E+00  0.19585663771E+04  0.19585663771E+04  0.00000000000E+00 0.  1.
         -2   -1    0    0    0  501 -0.00000000000E+00 -0.00000000000E+00 -0.91770004201E+03  0.91770004201E+03  0.00000000000E+00 0. -1.
    9000010    2    1    2  502    0 -0.37911998655E+03  0.71668015111E+03  0.96529991161E+03  0.16125698905E+04  0.10055920291E+04 0.  0.
   -9000010    2    1    2    0  501  0.37911998655E+03 -0.71668015111E+03  0.75566423516E+02  0.12636965287E+04  0.96636236945E+03 0.  0.
        -13    1    3    3    0    0  0.22436033178E+03  0.53259600914E+03  0.18019780292E+03  0.60536544894E+03  0.10566000000E+00 0.  1.
         13    1    4    4    0    0  0.29225222089E+03 -0.95623828849E+03  0.11250706512E+03  0.10062111487E+04  0.10566000000E+00 0. -1.
          4    1    3    3  502    0 -0.60348031833E+03  0.18408414198E+03  0.78510210869E+03  0.10072044415E+04  0.00000000000E+00 0.  1.
         -4    1    4    4    0  501  0.86867765662E+02  0.23955813737E+03 -0.36940641599E+02  0.25748537996E+03  0.00000000000E+00 0. -1.
</event>
<event>
 8    1  0.7446554E-006  0.1257446E+04  0.7818608E-02  0.8564516E-01
         -2   -1    0    0    0  501 -0.00000000000E+00  0.00000000000E+00  0.29055121855E+04  0.29055121855E+04  0.00000000000E+00 0. -1.
          2   -1    0    0  502    0  0.00000000000E+00 -0.00000000000E+00 -0.61781910261E+03  0.61781910261E+03  0.00000000000E+00 0.  1.
    9000010    2    1    2  502    0 -0.72947998674E+02 -0.75571257573E+03  0.17489399590E+04  0.21518639559E+04  0.99764953622E+03 0.  0.
   -9000010    2    1    2    0  501  0.72947998674E+02  0.75571257573E+03  0.53875312393E+03  0.13714673322E+04  0.10070972183E+04 0.  0.
        -13    1    3    3    0    0  0.15126385223E+03 -0.30712225557E+03  0.15890201335E+04  0.16254814144E+04  0.10566000000E+00 0.  1.
         13    1    4    4    0    0  0.18272201910E+03 -0.17832968676E+02 -0.21714813206E+03  0.28435659559E+03  0.10566000000E+00 0. -1.
          4    1    3    3  502    0 -0.22421185090E+03 -0.44859032017E+03  0.15991982551E+03  0.52638254153E+03  0.00000000000E+00 0.  1.
         -4    1    4    4    0  501 -0.10977402043E+03  0.77354554441E+03  0.75590125599E+03  0.10871107366E+04  0.00000000000E+00 0. -1.
</event>
<event>
 8    1  0.7446554E-006  0.1134499E+04  0.7818608E-02  0.8657589E-01
          2   -1    0    0  502    0  0.00000000000E+00  0.00000000000E+00  0.10004409251E+04  0.10004409251E+04  0.00000000000E+00 0. -1.
         -2   -1    0    0    0  501 -0.00000000000E+00 -0.00000000000E+00 -0.12988414727E+04  0.12988414727E+04  0.00000000000E+00 0.  1.
    9000010    2    1    2  502    0 -0.22898186629E+02 -0.57450617111E+03 -0.25893472563E+03  0.11519926135E+04  0.96408408442E+03 0.  0.
   -9000010    2    1    2    0  501  0.22898186629E+02  0.57450617111E+03 -0.39465821875E+02  0.11472897843E+04  0.99203559939E+03 0.  0.
        -13    1    3    3    0    0  0.23213577295E+02  0.14539227249E+03 -0.39174092746E+03  0.41849581657E+03  0.10566000000E+00 0.  1.
         13    1    4    4    0    0 -0.22123504614E+03  0.20391901634E+03  0.41467118793E+03  0.51232813325E+03  0.10566000000E+00 0. -1.
          4    1    3    3  502    0 -0.46111763924E+02 -0.71989844360E+03  0.13280620184E+03  0.73349679694E+03  0.00000000000E+00 0.  1.
         -4    1    4    4    0  501  0.24413323276E+03  0.37058715478E+03 -0.45413700980E+03  0.63496165104E+03  0.00000000000E+00 0. -1.
</event>
<event>
 8    1  0.7446554E-006  0.1048587E+04  0.7818608E-02  0.8730232E-01
         -1   -1    0    0    0  501 -0.00000000000E+00  0.00000000000E+00  0.10575926592E+04  0.10575926592E+04  0.00000000000E+00 0. -1.
          1   -1    0    0  502    0  0.00000000000E+00 -0.00000000000E+00 -0.22012618298E+04  0.22012618298E+04  0.00000000000E+00 0.  1.
    9000010    2    1    2  502    0 -0.29453896238E+03 -0.35926942380E+02  0.61512830966E+03  0.12043001590E+04  0.99192342950E+03 0.  0.
   -9000010    2    1    2    0  501  0.29453896238E+03  0.35926942380E+02 -0.17587974803E+04  0.20545543300E+04  0.10196965102E+04 0.  0.
        -13    1    3    3    0    0 -0.16750728129E+02 -0.48861503320E+03  0.19206702781E+03  0.52527611016E+03  0.10566000000E+00 0.  1.
         13    1    4    4    0    0  0.17392146853E+03 -0.48761121233E+03 -0.74526373898E+03  0.90743122241E+03  0.10566000000E+00 0. -1.
          4    1    3    3  502    0 -0.27778823425E+03  0.45268809082E+03  0.42306128185E+03  0.67902404881E+03  0.00000000000E+00 0.  1.
         -4    1    4    4    0  501  0.12061749385E+03  0.52353815471E+03 -0.10135337413E+04  0.11471231076E+04  0.00000000000E+00 0. -1.
</event>
<event>
 8    1  0.7446554E-006  0.1680549E+04  0.7818608E-02  0.8312551E-01
         -2   -1    0    0    0  501 -0.00000000000E+00  0.00000000000E+00  0.14191938202E+04  0.14191938202E+04  0.00000000000E+00 0.  1.
          2   -1    0    0  502    0  0.00000000000E+00 -0.00000000000E+00 -0.21078246875E+04  0.21078246875E+04  0.00000000000E+00 0. -1.
    9000010    2    1    2  502    0  0.95138876729E+03  0.96337759130E+03  0.71542323955E+02  0.16871986251E+04  0.10041334207E+04 0.  0.
   -9000010    2    1    2    0  501 -0.95138876729E+03 -0.96337759130E+03 -0.76017319123E+03  0.18398198825E+04  0.98683177366E+03 0.  0.
        -13    1    3    3    0    0  0.78183988471E+03  0.17213218618E+03  0.28589641560E+03  0.85008227040E+03  0.10566000000E+00 0.  1.
         13    1    4    4    0    0 -0.79942129724E+03 -0.25931433104E+03 -0.73916989456E+03  0.11192365599E+04  0.10566000000E+00 0. -1.
          4    1    3    3  502    0  0.16954888258E+03  0.79124540512E+03 -0.21435409164E+03  0.83711635471E+03  0.00000000000E+00 0.  1.
         -4    1    4    4    0  501 -0.15196747005E+03 -0.70406326026E+03 -0.21003296663E+02  0.72058332265E+03  0.00000000000E+00 0. -1.
</event>
<event>
 8    1  0.7446554E-006  0.1180822E+04  0.7818608E-02  0.8621145E-01
         -2   -1    0    0    0  501 -0.00000000000E+00  0.00000000000E+00  0.10698225633E+04  0.10698225633E+04  0.00000000000E+00 0.  1.
          2   -1    0    0  502    0  0.00000000000E+00 -0.00000000000E+00 -0.21326160747E+04  0.21326160747E+04  0.00000000000E+00 0. -1.
    9000010    2    1    2  502    0  0.55303416990E+03 -0.26816147972E+03  0.46836574215E+03  0.12659737491E+04  0.10027789849E+04 0.  0.
   -9000010    2    1    2    0  501 -0.55303416990E+03  0.26816147972E+03 -0.15311592535E+04  0.19364648890E+04  0.10137505779E+04 0.  0.
        -13    1    3    3    0    0  0.15837241441E+03 -0.58831245921E+03  0.56552662256E+02  0.61187546616E+03  0.10566000000E+00 0.  1.
         13    1    4    4    0    0 -0.82783163636E+03  0.18881727225E+03 -0.86793870713E+03  0.12141971796E+04  0.10566000000E+00 0. -1.
          4    1    3    3  502    0  0.39466175549E+03  0.32015097949E+03  0.41181307989E+03  0.65409828290E+03  0.00000000000E+00 0.  1.
         -4    1    4    4    0  501  0.27479746646E+03  0.79344207472E+02 -0.66322054638E+03  0.72226770935E+03  0.00000000000E+00 0. -1.
</event>
<event>
 8    1  0.7446554E-006  0.1619477E+04  0.7818608E-02  0.8343874E-01
          1   -1    0    0  502    0  0.00000000000E+00  0.00000000000E+00  0.94310286512E+03  0.94310286512E+03  0.00000000000E+00 0. -1.
         -1   -1    0    0    0  501 -0.00000000000E+00 -0.00000000000E+00 -0.28681996775E+04  0.28681996775E+04  0.00000000000E+00 0.  1.
    9000010    2    1    2  502    0 -0.39547305649E+02 -0.12694106179E+04 -0.63377274187E+03  0.17448130141E+04  0.10147597054E+04 0.  0.
   -9000010    2    1    2    0  501  0.39547305649E+02  0.12694106179E+04 -0.12913240705E+04  0.20664895285E+04  0.99493407328E+03 0.  0.
        -13    1    3    3    0    0 -0.52332591050E+03 -0.75768239755E+03 -0.38237872207E+03  0.99707879449E+03  0.10566000000E+00 0.  1.
         13    1    4    4    0    0  0.55104373318E+02  0.55417920311E+03 -0.12278898797E+04  0.13482821103E+04  0.10566000000E+00 0. -1.
          4    1    3    3  502    0  0.48377860485E+03 -0.51172822036E+03 -0.25139401980E+03  0.74773421963E+03  0.00000000000E+00 0.  1.
         -4    1    4    4    0  501 -0.15557067669E+02  0.71523141479E+03 -0.63434190850E+02  0.71820741825E+03  0.00000000000E+00 0. -1.
</event>
<event>
 8    1  0.7446554E-006  0.1101880E+04  0.7818608E-02  0.8684355E-01
         -2   -1    0    0    0  501 -0.00000000000E+00  0.00000000000E+00  0.50108718816E+03  0.50108718816E+03  0.00000000000E+00 0. -1.
          2   -1    0    0  502    0  0.00000000000E+00 -0.00000000000E+00 -0.24231193303E+04  0.24231193303E+04  0.00000000000E+00 0.  1.
    9000010    2    1    2  502    0 -0.43656551288E+03  0.18265989258E+03 -0.96940139319E+03  0.14665043056E+04  0.99344941176E+03 0.  0.
   -9000010    2    1    2    0  501  0.43656551288E+03 -0.18265989258E+03 -0.95263074894E+03  0.14577022129E+04  0.99671275413E+03 0.  0.
        -13    1    3    3    0    0  0.22055822505E+03  0.20580349151E+03 -0.68811343323E+03  0.75133289287E+03  0.10566000000E+00 0.  1.
         13    1    4    4    0    0  0.58763711507E+03 -0.39740928750E+03 -0.96163134865E+03  0.11949838420E+04  0.10566000000E+00 0. -1.
          4    1    3    3  502    0 -0.65712373793E+03 -0.23143598926E+02 -0.28128795997E+03  0.71517141270E+03  0.00000000000E+00 0.  1.
         -4    1    4    4    0  501 -0.15107160219E+03  0.21474939492E+03  0.90005997026E+01  0.26271837088E+03  0.00000000000E+00 0. -1.
</event>
<event>
 8    1  0.7446554E-006  0.1189348E+04  0.7818608E-02  0.8614627E-01
         -2   -1    0    0    0  501 -0.00000000000E+00  0.00000000000E+00  0.54272692774E+03  0.54272692774E+03  0.00000000000E+00 0. -1.
          2   -1    0    0  502    0  0.00000000000E+00 -0.00000000000E+00 -0.26604275102E+04  0.26604275102E+04  0.00000000000E+00 0.  1.
    9000010    2    1    2  502    0 -0.22632413763E+03  0.63417236840E+03 -0.84077146942E+03  0.14656717310E+04  0.99393146200E+03 0.  0.
   -9000010    2    1    2    0  501  0.22632413763E+03 -0.63417236840E+03 -0.12769291130E+04  0.17374827069E+04  0.96690278156E+03 0.  0.
        -13    1    3    3    0    0 -0.43337711381E+03 -0.76352048218E+02 -0.18682613288E+03  0.47806837705E+03  0.10566000000E+00 0.  1.
         13    1    4    4    0    0 -0.18830966685E+03  0.17203196344E+03 -0.16925217218E+03  0.30610755630E+03  0.10566000000E+00 0. -1.
          4    1    3    3  502    0  0.20705297619E+03  0.71052441662E+03 -0.65394533654E+03  0.98760335396E+03  0.00000000000E+00 0.  1.
         -4    1    4    4    0  501  0.41463380448E+03 -0.80620433184E+03 -0.11076769408E+04  0.14313751506E+04  0.00000000000E+00 0. -1.
</event>
<event>
 8    1  0.7446554E-006  0.1436773E+04  0.7818608E-02  0.8446843E-01
         -1   -1    0    0    0  501 -0.00000000000E+00  0.00000000000E+00  0.13715715640E+04  0.13715715640E+04  0.00000000000E+00 0.  1.
          1   -1    0    0  502    0  0.00000000000E+00 -0.00000000000E+00 -0.26449018727E+04  0.26449018727E+04  0.00000000000E+00 0. -1.
    9000010    2    1    2  502    0  0.97070453862E+03  0.19445691748E+03  0.67362708224E+03  0.16141720005E+04  0.10824495403E+04 0.  0.
   -9000010    2    1    2    0  501 -0.97070453862E+03 -0.19445691748E+03 -0.19469573909E+04  0.24023014361E+04  0.10001641434E+04 0.  0.
        -13    1    3    3    0    0  0.11815147022E+04  0.29819633708E+03  0.47992271378E+03  0.13096655563E+04  0.10566000000E+00 0.  1.
         13    1    4    4    0    0 -0.85958113565E+03 -0.29210910378E+03 -0.69944920713E+03  0.11460526436E+04  0.10566000000E+00 0. -1.
          4    1    3    3  502    0 -0.21081016356E+03 -0.10373941960E+03  0.19370436846E+03  0.30450644427E+03  0.00000000000E+00 0.  1.
         -4    1    4    4    0  501 -0.11112340297E+03  0.97652186303E+02 -0.12475081838E+04  0.12562487925E+04  0.00000000000E+00 0. -1.
</event>
<event>
 8    1  0.7446554E-006  0.1285154E+04  0.7818608E-02  0.8545058E-01
         -2   -1    0    0    0  501 -0.00000000000E+00  0.00000000000E+00  0.11250221879E+04  0.11250221879E+04  0.00000000000E+00 0.  1.
          2   -1    0    0  502    0  0.00000000000E+00 -0.00000000000E+00 -0.14812245666E+04  0.14812245666E+04  0.00000000000E+00 0. -1.
    9000010    2    1    2  502    0  0.47121751209E+03 -0.63641190210E+03 -0.29612770474E+03  0.12985513371E+04  0.98563578709E+03 0.  0.
   -9000010    2    1    2    0  501 -0.47121751209E+03  0.63641190210E+03 -0.60074673939E+02  0.13076954173E+04  0.10389380565E+04 0.  0.
        -13    1    3    3    0    0  0.27063619146E+03  0.19647792238E+03 -0.28871255909E+03  0.44181724168E+03  0.10566000000E+00 0.  1.
         13    1    4    4    0    0  0.18440299342E+03  0.30087203796E+03 -0.36760700833E+03  0.50957175250E+03  0.10566000000E+00 0. -1.
          4    1    3    3  502    0  0.20058132063E+03 -0.83288982448E+03 -0.74151456571E+01  0.85673409544E+03  0.00000000000E+00 0.  1.
         -4    1    4    4    0  501 -0.65562050551E+03  0.33553986413E+03  0.30753233439E+03  0.79812366483E+03  0.00000000000E+00 0. -1.
</event>
<event>
 8    1  0.7446554E-006  0.1007554E+04  0.7818608E-02  0.8767526E-01
         -1   -1    0    0    0  501 -0.00000000000E+00  0.00000000000E+00  0.60106912423E+03  0.60106912423E+03  0.00000000000E+00 0. -1.
          1   -1    0    0  502    0  0.00000000000E+00 -0.00000000000E+00 -0.17386544667E+04  0.17386544667E+04  0.00000000000E+00 0.  1.
    9000010    2    1    2  502    0 -0.26339240136E+03  0.10673619729E+02 -0.38723765737E+03  0.11036366262E+04  0.99928540272E+03 0.  0.
   -9000010    2    1    2    0  501  0.26339240136E+03 -0.10673619729E+02 -0.75034768510E+03  0.12360869647E+04  0.94625570151E+03 0.  0.
        -13    1    3    3    0    0  0.56840245263E+02 -0.33131236137E+03 -0.51773417119E+03  0.61729035102E+03  0.10566000000E+00 0.  1.
         13    1    4    4    0    0  0.28610494599E+03 -0.17865891350E+01 -0.97192976324E+03  0.10131666733E+04  0.10566000000E+00 0. -1.
          4    1    3    3  502    0 -0.32023264663E+03  0.34198598110E+03  0.13049651383E+03  0.48634627515E+03  0.00000000000E+00 0.  1.
         -4    1    4    4    0  501 -0.22712544625E+02 -0.88870305944E+01  0.22158207814E+03  0.22292029147E+03  0.00000000000E+00 0. -1.
</event>
<event>
 8    1  0.7446554E-006  0.1234527E+04  0.7818608E-02  0.8581007E-01
          1   -1    0    0  502    0  0.00000000000E+00  0.00000000000E+00  0.18834027215E+04  0.18834027215E+04  0.00000000000E+00 0.  1.
         -1   -1    0    0    0  501 -0.00000000000E+00 -0.00000000000E+00 -0.87675073303E+03  0.87675073303E+03  0.00000000000E+00 0. -1.
    9000010    2    1    2  502    0  0.35810210233E+03 -0.64285206912E+03  0.11982094031E+03  0.12391467139E+04  0.98976341738E+03 0.  0.
   -9000010    2    1    2    0  501 -0.35810210233E+03  0.64285206912E+03  0.88683104816E+03  0.15210067406E+04  0.99272166218E+03 0.  0.
        -13    1    3    3    0    0 -0.18638682075E+03 -0.57542178014E+03  0.28152749909E+03  0.66716415964E+03  0.10566000000E+00 0.  1.
         13    1    4    4    0    0 -0.52729299485E+03 -0.42047250264E+02  0.34614368673E+03  0.63215610153E+03  0.10566000000E+00 0. -1.
          4    1    3    3  502    0  0.54448892308E+03 -0.67430288987E+02 -0.16170655878E+03  0.57198255426E+03  0.00000000000E+00 0.  1.
         -4    1    4    4    0  501  0.16919089252E+03  0.68489931939E+03  0.54068736144E+03  0.88885063910E+03  0.00000000000E+00 0. -1.
</event>
<event>
 8    1  0.7446554E-006  0.1148275E+04  0.7818608E-02  0.8646565E-01
         -1   -1    0    0    0  501 -0.00000000000E+00  0.00000000000E+00  0.52959117244E+03  0.52959117244E+03  0.00000000000E+00 0.  1.
          1   -1    0    0  502    0  0.00000000000E+00 -0.00000000000E+00 -0.24934528853E+04  0.24934528853E+04  0.00000000000E+00 0. -1.
    9000010    2    1    2  502    0 -0.26481199253E+03 -0.50623711107E+03 -0.10416429585E+04  0.15514485535E+04  0.99778312125E+03 0.  0.
   -9000010    2    1    2    0  501  0.26481199253E+03  0.50623711107E+03 -0.92221875437E+03  0.14715955043E+04  0.99433620739E+03 0.  0.
        -13    1    3    3    0    0  0.52262455076E+02 -0.34947975746E+03  0.90971934104E+02  0.36488815964E+03  0.10566000000E+00 0.  1.
         13    1    4    4    0    0  0.45835008737E+03  0.28827673474E+02 -0.54496592295E+02  0.46247781253E+03  0.10566000000E+00 0. -1.
          4    1    3    3  502    0 -0.31707444761E+03 -0.15675735362E+03 -0.11326148926E+04  0.11865603939E+04  0.00000000000E+00 0.  1.
         -4    1    4    4    0  501 -0.19353809484E+03  0.47740943760E+03 -0.86772216208E+03  0.10091176918E+04  0.00000000000E+00 0. -1.
</event>
<event>
 8    1  0.7446554E-006  0.1174563E+04  0.7818608E-02  0.8625967E-01
          1   -1    0    0  502    0  0.00000000000E+00  0.00000000000E+00  0.13428399707E+04  0.13428399707E+04  0.00000000000E+00 0.  1.
         -1   -1    0    0    0  501 -0.00000000000E+00 -0.00000000000E+00 -0.11457723639E+04  0.11457723639E+04  0.00000000000E+00 0. -1.
    9000010    2    1    2  502    0  0.78257678814E+02 -0.61139709033E+03  0.49795043280E+03  0.12695247449E+04  0.99187084751E+03 0.  0.
   -9000010    2    1    2    0  501 -0.78257678814E+02  0.61139709033E+03 -0.30088282597E+03  0.12190875896E+04  0.10078260811E+04 0.  0.
        -13    1    3    3    0    0  0.24105301251E+03 -0.43185902246E+02 -0.22716250087E+03  0.33402752874E+03  0.10566000000E+00 0.  1.
         13    1    4    4    0    0  0.10960822583E+03  0.46104005584E+03  0.30745448332E+03  0.56488951728E+03  0.10566000000E+00 0. -1.
          4    1    3    3  502    0 -0.16279533370E+03 -0.56821118809E+03  0.72511293367E+03  0.93549721620E+03  0.00000000000E+00 0.  1.
         -4    1    4    4    0  501 -0.18786590464E+03  0.15035703450E+03 -0.60833730929E+03  0.65419807232E+03  0.00000000000E+00 0. -1.
</event>
<event>
 8    1  0.7446554E-006  0.1233266E+04  0.7818608E-02  0.8581924E-01
         -2   -1    0    0    0  501 -0.00000000000E+00  0.00000000000E+00  0.23017134932E+04  0.23017134932E+04  0.00000000000E+00 0. -1.
          2   -1    0    0  502    0  0.00000000000E+00 -0.00000000000E+00 -0.73397130191E+03  0.73397130191E+03  0.00000000000E+00 0.  1.
    9000010    2    1    2  502    0 -0.37360290021E+03  0.63016080564E+03  0.12554499348E+04  0.17508200418E+04  0.97597874562E+03 0.  0.
   -9000010    2    1    2    0  501  0.37360290021E+03 -0.63016080564E+03  0.31229225648E+03  0.12848647533E+04  0.10083001601E+04 0.  0.
        -13    1    3    3    0    0 -0.67574605153E+03  0.49911326556E+03  0.11067292153E+04  0.13894590117E+04  0.10566000000E+00 0.  1.
         13    1    4    4    0    0 -0.64678826768E+02  0.24646043323E+03  0.13677010724E+03  0.28919227026E+03  0.10566000000E+00 0. -1.
          4    1    3    3  502    0  0.30214315132E+03  0.13104754008E+03  0.14872071948E+03  0.36136103007E+03  0.00000000000E+00 0.  1.
         -4    1    4    4    0  501  0.43828172698E+03 -0.87662123887E+03  0.17552214924E+03  0.99567248306E+03  0.00000000000E+00 0. -1.
</event>
<event>
 8    1  0.7446554E-006  0.1811698E+04  0.7818608E-02  0.8249690E-01
          2   -1    0    0  502    0  0.00000000000E+00  0.00000000000E+00  0.28889973103E+04  0.28889973103E+04  0.00000000000E+00 0. -1.
         -2   -1    0    0    0  501 -0.00000000000E+00 -0.00000000000E+00 -0.13208158102E+04  0.13208158102E+04  0.00000000000E+00 0.  1.
    9000010    2    1    2  502    0  0.14314691421E+04 -0.46071735820E+03  0.15717249705E+04  0.23995061400E+04  0.10128898973E+04 0.  0.
   -9000010    2    1    2    0  501 -0.14314691421E+04  0.46071735820E+03 -0.35434702959E+01  0.18103069805E+04  0.10078861138E+04 0.  0.
        -13    1    3    3    0    0 -0.62995672435E+00  0.20278087259E+03  0.54014280447E+02  0.20985240715E+03  0.10566000000E+00 0.  1.
         13    1    4    4    0    0 -0.13941637177E+04  0.70350970974E+03 -0.39148811343E+02  0.15620982760E+04  0.10566000000E+00 0. -1.
          4    1    3    3  502    0  0.14320990989E+04 -0.66349823078E+03  0.15177106900E+04  0.21896537329E+04  0.00000000000E+00 0.  1.
         -4    1    4    4    0  501 -0.37305424443E+02 -0.24279235154E+03  0.35605341047E+02  0.24820870446E+03  0.00000000000E+00 0. -1.
</event>
<event>
 8    1  0.7446554E-006  0.1061530E+04  0.7818608E-02  0.8718833E-01
          2   -1    0    0  502    0  0.00000000000E+00  0.00000000000E+00  0.13106475629E+04  0.13106475629E+04  0.00000000000E+00 0.  1.
         -2   -1    0    0    0  501 -0.00000000000E+00 -0.00000000000E+00 -0.86092159047E+03  0.86092159047E+03  0.00000000000E+00 0. -1.
    9000010    2    1    2  502    0 -0.37157819829E+03  0.93846308033E+02  0.18881543930E+03  0.10887684408E+04  0.10014429393E+04 0.  0.
   -9000010    2    1    2    0  501  0.37157819829E+03 -0.93846308033E+02  0.26091053315E+03  0.10828007126E+04  0.97852214582E+03 0.  0.
        -13    1    3    3    0    0 -0.49938384388E+03  0.37503575641E+03 -0.13746593155E+03  0.63947864360E+03  0.10566000000E+00 0.  1.
         13    1    4    4    0    0  0.68359184817E+03 -0.14942693891E+03  0.30407974865E+03  0.76294870710E+03  0.10566000000E+00 0. -1.
          4    1    3    3  502    0  0.12780564559E+03 -0.28118944838E+03  0.32628137085E+03  0.44928979722E+03  0.00000000000E+00 0.  1.
         -4    1    4    4    0  501 -0.31201364988E+03  0.55580630872E+02 -0.43169215501E+02  0.31985200548E+03  0.00000000000E+00 0. -1.
</event>
<event>
 8    1  0.7446554E-006  0.1204029E+04  0.7818608E-02  0.8603535E-01
         -1   -1    0    0    0  501 -0.00000000000E+00  0.00000000000E+00  0.75281854698E+03  0.75281854698E+03  0.00000000000E+00 0.  1.
          1   -1    0    0  502    0  0.00000000000E+00 -0.00000000000E+00 -0.19313997156E+04  0.19313997156E+04  0.00000000000E+00 0. -1.
    9000010    2    1    2  502    0 -0.15136196591E+03 -0.65997476931E+03 -0.50979680081E+03  0.12879828642E+04  0.96980922838E+03 0.  0.
   -9000010    2    1    2    0  501  0.15136196591E+03  0.65997476931E+03 -0.66878436777E+03  0.13962353984E+04  0.10216279246E+04 0.  0.
        -13    1    3    3    0    0  0.17609634401E+03 -0.79074527640E+03 -0.24286943358E+03  0.84573848644E+03  0.10566000000E+00 0.  1.
         13    1    4    4    0    0  0.19858752324E+03 -0.17416806015E+03 -0.46732764565E+03  0.53681156574E+03  0.10566000000E+00 0. -1.
          4    1    3    3  502    0 -0.32745830992E+03  0.13077050709E+03 -0.26692736723E+03  0.44224437774E+03  0.00000000000E+00 0.  1.
         -4    1    4    4    0  501 -0.47225557330E+02  0.83414282945E+03 -0.20145672212E+03  0.85942383262E+03  0.00000000000E+00 0. -1.
</event>
<event>
 8    1  0.7446554E-006  0.1262553E+04  0.7818608E-02  0.8560890E-01
          2   -1    0    0  502    0  0.00000000000E+00  0.00000000000E+00  0.17255436131E+04  0.17255436131E+04  0.00000000000E+00 0. -1.
         -2   -1    0    0    0  501 -0.00000000000E+00 -0.00000000000E+00 -0.94231570880E+03  0.94231570880E+03  0.00000000000E+00 0.  1.
    9000010    2    1    2  502    0  0.31527118115E+03  0.72610941810E+03  0.58137911884E+03  0.13990709827E+04  0.99637700200E+03 0.  0.
   -9000010    2    1    2    0  501 -0.31527118115E+03 -0.72610941810E+03  0.20184878549E+03  0.12687883392E+04  0.97079869841E+03 0.  0.
        -13    1    3    3    0    0 -0.35235725382E+03  0.15397266815E+03  0.10287076762E+03  0.39805228658E+03  0.10566000000E+00 0.  1.
         13    1    4    4    0    0  0.27923841694E+03 -0.48878079862E+03 -0.81426250181E+02  0.56878028093E+03  0.10566000000E+00 0. -1.
          4    1    3    3  502    0  0.66762843497E+03  0.57213674994E+03  0.47850835122E+03  0.10010186961E+04  0.00000000000E+00 0.  1.
         -4    1    4    4    0  501 -0.59450959809E+03 -0.23732861948E+03  0.28327503567E+03  0.70000805829E+03  0.00000000000E+00 0. -1.
</event>
<event>
 8    1  0.7446554E-006  0.1161842E+04  0.7818608E-02  0.8635864E-01
         -2   -1    0    0    0  501 -0.00000000000E+00  0.00000000000E+00  0.58953723722E+03  0.58953723722E+03  0.00000000000E+00 0.  1.
          2   -1    0    0  502    0  0.00000000000E+00 -0.00000000000E+00 -0.31377725424E+04  0.31377725424E+04  0.00000000000E+00 0. -1.
    9000010    2    1    2  502    0  0.29153087944E+03 -0.67847219681E+03 -0.24311051724E+03  0.11026377145E+04  0.78191587159E+03 0.  0.
   -9000010    2    1    2    0  501 -0.29153087944E+03  0.67847219681E+03 -0.23051247880E+04  0.26246720652E+04  0.10148834348E+04 0.  0.
        -13    1    3    3    0    0  0.14839331679E+03  0.16038855149E+03 -0.33901608699E+01  0.21853276247E+03  0.10566000000E+00 0.  1.
         13    1    4    4    0    0 -0.28654558105E+03  0.30985592380E+03 -0.16519451347E+03  0.45321992672E+03  0.10566000000E+00 0. -1.
          4    1    3    3  502    0  0.14313756265E+03 -0.83886074830E+03 -0.23972035637E+03  0.88410495199E+03  0.00000000000E+00 0.  1.
         -4    1    4    4    0  501 -0.49852983899E+01  0.36861627301E+03 -0.21399302745E+04  0.21714521385E+04  0.00000000000E+00 0. -1.
</event>
<event>
 8    1  0.7446554E-006  0.1072706E+04  0.7818608E-02  0.8709125E-01
          2   -1    0    0  502    0  0.00000000000E+00  0.00000000000E+00  0.18936745068E+04  0.18936745068E+04  0.00000000000E+00 0. -1.
         -2   -1    0    0    0  501 -0.00000000000E+00 -0.00000000000E+00 -0.93037472904E+03  0.93037472904E+03  0.00000000000E+00 0.  1.
    9000010    2    1    2  502    0  0.26997520261E+03 -0.27685454805E+03  0.13133969161E+04  0.16960562961E+04  0.10010296947E+04 0.  0.
   -9000010    2    1    2    0  501 -0.26997520261E+03  0.27685454805E+03 -0.35009713829E+03  0.11279929397E+04  0.10001324988E+04 0.  0.
        -13    1    3    3    0    0 -0.29762112545E+03  0.17705363862E+03  0.41639069765E+03  0.54157875652E+03  0.10566000000E+00 0.  1.
         13    1    4    4    0    0  0.30082846875E+03  0.38580534661E+03 -0.19396082723E+03  0.52627402249E+03  0.10566000000E+00 0. -1.
          4    1    3    3  502    0  0.56759632806E+03 -0.45390818667E+03  0.89700621841E+03  0.11544775396E+04  0.00000000000E+00 0.  1.
         -4    1    4    4    0  501 -0.57080367136E+03 -0.10895079856E+03 -0.15613631106E+03  0.60171891725E+03  0.00000000000E+00 0. -1.
</event>
<event>
 8    1  0.7446554E-006  0.1317204E+04  0.7818608E-02  0.8523172E-01
         -2   -1    0    0    0  501 -0.00000000000E+00  0.00000000000E+00  0.45406258647E+03  0.45406258647E+03  0.00000000000E+00 0. -1.
          2   -1    0    0  502    0  0.00000000000E+00 -0.00000000000E+00 -0.39771365433E+04  0.39771365433E+04  0.00000000000E+00 0.  1.
    9000010    2    1    2  502    0  0.94858761609E+03 -0.27045593142E+03 -0.12382408278E+04  0.17498682199E+04  0.74554246237E+03 0.  0.
   -9000010    2    1    2    0  501 -0.94858761609E+03  0.27045593142E+03 -0.22848331290E+04  0.26813309098E+04  0.99805217520E+03 0.  0.
        -13    1    3    3    0    0  0.24569426770E+03 -0.42521789324E+03 -0.68114092308E+03  0.83971953542E+03  0.10566000000E+00 0.  1.
         13    1    4    4    0    0 -0.58281773755E+03 -0.15687779465E+02 -0.32554717791E+03  0.66776013496E+03  0.10566000000E+00 0. -1.
          4    1    3    3  502    0  0.70289334839E+03  0.15476196183E+03 -0.55709990474E+03  0.91014868450E+03  0.00000000000E+00 0.  1.
         -4    1    4    4    0  501 -0.36576987855E+03  0.28614371088E+03 -0.19592859511E+04  0.20135707749E+04  0.00000000000E+00 0. -1.
</event>
<event>
 8    1  0.7446554E-006  0.1219576E+04  0.7818608E-02  0.8591965E-01
          2   -1    0    0  502    0  0.00000000000E+00  0.00000000000E+00  0.29765845860E+04  0.29765845860E+04  0.00000000000E+00 0. -1.
         -2   -1    0    0    0  501 -0.00000000000E+00 -0.00000000000E+00 -0.50167351985E+03  0.50167351985E+03  0.00000000000E+00 0.  1.
    9000010    2    1    2  502    0  0.66624418395E+03 -0.16802536645E+03  0.13457781377E+04  0.18154650734E+04  0.10063204263E+04 0.  0.
   -9000010    2    1    2    0  501 -0.66624418395E+03  0.16802536645E+03  0.11291329285E+04  0.16627930325E+04  0.10088734619E+04 0.  0.
        -13    1    3    3    0    0  0.85433137186E+03  0.12817258206E+03  0.89069531657E+03  0.12408257178E+04  0.10566000000E+00 0.  1.
         13    1    4    4    0    0 -0.60533017872E+03 -0.28559216550E+03  0.96942901796E+03  0.11780408067E+04  0.10566000000E+00 0. -1.
          4    1    3    3  502    0 -0.18808718791E+03 -0.29619794851E+03  0.45508282108E+03  0.57463935560E+03  0.00000000000E+00 0.  1.
         -4    1    4    4    0  501 -0.60914005236E+02  0.45361753196E+03  0.15970391052E+03  0.48475222575E+03  0.00000000000E+00 0. -1.
</event>
<event>
 8    1  0.7446554E-006  0.2245727E+04  0.7818608E-02  0.8075096E-01
          2   -1    0    0  502    0  0.00000000000E+00  0.00000000000E+00  0.35549945664E+04  0.35549945664E+04  0.00000000000E+00 0.  1.
         -2   -1    0    0    0  501 -0.00000000000E+00 -0.00000000000E+00 -0.14274385634E+04  0.14274385634E+04  0.00000000000E+00 0. -1.
    9000010    2    1    2  502    0  0.18686830231E+04  0.63035628749E+03  0.88621921930E+03  0.24437285405E+04  0.11389027109E+04 0.  0.
   -9000010    2    1    2    0  501 -0.18686830231E+04 -0.63035628749E+03  0.12413367837E+04  0.25387045893E+04  0.10073622443E+04 0.  0.
        -13    1    3    3    0    0  0.19687429858E+04  0.72714352293E+03  0.70242186698E+03  0.22131613447E+04  0.10566000000E+00 0.  1.
         13    1    4    4    0    0 -0.10291983160E+04  0.15143260872E+03  0.39333175685E+03  0.11121559651E+04  0.10566000000E+00 0. -1.
          4    1    3    3  502    0 -0.10005996270E+03 -0.96787235438E+02  0.18379735232E+03  0.23056719585E+03  0.00000000000E+00 0.  1.
         -4    1    4    4    0  501 -0.83948470717E+03 -0.78178889621E+03  0.84800502681E+03  0.14265486242E+04  0.00000000000E+00 0. -1.
</event>
<event>
 8    1  0.7446554E-006  0.1097588E+04  0.7818608E-02  0.8687948E-01
         -2   -1    0    0    0  501 -0.00000000000E+00  0.00000000000E+00  0.71280125358E+03  0.71280125358E+03  0.00000000000E+00 0. -1.
          2   -1    0    0  502    0  0.00000000000E+00 -0.00000000000E+00 -0.17323385092E+04  0.17323385092E+04  0.00000000000E+00 0.  1.
    9000010    2    1    2  502    0  0.39703361554E+03 -0.22772449859E+03 -0.32019122163E+03  0.11461263053E+04  0.10007941598E+04 0.  0.
   -9000010    2    1    2    0  501 -0.39703361554E+03  0.22772449859E+03 -0.69934603395E+03  0.12990134574E+04  0.99441286610E+03 0.  0.
        -13    1    3    3    0    0  0.72713523989E+03 -0.10205897524E+03 -0.13242892751E+03  0.74610932411E+03  0.10566000000E+00 0.  1.
         13    1    4    4    0    0 -0.16126878054E+03  0.50044219574E+02 -0.91688285339E+03  0.93230157219E+03  0.10566000000E+00 0. -1.
          4    1    3    3  502    0 -0.33010162435E+03 -0.12566552335E+03 -0.18776229412E+03  0.40001698121E+03  0.00000000000E+00 0.  1.
         -4    1    4    4    0  501 -0.23576483500E+03  0.17768027901E+03  0.21753681944E+03  0.36671188525E+03  0.00000000000E+00 0. -1.
</event>
<event>
 8    1  0.7446554E-006  0.1104139E+04  0.7818608E-02  0.8682470E-01
         -2   -1    0    0    0  501 -0.00000000000E+00  0.00000000000E+00  0.10700951820E+04  0.10700951820E+04  0.00000000000E+00 0.  1.
          2   -1    0    0  502    0  0.00000000000E+00 -0.00000000000E+00 -0.16838573757E+04  0.16838573757E+04  0.00000000000E+00 0. -1.
    9000010    2    1    2  502    0  0.31111030051E+03 -0.55872392049E+03  0.48586738328E+03  0.11305642874E+04  0.79570500521E+03 0.  0.
   -9000010    2    1    2    0  501 -0.31111030051E+03  0.55872392049E+03 -0.10996295771E+04  0.16233882703E+04  0.10085842707E+04 0.  0.
        -13    1    3    3    0    0  0.33771941240E+03  0.95139047338E+02  0.26569986520E+03  0.44011619985E+03  0.10566000000E+00 0.  1.
         13    1    4    4    0    0  0.21198557693E+03  0.18782462546E+03  0.67992074950E+02  0.29127119352E+03  0.10566000000E+00 0. -1.
          4    1    3    3  502    0 -0.26609111888E+02 -0.65386296783E+03  0.22016751808E+03  0.69044808751E+03  0.00000000000E+00 0.  1.
         -4    1    4    4    0  501 -0.52309587744E+03  0.37089929503E+03 -0.11676216520E+04  0.13321170768E+04  0.00000000000E+00 0. -1.
</event>
<event>
 8    1  0.7446554E-006  0.1831148E+04  0.7818608E-02  0.8240834E-01
         -2   -1    0    0    0  501 -0.00000000000E+00  0.00000000000E+00  0.92678138211E+03  0.92678138211E+03  0.00000000000E+00 0. -1.
          2   -1    0    0  502    0  0.00000000000E+00 -0.00000000000E+00 -0.36538039653E+04  0.36538039653E+04  0.00000000000E+00 0.  1.
    9000010    2    1    2  502    0  0.15190574623E+04  0.18326873034E+03 -0.11332454308E+04  0.21492312697E+04  0.99690864326E+03 0.  0.
   -9000010    2    1    2    0  501 -0.15190574623E+04 -0.18326873034E+03 -0.15937771524E+04  0.24313540776E+04  0.10150044522E+04 0.  0.
        -13    1    3    3    0    0  0.15791122363E+04  0.20505116135E+03 -0.12444628147E+04  0.20209723259E+04  0.10566000000E+00 0.  1.
         13    1    4    4    0    0 -0.29202333595E+03  0.83667662459E+01 -0.10242198204E+04  0.10650698959E+04  0.10566000000E+00 0. -1.
          4    1    3    3  502    0 -0.60054773970E+02 -0.21782431017E+02  0.11121738396E+03  0.12825894383E+03  0.00000000000E+00 0.  1.
         -4    1    4    4    0  501 -0.12270341264E+04 -0.19163549658E+03 -0.56955733201E+03  0.13662841818E+04  0.00000000000E+00 0. -1.
</event>
<event>
 7    1  0.7446554E-006  0.1909816E+04  0.7818608E-02  0.8206131E-01
         -2   -1    0    0    0  501 -0.00000000000E+00  0.00000000000E+00  0.12215226466E+04  0.12215226466E+04  0.00000000000E+00 0. -1.
          2   -1    0    0  502    0  0.00000000000E+00 -0.00000000000E+00 -0.34772112824E+04  0.34772112824E+04  0.00000000000E+00 0.  1.
    9000010    2    1    2  502    0  0.69531266078E+03  0.65542773611E+03 -0.30409316072E+03  0.14128577116E+04  0.99531354326E+03 0.  0.
        -13    1    3    3    0    0  0.71743069156E+03  0.74361621855E+02 -0.39806304914E+03  0.82382683268E+03  0.10566000000E+00 0.  1.
         13    1    1    2    0    0  0.29966896115E+03 -0.13609314414E+04 -0.79182275129E+03  0.16027848125E+04  0.10566000000E+00 0. -1.
          4    1    3    3  502    0 -0.22118030772E+02  0.58106611426E+03  0.93969888424E+02  0.58903087895E+03  0.00000000000E+00 0.  1.
         -4    1    1    2    0  501 -0.99498162193E+03  0.70550370530E+03 -0.11597727238E+04  0.16830914048E+04  0.00000000000E+00 0. -1.
</event>
<event>
 8    1  0.7446554E-006  0.1050989E+04  0.7818608E-02  0.8728104E-01
          4   -1    0    0  502    0  0.00000000000E+00  0.00000000000E+00  0.38261290296E+03  0.38261290296E+03  0.00000000000E+00 0. -1.
         -4   -1    0    0    0  501 -0.00000000000E+00 -0.00000000000E+00 -0.30736912619E+04  0.30736912619E+04  0.00000000000E+00 0.  1.
    9000010    2    1    2  502    0  0.19155661866E+03  0.28186016800E+03 -0.93116598242E+03  0.14112512914E+04  0.10042016870E+04 0.  0.
   -9000010    2    1    2    0  501 -0.19155661866E+03 -0.28186016800E+03 -0.17599123765E+04  0.20450528734E+04  0.98428176343E+03 0.  0.
        -13    1    3    3    0    0 -0.41055713473E+03  0.13546360373E+03 -0.29639352440E+03  0.52417237745E+03  0.10566000000E+00 0.  1.
         13    1    4    4    0    0 -0.36493956546E+02 -0.64396922117E+03 -0.11628535648E+04  0.13297580949E+04  0.10566000000E+00 0. -1.
          4    1    3    3  502    0  0.60211375339E+03  0.14639656427E+03 -0.63477245802E+03  0.88707891392E+03  0.00000000000E+00 0.  1.
         -4    1    4    4    0  501 -0.15506266211E+03  0.36210905317E+03 -0.59705881170E+03  0.71529477853E+03  0.00000000000E+00 0. -1.
</event>
<event>
 8    1  0.7446554E-006  0.1450521E+04  0.7818608E-02  0.8438557E-01
          2   -1    0    0  502    0  0.00000000000E+00  0.00000000000E+00  0.24233858744E+04  0.24233858744E+04  0.00000000000E+00 0.  1.
         -2   -1    0    0    0  501 -0.00000000000E+00 -0.00000000000E+00 -0.87238227499E+03  0.87238227499E+03  0.00000000000E+00 0. -1.
    9000010    2    1    2  502    0  0.94275551408E+03 -0.44265560002E+03  0.88611963780E+03  0.16947648845E+04  0.10011433771E+04 0.  0.
   -9000010    2    1    2    0  501 -0.94275551408E+03  0.44265560002E+03  0.66488396158E+03  0.16010032649E+04  0.10180416653E+04 0.  0.
        -13    1    3    3    0    0  0.57680401900E+03 -0.76392195465E+03  0.60755768499E+03  0.11337574612E+04  0.10566000000E+00 0.  1.
         13    1    4    4    0    0 -0.81241013972E+03  0.60461318438E+03  0.12243083660E+03  0.10200767906E+04  0.10566000000E+00 0. -1.
          4    1    3    3  502    0  0.36595149507E+03  0.32126635463E+03  0.27856195281E+03  0.56100742323E+03  0.00000000000E+00 0.  1.
         -4    1    4    4    0  501 -0.13034537436E+03 -0.16195758436E+03  0.54245312498E+03  0.58092647431E+03  0.00000000000E+00 0. -1.
</event>
<event>
 8    1  0.7446554E-006  0.1940317E+04  0.7818608E-02  0.8193134E-01
          2   -1    0    0  502    0  0.00000000000E+00  0.00000000000E+00  0.35233166388E+04  0.35233166388E+04  0.00000000000E+00 0. -1.
         -2   -1    0    0    0  501 -0.00000000000E+00 -0.00000000000E+00 -0.10713616406E+04  0.10713616406E+04  0.00000000000E+00 0.  1.
    9000010    2    1    2  502    0  0.16434720824E+04  0.32045329401E+03  0.13455668107E+04  0.23637085812E+04  0.98634548483E+03 0.  0.
   -9000010    2    1    2    0  501 -0.16434720824E+04 -0.32045329401E+03  0.11063881876E+04  0.22309696982E+04  0.97439220721E+03 0.  0.
        -13    1    3    3    0    0  0.14127756741E+02 -0.21321736446E+03  0.63714926877E+02  0.22298170572E+03  0.10566000000E+00 0.  1.
         13    1    4    4    0    0 -0.13566011943E+04 -0.36099774112E+02  0.12053681922E+04  0.18150984777E+04  0.10566000000E+00 0. -1.
          4    1    3    3  502    0  0.16293443257E+04  0.53367065846E+03  0.12818518838E+04  0.21407268755E+04  0.00000000000E+00 0.  1.
         -4    1    4    4    0  501 -0.28687088811E+03 -0.28435351989E+03 -0.98980004572E+02  0.41587122048E+03  0.00000000000E+00 0. -1.
</event>
<event>
 8    1  0.7446554E-006  0.1143666E+04  0.7818608E-02  0.8650235E-01
          2   -1    0    0  502    0  0.00000000000E+00  0.00000000000E+00  0.25635284157E+04  0.25635284157E+04  0.00000000000E+00 0.  1.
         -2   -1    0    0    0  501 -0.00000000000E+00 -0.00000000000E+00 -0.52836243185E+03  0.52836243185E+03  0.00000000000E+00 0. -1.
    9000010    2    1    2  502    0 -0.47555991698E+03  0.26220624160E+03  0.13068434863E+04  0.17388007160E+04  0.10102864369E+04 0.  0.
   -9000010    2    1    2    0  501  0.47555991698E+03 -0.26220624160E+03  0.72832249759E+03  0.13530901315E+04  0.10027411908E+04 0.  0.
        -13    1    3    3    0    0  0.28284263292E+03  0.21947646427E+03  0.24736678236E+03  0.43515538552E+03  0.10566000000E+00 0.  1.
         13    1    4    4    0    0 -0.28951209785E+03 -0.18572624410E+03  0.36878663992E+03  0.50429662848E+03  0.10566000000E+00 0. -1.
          4    1    3    3  502    0 -0.75840254991E+03  0.42729777324E+02  0.10594767039E+04  0.13036453305E+04  0.00000000000E+00 0.  1.
         -4    1    4    4    0  501  0.76507201483E+03 -0.76479997495E+02  0.35953585767E+03  0.84879350306E+03  0.00000000000E+00 0. -1.
</event>
<event>
 8    1  0.7446554E-006  0.1574207E+04  0.7818608E-02  0.8368029E-01
         -4   -1    0    0    0  501 -0.00000000000E+00  0.00000000000E+00  0.11670343173E+04  0.11670343173E+04  0.00000000000E+00 0. -1.
          4   -1    0    0  502    0  0.00000000000E+00 -0.00000000000E+00 -0.24706105654E+04  0.24706105654E+04  0.00000000000E+00 0.  1.
    9000010    2    1    2  502    0 -0.41228026683E+03 -0.11598387728E+04 -0.13334679981E+04  0.20628033980E+04  0.98072420156E+03 0.  0.
   -9000010    2    1    2    0  501  0.41228026683E+03  0.11598387728E+04  0.29891749978E+02  0.15748414847E+04  0.98185089903E+03 0.  0.
        -13    1    3    3    0    0 -0.37387075907E+02 -0.80684358892E+03 -0.13202264728E+04  0.15477055020E+04  0.10566000000E+00 0.  1.
         13    1    4    4    0    0  0.17946574466E+03  0.12768020478E+04  0.12964475171E+03  0.12958546198E+04  0.10566000000E+00 0. -1.
          4    1    3    3  502    0 -0.37489319092E+03 -0.35299518385E+03 -0.13241525327E+02  0.51509789595E+03  0.00000000000E+00 0.  1.
         -4    1    4    4    0  501  0.23281452217E+03 -0.11696327503E+03 -0.99753001729E+02  0.27898686491E+03  0.00000000000E+00 0. -1.
</event>
<event>
 8    1  0.7446554E-006  0.1120924E+04  0.7818608E-02  0.8668613E-01
         -1   -1    0    0    0  501 -0.00000000000E+00  0.00000000000E+00  0.34435450956E+04  0.34435450956E+04  0.00000000000E+00 0. -1.
          1   -1    0    0  502    0  0.00000000000E+00 -0.00000000000E+00 -0.47943121203E+03  0.47943121203E+03  0.00000000000E+00 0.  1.
    9000010    2    1    2  502    0 -0.33539573250E+02 -0.56121625483E+03  0.24728085614E+04  0.27291782888E+04  0.10087335441E+04 0.  0.
   -9000010    2    1    2    0  501  0.33539573250E+02  0.56121625483E+03  0.49130532220E+03  0.11937980189E+04  0.93149568038E+03 0.  0.
        -13    1    3    3    0    0  0.16888449364E+03  0.17679937579E+03  0.13398618482E+04  0.13619874357E+04  0.10566000000E+00 0.  1.
         13    1    4    4    0    0  0.31402896827E+03 -0.86450820609E+02 -0.13604902324E+02  0.32599546289E+03  0.10566000000E+00 0. -1.
          4    1    3    3  502    0 -0.20242406689E+03 -0.73801563062E+03  0.11329467132E+04  0.13671908531E+04  0.00000000000E+00 0.  1.
         -4    1    4    4    0  501 -0.28048939502E+03  0.64766707544E+03  0.50491022452E+03  0.86780255597E+03  0.00000000000E+00 0. -1.
</event>
<event>
 8    1  0.7446554E-006  0.1203689E+04  0.7818608E-02  0.8603790E-01
         -2   -1    0    0    0  501 -0.00000000000E+00  0.00000000000E+00  0.76721063101E+03  0.76721063101E+03  0.00000000000E+00 0. -1.
          2   -1    0    0  502    0  0.00000000000E+00 -0.00000000000E+00 -0.20974220133E+04  0.20974220133E+04  0.00000000000E+00 0.  1.
    9000010    2    1    2  502    0 -0.58729540995E+03 -0.21082646665E+03 -0.22990269361E+03  0.12562091407E+04  0.10657590999E+04 0.  0.
   -9000010    2    1    2    0  501  0.58729540995E+03  0.21082646665E+03 -0.11003086887E+04  0.16084235036E+04  0.99347031112E+03 0.  0.
        -13    1    3    3    0    0  0.15986834965E+03 -0.39165185121E+03 -0.24205295027E+03  0.48737942475E+03  0.10566000000E+00 0.  1.
         13    1    4    4    0    0  0.34765656320E+01 -0.33012640893E+03 -0.13341614017E+03  0.35608343124E+03  0.10566000000E+00 0. -1.
          4    1    3    3  502    0 -0.74716375960E+03  0.18082538456E+03  0.12150256659E+02  0.76882971593E+03  0.00000000000E+00 0.  1.
         -4    1    4    4    0  501  0.58381884432E+03  0.54095287557E+03 -0.96689254850E+03  0.12523400724E+04  0.00000000000E+00 0. -1.
</event>
<event>
 8    1  0.7446554E-006  0.1261226E+04  0.7818608E-02  0.8561831E-01
         -2   -1    0    0    0  501 -0.00000000000E+00  0.00000000000E+00  0.53137554610E+03  0.53137554610E+03  0.00000000000E+00 0.  1.
          2   -1    0    0  502    0  0.00000000000E+00 -0.00000000000E+00 -0.33241202667E+04  0.33241202667E+04  0.00000000000E+00 0. -1.
    9000010    2    1    2  502    0 -0.52089129078E+03 -0.56046477441E+03 -0.20071064311E+04  0.23719847386E+04  0.10061743756E+04 0.  0.
   -9000010    2    1    2    0  501  0.52089129078E+03  0.56046477441E+03 -0.78563828951E+03  0.14835110742E+04  0.99906410466E+03 0.  0.
        -13    1    3    3    0    0 -0.20025573389E+03  0.17705753776E+03 -0.12118368589E+04  0.12409674912E+04  0.10566000000E+00 0.  1.
         13    1    4    4    0    0  0.53458046270E+03  0.50002046101E+03 -0.10119114099E+04  0.12489040977E+04  0.10566000000E+00 0. -1.
          4    1    3    3  502    0 -0.32063555689E+03 -0.73752231217E+03 -0.79526957222E+03  0.11310172473E+04  0.00000000000E+00 0.  1.
         -4    1    4    4    0  501 -0.13689171929E+02  0.60444313408E+02  0.22627312037E+03  0.23460697656E+03  0.00000000000E+00 0. -1.
</event>
<event>
 8    1  0.7446554E-006  0.1153473E+04  0.7818608E-02  0.8642447E-01
          1   -1    0    0  502    0  0.00000000000E+00  0.00000000000E+00  0.89148355159E+03  0.89148355159E+03  0.00000000000E+00 0.  1.
         -1   -1    0    0    0  501 -0.00000000000E+00 -0.00000000000E+00 -0.14934978848E+04  0.14934978848E+04  0.00000000000E+00 0. -1.
    9000010    2    1    2  502    0  0.54965702082E+03 -0.28314786651E+03 -0.28969617582E+03  0.12139236063E+04  0.10036887429E+04 0.  0.
   -9000010    2    1    2    0  501 -0.54965702082E+03  0.28314786651E+03 -0.31231815738E+03  0.11710578301E+04  0.94421303487E+03 0.  0.
        -13    1    3    3    0    0  0.83104561082E+03 -0.32890522995E+03 -0.21998389397E+03  0.92043923337E+03  0.10566000000E+00 0.  1.
         13    1    4    4    0    0 -0.55039881086E+03 -0.20606089681E+03 -0.34372264158E+03  0.68084154522E+03  0.10566000000E+00 0. -1.
          4    1    3    3  502    0 -0.28138859000E+03  0.45757363432E+02 -0.69712281853E+02  0.29348437289E+03  0.00000000000E+00 0.  1.
         -4    1    4    4    0  501  0.74179004139E+00  0.48920876333E+03  0.31404484195E+02  0.49021628491E+03  0.00000000000E+00 0. -1.
</event>
<event>
 8    1  0.7446554E-006  0.1204717E+04  0.7818608E-02  0.8603019E-01
          1   -1    0    0  502    0  0.00000000000E+00  0.00000000000E+00  0.17062634775E+04  0.17062634775E+04  0.00000000000E+00 0.  1.
         -1   -1    0    0    0  501 -0.00000000000E+00 -0.00000000000E+00 -0.85973504616E+03  0.85973504616E+03  0.00000000000E+00 0. -1.
    9000010    2    1    2  502    0 -0.16827279653E+03  0.74564242339E+03  0.28548833699E+03  0.11859352561E+04  0.86060471963E+03 0.  0.
   -9000010    2    1    2    0  501  0.16827279653E+03 -0.74564242339E+03  0.56104009432E+03  0.13800632676E+04  0.10027513537E+04 0.  0.
        -13    1    3    3    0    0 -0.45431604225E+03  0.68410997679E+03  0.73265608256E+02  0.82448613518E+03  0.10566000000E+00 0.  1.
         13    1    4    4    0    0 -0.11518429657E+03  0.16496253089E+03  0.34935650912E+03  0.40315014622E+03  0.10566000000E+00 0. -1.
          4    1    3    3  502    0  0.28604324572E+03  0.61532446596E+02  0.21222272873E+03  0.36144912089E+03  0.00000000000E+00 0.  1.
         -4    1    4    4    0  501  0.28345709310E+03 -0.91060495428E+03  0.21168358520E+03  0.97691312133E+03  0.00000000000E+00 0. -1.
</event>
<event>
 8    1  0.7446554E-006  0.1021339E+04  0.7818608E-02  0.8754796E-01
         -2   -1    0    0    0  501 -0.00000000000E+00  0.00000000000E+00  0.79391639011E+03  0.79391639011E+03  0.00000000000E+00 0.  1.
          2   -1    0    0  502    0  0.00000000000E+00 -0.00000000000E+00 -0.14985215031E+04  0.14985215031E+04  0.00000000000E+00 0. -1.
    9000010    2    1    2  502    0  0.19214251702E+02 -0.14721730282E+03 -0.74822584965E+03  0.12507594029E+04  0.99121896675E+03 0.  0.
   -9000010    2    1    2    0  501 -0.19214251702E+02  0.14721730282E+03  0.43620736671E+02  0.10416784903E+04  0.10301209574E+04 0.  0.
        -13    1    3    3    0    0 -0.42849319073E+02 -0.51663791202E+03 -0.70294995913E+03  0.87343543121E+03  0.10566000000E+00 0.  1.
         13    1    4    4    0    0  0.85970397337E+02 -0.36146318729E+03  0.28560943263E+03  0.46863557713E+03  0.10566000000E+00 0. -1.
          4    1    3    3  502    0  0.62063570775E+02  0.36942060920E+03 -0.45275890521E+02  0.37732397165E+03  0.00000000000E+00 0.  1.
         -4    1    4    4    0  501 -0.10518464904E+03  0.50868049011E+03 -0.24198869596E+03  0.57304291322E+03  0.00000000000E+00 0. -1.
</event>
<event>
 7    1  0.7446554E-006  0.1186983E+04  0.7818608E-02  0.8616430E-01
          2   -1    0    0  502    0  0.00000000000E+00  0.00000000000E+00  0.11420301121E+04  0.11420301121E+04  0.00000000000E+00 0.  1.
         -2   -1    0    0    0  501 -0.00000000000E+00 -0.00000000000E+00 -0.12713932334E+04  0.12713932334E+04  0.00000000000E+00 0. -1.
    9000010    2    1    2  502    0  0.38198778395E+03 -0.76754025337E+03 -0.24600369945E+03  0.13249902955E+04  0.97982077720E+03 0.  0.
        -13    1    3    3    0    0  0.13975673321E+03 -0.62012230230E+03 -0.59816203498E+03  0.87285820472E+03  0.10566000000E+00 0.  1.
         13    1    1    2    0    0  0.16453307598E+03  0.35811127481E+03  0.94142312530E+02  0.40518835671E+03  0.10566000000E+00 0. -1.
          4    1    3    3  502    0  0.24223105075E+03 -0.14741795106E+03  0.35215833553E+03  0.45213209079E+03  0.00000000000E+00 0.  1.
         -4    1    1    2    0  501 -0.54652085994E+03  0.40942897855E+03  0.22498265618E+02  0.68324469320E+03  0.00000000000E+00 0. -1.
</event>
<event>
 8    1  0.7446554E-006  0.1115533E+04  0.7818608E-02  0.8673035E-01
          2   -1    0    0  502    0  0.00000000000E+00  0.00000000000E+00  0.18684148178E+04  0.18684148178E+04  0.00000000000E+00 0.  1.
         -2   -1    0    0    0  501 -0.00000000000E+00 -0.00000000000E+00 -0.71610457612E+03  0.71610457612E+03  0.00000000000E+00 0. -1.
    9000010    2    1    2  502    0 -0.16014331811E+03  0.42268718344E+03  0.23850261345E+03  0.11488087190E+04  0.10288671628E+04 0.  0.
   -9000010    2    1    2    0  501  0.16014331811E+03 -0.42268718344E+03  0.91380762826E+03  0.14357106750E+04  0.10108958519E+04 0.  0.
        -13    1    3    3    0    0 -0.40996032817E+03  0.44082682374E+03 -0.20794603566E+03  0.63689663535E+03  0.10566000000E+00 0.  1.
         13    1    4    4    0    0  0.34826472525E+03 -0.45287596290E+03  0.10541955436E+04  0.11990467931E+04  0.10566000000E+00 0. -1.
          4    1    3    3  502    0  0.24981701006E+03 -0.18139640297E+02  0.44644864911E+03  0.51191208362E+03  0.00000000000E+00 0.  1.
         -4    1    4    4    0  501 -0.18812140714E+03  0.30188779460E+02 -0.14038791534E+03  0.23666388192E+03  0.00000000000E+00 0. -1.
</event>
<event>
 8    1  0.7446554E-006  0.1111377E+04  0.7818608E-02  0.8676463E-01
         -2   -1    0    0    0  501 -0.00000000000E+00  0.00000000000E+00  0.81672723595E+03  0.81672723595E+03  0.00000000000E+00 0.  1.
          2   -1    0    0  502    0  0.00000000000E+00 -0.00000000000E+00 -0.16778694749E+04  0.16778694749E+04  0.00000000000E+00 0. -1.
    9000010    2    1    2  502    0 -0.41632273381E+03 -0.23243335133E+03 -0.37910782101E+02  0.11094855801E+04  0.10010849832E+04 0.  0.
   -9000010    2    1    2    0  501  0.41632273381E+03  0.23243335133E+03 -0.82323145682E+03  0.13851111307E+04  0.10067139273E+04 0.  0.
        -13    1    3    3    0    0 -0.35246952231E+03  0.34340120730E+03 -0.15988910601E+03  0.51742022643E+03  0.10566000000E+00 0.  1.
         13    1    4    4    0    0  0.49512297135E+02  0.59436778030E+03 -0.48476014630E+03  0.76858111897E+03  0.10566000000E+00 0. -1.
          4    1    3    3  502    0 -0.63853211502E+02 -0.57583455862E+03  0.12197832391E+03  0.59206535368E+03  0.00000000000E+00 0.  1.
         -4    1    4    4    0  501  0.36681043667E+03 -0.36193442898E+03 -0.33847131052E+03  0.61653001174E+03  0.00000000000E+00 0. -1.
</event>
<event>
 8    1  0.7446554E-006  0.1398279E+04  0.7818608E-02  0.8470557E-01
          2   -1    0    0  502    0  0.00000000000E+00  0.00000000000E+00  0.18826035211E+04  0.18826035211E+04  0.00000000000E+00 0.  1.
         -2   -1    0    0    0  501 -0.00000000000E+00 -0.00000000000E+00 -0.10606340247E+04  0.10606340247E+04  0.00000000000E+00 0. -1.
    9000010    2    1    2  502    0 -0.86346870869E+03 -0.39803866896E+03  0.61659870768E+03  0.15102317138E+04  0.99829498157E+03 0.  0.
   -9000010    2    1    2    0  501  0.86346870869E+03  0.39803866896E+03  0.20537078866E+03  0.14330058320E+04  0.10522906257E+04 0.  0.
        -13    1    3    3    0    0 -0.75935955126E+02 -0.35737795152E+03  0.62230509569E+03  0.72162934586E+03  0.10566000000E+00 0.  1.
         13    1    4    4    0    0  0.28172842864E+03  0.70589238242E+03  0.10922161149E+03  0.76784395202E+03  0.10566000000E+00 0. -1.
          4    1    3    3  502    0 -0.78753275357E+03 -0.40660717440E+02 -0.57063880115E+01  0.78860236796E+03  0.00000000000E+00 0.  1.
         -4    1    4    4    0  501  0.58174028005E+03 -0.30785371346E+03  0.96149177173E+02  0.66516188000E+03  0.00000000000E+00 0. -1.
</event>
<event>
 8    1  0.7446554E-006  0.9839251E+03  0.7818608E-02  0.8789843E-01
         -1   -1    0    0    0  501 -0.00000000000E+00  0.00000000000E+00  0.11026809069E+04  0.11026809069E+04  0.00000000000E+00 0. -1.
          1   -1    0    0  502    0  0.00000000000E+00 -0.00000000000E+00 -0.12008605996E+04  0.12008605996E+04  0.00000000000E+00 0.  1.
    9000010    2    1    2  502    0 -0.47781272258E+03 -0.10094008332E+03 -0.62893506797E+03  0.10805308155E+04  0.73040647950E+03 0.  0.
   -9000010    2    1    2    0  501  0.47781272258E+03  0.10094008332E+03  0.53075537520E+03  0.12230106910E+04  0.98770440095E+03 0.  0.
        -13    1    3    3    0    0  0.19268453063E+02  0.26197426075E+03 -0.20465726725E+03  0.33299608824E+03  0.10566000000E+00 0.  1.
         13    1    4    4    0    0  0.78675187918E+03  0.65491614391E+02  0.40825627269E+03  0.88878617580E+03  0.10566000000E+00 0. -1.
          4    1    3    3  502    0 -0.49708117564E+03 -0.36291434408E+03 -0.42427780072E+03  0.74753472729E+03  0.00000000000E+00 0.  1.
         -4    1    4    4    0  501 -0.30893915660E+03  0.35448468931E+02  0.12249910251E+03  0.33422451518E+03  0.00000000000E+00 0. -1.
</event>
<event>
 8    1  0.7446554E-006  0.1213342E+04  0.7818608E-02  0.8596582E-01
         -2   -1    0    0    0  501 -0.00000000000E+00  0.00000000000E+00  0.79375518866E+03  0.79375518866E+03  0.00000000000E+00 0.  1.
          2   -1    0    0  502    0  0.00000000000E+00 -0.00000000000E+00 -0.19489555462E+04  0.19489555462E+04  0.00000000000E+00 0. -1.
    9000010    2    1    2  502    0  0.65608826075E+03  0.25852853778E+02 -0.27739604070E+03  0.12474797770E+04  0.10237856488E+04 0.  0.
   -9000010    2    1    2    0  501 -0.65608826075E+03 -0.25852853778E+02 -0.87780431685E+03  0.14952309579E+04  0.10168849604E+04 0.  0.
        -13    1    3    3    0    0  0.89450104592E+03 -0.17476660291E+02 -0.39516876187E+03  0.97805721526E+03  0.10566000000E+00 0.  1.
         13    1    4    4    0    0 -0.23434945174E+03 -0.20612896115E+03  0.16715394375E+03  0.35404698308E+03  0.10566000000E+00 0. -1.
          4    1    3    3  502    0 -0.23841278517E+03  0.43329514069E+02  0.11777272117E+03  0.26942256174E+03  0.00000000000E+00 0.  1.
         -4    1    4    4    0  501 -0.42173880901E+03  0.18027610737E+03 -0.10449582606E+04  0.11411839748E+04  0.00000000000E+00 0. -1.
</event>
<event>
 8    1  0.7446554E-006  0.1281276E+04  0.7818608E-02  0.8547750E-01
         -2   -1    0    0    0  501 -0.00000000000E+00  0.00000000000E+00  0.15177591202E+04  0.15177591202E+04  0.00000000000E+00 0.  1.
          2   -1    0    0  502    0  0.00000000000E+00 -0.00000000000E+00 -0.11241279686E+04  0.11241279686E+04  0.00000000000E+00 0. -1.
    9000010    2    1    2  502    0  0.76732835286E+03  0.33112847680E+03 -0.58942513559E+02  0.12891697827E+04  0.97981918714E+03 0.  0.
   -9000010    2    1    2    0  501 -0.76732835286E+03 -0.33112847680E+03  0.45257366519E+03  0.13527173060E+04  0.96259145974E+03 0.  0.
        -13    1    3    3    0    0  0.47936898851E+03 -0.23376621732E+03 -0.29872153055E+03  0.61129030377E+03  0.10566000000E+00 0.  1.
         13    1    4    4    0    0 -0.42699180753E+03  0.32368265317E+03  0.21658697301E+03  0.57792940028E+03  0.10566000000E+00 0. -1.
          4    1    3    3  502    0  0.28795936435E+03  0.56489469413E+03  0.23977901699E+03  0.67787947893E+03  0.00000000000E+00 0.  1.
         -4    1    4    4    0  501 -0.34033654533E+03 -0.65481112997E+03  0.23598669218E+03  0.77478790576E+03  0.00000000000E+00 0. -1.
</event>
<event>
 8    1  0.7446554E-006  0.1055115E+04  0.7818608E-02  0.8724461E-01
         -1   -1    0    0    0  501 -0.00000000000E+00  0.00000000000E+00  0.12847218324E+04  0.12847218324E+04  0.00000000000E+00 0.  1.
          1   -1    0    0  502    0  0.00000000000E+00 -0.00000000000E+00 -0.12017976399E+04  0.12017976399E+04  0.00000000000E+00 0. -1.
    9000010    2    1    2  502    0 -0.20242130097E+03 -0.19650940027E+03  0.69640820243E+03  0.12398779737E+04  0.98626704180E+03 0.  0.
   -9000010    2    1    2    0  501  0.20242130097E+03  0.19650940027E+03 -0.61348400996E+03  0.12466414986E+04  0.10479322822E+04 0.  0.
        -13    1    3    3    0    0 -0.16991828672E+03 -0.45019206460E+03  0.82388492532E+03  0.95411293908E+03  0.10566000000E+00 0.  1.
         13    1    4    4    0    0 -0.40642702754E+03  0.24452390890E+03 -0.27973543593E+03  0.55066032726E+03  0.10566000000E+00 0. -1.
          4    1    3    3  502    0 -0.32503014247E+02  0.25368266433E+03 -0.12747672289E+03  0.28576503460E+03  0.00000000000E+00 0.  1.
         -4    1    4    4    0  501  0.60884832851E+03 -0.48014508633E+02 -0.33374857403E+03  0.69598117132E+03  0.00000000000E+00 0. -1.
</event>
<event>
 8    1  0.7446554E-006  0.1500763E+04  0.7818608E-02  0.8409060E-01
         -1   -1    0    0    0  501 -0.00000000000E+00  0.00000000000E+00  0.26881030147E+04  0.26881030147E+04  0.00000000000E+00 0. -1.
          1   -1    0    0  502    0  0.00000000000E+00 -0.00000000000E+00 -0.93659034495E+03  0.93659034495E+03  0.00000000000E+00 0.  1.
    9000010    2    1    2  502    0  0.11162910957E+04  0.24085274982E+03  0.29509641739E+03  0.15436203015E+04  0.99577401162E+03 0.  0.
   -9000010    2    1    2    0  501 -0.11162910957E+04 -0.24085274982E+03  0.14564162524E+04  0.20810730582E+04  0.95163066141E+03 0.  0.
        -13    1    3    3    0    0 -0.15674794706E+03  0.18100601158E+03  0.23836734656E+02  0.24062688174E+03  0.10566000000E+00 0.  1.
         13    1    4    4    0    0 -0.46529471077E+03 -0.41835099805E+03  0.20343135551E+03  0.65795216621E+03  0.10566000000E+00 0. -1.
          4    1    3    3  502    0  0.12730390428E+04  0.59846738238E+02  0.27125968274E+03  0.13029934198E+04  0.00000000000E+00 0.  1.
         -4    1    4    4    0  501 -0.65099638494E+03  0.17749824824E+03  0.12529848969E+04  0.14231208919E+04  0.00000000000E+00 0. -1.
</event>
<event>
 8    1  0.7446554E-006  0.1327138E+04  0.7818608E-02  0.8516519E-01
          2   -1    0    0  502    0  0.00000000000E+00  0.00000000000E+00  0.22462682100E+04  0.22462682100E+04  0.00000000000E+00 0.  1.
         -2   -1    0    0    0  501 -0.00000000000E+00 -0.00000000000E+00 -0.79245133884E+03  0.79245133884E+03  0.00000000000E+00 0. -1.
    9000010    2    1    2  502    0  0.51065956781E+03  0.71742691198E+03  0.88335530793E+03  0.15949472636E+04  0.99401489188E+03 0.  0.
   -9000010    2    1    2    0  501 -0.51065956781E+03 -0.71742691198E+03  0.57046156326E+03  0.14437722853E+04  0.99175473202E+03 0.  0.
        -13    1    3    3    0    0 -0.16506949555E+02  0.69842315425E+03  0.79796254379E+03  0.10605713622E+04  0.10566000000E+00 0.  1.
         13    1    4    4    0    0 -0.57494655265E+03 -0.70741265733E+03  0.43307217613E+02  0.91261806492E+03  0.10566000000E+00 0. -1.
          4    1    3    3  502    0  0.52716651737E+03  0.19003757730E+02  0.85392764147E+02  0.53437590141E+03  0.00000000000E+00 0.  1.
         -4    1    4    4    0  501  0.64286984840E+02 -0.10014254648E+02  0.52715434565E+03  0.53115422041E+03  0.00000000000E+00 0. -1.
</event>
<event>
 8    1  0.7446554E-006  0.1149546E+04  0.7818608E-02  0.8645556E-01
          2   -1    0    0  502    0  0.00000000000E+00  0.00000000000E+00  0.15690683994E+04  0.15690683994E+04  0.00000000000E+00 0. -1.
         -2   -1    0    0    0  501 -0.00000000000E+00 -0.00000000000E+00 -0.10838251223E+04  0.10838251223E+04  0.00000000000E+00 0.  1.
    9000010    2    1    2  502    0 -0.56993794538E+03  0.15220936061E+03 -0.38639095216E+03  0.11952588067E+04  0.96506408912E+03 0.  0.
   -9000010    2    1    2    0  501  0.56993794538E+03 -0.15220936061E+03  0.87163422927E+03  0.14576347149E+04  0.10084422549E+04 0.  0.
        -13    1    3    3    0    0 -0.33803530033E+03 -0.24808173940E+03 -0.56135370327E+03  0.70066425985E+03  0.10566000000E+00 0.  1.
         13    1    4    4    0    0  0.27472911803E+03  0.19918395115E+03 -0.12402594851E+03  0.36129320746E+03  0.10566000000E+00 0. -1.
          4    1    3    3  502    0 -0.23190264505E+03  0.40029110001E+03  0.17496275111E+03  0.49459454688E+03  0.00000000000E+00 0.  1.
         -4    1    4    4    0  501  0.29520882735E+03 -0.35139331176E+03  0.99566017778E+03  0.10963415074E+04  0.00000000000E+00 0. -1.
</event>
<event>
 8    1  0.7446554E-006  0.1229087E+04  0.7818608E-02  0.8584975E-01
          2   -1    0    0  502    0  0.00000000000E+00  0.00000000000E+00  0.22707846666E+04  0.22707846666E+04  0.00000000000E+00 0. -1.
         -2   -1    0    0    0  501 -0.00000000000E+00 -0.00000000000E+00 -0.67108820209E+03  0.67108820209E+03  0.00000000000E+00 0.  1.
    9000010    2    1    2  502    0 -0.50443255309E+03 -0.55294557376E+03  0.65390233711E+03  0.13784675657E+04  0.95518770678E+03 0.  0.
   -9000010    2    1    2    0  501  0.50443255309E+03  0.55294557376E+03  0.94579412738E+03  0.15634053029E+04  0.99474046951E+03 0.  0.
        -13    1    3    3    0    0  0.89530363655E+02 -0.55307651888E+03  0.53099195531E+03  0.77192084407E+03  0.10566000000E+00 0.  1.
         13    1    4    4    0    0  0.18648800704E+03  0.25261909932E+02  0.92820136547E+03  0.94708696902E+03  0.10566000000E+00 0. -1.
          4    1    3    3  502    0 -0.59396291675E+03  0.13094512479E+00  0.12291038180E+03  0.60654672167E+03  0.00000000000E+00 0.  1.
         -4    1    4    4    0  501  0.31794454606E+03  0.52768366382E+03  0.17592761906E+02  0.61631833390E+03  0.00000000000E+00 0. -1.
</event>
<event>
 8    1  0.7446554E-006  0.1215563E+04  0.7818608E-02  0.8594934E-01
          1   -1    0    0  502    0  0.00000000000E+00  0.00000000000E+00  0.56943367538E+03  0.56943367538E+03  0.00000000000E+00 0.  1.
         -1   -1    0    0    0  501 -0.00000000000E+00 -0.00000000000E+00 -0.28899563103E+04  0.28899563103E+04  0.00000000000E+00 0. -1.
    9000010    2    1    2  502    0 -0.30152591584E+03  0.70838132060E+03 -0.66842378858E+03  0.14438513369E+04  0.10223474696E+04 0.  0.
   -9000010    2    1    2    0  501  0.30152591584E+03 -0.70838132060E+03 -0.16520988463E+04  0.20155386488E+04  0.86037403114E+03 0.  0.
        -13    1    3    3    0    0 -0.66450681212E+03  0.43872286065E+03 -0.57484212904E+03  0.98208479078E+03  0.10566000000E+00 0.  1.
         13    1    4    4    0    0  0.56514270226E+02 -0.23268915114E+03 -0.14065807201E+04  0.14268172402E+04  0.10566000000E+00 0. -1.
          4    1    3    3  502    0  0.36298089628E+03  0.26965845995E+03 -0.93581659543E+02  0.46176654609E+03  0.00000000000E+00 0.  1.
         -4    1    4    4    0  501  0.24501164561E+03 -0.47569216946E+03 -0.24551812625E+03  0.58872140855E+03  0.00000000000E+00 0. -1.
</event>
<event>
 8    1  0.7446554E-006  0.1208201E+04  0.7818608E-02  0.8600412E-01
         -2   -1    0    0    0  501 -0.00000000000E+00  0.00000000000E+00  0.41679580259E+04  0.41679580259E+04  0.00000000000E+00 0. -1.
          2   -1    0    0  502    0  0.00000000000E+00 -0.00000000000E+00 -0.42841059432E+03  0.42841059432E+03  0.00000000000E+00 0.  1.
    9000010    2    1    2  502    0 -0.44848951881E+03 -0.61048613770E+03  0.93851666904E+03  0.15604441203E+04  0.99011925638E+03 0.  0.
   -9000010    2    1    2    0  501  0.44848951881E+03  0.61048613770E+03  0.28010307625E+04  0.30359244998E+04  0.89287628672E+03 0.  0.
        -13    1    3    3    0    0 -0.51260941157E+03 -0.50630700182E+03  0.11707835291E+03  0.72994694383E+03  0.10566000000E+00 0.  1.
         13    1    4    4    0    0 -0.13271101678E+03 -0.62325938155E+02  0.67442417542E+02  0.16138533821E+03  0.10566000000E+00 0. -1.
          4    1    3    3  502    0  0.64119892754E+02 -0.10417913588E+03  0.82143831613E+03  0.83049717652E+03  0.00000000000E+00 0.  1.
         -4    1    4    4    0  501  0.58120053559E+03  0.67281207585E+03  0.27335883450E+04  0.28745391616E+04  0.00000000000E+00 0. -1.
</event>
<event>
 8    1  0.7446554E-006  0.1162594E+04  0.7818608E-02  0.8635275E-01
         -1   -1    0    0    0  501 -0.00000000000E+00  0.00000000000E+00  0.64657047222E+03  0.64657047222E+03  0.00000000000E+00 0. -1.
          1   -1    0    0  502    0  0.00000000000E+00 -0.00000000000E+00 -0.21927326129E+04  0.21927326129E+04  0.00000000000E+00 0.  1.
    9000010    2    1    2  502    0 -0.52063715258E+03  0.27798957165E+03 -0.10773615364E+04  0.15823798879E+04  0.99743520240E+03 0.  0.
   -9000010    2    1    2    0  501  0.52063715258E+03 -0.27798957165E+03 -0.46880060434E+03  0.12569231973E+04  0.10058532053E+04 0.  0.
        -13    1    3    3    0    0 -0.12050112317E+03 -0.18958241599E+03  0.10612828746E+03  0.24844564335E+03  0.10566000000E+00 0.  1.
         13    1    4    4    0    0 -0.17965068093E+02 -0.53066514609E+03 -0.58393097259E+02  0.53417039035E+03  0.10566000000E+00 0. -1.
          4    1    3    3  502    0 -0.40013602941E+03  0.46757198764E+03 -0.11834898238E+04  0.13339342446E+04  0.00000000000E+00 0.  1.
         -4    1    4    4    0  501  0.53860222067E+03  0.25267557444E+03 -0.41040750709E+03  0.72275280691E+03  0.00000000000E+00 0. -1.
</event>
<event>
 8    1  0.7446554E-006  0.1355352E+04  0.7818608E-02  0.8497944E-01
         -2   -1    0    0    0  501 -0.00000000000E+00  0.00000000000E+00  0.12823783327E+04  0.12823783327E+04  0.00000000000E+00 0.  1.
          2   -1    0    0  502    0  0.00000000000E+00 -0.00000000000E+00 -0.16798555006E+04  0.16798555006E+04  0.00000000000E+00 0. -1.
    9000010    2    1    2  502    0  0.77823524328E+03  0.43458201053E+03  0.37055647203E+03  0.13975075714E+04  0.10105462361E+04 0.  0.
   -9000010    2    1    2    0  501 -0.77823524328E+03 -0.43458201053E+03 -0.76803363990E+03  0.15647262620E+04  0.10314945395E+04 0.  0.
        -13    1    3    3    0    0  0.71588097663E+03  0.71493171377E+03  0.12459767049E+03  0.10193809488E+04  0.10566000000E+00 0.  1.
         13    1    4    4    0    0 -0.56534226691E+03  0.27049408192E+03 -0.35815010959E+03  0.72183823622E+03  0.10566000000E+00 0. -1.
          4    1    3    3  502    0  0.62354266649E+02 -0.28034970324E+03  0.24595880154E+03  0.37812662262E+03  0.00000000000E+00 0.  1.
         -4    1    4    4    0  501 -0.21289297637E+03 -0.70507609244E+03 -0.40988353031E+03  0.84288802574E+03  0.00000000000E+00 0. -1.
</event>
<event>
 8    1  0.7446554E-006  0.1603610E+04  0.7818608E-02  0.8352246E-01
         -2   -1    0    0    0  501 -0.00000000000E+00  0.00000000000E+00  0.11744448452E+04  0.11744448452E+04  0.00000000000E+00 0.  1.
          2   -1    0    0  502    0  0.00000000000E+00 -0.00000000000E+00 -0.21957591113E+04  0.21957591113E+04  0.00000000000E+00 0. -1.
    9000010    2    1    2  502    0 -0.61156694488E+03 -0.10744720714E+04 -0.59871276580E+03  0.17084453200E+04  0.10157874163E+04 0.  0.
   -9000010    2    1    2    0  501  0.61156694488E+03  0.10744720714E+04 -0.42260150036E+03  0.16617586366E+04  0.10268132147E+04 0.  0.
        -13    1    3    3    0    0  0.24283266601E+03 -0.31309491154E+03 -0.36850449398E+03  0.54110230138E+03  0.10566000000E+00 0.  1.
         13    1    4    4    0    0  0.33789159900E+03 -0.20402581780E+02 -0.41189702372E+03  0.53314741614E+03  0.10566000000E+00 0. -1.
          4    1    3    3  502    0 -0.85439961089E+03 -0.76137715984E+03 -0.23020827183E+03  0.11673430186E+04  0.00000000000E+00 0.  1.
         -4    1    4    4    0  501  0.27367534587E+03  0.10948746532E+04 -0.10704476642E+02  0.11286112204E+04  0.00000000000E+00 0. -1.
</event>
<event>
 8    1  0.7446554E-006  0.1220278E+04  0.7818608E-02  0.8591447E-01
         -2   -1    0    0    0  501 -0.00000000000E+00  0.00000000000E+00  0.11766600516E+04  0.11766600516E+04  0.00000000000E+00 0. -1.
          2   -1    0    0  502    0  0.00000000000E+00 -0.00000000000E+00 -0.12825830594E+04  0.12825830594E+04  0.00000000000E+00 0.  1.
    9000010    2    1    2  502    0  0.63416698384E+03  0.34707498198E+03 -0.19493653738E+03  0.12430860458E+04  0.99228718476E+03 0.  0.
   -9000010    2    1    2    0  501 -0.63416698384E+03 -0.34707498198E+03  0.89013529588E+02  0.12161570652E+04  0.97390235248E+03 0.  0.
        -13    1    3    3    0    0  0.17847319428E+02 -0.14220414191E+03 -0.40416621191E+03  0.42882500253E+03  0.10566000000E+00 0.  1.
         13    1    4    4    0    0  0.95024370628E+02  0.23498241914E+03  0.12465920678E+03  0.28246468331E+03  0.10566000000E+00 0. -1.
          4    1    3    3  502    0  0.61631966441E+03  0.48927912389E+03  0.20922967453E+03  0.81426104322E+03  0.00000000000E+00 0.  1.
         -4    1    4    4    0  501 -0.72919135447E+03 -0.58205740111E+03 -0.35645677192E+02  0.93369238185E+03  0.00000000000E+00 0. -1.
</event>
<event>
 8    1  0.7446554E-006  0.1129427E+04  0.7818608E-02  0.8661689E-01
          2   -1    0    0  502    0  0.00000000000E+00  0.00000000000E+00  0.72168548319E+03  0.72168548319E+03  0.00000000000E+00 0. -1.
         -2   -1    0    0    0  501 -0.00000000000E+00 -0.00000000000E+00 -0.21451716934E+04  0.21451716934E+04  0.00000000000E+00 0.  1.
    9000010    2    1    2  502    0 -0.31908220078E+03 -0.55852753053E+03 -0.13411239669E+04  0.17964391253E+04  0.10073795626E+04 0.  0.
   -9000010    2    1    2    0  501  0.31908220078E+03  0.55852753053E+03 -0.82362243376E+02  0.10704180513E+04  0.85161306487E+03 0.  0.
        -13    1    3    3    0    0 -0.22735742141E+03  0.15571778749E+03 -0.92405333612E+03  0.96426863765E+03  0.10566000000E+00 0.  1.
         13    1    4    4    0    0  0.26632114555E+03  0.67090017550E+02  0.32814806131E+03  0.42791258959E+03  0.10566000000E+00 0. -1.
          4    1    3    3  502    0 -0.91724779363E+02 -0.71424531802E+03 -0.41707063074E+03  0.83217048763E+03  0.00000000000E+00 0.  1.
         -4    1    4    4    0  501  0.52761055224E+02  0.49143751298E+03 -0.41051030468E+03  0.64250546174E+03  0.00000000000E+00 0. -1.
</event>
<event>
 8    1  0.7446554E-006  0.1307504E+04  0.7818608E-02  0.8529727E-01
         -2   -1    0    0    0  501 -0.00000000000E+00  0.00000000000E+00  0.10700427788E+04  0.10700427788E+04  0.00000000000E+00 0. -1.
          2   -1    0    0  502    0  0.00000000000E+00 -0.00000000000E+00 -0.24826822004E+04  0.24826822004E+04  0.00000000000E+00 0.  1.
    9000010    2    1    2  502    0 -0.37662681860E+03  0.75255066635E+03 -0.17683210317E+04  0.22016507401E+04  0.10060449514E+04 0.  0.
   -9000010    2    1    2    0  501  0.37662681860E+03 -0.75255066635E+03  0.35568161008E+03  0.13510742391E+04  0.99534512903E+03 0.  0.
        -13    1    3    3    0    0 -0.14625489817E+03 -0.17962208900E+03 -0.55738451053E+02  0.23824646101E+03  0.10566000000E+00 0.  1.
         13    1    4    4    0    0 -0.17233227818E+03 -0.71819841095E+03  0.30371258359E+03  0.79859170806E+03  0.10566000000E+00 0. -1.
          4    1    3    3  502    0 -0.23037192044E+03  0.93217275536E+03 -0.17125825807E+04  0.19634042791E+04  0.00000000000E+00 0.  1.
         -4    1    4    4    0  501  0.54895909678E+03 -0.34352255408E+02  0.51969026496E+02  0.55248253104E+03  0.00000000000E+00 0. -1.
</event>
<event>
 8    1  0.7446554E-006  0.1762644E+04  0.7818608E-02  0.8272542E-01
          2   -1    0    0  502    0  0.00000000000E+00  0.00000000000E+00  0.21952123123E+04  0.21952123123E+04  0.00000000000E+00 0. -1.
         -2   -1    0    0    0  501 -0.00000000000E+00 -0.00000000000E+00 -0.19227042544E+04  0.19227042544E+04  0.00000000000E+00 0.  1.
    9000010    2    1    2  502    0  0.43852387704E+02 -0.14748782062E+04  0.11946010620E+04  0.21402963148E+04  0.98823472044E+03 0.  0.
   -9000010    2    1    2    0  501 -0.43852387704E+02  0.14748782062E+04 -0.92209300420E+03  0.19776202519E+04  0.93996680642E+03 0.  0.
        -13    1    3    3    0    0  0.37751681684E+03 -0.11539082375E+04  0.51690809263E+03  0.13195518766E+04  0.10566000000E+00 0.  1.
         13    1    4    4    0    0  0.25472792690E+03  0.37569680571E+03  0.79557715587E+02  0.46082952144E+03  0.10566000000E+00 0. -1.
          4    1    3    3  502    0 -0.33366442914E+03 -0.32096996869E+03  0.67769296941E+03  0.82074443821E+03  0.00000000000E+00 0.  1.
         -4    1    4    4    0  501 -0.29858031460E+03  0.10991814005E+04 -0.10016507198E+04  0.15167907304E+04  0.00000000000E+00 0. -1.
</event>
<event>
 8    1  0.7446554E-006  0.2446524E+04  0.7818608E-02  0.8007536E-01
         -2   -1    0    0    0  501 -0.00000000000E+00  0.00000000000E+00  0.36226185329E+04  0.36226185329E+04  0.00000000000E+00 0. -1.
          2   -1    0    0  502    0  0.00000000000E+00 -0.00000000000E+00 -0.33105769475E+04  0.33105769475E+04  0.00000000000E+00 0.  1.
    9000010    2    1    2  502    0 -0.21353843897E+04  0.63786109409E+03  0.26097380623E+04  0.35821762851E+04  0.10268986885E+04 0.  0.
   -9000010    2    1    2    0  501  0.21353843897E+04 -0.63786109409E+03 -0.22976964769E+04  0.33510191952E+04  0.99155800625E+03 0.  0.
        -13    1    3    3    0    0 -0.98908688313E+03  0.74058060226E+03  0.93228969658E+03  0.15478748594E+04  0.10566000000E+00 0.  1.
         13    1    4    4    0    0  0.18771785331E+03  0.15114752121E+03 -0.60969210356E+03  0.65559746638E+03  0.10566000000E+00 0. -1.
          4    1    3    3  502    0 -0.11462975066E+04 -0.10271950817E+03  0.16774483657E+04  0.20343014257E+04  0.00000000000E+00 0.  1.
         -4    1    4    4    0  501  0.19476665364E+04 -0.78900861530E+03 -0.16880043734E+04  0.26954217289E+04  0.00000000000E+00 0. -1.
</event>
<event>
 8    1  0.7446554E-006  0.1444507E+04  0.7818608E-02  0.8442170E-01
         -2   -1    0    0    0  501 -0.00000000000E+00  0.00000000000E+00  0.73844745377E+03  0.73844745377E+03  0.00000000000E+00 0. -1.
          2   -1    0    0  502    0  0.00000000000E+00 -0.00000000000E+00 -0.28869063635E+04  0.28869063635E+04  0.00000000000E+00 0.  1.
    9000010    2    1    2  502    0 -0.94546225785E+03  0.44420867196E+03 -0.80660658976E+03  0.16500605391E+04  0.99038647346E+03 0.  0.
   -9000010    2    1    2    0  501  0.94546225785E+03 -0.44420867196E+03 -0.13418523200E+04  0.19752932782E+04  0.10049854033E+04 0.  0.
        -13    1    3    3    0    0 -0.20808629650E+03  0.54387519325E+03 -0.43052254545E+02  0.58391235679E+03  0.10566000000E+00 0.  1.
         13    1    4    4    0    0  0.47431185641E+03  0.11736555937E+03 -0.10995788183E+04  0.12032539219E+04  0.10566000000E+00 0. -1.
          4    1    3    3  502    0 -0.73737596135E+03 -0.99666521290E+02 -0.76355433522E+03  0.10661481823E+04  0.00000000000E+00 0.  1.
         -4    1    4    4    0  501  0.47115040144E+03 -0.56157423134E+03 -0.24227350167E+03  0.77203935631E+03  0.00000000000E+00 0. -1.
</event>
<event>
 8    1  0.7446554E-006  0.1284731E+04  0.7818608E-02  0.8545351E-01
          2   -1    0    0  502    0  0.00000000000E+00  0.00000000000E+00  0.31645460660E+04  0.31645460660E+04  0.00000000000E+00 0. -1.
         -2   -1    0    0    0  501 -0.00000000000E+00 -0.00000000000E+00 -0.52248792303E+03  0.52248792303E+03  0.00000000000E+00 0.  1.
    9000010    2    1    2  502    0  0.79007967212E+03  0.11935441040E+03  0.13906721226E+04  0.18886703174E+04  0.99731401856E+03 0.  0.
   -9000010    2    1    2    0  501 -0.79007967212E+03 -0.11935441040E+03  0.12513860203E+04  0.17983636716E+04  0.10147283183E+04 0.  0.
        -13    1    3    3    0    0  0.49909650470E+03  0.51100258714E+03  0.49605081193E+03  0.86964785071E+03  0.10566000000E+00 0.  1.
         13    1    4    4    0    0  0.85454532120E+02 -0.77067536249E+02 -0.12287851669E+03  0.16834792315E+03  0.10566000000E+00 0. -1.
          4    1    3    3  502    0  0.29098316743E+03 -0.39164817674E+03  0.89462131070E+03  0.10190224667E+04  0.00000000000E+00 0.  1.
         -4    1    4    4    0  501 -0.87553420424E+03 -0.42286874151E+02  0.13742645370E+04  0.16300157485E+04  0.00000000000E+00 0. -1.
</event>
<event>
 8    1  0.7446554E-006  0.1190946E+04  0.7818608E-02  0.8613412E-01
         -1   -1    0    0    0  501 -0.00000000000E+00  0.00000000000E+00  0.80616981408E+03  0.80616981408E+03  0.00000000000E+00 0.  1.
          1   -1    0    0  502    0  0.00000000000E+00 -0.00000000000E+00 -0.21724543143E+04  0.21724543143E+04  0.00000000000E+00 0. -1.
    9000010    2    1    2  502    0 -0.13114418351E+03 -0.56831757376E+03 -0.13436338302E+04  0.18126183857E+04  0.10677311838E+04 0.  0.
   -9000010    2    1    2    0  501  0.13114418351E+03  0.56831757376E+03 -0.22650670065E+02  0.11660057427E+04  0.10093922318E+04 0.  0.
        -13    1    3    3    0    0 -0.34986148847E+03  0.14973227259E+03 -0.16394042315E+03  0.41436612805E+03  0.10566000000E+00 0.  1.
         13    1    4    4    0    0  0.44165235519E+03  0.39743899226E+03  0.31844690159E+03  0.67410903844E+03  0.10566000000E+00 0. -1.
          4    1    3    3  502    0  0.21871730497E+03 -0.71804984635E+03 -0.11796934070E+04  0.13982522576E+04  0.00000000000E+00 0.  1.
         -4    1    4    4    0  501 -0.31050817168E+03  0.17087858150E+03 -0.34109757165E+03  0.49189670428E+03  0.00000000000E+00 0. -1.
</event>
<event>
 8    1  0.7446554E-006  0.1482421E+04  0.7818608E-02  0.8419688E-01
          1   -1    0    0  502    0  0.00000000000E+00  0.00000000000E+00  0.52903992109E+03  0.52903992109E+03  0.00000000000E+00 0. -1.
         -1   -1    0    0    0  501 -0.00000000000E+00 -0.00000000000E+00 -0.41542093748E+04  0.41542093748E+04  0.00000000000E+00 0.  1.
    9000010    2    1    2  502    0  0.10753695351E+04 -0.26818192193E+03 -0.17866012820E+04  0.23169133225E+04  0.97355124314E+03 0.  0.
   -9000010    2    1    2    0  501 -0.10753695351E+04  0.26818192193E+03 -0.18385681717E+04  0.23663359734E+04  0.99542545501E+03 0.  0.
        -13    1    3    3    0    0  0.98231603522E+03  0.23060342642E+02 -0.17526425868E+04  0.20092865950E+04  0.10566000000E+00 0.  1.
         13    1    4    4    0    0 -0.36664020031E+03 -0.37252229991E+03 -0.79543015392E+03  0.95179149047E+03  0.10566000000E+00 0. -1.
          4    1    3    3  502    0  0.93053499878E+02 -0.29124226458E+03 -0.33958695144E+02  0.30762672753E+03  0.00000000000E+00 0.  1.
         -4    1    4    4    0  501 -0.70872933479E+03  0.64070422184E+03 -0.10431380178E+04  0.14145444829E+04  0.00000000000E+00 0. -1.
</event>
<event>
 8    1  0.7446554E-006  0.1526537E+04  0.7818608E-02  0.8394389E-01
          1   -1    0    0  502    0  0.00000000000E+00  0.00000000000E+00  0.12548310821E+04  0.12548310821E+04  0.00000000000E+00 0. -1.
         -1   -1    0    0    0  501 -0.00000000000E+00 -0.00000000000E+00 -0.21362106185E+04  0.21362106185E+04  0.00000000000E+00 0.  1.
    9000010    2    1    2  502    0 -0.91984865573E+03 -0.68645409376E+03 -0.10524603386E+04  0.18505462509E+04  0.99975391471E+03 0.  0.
   -9000010    2    1    2    0  501  0.91984865573E+03  0.68645409376E+03  0.17108080227E+03  0.15404954497E+04  0.10131716624E+04 0.  0.
        -13    1    3    3    0    0 -0.44710769764E+03  0.17402056041E+03 -0.11564825187E+03  0.49352100063E+03  0.10566000000E+00 0.  1.
         13    1    4    4    0    0  0.86560612238E+03  0.90316653384E+03  0.29461513614E+03  0.12852166497E+04  0.10566000000E+00 0. -1.
          4    1    3    3  502    0 -0.47274095809E+03 -0.86047465417E+03 -0.93681208675E+03  0.13570252502E+04  0.00000000000E+00 0.  1.
         -4    1    4    4    0  501  0.54242533348E+02 -0.21671244008E+03 -0.12353433387E+03  0.25527880005E+03  0.00000000000E+00 0. -1.
</event>
<event>
 8    1  0.7446554E-006  0.1290106E+04  0.7818608E-02  0.8541633E-01
          2   -1    0    0  502    0  0.00000000000E+00  0.00000000000E+00  0.19810908792E+04  0.19810908792E+04  0.00000000000E+00 0.  1.
         -2   -1    0    0    0  501 -0.00000000000E+00 -0.00000000000E+00 -0.84361637066E+03  0.84361637066E+03  0.00000000000E+00 0. -1.
    9000010    2    1    2  502    0 -0.55194657209E+03 -0.59424672325E+03  0.48206884494E+03  0.13850735606E+04  0.10140336338E+04 0.  0.
   -9000010    2    1    2    0  501  0.55194657209E+03  0.59424672325E+03  0.65540566363E+03  0.14396336893E+04  0.99257966378E+03 0.  0.
        -13    1    3    3    0    0  0.27825876993E+03 -0.27860936741E+03  0.25227170031E+03  0.46764531923E+03  0.10566000000E+00 0.  1.
         13    1    4    4    0    0  0.55408962089E+03  0.83275264035E+03  0.36716688249E+03  0.10655063579E+04  0.10566000000E+00 0. -1.
          4    1    3    3  502    0 -0.83020534202E+03 -0.31563735584E+03  0.22979714463E+03  0.91742824134E+03  0.00000000000E+00 0.  1.
         -4    1    4    4    0  501 -0.21430488004E+01 -0.23850591710E+03  0.28823878114E+03  0.37412733140E+03  0.00000000000E+00 0. -1.
</event>
<event>
 8    1  0.7446554E-006  0.1305378E+04  0.7818608E-02  0.8531172E-01
          2   -1    0    0  502    0  0.00000000000E+00  0.00000000000E+00  0.28299822173E+04  0.28299822173E+04  0.00000000000E+00 0. -1.
         -2   -1    0    0    0  501 -0.00000000000E+00 -0.00000000000E+00 -0.63098861972E+03  0.63098861972E+03  0.00000000000E+00 0.  1.
    9000010    2    1    2  502    0 -0.74437889252E+03  0.34700140929E+03  0.14818721783E+04  0.19855356458E+04  0.10353244584E+04 0.  0.
   -9000010    2    1    2    0  501  0.74437889252E+03 -0.34700140929E+03  0.71712141928E+03  0.14754351912E+04  0.99405028034E+03 0.  0.
        -13    1    3    3    0    0 -0.40423813805E+03  0.35887717044E+03  0.84265879122E+02  0.54708504391E+03  0.10566000000E+00 0.  1.
         13    1    4    4    0    0 -0.15899591085E+02 -0.51066908966E+03  0.25862329447E+03  0.57264451079E+03  0.10566000000E+00 0. -1.
          4    1    3    3  502    0 -0.34014075447E+03 -0.11875761152E+02  0.13976062992E+04  0.14384506019E+04  0.00000000000E+00 0.  1.
         -4    1    4    4    0  501  0.76027848360E+03  0.16366768037E+03  0.45849812482E+03  0.90279068044E+03  0.00000000000E+00 0. -1.
</event>
<event>
 8    1  0.7446554E-006  0.1214948E+04  0.7818608E-02  0.8595391E-01
          1   -1    0    0  502    0  0.00000000000E+00  0.00000000000E+00  0.21530802596E+04  0.21530802596E+04  0.00000000000E+00 0.  1.
         -1   -1    0    0    0  501 -0.00000000000E+00 -0.00000000000E+00 -0.68591859161E+03  0.68591859161E+03  0.00000000000E+00 0. -1.
    9000010    2    1    2  502    0 -0.45311446184E+03  0.46716703844E+03  0.71363615559E+03  0.13860550682E+04  0.99413999628E+03 0.  0.
   -9000010    2    1    2    0  501  0.45311446184E+03 -0.46716703844E+03  0.75352551244E+03  0.14529437830E+04  0.10581527212E+04 0.  0.
        -13    1    3    3    0    0 -0.37284717030E+03  0.74505816102E+03  0.30885742145E+03  0.88854915095E+03  0.10566000000E+00 0.  1.
         13    1    4    4    0    0  0.79062493642E+01 -0.37096804767E+03  0.90081212217E+03  0.97423934010E+03  0.10566000000E+00 0. -1.
          4    1    3    3  502    0 -0.80267291544E+02 -0.27789112257E+03  0.40477873414E+03  0.49750591726E+03  0.00000000000E+00 0.  1.
         -4    1    4    4    0  501  0.44520821248E+03 -0.96198990774E+02 -0.14728660973E+03  0.47870444294E+03  0.00000000000E+00 0. -1.
</event>
<event>
 8    1  0.7446554E-006  0.1083301E+04  0.7818608E-02  0.8700035E-01
          1   -1    0    0  502    0  0.00000000000E+00  0.00000000000E+00  0.29969938003E+04  0.29969938003E+04  0.00000000000E+00 0.  1.
         -1   -1    0    0    0  501 -0.00000000000E+00 -0.00000000000E+00 -0.45639304856E+03  0.45639304856E+03  0.00000000000E+00 0. -1.
    9000010    2    1    2  502    0  0.17157745824E+03 -0.39898305525E+03  0.61354230242E+03  0.12397256934E+04  0.98582926289E+03 0.  0.
   -9000010    2    1    2    0  501 -0.17157745824E+03  0.39898305525E+03  0.19270584493E+04  0.22136611554E+04  0.99905712617E+03 0.  0.
        -13    1    3    3    0    0 -0.34161253937E+03  0.93420179845E+02  0.11956845442E+03  0.37379551029E+03  0.10566000000E+00 0.  1.
         13    1    4    4    0    0 -0.35517321731E+03  0.66631166363E+03  0.12035119942E+04  0.14207604931E+04  0.10566000000E+00 0. -1.
          4    1    3    3  502    0  0.51318999761E+03 -0.49240323509E+03  0.49397384801E+03  0.86593018315E+03  0.00000000000E+00 0.  1.
         -4    1    4    4    0  501  0.18359575907E+03 -0.26732860838E+03  0.72354645503E+03  0.79290066225E+03  0.00000000000E+00 0. -1.
</event>
<event>
 8    1  0.7446554E-006  0.1140605E+04  0.7818608E-02  0.8652682E-01
          2   -1    0    0  502    0  0.00000000000E+00  0.00000000000E+00  0.22904561608E+04  0.22904561608E+04  0.00000000000E+00 0. -1.
         -2   -1    0    0    0  501 -0.00000000000E+00 -0.00000000000E+00 -0.76999421318E+03  0.76999421318E+03  0.00000000000E+00 0.  1.
    9000010    2    1    2  502    0  0.54974307989E+03 -0.12814979926E+03  0.15415341580E+04  0.19147064687E+04  0.98546104749E+03 0.  0.
   -9000010    2    1    2    0  501 -0.54974307989E+03  0.12814979926E+03 -0.21072210378E+02  0.11457439053E+04  0.99681755274E+03 0.  0.
        -13    1    3    3    0    0  0.70646062969E+03 -0.32077672160E+03  0.72735214774E+03  0.10634968192E+04  0.10566000000E+00 0.  1.
         13    1    4    4    0    0 -0.43377831591E+03  0.10484885944E+03 -0.48962764474E+03  0.66248936017E+03  0.10566000000E+00 0. -1.
          4    1    3    3  502    0 -0.15671754980E+03  0.19262692235E+03  0.81418201023E+03  0.85120964951E+03  0.00000000000E+00 0.  1.
         -4    1    4    4    0  501 -0.11596476398E+03  0.23300939819E+02  0.46855543436E+03  0.48325454509E+03  0.00000000000E+00 0. -1.
</event>
<event>
 8    1  0.7446554E-006  0.1144264E+04  0.7818608E-02  0.8649758E-01
         -2   -1    0    0    0  501 -0.00000000000E+00  0.00000000000E+00  0.28129588998E+04  0.28129588998E+04  0.00000000000E+00 0.  1.
          2   -1    0    0  502    0  0.00000000000E+00 -0.00000000000E+00 -0.57099843113E+03  0.57099843113E+03  0.00000000000E+00 0. -1.
    9000010    2    1    2  502    0 -0.25446748182E+03 -0.46422625334E+03  0.18511498878E+04  0.21781031212E+04  0.10183897024E+04 0.  0.
   -9000010    2    1    2    0  501  0.25446748182E+03  0.46422625334E+03  0.39081058090E+03  0.12058542097E+04  0.10104908468E+04 0.  0.
        -13    1    3    3    0    0  0.18908714504E+03 -0.35739224328E+03  0.17430930030E+03  0.44030319930E+03  0.10566000000E+00 0.  1.
         13    1    4    4    0    0  0.33169004523E+03 -0.81447305217E+02 -0.20170612839E+03  0.39665768998E+03  0.10566000000E+00 0. -1.
          4    1    3    3  502    0 -0.44355462686E+03 -0.10683401006E+03  0.16768405875E+04  0.17377999219E+04  0.00000000000E+00 0.  1.
         -4    1    4    4    0  501 -0.77222563405E+02  0.54567355856E+03  0.59251670929E+03  0.80919651976E+03  0.00000000000E+00 0. -1.
</event>
<event>
 8    1  0.7446554E-006  0.1071798E+04  0.7818608E-02  0.8709909E-01
          1   -1    0    0  502    0  0.00000000000E+00  0.00000000000E+00  0.18277699135E+04  0.18277699135E+04  0.00000000000E+00 0.  1.
         -1   -1    0    0    0  501 -0.00000000000E+00 -0.00000000000E+00 -0.63294028169E+03  0.63294028169E+03  0.00000000000E+00 0. -1.
    9000010    2    1    2  502    0 -0.31567097022E+03 -0.21872395451E+03  0.70412347172E+03  0.12884079864E+04  0.10083238301E+04 0.  0.
   -9000010    2    1    2    0  501  0.31567097022E+03  0.21872395451E+03  0.49070616010E+03  0.11723022088E+04  0.99298116970E+03 0.  0.
        -13    1    3    3    0    0 -0.39895129912E+03  0.21379061748E+03 -0.61305931957E+01  0.45266561889E+03  0.10566000000E+00 0.  1.
         13    1    4    4    0    0 -0.15805772234E+03  0.43790124081E+03  0.45202500218E+03  0.64889625831E+03  0.10566000000E+00 0. -1.
          4    1    3    3  502    0  0.83280328898E+02 -0.43251457199E+03  0.71025406491E+03  0.83574236753E+03  0.00000000000E+00 0.  1.
         -4    1    4    4    0  501  0.47372869256E+03 -0.21917728630E+03  0.38681157914E+02  0.52340595044E+03  0.00000000000E+00 0. -1.
</event>
<event>
 8    1  0.7446554E-006  0.1210655E+04  0.7818608E-02  0.8598581E-01
         -1   -1    0    0    0  501 -0.00000000000E+00  0.00000000000E+00  0.10636347896E+04  0.10636347896E+04  0.00000000000E+00 0. -1.
          1   -1    0    0  502    0  0.00000000000E+00 -0.00000000000E+00 -0.14239755139E+04  0.14239755139E+04  0.00000000000E+00 0.  1.
    9000010    2    1    2  502    0  0.26377031795E+03 -0.62916267058E+03  0.43025761273E+02  0.12134484763E+04  0.10025894184E+04 0.  0.
   -9000010    2    1    2    0  501 -0.26377031795E+03  0.62916267058E+03 -0.40336648558E+03  0.12741618272E+04  0.99767900319E+03 0.  0.
        -13    1    3    3    0    0  0.15644070210E+03 -0.59058811837E+03 -0.41686635432E+03  0.73962530201E+03  0.10566000000E+00 0.  1.
         13    1    4    4    0    0 -0.46610359059E+03  0.12538306199E+03  0.14352752816E+03  0.50356095153E+03  0.10566000000E+00 0. -1.
          4    1    3    3  502    0  0.10732961585E+03 -0.38574552207E+02  0.45989211560E+03  0.47382317430E+03  0.00000000000E+00 0.  1.
         -4    1    4    4    0  501  0.20233327265E+03  0.50377960859E+03 -0.54689401374E+03  0.77060087562E+03  0.00000000000E+00 0. -1.
</event>
<event>
 8    1  0.7446554E-006  0.1220407E+04  0.7818608E-02  0.8591352E-01
         -2   -1    0    0    0  501 -0.00000000000E+00  0.00000000000E+00  0.59631029359E+03  0.59631029359E+03  0.00000000000E+00 0.  1.
          2   -1    0    0  502    0  0.00000000000E+00 -0.00000000000E+00 -0.25925278051E+04  0.25925278051E+04  0.00000000000E+00 0. -1.
    9000010    2    1    2  502    0 -0.65768540308E+03 -0.23609867024E+03 -0.13033093574E+04  0.17857063183E+04  0.10009191289E+04 0.  0.
   -9000010    2    1    2    0  501  0.65768540308E+03  0.23609867024E+03 -0.69290815415E+03  0.14031317804E+04  0.10001821892E+04 0.  0.
        -13    1    3    3    0    0  0.14539411248E+03 -0.16008534382E+03 -0.81399574893E+03  0.84223266126E+03  0.10566000000E+00 0.  1.
         13    1    4    4    0    0  0.59024150505E+03 -0.12538544996E+03  0.16985747403E+02  0.60365144920E+03  0.10566000000E+00 0. -1.
          4    1    3    3  502    0 -0.80307951556E+03 -0.76013326421E+02 -0.48931360844E+03  0.94347365703E+03  0.00000000000E+00 0.  1.
         -4    1    4    4    0  501  0.67443898035E+02  0.36148412020E+03 -0.70989390155E+03  0.79948033121E+03  0.00000000000E+00 0. -1.
</event>
<event>
 8    1  0.7446554E-006  0.1267609E+04  0.7818608E-02  0.8557319E-01
          2   -1    0    0  502    0  0.00000000000E+00  0.00000000000E+00  0.18608028668E+04  0.18608028668E+04  0.00000000000E+00 0. -1.
         -2   -1    0    0    0  501 -0.00000000000E+00 -0.00000000000E+00 -0.89085857235E+03  0.89085857235E+03  0.00000000000E+00 0.  1.
    9000010    2    1    2  502    0  0.35980864019E+03  0.69033323576E+03  0.24454562988E+03  0.12925821153E+04  0.10024688153E+04 0.  0.
   -9000010    2    1    2    0  501 -0.35980864019E+03 -0.69033323576E+03  0.72539866461E+03  0.14590793239E+04  0.99834213415E+03 0.  0.
        -13    1    3    3    0    0  0.29799334340E+03  0.42575497137E+03 -0.35837477461E+03  0.63126842040E+03  0.10566000000E+00 0.  1.
         13    1    4    4    0    0 -0.45218389296E+03 -0.31151220860E+03  0.88194079105E+03  0.10389079359E+04  0.10566000000E+00 0. -1.
          4    1    3    3  502    0  0.61815296797E+02  0.26457826438E+03  0.60292040449E+03  0.66131369489E+03  0.00000000000E+00 0.  1.
         -4    1    4    4    0  501  0.92375252771E+02 -0.37882102716E+03 -0.15654212644E+03  0.42017138800E+03  0.00000000000E+00 0. -1.
</event>
<event>
 8    1  0.7446554E-006  0.1338670E+04  0.7818608E-02  0.8508869E-01
          2   -1    0    0  502    0  0.00000000000E+00  0.00000000000E+00  0.10679088570E+04  0.10679088570E+04  0.00000000000E+00 0.  1.
         -2   -1    0    0    0  501 -0.00000000000E+00 -0.00000000000E+00 -0.17435350467E+04  0.17435350467E+04  0.00000000000E+00 0. -1.
    9000010    2    1    2  502    0  0.70735547620E+03 -0.51747939781E+03 -0.60922813784E+03  0.14673306343E+04  0.10068582669E+04 0.  0.
   -9000010    2    1    2    0  501 -0.70735547620E+03  0.51747939781E+03 -0.66398051864E+02  0.13441132694E+04  0.10169046577E+04 0.  0.
        -13    1    3    3    0    0  0.50190522517E+03  0.20970761408E+03 -0.92162633809E+02  0.55170653494E+03  0.10566000000E+00 0.  1.
         13    1    4    4    0    0 -0.69994003827E+03 -0.34271231808E+02  0.20365933933E+03  0.72977237010E+03  0.10566000000E+00 0. -1.
          4    1    3    3  502    0  0.20545025102E+03 -0.72718701189E+03 -0.51706550403E+03  0.91562409938E+03  0.00000000000E+00 0.  1.
         -4    1    4    4    0  501 -0.74154379291E+01  0.55175062961E+03 -0.27005739119E+03  0.61434089928E+03  0.00000000000E+00 0. -1.
</event>
<event>
 8    1  0.7446554E-006  0.1109063E+04  0.7818608E-02  0.8678379E-01
          2   -1    0    0  502    0  0.00000000000E+00  0.00000000000E+00  0.23516207730E+04  0.23516207730E+04  0.00000000000E+00 0.  1.
         -2   -1    0    0    0  501 -0.00000000000E+00 -0.00000000000E+00 -0.56190450680E+03  0.56190450680E+03  0.00000000000E+00 0. -1.
    9000010    2    1    2  502    0  0.16998547889E+03 -0.49000933313E+03  0.49298102088E+03  0.11891330498E+04  0.94973833957E+03 0.  0.
   -9000010    2    1    2    0  501 -0.16998547889E+03  0.49000933313E+03  0.12967352453E+04  0.17243922300E+04  0.10114356414E+04 0.  0.
        -13    1    3    3    0    0  0.25686178356E+03 -0.99978621343E+02 -0.23268984622E+03  0.36071910994E+03  0.10566000000E+00 0.  1.
         13    1    4    4    0    0  0.38427796470E+03  0.87207394901E+02  0.22909770625E+03  0.45580747476E+03  0.10566000000E+00 0. -1.
          4    1    3    3  502    0 -0.86876304672E+02 -0.39003071179E+03  0.72567086710E+03  0.82841393989E+03  0.00000000000E+00 0.  1.
         -4    1    4    4    0  501 -0.55426344358E+03  0.40280193823E+03  0.10676375391E+04  0.12685847552E+04  0.00000000000E+00 0. -1.
</event>
<event>
 8    1  0.7446554E-006  0.1057893E+04  0.7818608E-02  0.8722019E-01
         -1   -1    0    0    0  501 -0.00000000000E+00  0.00000000000E+00  0.85642733886E+03  0.85642733886E+03  0.00000000000E+00 0. -1.
          1   -1    0    0  502    0  0.00000000000E+00 -0.00000000000E+00 -0.13153227263E+04  0.13153227263E+04  0.00000000000E+00 0.  1.
    9000010    2    1    2  502    0 -0.33542335484E+02  0.28307159880E+03 -0.14029762626E+03  0.10578719320E+04  0.10090366605E+04 0.  0.
   -9000010    2    1    2    0  501  0.33542335484E+02 -0.28307159880E+03 -0.31859776117E+03  0.11138781332E+04  0.10285744231E+04 0.  0.
        -13    1    3    3    0    0  0.47082902558E+03  0.26523795290E+03 -0.11532670658E+03  0.55256800795E+03  0.10566000000E+00 0.  1.
         13    1    4    4    0    0 -0.21164749104E+02  0.35393830153E+03 -0.31534796223E+03  0.47451513816E+03  0.10566000000E+00 0. -1.
          4    1    3    3  502    0 -0.50437136107E+03  0.17833645898E+02 -0.24970919685E+02  0.50530392401E+03  0.00000000000E+00 0.  1.
         -4    1    4    4    0  501  0.54707084589E+02 -0.63700990033E+03 -0.32497989309E+01  0.63936299503E+03  0.00000000000E+00 0. -1.
</event>
<event>
 8    1  0.7446554E-006  0.1067269E+04  0.7818608E-02  0.8713832E-01
          2   -1    0    0  502    0  0.00000000000E+00  0.00000000000E+00  0.25558267147E+04  0.25558267147E+04  0.00000000000E+00 0. -1.
         -2   -1    0    0    0  501 -0.00000000000E+00 -0.00000000000E+00 -0.63827981160E+03  0.63827981160E+03  0.00000000000E+00 0.  1.
    9000010    2    1    2  502    0 -0.39489077071E+03  0.12398975169E+02  0.85667541755E+02  0.10773113975E+04  0.99858322847E+03 0.  0.
   -9000010    2    1    2    0  501  0.39489077071E+03 -0.12398975169E+02  0.18318793614E+04  0.21167951288E+04  0.98435114022E+03 0.  0.
        -13    1    3    3    0    0 -0.28017407333E+03  0.22449057165E+03 -0.39853023625E+03  0.53639527263E+03  0.10566000000E+00 0.  1.
         13    1    4    4    0    0 -0.25686116342E+03  0.24318848477E+03  0.50500923477E+03  0.61656519101E+03  0.10566000000E+00 0. -1.
          4    1    3    3  502    0 -0.11471669738E+03 -0.21209159649E+03  0.48419777801E+03  0.54091612491E+03  0.00000000000E+00 0.  1.
         -4    1    4    4    0  501  0.65175193413E+03 -0.25558745994E+03  0.13268701266E+04  0.15002299378E+04  0.00000000000E+00 0. -1.
</event>
<event>
 8    1  0.7446554E-006  0.1519123E+04  0.7818608E-02  0.8398578E-01
         -1   -1    0    0    0  501 -0.00000000000E+00  0.00000000000E+00  0.95736892027E+03  0.95736892027E+03  0.00000000000E+00 0.  1.
          1   -1    0    0  502    0  0.00000000000E+00 -0.00000000000E+00 -0.24475182574E+04  0.24475182574E+04  0.00000000000E+00 0. -1.
    9000010    2    1    2  502    0  0.11528056978E+04 -0.59003482239E+00 -0.95415945498E+03  0.17934107289E+04  0.98840298059E+03 0.  0.
   -9000010    2    1    2    0  501 -0.11528056978E+04  0.59003482239E+00 -0.53598988211E+03  0.16114764487E+04  0.99025747466E+03 0.  0.
        -13    1    3    3    0    0  0.60950752674E+03 -0.13044201491E+03 -0.10553926819E+04  0.12257113317E+04  0.10566000000E+00 0.  1.
         13    1    4    4    0    0 -0.83830860078E+03 -0.10487486870E+02 -0.83077656963E+03  0.11802800589E+04  0.10566000000E+00 0. -1.
          4    1    3    3  502    0  0.54329817104E+03  0.12985198009E+03  0.10123322692E+03  0.56769939723E+03  0.00000000000E+00 0.  1.
         -4    1    4    4    0  501 -0.31449709699E+03  0.11077521692E+02  0.29478668752E+03  0.43119638987E+03  0.00000000000E+00 0. -1.
</event>
<event>
 8    1  0.7446554E-006  0.1490054E+04  0.7818608E-02  0.8415246E-01
          2   -1    0    0  502    0  0.00000000000E+00  0.00000000000E+00  0.47813837302E+04  0.47813837302E+04  0.00000000000E+00 0.  1.
         -2   -1    0    0    0  501 -0.00000000000E+00 -0.00000000000E+00 -0.49552621889E+03  0.49552621889E+03  0.00000000000E+00 0. -1.
    9000010    2    1    2  502    0  0.10501928836E+04  0.29451011084E+03  0.28188902360E+04  0.31935347218E+04  0.10309609880E+04 0.  0.
   -9000010    2    1    2    0  501 -0.10501928836E+04 -0.29451011084E+03  0.14669672753E+04  0.20833752273E+04  0.99940885164E+03 0.  0.
        -13    1    3    3    0    0  0.11477211453E+04 -0.42001110219E+02  0.22276220250E+04  0.25062577318E+04  0.10566000000E+00 0.  1.
         13    1    4    4    0    0 -0.68384711744E+03 -0.26451133311E+03  0.15427025368E+04  0.17080820394E+04  0.10566000000E+00 0. -1.
          4    1    3    3  502    0 -0.97528261715E+02  0.33651122106E+03  0.59126821099E+03  0.68727699005E+03  0.00000000000E+00 0.  1.
         -4    1    4    4    0  501 -0.36634576612E+03 -0.29998777730E+02 -0.75735261436E+02  0.37529318784E+03  0.00000000000E+00 0. -1.
</event>
<event>
 8    1  0.7446554E-006  0.1483729E+04  0.7818608E-02  0.8418925E-01
         -2   -1    0    0    0  501 -0.00000000000E+00  0.00000000000E+00  0.84729165680E+03  0.84729165680E+03  0.00000000000E+00 0. -1.
          2   -1    0    0  502    0  0.00000000000E+00 -0.00000000000E+00 -0.26845099115E+04  0.26845099115E+04  0.00000000000E+00 0.  1.
    9000010    2    1    2  502    0 -0.86524377798E+03 -0.63558164034E+03 -0.59033427122E+03  0.15773620523E+04  0.99346146140E+03 0.  0.
   -9000010    2    1    2    0  501  0.86524377798E+03  0.63558164034E+03 -0.12468839835E+04  0.19544395160E+04  0.10547527372E+04 0.  0.
        -13    1    3    3    0    0  0.14948092052E+03  0.10896028779E+03 -0.16781776265E+03  0.24975928920E+03  0.10566000000E+00 0.  1.
         13    1    4    4    0    0  0.56231245145E+03 -0.68882297149E+02 -0.99914696726E+03  0.11485794432E+04  0.10566000000E+00 0. -1.
          4    1    3    3  502    0 -0.10147246985E+04 -0.74454192813E+03 -0.42251650857E+03  0.13276027631E+04  0.00000000000E+00 0.  1.
         -4    1    4    4    0  501  0.30293132653E+03  0.70446393749E+03 -0.24773701620E+03  0.80586007285E+03  0.00000000000E+00 0. -1.
</event>
<event>
 8    1  0.7446554E-006  0.1165598E+04  0.7818608E-02  0.8632928E-01
         -2   -1    0    0    0  501 -0.00000000000E+00  0.00000000000E+00  0.84043568086E+03  0.84043568086E+03  0.00000000000E+00 0. -1.
          2   -1    0    0  502    0  0.00000000000E+00 -0.00000000000E+00 -0.16323511154E+04  0.16323511154E+04  0.00000000000E+00 0.  1.
    9000010    2    1    2  502    0  0.98564364490E+02  0.59327080873E+03 -0.27424459458E+03  0.11970754071E+04  0.99804521248E+03 0.  0.
   -9000010    2    1    2    0  501 -0.98564364490E+02 -0.59327080873E+03 -0.51767083998E+03  0.12757113892E+04  0.99888501015E+03 0.  0.
        -13    1    3    3    0    0 -0.54619472038E+01  0.18420308918E+03 -0.62291351045E+03  0.64960131126E+03  0.10566000000E+00 0.  1.
         13    1    4    4    0    0 -0.15245667763E+03 -0.16055147837E+03 -0.74973529648E+03  0.78174346285E+03  0.10566000000E+00 0. -1.
          4    1    3    3  502    0  0.10402631169E+03  0.40906771955E+03  0.34866891587E+03  0.54747409582E+03  0.00000000000E+00 0.  1.
         -4    1    4    4    0  501  0.53892313141E+02 -0.43271933036E+03  0.23206445650E+03  0.49396792634E+03  0.00000000000E+00 0. -1.
</event>
<event>
 8    1  0.7446554E-006  0.2863120E+04  0.7818608E-02  0.7886392E-01
         -1   -1    0    0    0  501 -0.00000000000E+00  0.00000000000E+00  0.41320545598E+04  0.41320545598E+04  0.00000000000E+00 0. -1.
          1   -1    0    0  502    0  0.00000000000E+00 -0.00000000000E+00 -0.20894542299E+04  0.20894542299E+04  0.00000000000E+00 0.  1.
    9000010    2    1    2  502    0  0.24336971215E+04  0.11464350793E+04  0.32639271213E+03  0.28941276520E+04  0.10159958628E+04 0.  0.
   -9000010    2    1    2    0  501 -0.24336971215E+04 -0.11464350793E+04  0.17162076178E+04  0.33273811378E+04  0.94281577124E+03 0.  0.
        -13    1    3    3    0    0  0.44176210228E+03  0.12372332592E+03 -0.32493936308E+03  0.56218041342E+03  0.10566000000E+00 0.  1.
         13    1    4    4    0    0 -0.20524815172E+04 -0.12669726252E+04  0.12618648554E+04  0.27221687927E+04  0.10566000000E+00 0. -1.
          4    1    3    3  502    0  0.19919350192E+04  0.10227117534E+04  0.65133207521E+03  0.23319472386E+04  0.00000000000E+00 0.  1.
         -4    1    4    4    0  501 -0.38121560428E+03  0.12053754588E+03  0.45434276239E+03  0.60521234509E+03  0.00000000000E+00 0. -1.
</event>
<event>
 8    1  0.7446554E-006  0.1524541E+04  0.7818608E-02  0.8395514E-01
         -1   -1    0    0    0  501 -0.00000000000E+00  0.00000000000E+00  0.44849783454E+04  0.44849783454E+04  0.00000000000E+00 0.  1.
          1   -1    0    0  502    0  0.00000000000E+00 -0.00000000000E+00 -0.54113581242E+03  0.54113581242E+03  0.00000000000E+00 0. -1.
    9000010    2    1    2  502    0  0.11095254161E+04  0.36053606865E+03  0.24766526225E+04  0.29031714784E+04  0.96621090594E+03 0.  0.
   -9000010    2    1    2    0  501 -0.11095254161E+04 -0.36053606865E+03  0.14671899105E+04  0.21229426794E+04  0.99659745173E+03 0.  0.
        -13    1    3    3    0    0  0.11498369016E+04  0.85633058922E+02  0.23030343567E+04  0.25755436669E+04  0.10566000000E+00 0.  1.
         13    1    4    4    0    0 -0.27007677808E+03 -0.50150328275E+03  0.10028552670E+04  0.11533281000E+04  0.10566000000E+00 0. -1.
          4    1    3    3  502    0 -0.40311485523E+02  0.27490300973E+03  0.17361826581E+03  0.32762781146E+03  0.00000000000E+00 0.  1.
         -4    1    4    4    0  501 -0.83944863804E+03  0.14096721410E+03  0.46433464349E+03  0.96961457936E+03  0.00000000000E+00 0. -1.
</event>
<event>
 8    1  0.7446554E-006  0.1195712E+04  0.7818608E-02  0.8609799E-01
          2   -1    0    0  502    0  0.00000000000E+00  0.00000000000E+00  0.18617054093E+04  0.18617054093E+04  0.00000000000E+00 0. -1.
         -2   -1    0    0    0  501 -0.00000000000E+00 -0.00000000000E+00 -0.91690752567E+03  0.91690752567E+03  0.00000000000E+00 0.  1.
    9000010    2    1    2  502    0 -0.57624230080E+01  0.65100119244E+03 -0.84631922220E+02  0.12072519313E+04  0.10131430824E+04 0.  0.
   -9000010    2    1    2    0  501  0.57624230080E+01 -0.65100119244E+03  0.10294298058E+04  0.15713610036E+04  0.99278090258E+03 0.  0.
        -13    1    3    3    0    0 -0.31140028845E+03 -0.13375307191E+03 -0.13209564454E+03  0.36374344580E+03  0.10566000000E+00 0.  1.
         13    1    4    4    0    0 -0.90039529002E+02 -0.39232121531E+03  0.11871988570E+04  0.12535805478E+04  0.10566000000E+00 0. -1.
          4    1    3    3  502    0  0.30563786544E+03  0.78475426435E+03  0.47463722323E+02  0.84350848552E+03  0.00000000000E+00 0.  1.
         -4    1    4    4    0  501  0.95801952010E+02 -0.25867997712E+03 -0.15776905116E+03  0.31778045578E+03  0.00000000000E+00 0. -1.
</event>
<event>
 8    1  0.7446554E-006  0.1070486E+04  0.7818608E-02  0.8711043E-01
          1   -1    0    0  502    0  0.00000000000E+00  0.00000000000E+00  0.17856548245E+04  0.17856548245E+04  0.00000000000E+00 0.  1.
         -1   -1    0    0    0  501 -0.00000000000E+00 -0.00000000000E+00 -0.70255006779E+03  0.70255006779E+03  0.00000000000E+00 0. -1.
    9000010    2    1    2  502    0  0.98275858099E+02  0.37854104716E+03  0.17147204272E+03  0.10751181013E+04  0.98667360441E+03 0.  0.
   -9000010    2    1    2    0  501 -0.98275858099E+02 -0.37854104716E+03  0.91163271394E+03  0.14130867909E+04  0.10063739886E+04 0.  0.
        -13    1    3    3    0    0  0.12638562928E+03 -0.30744619081E+03 -0.83502857242E+02  0.34273783839E+03  0.10566000000E+00 0.  1.
         13    1    4    4    0    0  0.37769745104E+03 -0.40979546402E+03  0.69044472538E+03  0.88730018416E+03  0.10566000000E+00 0. -1.
          4    1    3    3  502    0 -0.28109771183E+02  0.68598723797E+03  0.25497489997E+03  0.73238026291E+03  0.00000000000E+00 0.  1.
         -4    1    4    4    0  501 -0.47597330914E+03  0.31254416860E+02  0.22118798857E+03  0.52578660678E+03  0.00000000000E+00 0. -1.
</event>
<event>
 8    1  0.7446554E-006  0.1112039E+04  0.7818608E-02  0.8675917E-01
         -1   -1    0    0    0  501 -0.00000000000E+00  0.00000000000E+00  0.75063536564E+03  0.75063536564E+03  0.00000000000E+00 0. -1.
          1   -1    0    0  502    0  0.00000000000E+00 -0.00000000000E+00 -0.16821706809E+04  0.16821706809E+04  0.00000000000E+00 0.  1.
    9000010    2    1    2  502    0 -0.17703675255E+03 -0.48430620086E+03 -0.62751386508E+03  0.12545122258E+04  0.95610290543E+03 0.  0.
   -9000010    2    1    2    0  501  0.17703675255E+03  0.48430620086E+03 -0.30402145015E+03  0.11782938207E+04  0.10149151580E+04 0.  0.
        -13    1    3    3    0    0 -0.41958048588E+03 -0.46134092040E+03 -0.47502980556E+02  0.62541168304E+03  0.10566000000E+00 0.  1.
         13    1    4    4    0    0 -0.37988286027E+03  0.41289309582E+03 -0.24993804979E+03  0.61421554523E+03  0.10566000000E+00 0. -1.
          4    1    3    3  502    0  0.24254373333E+03 -0.22965280466E+02 -0.58001088452E+03  0.62910054272E+03  0.00000000000E+00 0.  1.
         -4    1    4    4    0  501  0.55691961282E+03  0.71413105046E+02 -0.54083400357E+02  0.56407827552E+03  0.00000000000E+00 0. -1.
</event>
<event>
 8    1  0.7446554E-006  0.1393079E+04  0.7818608E-02  0.8473820E-01
         -1   -1    0    0    0  501 -0.00000000000E+00  0.00000000000E+00  0.13541351597E+04  0.13541351597E+04  0.00000000000E+00 0.  1.
          1   -1    0    0  502    0  0.00000000000E+00 -0.00000000000E+00 -0.15095518516E+04  0.15095518516E+04  0.00000000000E+00 0. -1.
    9000010    2    1    2  502    0  0.92972681778E+03 -0.29495633672E+03  0.24473296888E+03  0.14072199079E+04  0.98436906027E+03 0.  0.
   -9000010    2    1    2    0  501 -0.92972681778E+03  0.29495633672E+03 -0.40014966078E+03  0.14564671034E+04  0.10048808267E+04 0.  0.
        -13    1    3    3    0    0  0.30829338581E+03 -0.26372782132E+03 -0.35790082454E+03  0.54100849055E+03  0.10566000000E+00 0.  1.
         13    1    4    4    0    0 -0.15441524177E+02  0.41198598301E+03 -0.33713623713E+03  0.53257088205E+03  0.10566000000E+00 0. -1.
          4    1    3    3  502    0  0.62143343197E+03 -0.31228515401E+02  0.60263379343E+03  0.86621141734E+03  0.00000000000E+00 0.  1.
         -4    1    4    4    0  501 -0.91428529360E+03 -0.11702964629E+03 -0.63013423646E+02  0.92389622132E+03  0.00000000000E+00 0. -1.
</event>
<event>
 8    1  0.7446554E-006  0.1211938E+04  0.7818608E-02  0.8597626E-01
          1   -1    0    0  502    0  0.00000000000E+00  0.00000000000E+00  0.95535264785E+03  0.95535264785E+03  0.00000000000E+00 0. -1.
         -1   -1    0    0    0  501 -0.00000000000E+00 -0.00000000000E+00 -0.16673836162E+04  0.16673836162E+04  0.00000000000E+00 0.  1.
    9000010    2    1    2  502    0  0.64095319147E+03 -0.32251198134E+03 -0.71519990941E+03  0.13880663287E+04  0.94888474043E+03 0.  0.
   -9000010    2    1    2    0  501 -0.64095319147E+03  0.32251198134E+03  0.31689410417E+01  0.12346699354E+04  0.10047710363E+04 0.  0.
        -13    1    3    3    0    0  0.85686594000E+03 -0.17232663244E+03 -0.35803806377E+03  0.94451414687E+03  0.10566000000E+00 0.  1.
         13    1    4    4    0    0 -0.15196702016E+03 -0.33218644093E+03  0.16633963674E+03  0.40138596471E+03  0.10566000000E+00 0. -1.
          4    1    3    3  502    0 -0.21591274852E+03 -0.15018534889E+03 -0.35716184564E+03  0.44355218180E+03  0.00000000000E+00 0.  1.
         -4    1    4    4    0  501 -0.48898617132E+03  0.65469842226E+03 -0.16317069570E+03  0.83328397068E+03  0.00000000000E+00 0. -1.
</event>
<event>
 8    1  0.7446554E-006  0.1059698E+04  0.7818608E-02  0.8720435E-01
         -1   -1    0    0    0  501 -0.00000000000E+00  0.00000000000E+00  0.55981690991E+03  0.55981690991E+03  0.00000000000E+00 0.  1.
          1   -1    0    0  502    0  0.00000000000E+00 -0.00000000000E+00 -0.22378680356E+04  0.22378680356E+04  0.00000000000E+00 0. -1.
    9000010    2    1    2  502    0 -0.14983065676E+03 -0.46706125675E+03 -0.12848283233E+04  0.16614884906E+04  0.93229005192E+03 0.  0.
   -9000010    2    1    2    0  501  0.14983065676E+03  0.46706125675E+03 -0.39322280241E+03  0.11361964549E+04  0.94642631435E+03 0.  0.
        -13    1    3    3    0    0  0.28551163527E+03 -0.39697132369E+03 -0.10581908430E+04  0.11657062225E+04  0.10566000000E+00 0.  1.
         13    1    4    4    0    0  0.48861124099E+03  0.20814079317E+03  0.34535968646E+02  0.53221826246E+03  0.10566000000E+00 0. -1.
          4    1    3    3  502    0 -0.43534229204E+03 -0.70089933061E+02 -0.22663748027E+03  0.49578226816E+03  0.00000000000E+00 0.  1.
         -4    1    4    4    0  501 -0.33878058423E+03  0.25892046358E+03 -0.42775877106E+03  0.60397819242E+03  0.00000000000E+00 0. -1.
</event>
<event>
 8    1  0.7446554E-006  0.1362910E+04  0.7818608E-02  0.8493047E-01
          2   -1    0    0  502    0  0.00000000000E+00  0.00000000000E+00  0.17735402018E+04  0.17735402018E+04  0.00000000000E+00 0.  1.
         -2   -1    0    0    0  501 -0.00000000000E+00 -0.00000000000E+00 -0.12554368110E+04  0.12554368110E+04  0.00000000000E+00 0. -1.
    9000010    2    1    2  502    0  0.13435636431E+03  0.89616083907E+03  0.87749799431E+03  0.16317938608E+04  0.10351775654E+04 0.  0.
   -9000010    2    1    2    0  501 -0.13435636431E+03 -0.89616083907E+03 -0.35939460351E+03  0.13971831519E+04  0.10008997936E+04 0.  0.
        -13    1    3    3    0    0  0.46109774694E+03  0.51568110679E+03  0.89213541466E+02  0.69749351486E+03  0.10566000000E+00 0.  1.
         13    1    4    4    0    0  0.38250741843E+03 -0.94620623994E+02 -0.14318590624E+03  0.41924599288E+03  0.10566000000E+00 0. -1.
          4    1    3    3  502    0 -0.32674138263E+03  0.38047973228E+03  0.78828445285E+03  0.93430034593E+03  0.00000000000E+00 0.  1.
         -4    1    4    4    0  501 -0.51686378273E+03 -0.80154021507E+03 -0.21620869726E+03  0.97793715905E+03  0.00000000000E+00 0. -1.
</event>
<event>
 8    1  0.7446554E-006  0.1092238E+04  0.7818608E-02  0.8692451E-01
          2   -1    0    0  502    0  0.00000000000E+00  0.00000000000E+00  0.49665883367E+04  0.49665883367E+04  0.00000000000E+00 0. -1.
         -2   -1    0    0    0  501 -0.00000000000E+00 -0.00000000000E+00 -0.24725642042E+03  0.24725642042E+03  0.00000000000E+00 0.  1.
    9000010    2    1    2  502    0 -0.40840458902E+03  0.10371682557E+03  0.19264866573E+04  0.22162423615E+04  0.10113495320E+04 0.  0.
   -9000010    2    1    2    0  501  0.40840458902E+03 -0.10371682557E+03  0.27928452589E+04  0.29976023956E+04  0.10040338607E+04 0.  0.
        -13    1    3    3    0    0 -0.48693397645E+03 -0.30880256327E+03  0.15443116438E+04  0.16484423511E+04  0.10566000000E+00 0.  1.
         13    1    4    4    0    0  0.43546021591E+03  0.36708322589E+03  0.19537544926E+04  0.20350755079E+04  0.10566000000E+00 0. -1.
          4    1    3    3  502    0  0.78529387427E+02  0.41251938884E+03  0.38217501348E+03  0.56780001038E+03  0.00000000000E+00 0.  1.
         -4    1    4    4    0  501 -0.27055626884E+02 -0.47080005145E+03  0.83909076637E+03  0.96252688773E+03  0.00000000000E+00 0. -1.
</event>
<event>
 8    1  0.7446554E-006  0.1343512E+04  0.7818608E-02  0.8505681E-01
         -2   -1    0    0    0  501 -0.00000000000E+00  0.00000000000E+00  0.94985931817E+03  0.94985931817E+03  0.00000000000E+00 0.  1.
          2   -1    0    0  502    0  0.00000000000E+00 -0.00000000000E+00 -0.19036546905E+04  0.19036546905E+04  0.00000000000E+00 0. -1.
    9000010    2    1    2  502    0  0.25603385192E+03  0.86102124561E+03 -0.41692234820E+03  0.14063123109E+04  0.99848843389E+03 0.  0.
   -9000010    2    1    2    0  501 -0.25603385192E+03 -0.86102124561E+03 -0.53687302415E+03  0.14472016978E+04  0.99962452517E+03 0.  0.
        -13    1    3    3    0    0  0.32528674776E+03  0.68248036191E+03  0.18190307854E+03  0.77761150571E+03  0.10566000000E+00 0.  1.
         13    1    4    4    0    0  0.36363355206E+03 -0.25626908940E+03 -0.34599969239E+02  0.44620665101E+03  0.10566000000E+00 0. -1.
          4    1    3    3  502    0 -0.69252895840E+02  0.17854088369E+03 -0.59882542673E+03  0.62870080518E+03  0.00000000000E+00 0.  1.
         -4    1    4    4    0  501 -0.61966740399E+03 -0.60475215621E+03 -0.50227305491E+03  0.10009950468E+04  0.00000000000E+00 0. -1.
</event>
<event>
 8    1  0.7446554E-006  0.1107153E+04  0.7818608E-02  0.8679963E-01
         -2   -1    0    0    0  501 -0.00000000000E+00  0.00000000000E+00  0.69349004267E+03  0.69349004267E+03  0.00000000000E+00 0. -1.
          2   -1    0    0  502    0  0.00000000000E+00 -0.00000000000E+00 -0.18297167658E+04  0.18297167658E+04  0.00000000000E+00 0.  1.
    9000010    2    1    2  502    0  0.31953201391E+03  0.32573695302E+03 -0.80747658887E+03  0.13826310408E+04  0.10253998649E+04 0.  0.
   -9000010    2    1    2    0  501 -0.31953201391E+03 -0.32573695302E+03 -0.32875013431E+03  0.11405757677E+04  0.99228582606E+03 0.  0.
        -13    1    3    3    0    0 -0.16055166142E+03 -0.81140407430E+02  0.15178332268E+03  0.23536947531E+03  0.10566000000E+00 0.  1.
         13    1    4    4    0    0  0.13661837430E+03 -0.55587152024E+03 -0.24585524635E+03  0.62297876411E+03  0.10566000000E+00 0. -1.
          4    1    3    3  502    0  0.48008367533E+03  0.40687736045E+03 -0.95925991154E+03  0.11472615655E+04  0.00000000000E+00 0.  1.
         -4    1    4    4    0  501 -0.45615038821E+03  0.23013456721E+03 -0.82894887958E+02  0.51759700360E+03  0.00000000000E+00 0. -1.
</event>
<event>
 8    1  0.7446554E-006  0.1310648E+04  0.7818608E-02  0.8527596E-01
         -2   -1    0    0    0  501 -0.00000000000E+00  0.00000000000E+00  0.81473486134E+03  0.81473486134E+03  0.00000000000E+00 0. -1.
          2   -1    0    0  502    0  0.00000000000E+00 -0.00000000000E+00 -0.23444821292E+04  0.23444821292E+04  0.00000000000E+00 0.  1.
    9000010    2    1    2  502    0  0.84685365503E+03 -0.17734277568E+03 -0.26016654296E+03  0.13296359783E+04  0.97551710986E+03 0.  0.
   -9000010    2    1    2    0  501 -0.84685365503E+03  0.17734277568E+03 -0.12695807249E+04  0.18295810123E+04  0.99343841791E+03 0.  0.
        -13    1    3    3    0    0  0.39831450317E+03  0.11652334115E+03 -0.57400330613E+03  0.70831627052E+03  0.10566000000E+00 0.  1.
         13    1    4    4    0    0 -0.48615601760E+03 -0.65941860636E+02 -0.13039100880E+04  0.13931538075E+04  0.10566000000E+00 0. -1.
          4    1    3    3  502    0  0.44853915186E+03 -0.29386611683E+03  0.31383676318E+03  0.62131970780E+03  0.00000000000E+00 0.  1.
         -4    1    4    4    0  501 -0.36069763743E+03  0.24328463631E+03  0.34329363096E+02  0.43642720479E+03  0.00000000000E+00 0. -1.
</event>
