<event>
 8    1  0.1373409E-005  0.1257495E+04  0.7818608E-02  0.8564481E-01
         -2   -1    0    0    0  501 -0.00000000000E+00  0.00000000000E+00  0.60506126621E+03  0.60506126621E+03  0.00000000000E+00 0.  1.
          2   -1    0    0  502    0  0.00000000000E+00 -0.00000000000E+00 -0.28457584008E+04  0.28457584008E+04  0.00000000000E+00 0. -1.
    9000010    2    1    2  502    0 -0.60306779096E+03  0.47687695380E+03 -0.62542026645E+03  0.14022988308E+04  0.99206305826E+03 0.  0.
   -9000010    2    1    2    0  501  0.60306779096E+03 -0.47687695380E+03 -0.16152768681E+04  0.20485208362E+04  0.99810613972E+03 0.  0.
        -13    1    3    3    0    0 -0.59671203028E+03  0.38564393692E+03 -0.88045326901E+03  0.11313639835E+04  0.10566000000E+00 0.  1.
          4    1    3    3  502    0 -0.63557606831E+01  0.91233016887E+02  0.25503300255E+03  0.27093484725E+03  0.00000000000E+00 0.  1.
         13    1    4    4    0    0  0.43450070036E+03  0.25158598381E+03 -0.77835549267E+03  0.92624168013E+03  0.10566000000E+00 0. -1.
         -4    1    4    4    0  501  0.16856709059E+03 -0.72846293761E+03 -0.83692137547E+03  0.11222791561E+04  0.00000000000E+00 0. -1.
<mgrwt>
<rscale>  2 0.12574949E+04</rscale>
<asrwt>0</asrwt>
<pdfrwt beam="2">  1        2 0.43780899E+00 0.12574949E+04</pdfrwt>
<pdfrwt beam="1">  1       -2 0.93086348E-01 0.12574949E+04</pdfrwt>
<totfact> 0.32972514E+00</totfact>
</mgrwt>
</event>
<event>
 8    1  0.1373409E-005  0.1520486E+04  0.7818608E-02  0.8397806E-01
         -2   -1    0    0    0  501 -0.00000000000E+00  0.00000000000E+00  0.20609141197E+04  0.20609141197E+04  0.00000000000E+00 0. -1.
          2   -1    0    0  502    0  0.00000000000E+00 -0.00000000000E+00 -0.11230571628E+04  0.11230571628E+04  0.00000000000E+00 0.  1.
    9000010    2    1    2  502    0  0.52994603512E+03 -0.10158532837E+04  0.52334722972E+03  0.16099238369E+04  0.10025775499E+04 0.  0.
   -9000010    2    1    2    0  501 -0.52994603512E+03  0.10158532837E+04  0.41450972720E+03  0.15740474456E+04  0.99649704100E+03 0.  0.
        -13    1    3    3    0    0 -0.80562770122E+02 -0.29885344077E+03  0.58958276119E+03  0.66589156959E+03  0.10566000000E+00 0.  1.
          4    1    3    3  502    0  0.61050880525E+03 -0.71699984297E+03 -0.66235531467E+02  0.94403226732E+03  0.00000000000E+00 0.  1.
         13    1    4    4    0    0  0.15750472029E+03 -0.10624899578E+03 -0.12919465434E+02  0.19042980274E+03  0.10566000000E+00 0. -1.
         -4    1    4    4    0  501 -0.68745075541E+03  0.11221022795E+04  0.42742919263E+03  0.13836176428E+04  0.00000000000E+00 0. -1.
<mgrwt>
<rscale>  2 0.15204857E+04</rscale>
<asrwt>0</asrwt>
<pdfrwt beam="2">  1        2 0.17277803E+00 0.15204857E+04</pdfrwt>
<pdfrwt beam="1">  1       -2 0.31706371E+00 0.15204857E+04</pdfrwt>
<totfact> 0.40836406E-01</totfact>
</mgrwt>
</event>
<event>
 8    1  0.1373409E-005  0.1192709E+04  0.7818608E-02  0.8612073E-01
          2   -1    0    0  502    0  0.00000000000E+00  0.00000000000E+00  0.20556985501E+04  0.20556985501E+04  0.00000000000E+00 0.  1.
         -2   -1    0    0    0  501 -0.00000000000E+00 -0.00000000000E+00 -0.76834637248E+03  0.76834637248E+03  0.00000000000E+00 0. -1.
    9000010    2    1    2  502    0 -0.16664300226E+03  0.63810427313E+03  0.19542688890E+03  0.12020650568E+04  0.98581021411E+03 0.  0.
   -9000010    2    1    2    0  501  0.16664300226E+03 -0.63810427313E+03  0.10919252888E+04  0.16219798658E+04  0.10017838566E+04 0.  0.
        -13    1    3    3    0    0  0.38484470143E+03  0.32796118887E+03 -0.80143740778E+02  0.51194434851E+03  0.10566000000E+00 0.  1.
          4    1    3    3  502    0 -0.55148770369E+03  0.31014308426E+03  0.27557062967E+03  0.69012070827E+03  0.00000000000E+00 0.  1.
         13    1    4    4    0    0  0.41396826055E+03 -0.30865671624E+03  0.71196119048E+02  0.52125577959E+03  0.10566000000E+00 0. -1.
         -4    1    4    4    0  501 -0.24732525829E+03 -0.32944755689E+03  0.10207291697E+04  0.11007240862E+04  0.00000000000E+00 0. -1.
<mgrwt>
<rscale>  2 0.11927090E+04</rscale>
<asrwt>0</asrwt>
<pdfrwt beam="1">  1        2 0.31626131E+00 0.11927090E+04</pdfrwt>
<pdfrwt beam="2">  1       -2 0.11820714E+00 0.11927090E+04</pdfrwt>
<totfact> 0.51367694E+00</totfact>
</mgrwt>
</event>
<event>
 8    1  0.1373409E-005  0.1080841E+04  0.7818608E-02  0.8702136E-01
         -2   -1    0    0    0  501 -0.00000000000E+00  0.00000000000E+00  0.47778813070E+04  0.47778813070E+04  0.00000000000E+00 0.  1.
          2   -1    0    0  502    0  0.00000000000E+00 -0.00000000000E+00 -0.26713680702E+03  0.26713680702E+03  0.00000000000E+00 0. -1.
    9000010    2    1    2  502    0  0.44130012251E+03  0.99316171457E+02  0.30063997807E+04  0.31978407677E+04  0.99153236658E+03 0.  0.
   -9000010    2    1    2    0  501 -0.44130012251E+03 -0.99316171457E+02  0.15043447193E+04  0.18471773464E+04  0.97180327969E+03 0.  0.
        -13    1    3    3    0    0  0.66300181975E+03 -0.22223449124E+03  0.19226825305E+04  0.20458904434E+04  0.10566000000E+00 0.  1.
          4    1    3    3  502    0 -0.22170169725E+03  0.32155066270E+03  0.10837172501E+04  0.11519503242E+04  0.00000000000E+00 0.  1.
         13    1    4    4    0    0  0.19924750115E+03 -0.10385701437E+03  0.10190849140E+04  0.10435611718E+04  0.10566000000E+00 0. -1.
         -4    1    4    4    0  501 -0.64054762365E+03  0.45408429117E+01  0.48525980530E+03  0.80361617459E+03  0.00000000000E+00 0. -1.
<mgrwt>
<rscale>  2 0.10808413E+04</rscale>
<asrwt>0</asrwt>
<pdfrwt beam="2">  1        2 0.41097974E-01 0.10808413E+04</pdfrwt>
<pdfrwt beam="1">  1       -2 0.73505860E+00 0.10808413E+04</pdfrwt>
<totfact> 0.59645917E-02</totfact>
</mgrwt>
</event>
<event>
 8    1  0.1373409E-005  0.1714626E+04  0.7818608E-02  0.8295664E-01
         -2   -1    0    0    0  501 -0.00000000000E+00  0.00000000000E+00  0.14830682488E+04  0.14830682488E+04  0.00000000000E+00 0. -1.
          2   -1    0    0  502    0  0.00000000000E+00 -0.00000000000E+00 -0.21145144880E+04  0.21145144880E+04  0.00000000000E+00 0.  1.
    9000010    2    1    2  502    0 -0.36499291257E+03 -0.13392542819E+04 -0.76408859220E+03  0.18703320548E+04  0.99372469063E+03 0.  0.
   -9000010    2    1    2    0  501  0.36499291257E+03  0.13392542819E+04  0.13264235301E+03  0.17272506820E+04  0.10193032262E+04 0.  0.
        -13    1    3    3    0    0 -0.84863989807E+02 -0.28025597117E+03  0.24436890448E+03  0.38139412526E+03  0.10566000000E+00 0.  1.
          4    1    3    3  502    0 -0.28012892276E+03 -0.10589983107E+04 -0.10084574967E+04  0.14889379296E+04  0.00000000000E+00 0.  1.
         13    1    4    4    0    0  0.57067586955E+03  0.11239435831E+04  0.40471893213E+03  0.13239023949E+04  0.10566000000E+00 0. -1.
         -4    1    4    4    0  501 -0.20568295698E+03  0.21531069885E+03 -0.27207657912E+03  0.40334828714E+03  0.00000000000E+00 0. -1.
<mgrwt>
<rscale>  2 0.17146262E+04</rscale>
<asrwt>0</asrwt>
<pdfrwt beam="2">  1        2 0.32530992E+00 0.17146262E+04</pdfrwt>
<pdfrwt beam="1">  1       -2 0.22816435E+00 0.17146262E+04</pdfrwt>
<totfact> 0.51089584E-01</totfact>
</mgrwt>
</event>
<event>
 8    1  0.1373409E-005  0.1272789E+04  0.7818608E-02  0.8553678E-01
         -1   -1    0    0    0  501 -0.00000000000E+00  0.00000000000E+00  0.10230182073E+04  0.10230182073E+04  0.00000000000E+00 0. -1.
          1   -1    0    0  502    0  0.00000000000E+00 -0.00000000000E+00 -0.17444437446E+04  0.17444437446E+04  0.00000000000E+00 0.  1.
    9000010    2    1    2  502    0  0.24561123850E+02 -0.78955806701E+03  0.59659308054E+02  0.12737008730E+04  0.99737129034E+03 0.  0.
   -9000010    2    1    2    0  501 -0.24561123850E+02  0.78955806701E+03 -0.78108484537E+03  0.14937610788E+04  0.99861075251E+03 0.  0.
        -13    1    3    3    0    0  0.44143311176E+03 -0.31598299513E+03 -0.21720328119E+03  0.58470994681E+03  0.10566000000E+00 0.  1.
          4    1    3    3  502    0 -0.41687198791E+03 -0.47357507188E+03  0.27686258925E+03  0.68899092617E+03  0.00000000000E+00 0.  1.
         13    1    4    4    0    0 -0.89730557243E+02  0.14231748140E+02  0.21289607274E+03  0.23147108785E+03  0.10566000000E+00 0. -1.
         -4    1    4    4    0  501  0.65169433394E+02  0.77532631887E+03 -0.99398091812E+03  0.12622899910E+04  0.00000000000E+00 0. -1.
<mgrwt>
<rscale>  2 0.12727887E+04</rscale>
<asrwt>0</asrwt>
<pdfrwt beam="2">  1        1 0.26837596E+00 0.12727887E+04</pdfrwt>
<pdfrwt beam="1">  1       -1 0.15738742E+00 0.12727887E+04</pdfrwt>
<totfact> 0.18080311E+00</totfact>
</mgrwt>
</event>
<event>
 8    1  0.1373409E-005  0.1098143E+04  0.7818608E-02  0.8687483E-01
          2   -1    0    0  502    0  0.00000000000E+00  0.00000000000E+00  0.15068739419E+04  0.15068739419E+04  0.00000000000E+00 0.  1.
         -2   -1    0    0    0  501 -0.00000000000E+00 -0.00000000000E+00 -0.90415495301E+03  0.90415495301E+03  0.00000000000E+00 0. -1.
    9000010    2    1    2  502    0 -0.54511828481E+03 -0.15049451519E+03 -0.10074793132E+03  0.11263773401E+04  0.96890310308E+03 0.  0.
   -9000010    2    1    2    0  501  0.54511828481E+03  0.15049451519E+03  0.70346692026E+03  0.12846515548E+04  0.91414515581E+03 0.  0.
        -13    1    3    3    0    0 -0.26354771666E+03  0.39852737761E+03 -0.16627242313E+03  0.50589326890E+03  0.10566000000E+00 0.  1.
          4    1    3    3  502    0 -0.28157056815E+03 -0.54902189280E+03  0.65524491808E+02  0.62048407123E+03  0.00000000000E+00 0.  1.
         13    1    4    4    0    0  0.31926804213E+03  0.88374833090E+01 -0.17668859071E+03  0.36500555213E+03  0.10566000000E+00 0. -1.
         -4    1    4    4    0  501  0.22585024267E+03  0.14165703188E+03  0.88015551096E+03  0.91964600269E+03  0.00000000000E+00 0. -1.
<mgrwt>
<rscale>  2 0.10981431E+04</rscale>
<asrwt>0</asrwt>
<pdfrwt beam="1">  1        2 0.23182676E+00 0.10981431E+04</pdfrwt>
<pdfrwt beam="2">  1       -2 0.13910076E+00 0.10981431E+04</pdfrwt>
<totfact> 0.65944644E+00</totfact>
</mgrwt>
</event>
<event>
 8    1  0.1373409E-005  0.1118536E+04  0.7818608E-02  0.8670568E-01
          1   -1    0    0  502    0  0.00000000000E+00  0.00000000000E+00  0.12124503591E+04  0.12124503591E+04  0.00000000000E+00 0. -1.
         -1   -1    0    0    0  501 -0.00000000000E+00 -0.00000000000E+00 -0.10323116079E+04  0.10323116079E+04  0.00000000000E+00 0.  1.
    9000010    2    1    2  502    0  0.22111581942E+03 -0.43817473772E+03  0.77066216847E+02  0.11385117065E+04  0.10243926970E+04 0.  0.
   -9000010    2    1    2    0  501 -0.22111581942E+03  0.43817473772E+03  0.10307253433E+03  0.11062502605E+04  0.98604076244E+03 0.  0.
        -13    1    3    3    0    0  0.27519412395E+03 -0.70840583273E+03  0.26509517559E+03  0.80488886996E+03  0.10566000000E+00 0.  1.
          4    1    3    3  502    0 -0.54078304526E+02  0.27023109501E+03 -0.18802895874E+03  0.33362283653E+03  0.00000000000E+00 0.  1.
         13    1    4    4    0    0 -0.14479480822E+03 -0.31301875041E+03  0.59075757087E+02  0.34990888934E+03  0.10566000000E+00 0. -1.
         -4    1    4    4    0  501 -0.76321011195E+02  0.75119348813E+03  0.43996777243E+02  0.75634137118E+03  0.00000000000E+00 0. -1.
<mgrwt>
<rscale>  2 0.11185365E+04</rscale>
<asrwt>0</asrwt>
<pdfrwt beam="1">  1        1 0.18653082E+00 0.11185365E+04</pdfrwt>
<pdfrwt beam="2">  1       -1 0.15881717E+00 0.11185365E+04</pdfrwt>
<totfact> 0.44846485E+00</totfact>
</mgrwt>
</event>
<event>
 8    1  0.1373409E-005  0.1938099E+04  0.7818608E-02  0.8194071E-01
          4   -1    0    0  502    0  0.00000000000E+00  0.00000000000E+00  0.24780545518E+04  0.24780545518E+04  0.00000000000E+00 0. -1.
         -4   -1    0    0    0  501 -0.00000000000E+00 -0.00000000000E+00 -0.15201201759E+04  0.15201201759E+04  0.00000000000E+00 0.  1.
    9000010    2    1    2  502    0 -0.16191659034E+04  0.28884565856E+03  0.37084261346E+03  0.19662245031E+04  0.10116246909E+04 0.  0.
   -9000010    2    1    2    0  501  0.16191659034E+04 -0.28884565856E+03  0.58709176247E+03  0.20319502246E+04  0.10387564394E+04 0.  0.
        -13    1    3    3    0    0 -0.26050408012E+03 -0.34419511117E+03  0.66853423355E+02  0.43680893042E+03  0.10566000000E+00 0.  1.
          4    1    3    3  502    0 -0.13586618233E+04  0.63304076974E+03  0.30398919011E+03  0.15294155727E+04  0.00000000000E+00 0.  1.
         13    1    4    4    0    0  0.79103487786E+03  0.37190172618E+03  0.37679525362E+03  0.95185174594E+03  0.10566000000E+00 0. -1.
         -4    1    4    4    0  501  0.82813102556E+03 -0.66074738475E+03  0.21029650885E+03  0.10800984786E+04  0.00000000000E+00 0. -1.
<mgrwt>
<rscale>  2 0.19380988E+04</rscale>
<asrwt>0</asrwt>
<pdfrwt beam="1">  1        4 0.38123916E+00 0.19380988E+04</pdfrwt>
<pdfrwt beam="2">  1       -4 0.23386464E+00 0.19380988E+04</pdfrwt>
<totfact> 0.42837594E-02</totfact>
</mgrwt>
</event>
<event>
 8    1  0.1373409E-005  0.1060208E+04  0.7818608E-02  0.8719989E-01
         -2   -1    0    0    0  501 -0.00000000000E+00  0.00000000000E+00  0.73162206826E+03  0.73162206826E+03  0.00000000000E+00 0.  1.
          2   -1    0    0  502    0  0.00000000000E+00 -0.00000000000E+00 -0.16987667272E+04  0.16987667272E+04  0.00000000000E+00 0. -1.
    9000010    2    1    2  502    0  0.28517743772E+02  0.39674422026E+03 -0.11437950435E+03  0.10812814177E+04  0.99893322863E+03 0.  0.
   -9000010    2    1    2    0  501 -0.28517743772E+02 -0.39674422026E+03 -0.85276515454E+03  0.13491073777E+04  0.96677974211E+03 0.  0.
        -13    1    3    3    0    0  0.46544817451E+03  0.38152516931E+03 -0.20309074215E+03  0.63517660433E+03  0.10566000000E+00 0.  1.
          4    1    3    3  502    0 -0.43693043074E+03  0.15219050944E+02  0.88711237798E+02  0.44610481339E+03  0.00000000000E+00 0.  1.
         13    1    4    4    0    0 -0.47084255739E+03 -0.28329302865E+03 -0.28040838341E+03  0.61690884787E+03  0.10566000000E+00 0. -1.
         -4    1    4    4    0  501  0.44232481362E+03 -0.11345119160E+03 -0.57235677114E+03  0.73219852983E+03  0.00000000000E+00 0. -1.
<mgrwt>
<rscale>  2 0.10602077E+04</rscale>
<asrwt>0</asrwt>
<pdfrwt beam="2">  1        2 0.26134873E+00 0.10602077E+04</pdfrwt>
<pdfrwt beam="1">  1       -2 0.11255724E+00 0.10602077E+04</pdfrwt>
<totfact> 0.92428820E+00</totfact>
</mgrwt>
</event>
<event>
 8    1  0.1373409E-005  0.1584523E+04  0.7818608E-02  0.8362451E-01
         -2   -1    0    0    0  501 -0.00000000000E+00  0.00000000000E+00  0.10350584610E+04  0.10350584610E+04  0.00000000000E+00 0.  1.
          2   -1    0    0  502    0  0.00000000000E+00 -0.00000000000E+00 -0.24520150632E+04  0.24520150632E+04  0.00000000000E+00 0. -1.
    9000010    2    1    2  502    0 -0.57528359775E+03 -0.10804694739E+04 -0.52508520046E+03  0.16632356926E+04  0.99612900744E+03 0.  0.
   -9000010    2    1    2    0  501  0.57528359775E+03  0.10804694739E+04 -0.89187140173E+03  0.18238378317E+04  0.10161615704E+04 0.  0.
        -13    1    3    3    0    0 -0.17411159746E+03  0.13542750285E+03  0.95537228343E+02  0.24038059419E+03  0.10566000000E+00 0.  1.
          4    1    3    3  502    0 -0.40117200029E+03 -0.12158969768E+04 -0.62062242880E+03  0.14228550984E+04  0.00000000000E+00 0.  1.
         13    1    4    4    0    0  0.84234144081E+03  0.72432037387E+03 -0.80077187645E+03  0.13694578183E+04  0.10566000000E+00 0. -1.
         -4    1    4    4    0  501 -0.26705784306E+03  0.35614910006E+03 -0.91099525274E+02  0.45438001334E+03  0.00000000000E+00 0. -1.
<mgrwt>
<rscale>  2 0.15845230E+04</rscale>
<asrwt>0</asrwt>
<pdfrwt beam="2">  1        2 0.37723308E+00 0.15845230E+04</pdfrwt>
<pdfrwt beam="1">  1       -2 0.15923976E+00 0.15845230E+04</pdfrwt>
<totfact> 0.12606423E+00</totfact>
</mgrwt>
</event>
<event>
 8    1  0.1373409E-005  0.1238196E+04  0.7818608E-02  0.8578342E-01
         -1   -1    0    0    0  501 -0.00000000000E+00  0.00000000000E+00  0.31085814105E+04  0.31085814105E+04  0.00000000000E+00 0.  1.
          1   -1    0    0  502    0  0.00000000000E+00 -0.00000000000E+00 -0.51063725410E+03  0.51063725410E+03  0.00000000000E+00 0. -1.
    9000010    2    1    2  502    0 -0.41779054531E+01 -0.73584824316E+03  0.96262480901E+03  0.15669002251E+04  0.99349871695E+03 0.  0.
   -9000010    2    1    2    0  501  0.41779054531E+01  0.73584824316E+03  0.16353193474E+04  0.20523184395E+04  0.99812399901E+03 0.  0.
        -13    1    3    3    0    0  0.19569741168E+03 -0.53747085232E+03  0.11102590621E+04  0.12489385854E+04  0.10566000000E+00 0.  1.
          4    1    3    3  502    0 -0.19987531713E+03 -0.19837739084E+03 -0.14763425310E+03  0.31796163964E+03  0.00000000000E+00 0.  1.
         13    1    4    4    0    0 -0.17065210299E+03 -0.21384152784E+03  0.39261777551E+03  0.47853847086E+03  0.10566000000E+00 0. -1.
         -4    1    4    4    0  501  0.17483000844E+03  0.94968977100E+03  0.12427015719E+04  0.15737799687E+04  0.00000000000E+00 0. -1.
<mgrwt>
<rscale>  2 0.12381958E+04</rscale>
<asrwt>0</asrwt>
<pdfrwt beam="2">  1        1 0.78559580E-01 0.12381958E+04</pdfrwt>
<pdfrwt beam="1">  1       -1 0.47824328E+00 0.12381958E+04</pdfrwt>
<totfact> 0.60670691E-01</totfact>
</mgrwt>
</event>
<event>
 8    1  0.1373409E-005  0.1290044E+04  0.7818608E-02  0.8541676E-01
         -1   -1    0    0    0  501 -0.00000000000E+00  0.00000000000E+00  0.13519855420E+04  0.13519855420E+04  0.00000000000E+00 0. -1.
          1   -1    0    0  502    0  0.00000000000E+00 -0.00000000000E+00 -0.12664020748E+04  0.12664020748E+04  0.00000000000E+00 0.  1.
    9000010    2    1    2  502    0  0.56712968822E+03 -0.59298018370E+03  0.26184604329E+03  0.13156003889E+04  0.99447445993E+03 0.  0.
   -9000010    2    1    2    0  501 -0.56712968822E+03  0.59298018370E+03 -0.17626257603E+03  0.13027872278E+04  0.99645596179E+03 0.  0.
        -13    1    3    3    0    0  0.83866289820E+03 -0.30880684577E+03  0.14375300330E+03  0.90519725029E+03  0.10566000000E+00 0.  1.
          4    1    3    3  502    0 -0.27153320998E+03 -0.28417333793E+03  0.11809303999E+03  0.41040313865E+03  0.00000000000E+00 0.  1.
         13    1    4    4    0    0 -0.59056689533E+03  0.51119303205E+03 -0.52676369049E+03  0.94210804617E+03  0.10566000000E+00 0. -1.
         -4    1    4    4    0  501  0.23437207112E+02  0.81787151655E+02  0.35050111446E+03  0.36067918167E+03  0.00000000000E+00 0. -1.
<mgrwt>
<rscale>  2 0.12900436E+04</rscale>
<asrwt>0</asrwt>
<pdfrwt beam="2">  1        1 0.19483109E+00 0.12900436E+04</pdfrwt>
<pdfrwt beam="1">  1       -1 0.20799778E+00 0.12900436E+04</pdfrwt>
<totfact> 0.14730252E+00</totfact>
</mgrwt>
</event>
<event>
 8    1  0.1373409E-005  0.1140731E+04  0.7818608E-02  0.8652582E-01
         -1   -1    0    0    0  501 -0.00000000000E+00  0.00000000000E+00  0.49944767334E+03  0.49944767334E+03  0.00000000000E+00 0.  1.
          1   -1    0    0  502    0  0.00000000000E+00 -0.00000000000E+00 -0.26384472422E+04  0.26384472422E+04  0.00000000000E+00 0. -1.
    9000010    2    1    2  502    0 -0.41164930974E+03 -0.37851597933E+03 -0.88981516939E+03  0.14431338709E+04  0.98900699329E+03 0.  0.
   -9000010    2    1    2    0  501  0.41164930974E+03  0.37851597933E+03 -0.12491843995E+04  0.16947610447E+04  0.99951179774E+03 0.  0.
        -13    1    3    3    0    0  0.63035985633E+02 -0.32221827016E+03  0.10060493568E+03  0.34339410792E+03  0.10566000000E+00 0.  1.
          4    1    3    3  502    0 -0.47468529537E+03 -0.56297709178E+02 -0.99042010507E+03  0.10997397630E+04  0.00000000000E+00 0.  1.
         13    1    4    4    0    0 -0.94694141475E+02  0.44385172426E+03 -0.14200150274E+03  0.47553735028E+03  0.10566000000E+00 0. -1.
         -4    1    4    4    0  501  0.50634345121E+03 -0.65335744931E+02 -0.11071828967E+04  0.12192236944E+04  0.00000000000E+00 0. -1.
<mgrwt>
<rscale>  2 0.11407309E+04</rscale>
<asrwt>0</asrwt>
<pdfrwt beam="2">  1        1 0.40591497E+00 0.11407309E+04</pdfrwt>
<pdfrwt beam="1">  1       -1 0.76838103E-01 0.11407309E+04</pdfrwt>
<totfact> 0.18799268E+00</totfact>
</mgrwt>
</event>
<event>
 8    1  0.1373409E-005  0.1886775E+04  0.7818608E-02  0.8216116E-01
         -2   -1    0    0    0  501 -0.00000000000E+00  0.00000000000E+00  0.20102284771E+04  0.20102284771E+04  0.00000000000E+00 0.  1.
          2   -1    0    0  502    0  0.00000000000E+00 -0.00000000000E+00 -0.17775804944E+04  0.17775804944E+04  0.00000000000E+00 0. -1.
    9000010    2    1    2  502    0  0.13386338594E+04 -0.89496206112E+03  0.11515125239E+01  0.18958471262E+04  0.10006684264E+04 0.  0.
   -9000010    2    1    2    0  501 -0.13386338594E+04  0.89496206112E+03  0.23149647011E+03  0.18919618453E+04  0.96593545755E+03 0.  0.
        -13    1    3    3    0    0  0.39457382604E+03 -0.64341607843E+03  0.38360945227E+03  0.84665753243E+03  0.10566000000E+00 0.  1.
          4    1    3    3  502    0  0.94406003335E+03 -0.25154598269E+03 -0.38245793974E+03  0.10491895938E+04  0.00000000000E+00 0.  1.
         13    1    4    4    0    0 -0.22570485985E+03 -0.22541169949E+02  0.37939588847E+03  0.44203171770E+03  0.10566000000E+00 0. -1.
         -4    1    4    4    0  501 -0.11129289995E+04  0.91750323107E+03 -0.14789941836E+03  0.14499301276E+04  0.00000000000E+00 0. -1.
<mgrwt>
<rscale>  2 0.18867745E+04</rscale>
<asrwt>0</asrwt>
<pdfrwt beam="2">  1        2 0.27347392E+00 0.18867745E+04</pdfrwt>
<pdfrwt beam="1">  1       -2 0.30926592E+00 0.18867745E+04</pdfrwt>
<totfact> 0.19279996E-01</totfact>
</mgrwt>
</event>
<event>
 8    1  0.1373409E-005  0.2009946E+04  0.7818608E-02  0.8164355E-01
          4   -1    0    0  502    0  0.00000000000E+00  0.00000000000E+00  0.19657913931E+04  0.19657913931E+04  0.00000000000E+00 0.  1.
         -4   -1    0    0    0  501 -0.00000000000E+00 -0.00000000000E+00 -0.22500123281E+04  0.22500123281E+04  0.00000000000E+00 0. -1.
    9000010    2    1    2  502    0 -0.17449562087E+04 -0.21315210734E+03  0.47739194980E+03  0.20777641914E+04  0.99944733232E+03 0.  0.
   -9000010    2    1    2    0  501  0.17449562087E+04  0.21315210734E+03 -0.76161288473E+03  0.21380395298E+04  0.94913268506E+03 0.  0.
        -13    1    3    3    0    0 -0.15521957891E+04 -0.29243353702E+03  0.25037472826E+02  0.15797012462E+04  0.10566000000E+00 0.  1.
          4    1    3    3  502    0 -0.19276041962E+03  0.79281429686E+02  0.45235447697E+03  0.49806294512E+03  0.00000000000E+00 0.  1.
         13    1    4    4    0    0  0.14940781199E+04  0.52382204659E+03 -0.49865008597E+03  0.16599129147E+04  0.10566000000E+00 0. -1.
         -4    1    4    4    0  501  0.25087808876E+03 -0.31066993926E+03 -0.26296279876E+03  0.47812661514E+03  0.00000000000E+00 0. -1.
<mgrwt>
<rscale>  2 0.20099459E+04</rscale>
<asrwt>0</asrwt>
<pdfrwt beam="1">  1        4 0.30242944E+00 0.20099459E+04</pdfrwt>
<pdfrwt beam="2">  1       -4 0.34615574E+00 0.20099459E+04</pdfrwt>
<totfact> 0.38222706E-02</totfact>
</mgrwt>
</event>
<event>
 8    1  0.1373409E-005  0.1274611E+04  0.7818608E-02  0.8552401E-01
          2   -1    0    0  502    0  0.00000000000E+00  0.00000000000E+00  0.14052752561E+04  0.14052752561E+04  0.00000000000E+00 0.  1.
         -2   -1    0    0    0  501 -0.00000000000E+00 -0.00000000000E+00 -0.11841363097E+04  0.11841363097E+04  0.00000000000E+00 0. -1.
    9000010    2    1    2  502    0 -0.37234548747E+01 -0.80394961719E+03  0.30894140729E+03  0.13036265039E+04  0.97859512436E+03 0.  0.
   -9000010    2    1    2    0  501  0.37234548747E+01  0.80394961719E+03 -0.87802460883E+02  0.12857850620E+04  0.99959246816E+03 0.  0.
        -13    1    3    3    0    0 -0.30490269382E+03 -0.53343726596E+02 -0.18046788968E+03  0.35830137627E+03  0.10566000000E+00 0.  1.
          4    1    3    3  502    0  0.30117923894E+03 -0.75060589060E+03  0.48940929697E+03  0.94532512763E+03  0.00000000000E+00 0.  1.
         13    1    4    4    0    0 -0.42578053754E+03  0.25939583105E+03 -0.27233690174E+03  0.56810444684E+03  0.10566000000E+00 0. -1.
         -4    1    4    4    0  501  0.42950399241E+03  0.54455378614E+03  0.18453444086E+03  0.71768061515E+03  0.00000000000E+00 0. -1.
<mgrwt>
<rscale>  2 0.12746109E+04</rscale>
<asrwt>0</asrwt>
<pdfrwt beam="1">  1        2 0.21619619E+00 0.12746109E+04</pdfrwt>
<pdfrwt beam="2">  1       -2 0.18217482E+00 0.12746109E+04</pdfrwt>
<totfact> 0.31289645E+00</totfact>
</mgrwt>
</event>
<event>
 8    1  0.1373409E-005  0.1146051E+04  0.7818608E-02  0.8648334E-01
          1   -1    0    0  502    0  0.00000000000E+00  0.00000000000E+00  0.41639903754E+04  0.41639903754E+04  0.00000000000E+00 0.  1.
         -1   -1    0    0    0  501 -0.00000000000E+00 -0.00000000000E+00 -0.31936006144E+03  0.31936006144E+03  0.00000000000E+00 0. -1.
    9000010    2    1    2  502    0 -0.96494229686E+01  0.54986899293E+03  0.21837680426E+04  0.24699366644E+04  0.10145418876E+04 0.  0.
   -9000010    2    1    2    0  501  0.96494229686E+01 -0.54986899293E+03  0.16608622714E+04  0.20134137724E+04  0.99645497326E+03 0.  0.
        -13    1    3    3    0    0  0.85611753204E+02  0.83017968839E+03  0.13723748393E+04  0.16062192870E+04  0.10566000000E+00 0.  1.
          4    1    3    3  502    0 -0.95261176172E+02 -0.28031069545E+03  0.81139320333E+03  0.86371737743E+03  0.00000000000E+00 0.  1.
         13    1    4    4    0    0  0.46472998807E+03 -0.35561637152E+03  0.12096885097E+04  0.13437943545E+04  0.10566000000E+00 0. -1.
         -4    1    4    4    0  501 -0.45508056510E+03 -0.19425262141E+03  0.45117376175E+03  0.66961941799E+03  0.00000000000E+00 0. -1.
<mgrwt>
<rscale>  2 0.11460506E+04</rscale>
<asrwt>0</asrwt>
<pdfrwt beam="1">  1        1 0.64061387E+00 0.11460506E+04</pdfrwt>
<pdfrwt beam="2">  1       -1 0.49132320E-01 0.11460506E+04</pdfrwt>
<totfact> 0.19711667E-01</totfact>
</mgrwt>
</event>
<event>
 8    1  0.1373409E-005  0.1144501E+04  0.7818608E-02  0.8649569E-01
          1   -1    0    0  502    0  0.00000000000E+00  0.00000000000E+00  0.16894717785E+04  0.16894717785E+04  0.00000000000E+00 0.  1.
         -1   -1    0    0    0  501 -0.00000000000E+00 -0.00000000000E+00 -0.80051310442E+03  0.80051310442E+03  0.00000000000E+00 0. -1.
    9000010    2    1    2  502    0  0.44501712749E+03 -0.30431069143E+03  0.22497648968E+03  0.11698663282E+04  0.10135716868E+04 0.  0.
   -9000010    2    1    2    0  501 -0.44501712749E+03  0.30431069143E+03  0.66398218443E+03  0.13201185547E+04  0.10055821282E+04 0.  0.
        -13    1    3    3    0    0  0.21773734613E+03 -0.18823823255E+03 -0.40115153352E+03  0.49372638992E+03  0.10566000000E+00 0.  1.
          4    1    3    3  502    0  0.22727978136E+03 -0.11607245888E+03  0.62612802319E+03  0.67613993829E+03  0.00000000000E+00 0.  1.
         13    1    4    4    0    0  0.14957179846E+03 -0.23823016037E+03  0.74229468658E+01  0.28139019796E+03  0.10566000000E+00 0. -1.
         -4    1    4    4    0  501 -0.59458892595E+03  0.54254085180E+03  0.65655923757E+03  0.10387283568E+04  0.00000000000E+00 0. -1.
<mgrwt>
<rscale>  2 0.11445007E+04</rscale>
<asrwt>0</asrwt>
<pdfrwt beam="1">  1        1 0.25991874E+00 0.11445007E+04</pdfrwt>
<pdfrwt beam="2">  1       -1 0.12315586E+00 0.11445007E+04</pdfrwt>
<totfact> 0.40184211E+00</totfact>
</mgrwt>
</event>
<event>
 8    1  0.1373409E-005  0.1166745E+04  0.7818608E-02  0.8632034E-01
         -4   -1    0    0    0  501 -0.00000000000E+00  0.00000000000E+00  0.14772912749E+04  0.14772912749E+04  0.00000000000E+00 0.  1.
          4   -1    0    0  502    0  0.00000000000E+00 -0.00000000000E+00 -0.11367680275E+04  0.11367680275E+04  0.00000000000E+00 0. -1.
    9000010    2    1    2  502    0  0.12892892269E+03 -0.59271421428E+03  0.73925577726E+03  0.13826352362E+04  0.99862319477E+03 0.  0.
   -9000010    2    1    2    0  501 -0.12892892269E+03  0.59271421428E+03 -0.39873252993E+03  0.12314240663E+04  0.99472850246E+03 0.  0.
        -13    1    3    3    0    0  0.54276558245E+03 -0.49920449863E+03  0.39683908165E+03  0.83742514700E+03  0.10566000000E+00 0.  1.
          4    1    3    3  502    0 -0.41383665976E+03 -0.93509715652E+02  0.34241669562E+03  0.54521008916E+03  0.00000000000E+00 0.  1.
         13    1    4    4    0    0 -0.48869012462E+03  0.22679256712E+03  0.61332782492E+02  0.54223115715E+03  0.10566000000E+00 0. -1.
         -4    1    4    4    0  501  0.35976120193E+03  0.36592164716E+03 -0.46006531242E+03  0.68919290911E+03  0.00000000000E+00 0. -1.
<mgrwt>
<rscale>  2 0.11667450E+04</rscale>
<asrwt>0</asrwt>
<pdfrwt beam="2">  1        4 0.17488739E+00 0.11667450E+04</pdfrwt>
<pdfrwt beam="1">  1       -4 0.22727558E+00 0.11667450E+04</pdfrwt>
<totfact> 0.18437161E-01</totfact>
</mgrwt>
</event>
<event>
 8    1  0.1373409E-005  0.1232948E+04  0.7818608E-02  0.8582157E-01
          2   -1    0    0  502    0  0.00000000000E+00  0.00000000000E+00  0.12250767249E+04  0.12250767249E+04  0.00000000000E+00 0. -1.
         -2   -1    0    0    0  501 -0.00000000000E+00 -0.00000000000E+00 -0.12466959487E+04  0.12466959487E+04  0.00000000000E+00 0.  1.
    9000010    2    1    2  502    0 -0.27702068394E+03  0.66255306147E+03  0.73601061349E+02  0.12382048417E+04  0.10059906039E+04 0.  0.
   -9000010    2    1    2    0  501  0.27702068394E+03 -0.66255306147E+03 -0.95220285162E+02  0.12335678320E+04  0.99845163866E+03 0.  0.
        -13    1    3    3    0    0  0.10492106051E+03  0.79661159888E+03  0.17185714874E+03  0.82166499204E+03  0.10566000000E+00 0.  1.
          4    1    3    3  502    0 -0.38194174445E+03 -0.13405853741E+03 -0.98256087396E+02  0.41653984961E+03  0.00000000000E+00 0.  1.
         13    1    4    4    0    0  0.25890265179E+03 -0.87884073927E+03  0.12464009566E+03  0.92462251363E+03  0.10566000000E+00 0. -1.
         -4    1    4    4    0  501  0.18118032153E+02  0.21628767780E+03 -0.21986038082E+03  0.30894531832E+03  0.00000000000E+00 0. -1.
<mgrwt>
<rscale>  2 0.12329475E+04</rscale>
<asrwt>0</asrwt>
<pdfrwt beam="1">  1        2 0.18847334E+00 0.12329475E+04</pdfrwt>
<pdfrwt beam="2">  1       -2 0.19179938E+00 0.12329475E+04</pdfrwt>
<totfact> 0.32967568E+00</totfact>
</mgrwt>
</event>
<event>
 8    1  0.1373409E-005  0.1118001E+04  0.7818608E-02  0.8671007E-01
          2   -1    0    0  502    0  0.00000000000E+00  0.00000000000E+00  0.10632213613E+04  0.10632213613E+04  0.00000000000E+00 0. -1.
         -2   -1    0    0    0  501 -0.00000000000E+00 -0.00000000000E+00 -0.15834708975E+04  0.15834708975E+04  0.00000000000E+00 0.  1.
    9000010    2    1    2  502    0  0.41573770523E+03 -0.30346175487E+03  0.40957565945E+03  0.12005993895E+04  0.10043703485E+04 0.  0.
   -9000010    2    1    2    0  501 -0.41573770523E+03  0.30346175487E+03 -0.92982519569E+03  0.14460928693E+04  0.98065427948E+03 0.  0.
        -13    1    3    3    0    0  0.35821121363E+03 -0.22540997109E+03 -0.27790409441E+03  0.50631573696E+03  0.10566000000E+00 0.  1.
          4    1    3    3  502    0  0.57526491598E+02 -0.78051783771E+02  0.68747975386E+03  0.69428365252E+03  0.00000000000E+00 0.  1.
         13    1    4    4    0    0 -0.63673932731E+03  0.40721296797E+03 -0.93451313850E+03  0.12019044011E+04  0.10566000000E+00 0. -1.
         -4    1    4    4    0  501  0.22100162208E+03 -0.10375121310E+03  0.46879428091E+01  0.24418846818E+03  0.00000000000E+00 0. -1.
<mgrwt>
<rscale>  2 0.11180011E+04</rscale>
<asrwt>0</asrwt>
<pdfrwt beam="1">  1        2 0.16357252E+00 0.11180011E+04</pdfrwt>
<pdfrwt beam="2">  1       -2 0.24361090E+00 0.11180011E+04</pdfrwt>
<totfact> 0.15728876E+00</totfact>
</mgrwt>
</event>
<event>
 8    1  0.1373409E-005  0.1242003E+04  0.7818608E-02  0.8575587E-01
         -1   -1    0    0    0  501 -0.00000000000E+00  0.00000000000E+00  0.11501727855E+04  0.11501727855E+04  0.00000000000E+00 0.  1.
          1   -1    0    0  502    0  0.00000000000E+00 -0.00000000000E+00 -0.15882878340E+04  0.15882878340E+04  0.00000000000E+00 0. -1.
    9000010    2    1    2  502    0  0.68264460998E+03  0.34875171183E+03  0.32452135922E+03  0.12549931589E+04  0.93918171631E+03 0.  0.
   -9000010    2    1    2    0  501 -0.68264460998E+03 -0.34875171183E+03 -0.76263640771E+03  0.14834674606E+04  0.10155934207E+04 0.  0.
        -13    1    3    3    0    0  0.68517001812E+03  0.49929109288E+03  0.53032408696E+03  0.99999659876E+03  0.10566000000E+00 0.  1.
          4    1    3    3  502    0 -0.25254081479E+01 -0.15053938105E+03 -0.20580272774E+03  0.25499656013E+03  0.00000000000E+00 0.  1.
         13    1    4    4    0    0 -0.44122534985E+03 -0.81124098433E+02 -0.96923641496E+03  0.10680262955E+04  0.10566000000E+00 0. -1.
         -4    1    4    4    0  501 -0.24141926013E+03 -0.26762761340E+03  0.20660000725E+03  0.41544116504E+03  0.00000000000E+00 0. -1.
<mgrwt>
<rscale>  2 0.12420027E+04</rscale>
<asrwt>0</asrwt>
<pdfrwt beam="2">  1        1 0.24435198E+00 0.12420027E+04</pdfrwt>
<pdfrwt beam="1">  1       -1 0.17694966E+00 0.12420027E+04</pdfrwt>
<totfact> 0.16035911E+00</totfact>
</mgrwt>
</event>
<event>
 8    1  0.1373409E-005  0.1060491E+04  0.7818608E-02  0.8719741E-01
          2   -1    0    0  502    0  0.00000000000E+00  0.00000000000E+00  0.28122395906E+04  0.28122395906E+04  0.00000000000E+00 0.  1.
         -2   -1    0    0    0  501 -0.00000000000E+00 -0.00000000000E+00 -0.41713193182E+03  0.41713193182E+03  0.00000000000E+00 0. -1.
    9000010    2    1    2  502    0 -0.27944616594E+03  0.16021011336E+03  0.85940735687E+03  0.13576009019E+04  0.10003708131E+04 0.  0.
   -9000010    2    1    2    0  501  0.27944616594E+03 -0.16021011336E+03  0.15357003019E+04  0.18717706205E+04  0.10204863539E+04 0.  0.
        -13    1    3    3    0    0  0.25389694590E+03 -0.85549253618E+02 -0.52452438548E+02  0.27300843101E+03  0.10566000000E+00 0.  1.
          4    1    3    3  502    0 -0.53334311184E+03  0.24575936698E+03  0.91185979541E+03  0.10845924709E+04  0.00000000000E+00 0.  1.
         13    1    4    4    0    0  0.24251055568E+02  0.23942695989E+02  0.15560397561E+04  0.15564128952E+04  0.10566000000E+00 0. -1.
         -4    1    4    4    0  501  0.25519511037E+03 -0.18415280935E+03 -0.20339454224E+02  0.31535772536E+03  0.00000000000E+00 0. -1.
<mgrwt>
<rscale>  2 0.10604909E+04</rscale>
<asrwt>0</asrwt>
<pdfrwt beam="1">  1        2 0.43265223E+00 0.10604909E+04</pdfrwt>
<pdfrwt beam="2">  1       -2 0.64174145E-01 0.10604909E+04</pdfrwt>
<totfact> 0.79429756E+00</totfact>
</mgrwt>
</event>
<event>
 8    1  0.1373409E-005  0.1040850E+04  0.7818608E-02  0.8737128E-01
          4   -1    0    0  502    0  0.00000000000E+00  0.00000000000E+00  0.72584754808E+03  0.72584754808E+03  0.00000000000E+00 0.  1.
         -4   -1    0    0    0  501 -0.00000000000E+00 -0.00000000000E+00 -0.14926028675E+04  0.14926028675E+04  0.00000000000E+00 0. -1.
    9000010    2    1    2  502    0  0.15544617159E+03 -0.20552688248E+03 -0.37687456817E+03  0.11051157900E+04  0.10064003465E+04 0.  0.
   -9000010    2    1    2    0  501 -0.15544617159E+03  0.20552688248E+03 -0.38988075126E+03  0.11133346256E+04  0.10104960053E+04 0.  0.
        -13    1    3    3    0    0  0.71714895713E+02 -0.38164944581E+02  0.34754577793E+03  0.35691409076E+03  0.10566000000E+00 0.  1.
          4    1    3    3  502    0  0.83731275875E+02 -0.16736193790E+03 -0.72442034611E+03  0.74820169919E+03  0.00000000000E+00 0.  1.
         13    1    4    4    0    0  0.36299448962E+03  0.34344714582E+03 -0.25080600727E+03  0.55912843419E+03  0.10566000000E+00 0. -1.
         -4    1    4    4    0  501 -0.51844066121E+03 -0.13792026334E+03 -0.13907474399E+03  0.55420619146E+03  0.00000000000E+00 0. -1.
<mgrwt>
<rscale>  2 0.10408501E+04</rscale>
<asrwt>0</asrwt>
<pdfrwt beam="1">  1        4 0.11166885E+00 0.10408501E+04</pdfrwt>
<pdfrwt beam="2">  1       -4 0.22963121E+00 0.10408501E+04</pdfrwt>
<totfact> 0.36454673E-01</totfact>
</mgrwt>
</event>
<event>
 8    1  0.1373409E-005  0.1343032E+04  0.7818608E-02  0.8505997E-01
         -1   -1    0    0    0  501 -0.00000000000E+00  0.00000000000E+00  0.96211263565E+03  0.96211263565E+03  0.00000000000E+00 0. -1.
          1   -1    0    0  502    0  0.00000000000E+00 -0.00000000000E+00 -0.18789444696E+04  0.18789444696E+04  0.00000000000E+00 0.  1.
    9000010    2    1    2  502    0 -0.73215164915E+03 -0.51540249707E+03 -0.52636075509E+03  0.14452711891E+04  0.10050210914E+04 0.  0.
   -9000010    2    1    2    0  501  0.73215164915E+03  0.51540249707E+03 -0.39047107889E+03  0.13957859162E+04  0.99702802825E+03 0.  0.
        -13    1    3    3    0    0 -0.89601064614E+03 -0.15773968369E+03 -0.19396126340E+03  0.93023538348E+03  0.10566000000E+00 0.  1.
          4    1    3    3  502    0  0.16385899699E+03 -0.35766281338E+03 -0.33239949169E+03  0.51503580560E+03  0.00000000000E+00 0.  1.
         13    1    4    4    0    0 -0.12562240112E+03  0.79524987976E+02  0.21320080389E+03  0.25992269104E+03  0.10566000000E+00 0. -1.
         -4    1    4    4    0  501  0.85777405027E+03  0.43587750910E+03 -0.60367188277E+03  0.11358632252E+04  0.00000000000E+00 0. -1.
<mgrwt>
<rscale>  2 0.13430317E+04</rscale>
<asrwt>0</asrwt>
<pdfrwt beam="2">  1        1 0.28906838E+00 0.13430317E+04</pdfrwt>
<pdfrwt beam="1">  1       -1 0.14801733E+00 0.13430317E+04</pdfrwt>
<totfact> 0.17118575E+00</totfact>
</mgrwt>
</event>
<event>
 8    1  0.1373409E-005  0.1329792E+04  0.7818608E-02  0.8514751E-01
         -2   -1    0    0    0  501 -0.00000000000E+00  0.00000000000E+00  0.16388658078E+04  0.16388658078E+04  0.00000000000E+00 0.  1.
          2   -1    0    0  502    0  0.00000000000E+00 -0.00000000000E+00 -0.15544874944E+04  0.15544874944E+04  0.00000000000E+00 0. -1.
    9000010    2    1    2  502    0 -0.52271991759E+03  0.74805123610E+03  0.92538078614E+03  0.16378283288E+04  0.99666206474E+03 0.  0.
   -9000010    2    1    2    0  501  0.52271991759E+03 -0.74805123610E+03 -0.84100247280E+03  0.15555249733E+04  0.93784647963E+03 0.  0.
        -13    1    3    3    0    0 -0.22568451442E+03  0.94601221336E+03  0.80058071768E+03  0.12596833350E+04  0.10566000000E+00 0.  1.
          4    1    3    3  502    0 -0.29703540317E+03 -0.19796097725E+03  0.12480006846E+03  0.37814499380E+03  0.00000000000E+00 0.  1.
         13    1    4    4    0    0 -0.21985926668E+03  0.42467879050E+02 -0.13836720826E+03  0.26322445438E+03  0.10566000000E+00 0. -1.
         -4    1    4    4    0  501  0.74257918427E+03 -0.79051911515E+03 -0.70263526454E+03  0.12923005190E+04  0.00000000000E+00 0. -1.
<mgrwt>
<rscale>  2 0.13297923E+04</rscale>
<asrwt>0</asrwt>
<pdfrwt beam="2">  1        2 0.23915192E+00 0.13297923E+04</pdfrwt>
<pdfrwt beam="1">  1       -2 0.25213320E+00 0.13297923E+04</pdfrwt>
<totfact> 0.69831869E-01</totfact>
</mgrwt>
</event>
<event>
 8    1  0.1373409E-005  0.1229253E+04  0.7818608E-02  0.8584853E-01
         -2   -1    0    0    0  501 -0.00000000000E+00  0.00000000000E+00  0.70916674440E+03  0.70916674440E+03  0.00000000000E+00 0. -1.
          2   -1    0    0  502    0  0.00000000000E+00 -0.00000000000E+00 -0.22117674752E+04  0.22117674752E+04  0.00000000000E+00 0.  1.
    9000010    2    1    2  502    0  0.38503228145E+03 -0.59726531408E+03 -0.47528673656E+03  0.13233451885E+04  0.10101333045E+04 0.  0.
   -9000010    2    1    2    0  501 -0.38503228145E+03  0.59726531408E+03 -0.10273139942E+04  0.15975890310E+04  0.99596232670E+03 0.  0.
        -13    1    3    3    0    0 -0.18969129663E+03 -0.21106624541E+03 -0.55797863448E+03  0.62599673775E+03  0.10566000000E+00 0.  1.
          4    1    3    3  502    0  0.57472357808E+03 -0.38619906867E+03  0.82691897917E+02  0.69734845079E+03  0.00000000000E+00 0.  1.
         13    1    4    4    0    0  0.33414852730E+03  0.27666630324E+03 -0.41196493234E+03  0.59825964120E+03  0.10566000000E+00 0. -1.
         -4    1    4    4    0  501 -0.71918080876E+03  0.32059901084E+03 -0.61534906186E+03  0.99932938982E+03  0.00000000000E+00 0. -1.
<mgrwt>
<rscale>  2 0.12292534E+04</rscale>
<asrwt>0</asrwt>
<pdfrwt beam="2">  1        2 0.34027191E+00 0.12292534E+04</pdfrwt>
<pdfrwt beam="1">  1       -2 0.10910258E+00 0.12292534E+04</pdfrwt>
<totfact> 0.51594616E+00</totfact>
</mgrwt>
</event>
<event>
 8    1  0.1373409E-005  0.1021744E+04  0.7818608E-02  0.8754425E-01
          2   -1    0    0  502    0  0.00000000000E+00  0.00000000000E+00  0.25864598536E+04  0.25864598536E+04  0.00000000000E+00 0.  1.
         -2   -1    0    0    0  501 -0.00000000000E+00 -0.00000000000E+00 -0.40577439430E+03  0.40577439430E+03  0.00000000000E+00 0. -1.
    9000010    2    1    2  502    0  0.23690511701E+03  0.53266500945E+02  0.12022092162E+04  0.15796248670E+04  0.99546289042E+03 0.  0.
   -9000010    2    1    2    0  501 -0.23690511701E+03 -0.53266500945E+02  0.97847624300E+03  0.14126093809E+04  0.98948883278E+03 0.  0.
        -13    1    3    3    0    0  0.15658318277E+02  0.48221324854E+03  0.86631315760E+03  0.99160138070E+03  0.10566000000E+00 0.  1.
          4    1    3    3  502    0  0.22124679873E+03 -0.42894674760E+03  0.33589605865E+03  0.58802348630E+03  0.00000000000E+00 0.  1.
         13    1    4    4    0    0 -0.53099405000E+03 -0.30592658585E+03  0.46537410277E+03  0.76949257551E+03  0.10566000000E+00 0. -1.
         -4    1    4    4    0  501  0.29408893300E+03  0.25266008491E+03  0.51310214023E+03  0.64311680535E+03  0.00000000000E+00 0. -1.
<mgrwt>
<rscale>  2 0.10217445E+04</rscale>
<asrwt>0</asrwt>
<pdfrwt beam="1">  1        2 0.39791689E+00 0.10217445E+04</pdfrwt>
<pdfrwt beam="2">  1       -2 0.62426832E-01 0.10217445E+04</pdfrwt>
<totfact> 0.11410719E+01</totfact>
</mgrwt>
</event>
<event>
 8    1  0.1373409E-005  0.1069118E+04  0.7818608E-02  0.8712228E-01
          1   -1    0    0  502    0  0.00000000000E+00  0.00000000000E+00  0.46552345893E+04  0.46552345893E+04  0.00000000000E+00 0. -1.
         -1   -1    0    0    0  501 -0.00000000000E+00 -0.00000000000E+00 -0.26967125235E+03  0.26967125235E+03  0.00000000000E+00 0.  1.
    9000010    2    1    2  502    0 -0.11542036234E+03 -0.38774412750E+03  0.14491624821E+04  0.17986550550E+04  0.98560678703E+03 0.  0.
   -9000010    2    1    2    0  501  0.11542036234E+03  0.38774412750E+03  0.29364008548E+04  0.31262507867E+04  0.99364311133E+03 0.  0.
        -13    1    3    3    0    0  0.67049843532E+02  0.31550622127E+03  0.59911697283E+03  0.68042708314E+03  0.10566000000E+00 0.  1.
          4    1    3    3  502    0 -0.18247020587E+03 -0.70325034876E+03  0.85004550932E+03  0.11182279718E+04  0.00000000000E+00 0.  1.
         13    1    4    4    0    0  0.21908949785E+03  0.67279507931E+03  0.15045488002E+04  0.16626245908E+04  0.10566000000E+00 0. -1.
         -4    1    4    4    0  501 -0.10366913551E+03 -0.28505095182E+03  0.14318520546E+04  0.14636261959E+04  0.00000000000E+00 0. -1.
<mgrwt>
<rscale>  2 0.10691180E+04</rscale>
<asrwt>0</asrwt>
<pdfrwt beam="1">  1        1 0.71618987E+00 0.10691180E+04</pdfrwt>
<pdfrwt beam="2">  1       -1 0.41487889E-01 0.10691180E+04</pdfrwt>
<totfact> 0.12376730E-01</totfact>
</mgrwt>
</event>
<event>
 8    1  0.1373409E-005  0.1534342E+04  0.7818608E-02  0.8390005E-01
          1   -1    0    0  502    0  0.00000000000E+00  0.00000000000E+00  0.89976699303E+03  0.89976699303E+03  0.00000000000E+00 0.  1.
         -1   -1    0    0    0  501 -0.00000000000E+00 -0.00000000000E+00 -0.26350694345E+04  0.26350694345E+04  0.00000000000E+00 0. -1.
    9000010    2    1    2  502    0  0.86294941772E+03  0.74691607802E+03 -0.71694289561E+03  0.16899405834E+04  0.10194737538E+04 0.  0.
   -9000010    2    1    2    0  501 -0.86294941772E+03 -0.74691607802E+03 -0.10183595459E+04  0.18448958442E+04  0.10315130567E+04 0.  0.
        -13    1    3    3    0    0  0.82490897307E+02  0.39633761345E+03  0.18644498555E+03  0.44570168922E+03  0.10566000000E+00 0.  1.
          4    1    3    3  502    0  0.78045852041E+03  0.35057846457E+03 -0.90338788116E+03  0.12442388942E+04  0.00000000000E+00 0.  1.
         13    1    4    4    0    0 -0.10648185190E+04 -0.72554886988E+03 -0.69742117781E+03  0.14651470750E+04  0.10566000000E+00 0. -1.
         -4    1    4    4    0  501  0.20186910124E+03 -0.21367208140E+02 -0.32093836806E+03  0.37974876920E+03  0.00000000000E+00 0. -1.
<mgrwt>
<rscale>  2 0.15343422E+04</rscale>
<asrwt>0</asrwt>
<pdfrwt beam="1">  1        1 0.13842569E+00 0.15343422E+04</pdfrwt>
<pdfrwt beam="2">  1       -1 0.40539530E+00 0.15343422E+04</pdfrwt>
<totfact> 0.27219143E-01</totfact>
</mgrwt>
</event>
<event>
 8    1  0.1373409E-005  0.1177181E+04  0.7818608E-02  0.8623946E-01
         -2   -1    0    0    0  501 -0.00000000000E+00  0.00000000000E+00  0.63602766056E+03  0.63602766056E+03  0.00000000000E+00 0. -1.
          2   -1    0    0  502    0  0.00000000000E+00 -0.00000000000E+00 -0.23508794950E+04  0.23508794950E+04  0.00000000000E+00 0.  1.
    9000010    2    1    2  502    0  0.27619271827E+02 -0.60902581478E+03 -0.45788527666E+03  0.12692836426E+04  0.10147643922E+04 0.  0.
   -9000010    2    1    2    0  501 -0.27619271827E+02  0.60902581478E+03 -0.12569665577E+04  0.17176235129E+04  0.99929492022E+03 0.  0.
        -13    1    3    3    0    0  0.82477831722E+02  0.26451921701E+03 -0.24177238001E+03  0.36773210873E+03  0.10566000000E+00 0.  1.
          4    1    3    3  502    0 -0.54858559894E+02 -0.87354503179E+03 -0.21611289666E+03  0.90155153389E+03  0.00000000000E+00 0.  1.
         13    1    4    4    0    0  0.43156066847E+03  0.49334064473E+03 -0.49855020072E+03  0.82351801201E+03  0.10566000000E+00 0. -1.
         -4    1    4    4    0  501 -0.45917994030E+03  0.11568517006E+03 -0.75841635702E+03  0.89410550090E+03  0.00000000000E+00 0. -1.
<mgrwt>
<rscale>  2 0.11771815E+04</rscale>
<asrwt>0</asrwt>
<pdfrwt beam="2">  1        2 0.36167378E+00 0.11771815E+04</pdfrwt>
<pdfrwt beam="1">  1       -2 0.97850407E-01 0.11771815E+04</pdfrwt>
<totfact> 0.56776387E+00</totfact>
</mgrwt>
</event>
<event>
 8    1  0.1373409E-005  0.1140911E+04  0.7818608E-02  0.8652437E-01
         -1   -1    0    0    0  501 -0.00000000000E+00  0.00000000000E+00  0.90282483088E+03  0.90282483088E+03  0.00000000000E+00 0. -1.
          1   -1    0    0  502    0  0.00000000000E+00 -0.00000000000E+00 -0.24065614322E+04  0.24065614322E+04  0.00000000000E+00 0.  1.
    9000010    2    1    2  502    0 -0.36625804205E+03 -0.42474999595E+03 -0.17975593456E+04  0.21263866934E+04  0.98779717380E+03 0.  0.
   -9000010    2    1    2    0  501  0.36625804205E+03  0.42474999595E+03  0.29382274431E+03  0.11829995696E+04  0.99929908649E+03 0.  0.
        -13    1    3    3    0    0 -0.32322112499E+03  0.26060883440E+03 -0.43965769088E+03  0.60472122215E+03  0.10566000000E+00 0.  1.
          4    1    3    3  502    0 -0.43036917054E+02 -0.68535883034E+03 -0.13579016547E+04  0.15216654712E+04  0.00000000000E+00 0.  1.
         13    1    4    4    0    0 -0.29669960581E+03  0.28370418504E+03 -0.65733517926E+02  0.41573985524E+03  0.10566000000E+00 0. -1.
         -4    1    4    4    0  501  0.66295764785E+03  0.14104581091E+03  0.35955626223E+03  0.76725971439E+03  0.00000000000E+00 0. -1.
<mgrwt>
<rscale>  2 0.11409112E+04</rscale>
<asrwt>0</asrwt>
<pdfrwt beam="2">  1        1 0.37024021E+00 0.11409112E+04</pdfrwt>
<pdfrwt beam="1">  1       -1 0.13889613E+00 0.11409112E+04</pdfrwt>
<totfact> 0.79959537E-01</totfact>
</mgrwt>
</event>
<event>
 8    1  0.1373409E-005  0.1358212E+04  0.7818608E-02  0.8496087E-01
         -2   -1    0    0    0  501 -0.00000000000E+00  0.00000000000E+00  0.67947126153E+03  0.67947126153E+03  0.00000000000E+00 0.  1.
          2   -1    0    0  502    0  0.00000000000E+00 -0.00000000000E+00 -0.27963310865E+04  0.27963310865E+04  0.00000000000E+00 0. -1.
    9000010    2    1    2  502    0  0.93683135458E+03  0.17067603931E+03 -0.13433685703E+04  0.19001421131E+04  0.94821813781E+03 0.  0.
   -9000010    2    1    2    0  501 -0.93683135458E+03 -0.17067603931E+03 -0.77349125466E+03  0.15756602349E+04  0.98875333509E+03 0.  0.
        -13    1    3    3    0    0  0.40269833472E+03 -0.17612908664E+03 -0.11553352736E+04  0.12361177167E+04  0.10566000000E+00 0.  1.
          4    1    3    3  502    0  0.53413301986E+03  0.34680512595E+03 -0.18803329668E+03  0.66402439635E+03  0.00000000000E+00 0.  1.
         13    1    4    4    0    0 -0.47209517272E+03  0.28746976795E+03  0.13999773410E+02  0.55290932748E+03  0.10566000000E+00 0. -1.
         -4    1    4    4    0  501 -0.46473618186E+03 -0.45814580726E+03 -0.78749102807E+03  0.10227509075E+04  0.00000000000E+00 0. -1.
<mgrwt>
<rscale>  2 0.13582124E+04</rscale>
<asrwt>0</asrwt>
<pdfrwt beam="2">  1        2 0.43020479E+00 0.13582124E+04</pdfrwt>
<pdfrwt beam="1">  1       -2 0.10453404E+00 0.13582124E+04</pdfrwt>
<totfact> 0.26426325E+00</totfact>
</mgrwt>
</event>
<event>
 8    1  0.1373409E-005  0.1258002E+04  0.7818608E-02  0.8564120E-01
         -2   -1    0    0    0  501 -0.00000000000E+00  0.00000000000E+00  0.12238581207E+04  0.12238581207E+04  0.00000000000E+00 0. -1.
          2   -1    0    0  502    0  0.00000000000E+00 -0.00000000000E+00 -0.13318278090E+04  0.13318278090E+04  0.00000000000E+00 0.  1.
    9000010    2    1    2  502    0 -0.43336831938E+03 -0.50172374645E+03  0.15971079171E+03  0.12180433813E+04  0.10092508725E+04 0.  0.
   -9000010    2    1    2    0  501  0.43336831938E+03  0.50172374645E+03 -0.26768047993E+03  0.13376425484E+04  0.11305308178E+04 0.  0.
        -13    1    3    3    0    0 -0.92376485499E+02 -0.35771370757E+03 -0.40158959138E+03  0.54568005527E+03  0.10566000000E+00 0.  1.
          4    1    3    3  502    0 -0.34099183388E+03 -0.14401003889E+03  0.56130038309E+03  0.67236332598E+03  0.00000000000E+00 0.  1.
         13    1    4    4    0    0 -0.16612129649E+03  0.65954254593E+03 -0.55422506259E+02  0.68239601436E+03  0.10566000000E+00 0. -1.
         -4    1    4    4    0  501  0.59948961587E+03 -0.15781879948E+03 -0.21225797367E+03  0.65524653406E+03  0.00000000000E+00 0. -1.
<mgrwt>
<rscale>  2 0.12580016E+04</rscale>
<asrwt>0</asrwt>
<pdfrwt beam="2">  1        2 0.20489659E+00 0.12580016E+04</pdfrwt>
<pdfrwt beam="1">  1       -2 0.18828587E+00 0.12580016E+04</pdfrwt>
<totfact> 0.30626436E+00</totfact>
</mgrwt>
</event>
<event>
 8    1  0.1373409E-005  0.1100050E+04  0.7818608E-02  0.8685885E-01
         -1   -1    0    0    0  501 -0.00000000000E+00  0.00000000000E+00  0.63137671494E+03  0.63137671494E+03  0.00000000000E+00 0. -1.
          1   -1    0    0  502    0  0.00000000000E+00 -0.00000000000E+00 -0.19173045199E+04  0.19173045199E+04  0.00000000000E+00 0.  1.
    9000010    2    1    2  502    0  0.41842064779E+03  0.23693915367E+03 -0.61602148646E+03  0.12529901811E+04  0.97943142751E+03 0.  0.
   -9000010    2    1    2    0  501 -0.41842064779E+03 -0.23693915367E+03 -0.66990631848E+03  0.12956910537E+04  0.99941224227E+03 0.  0.
        -13    1    3    3    0    0  0.40924844736E+02  0.15762570765E+03  0.25375408800E+03  0.30151592822E+03  0.10566000000E+00 0.  1.
          4    1    3    3  502    0  0.37749580306E+03  0.79313446027E+02 -0.86977557446E+03  0.95147425292E+03  0.00000000000E+00 0.  1.
         13    1    4    4    0    0  0.71259868544E+02 -0.52244627988E+03 -0.42912852659E+03  0.67983776574E+03  0.10566000000E+00 0. -1.
         -4    1    4    4    0  501 -0.48968051634E+03  0.28550712621E+03 -0.24077779188E+03  0.61585328794E+03  0.00000000000E+00 0. -1.
<mgrwt>
<rscale>  2 0.11000500E+04</rscale>
<asrwt>0</asrwt>
<pdfrwt beam="2">  1        1 0.29496992E+00 0.11000500E+04</pdfrwt>
<pdfrwt beam="1">  1       -1 0.97134881E-01 0.11000500E+04</pdfrwt>
<totfact> 0.47063441E+00</totfact>
</mgrwt>
</event>
<event>
 8    1  0.1373409E-005  0.1280739E+04  0.7818608E-02  0.8548123E-01
          1   -1    0    0  502    0  0.00000000000E+00  0.00000000000E+00  0.16736316769E+04  0.16736316769E+04  0.00000000000E+00 0.  1.
         -1   -1    0    0    0  501 -0.00000000000E+00 -0.00000000000E+00 -0.99055522573E+03  0.99055522573E+03  0.00000000000E+00 0. -1.
    9000010    2    1    2  502    0  0.56207114606E+03 -0.58033091957E+03  0.20533568806E+03  0.12999025240E+04  0.99743464831E+03 0.  0.
   -9000010    2    1    2    0  501 -0.56207114606E+03  0.58033091957E+03  0.47774076313E+03  0.13642843786E+04  0.99011498303E+03 0.  0.
        -13    1    3    3    0    0  0.65651000700E+03 -0.26110994933E+03 -0.23796138829E+03  0.74552627613E+03  0.10566000000E+00 0.  1.
          4    1    3    3  502    0 -0.94438860939E+02 -0.31922097024E+03  0.44329707634E+03  0.55437624786E+03  0.00000000000E+00 0.  1.
         13    1    4    4    0    0 -0.76111202420E+03  0.34089974906E+03  0.60252170196E+03  0.10288520617E+04  0.10566000000E+00 0. -1.
         -4    1    4    4    0  501  0.19904087814E+03  0.23943117051E+03 -0.12478093883E+03  0.33543231699E+03  0.00000000000E+00 0. -1.
<mgrwt>
<rscale>  2 0.12807395E+04</rscale>
<asrwt>0</asrwt>
<pdfrwt beam="1">  1        1 0.25748180E+00 0.12807395E+04</pdfrwt>
<pdfrwt beam="2">  1       -1 0.15239311E+00 0.12807395E+04</pdfrwt>
<totfact> 0.22543489E+00</totfact>
</mgrwt>
</event>
<event>
 8    1  0.1373409E-005  0.1683354E+04  0.7818608E-02  0.8311145E-01
         -1   -1    0    0    0  501 -0.00000000000E+00  0.00000000000E+00  0.20790286667E+04  0.20790286667E+04  0.00000000000E+00 0. -1.
          1   -1    0    0  502    0  0.00000000000E+00 -0.00000000000E+00 -0.14806222584E+04  0.14806222584E+04  0.00000000000E+00 0.  1.
    9000010    2    1    2  502    0  0.11102446902E+04  0.76512875791E+03  0.80198905003E+03  0.18710362836E+04  0.10195710127E+04 0.  0.
   -9000010    2    1    2    0  501 -0.11102446902E+04 -0.76512875791E+03 -0.20358264178E+03  0.16886146415E+04  0.99594589563E+03 0.  0.
        -13    1    3    3    0    0  0.11733034967E+04  0.52078092016E+03  0.93278342877E+03  0.15868014363E+04  0.10566000000E+00 0.  1.
          4    1    3    3  502    0 -0.63058806541E+02  0.24434783774E+03 -0.13079437873E+03  0.28423484727E+03  0.00000000000E+00 0.  1.
         13    1    4    4    0    0 -0.10388789770E+04 -0.30649406986E+03 -0.43832620302E+03  0.11684767928E+04  0.10566000000E+00 0. -1.
         -4    1    4    4    0  501 -0.71365713143E+02 -0.45863468804E+03  0.23474356125E+03  0.52013784869E+03  0.00000000000E+00 0. -1.
<mgrwt>
<rscale>  2 0.16833544E+04</rscale>
<asrwt>0</asrwt>
<pdfrwt beam="2">  1        1 0.22778804E+00 0.16833544E+04</pdfrwt>
<pdfrwt beam="1">  1       -1 0.31985056E+00 0.16833544E+04</pdfrwt>
<totfact> 0.95688819E-02</totfact>
</mgrwt>
</event>
<event>
 8    1  0.1373409E-005  0.1285640E+04  0.7818608E-02  0.8544720E-01
          2   -1    0    0  502    0  0.00000000000E+00  0.00000000000E+00  0.24501780513E+04  0.24501780513E+04  0.00000000000E+00 0.  1.
         -2   -1    0    0    0  501 -0.00000000000E+00 -0.00000000000E+00 -0.67867179722E+03  0.67867179722E+03  0.00000000000E+00 0. -1.
    9000010    2    1    2  502    0 -0.27304577668E+02 -0.78153052483E+03  0.75118552759E+03  0.14676307450E+04  0.98900192398E+03 0.  0.
   -9000010    2    1    2    0  501  0.27304577668E+02  0.78153052483E+03  0.10203207265E+04  0.16612191035E+04  0.10521687240E+04 0.  0.
        -13    1    3    3    0    0  0.46179023529E+03 -0.48040062095E+03  0.53270419298E+03  0.85311707661E+03  0.10566000000E+00 0.  1.
          4    1    3    3  502    0 -0.48909481296E+03 -0.30112990388E+03  0.21848133460E+03  0.61451366839E+03  0.00000000000E+00 0.  1.
         13    1    4    4    0    0 -0.49625796666E+02 -0.11167033698E+03 -0.14584811830E+03  0.19027524440E+03  0.10566000000E+00 0. -1.
         -4    1    4    4    0  501  0.76930374333E+02  0.89320086181E+03  0.11661688448E+04  0.14709438591E+04  0.00000000000E+00 0. -1.
<mgrwt>
<rscale>  2 0.12856402E+04</rscale>
<asrwt>0</asrwt>
<pdfrwt beam="1">  1        2 0.37695046E+00 0.12856402E+04</pdfrwt>
<pdfrwt beam="2">  1       -2 0.10441105E+00 0.12856402E+04</pdfrwt>
<totfact> 0.42270000E+00</totfact>
</mgrwt>
</event>
<event>
 8    1  0.1373409E-005  0.1259236E+04  0.7818608E-02  0.8563243E-01
         -2   -1    0    0    0  501 -0.00000000000E+00  0.00000000000E+00  0.99421252360E+03  0.99421252360E+03  0.00000000000E+00 0.  1.
          2   -1    0    0  502    0  0.00000000000E+00 -0.00000000000E+00 -0.16774597160E+04  0.16774597160E+04  0.00000000000E+00 0. -1.
    9000010    2    1    2  502    0  0.16646756076E+02  0.76366097728E+03 -0.63718137424E+03  0.14086137520E+04  0.99736522700E+03 0.  0.
   -9000010    2    1    2    0  501 -0.16646756076E+02 -0.76366097728E+03 -0.46065818144E+02  0.12630584876E+04  0.10048579405E+04 0.  0.
        -13    1    3    3    0    0  0.17515309902E+01  0.19958927442E+03 -0.79743133699E+03  0.82203144387E+03  0.10566000000E+00 0.  1.
          4    1    3    3  502    0  0.14895225085E+02  0.56407170285E+03  0.16024996275E+03  0.58658230816E+03  0.00000000000E+00 0.  1.
         13    1    4    4    0    0 -0.33847675428E+03 -0.61571644127E+03  0.30353579844E+03  0.76538045529E+03  0.10566000000E+00 0. -1.
         -4    1    4    4    0  501  0.32182999820E+03 -0.14794453601E+03 -0.34960161659E+03  0.49767803227E+03  0.00000000000E+00 0. -1.
<mgrwt>
<rscale>  2 0.12592362E+04</rscale>
<asrwt>0</asrwt>
<pdfrwt beam="2">  1        2 0.25807072E+00 0.12592362E+04</pdfrwt>
<pdfrwt beam="1">  1       -2 0.15295578E+00 0.12592362E+04</pdfrwt>
<totfact> 0.39402383E+00</totfact>
</mgrwt>
</event>
<event>
 8    1  0.1373409E-005  0.1073078E+04  0.7818608E-02  0.8708804E-01
          1   -1    0    0  502    0  0.00000000000E+00  0.00000000000E+00  0.86767653944E+03  0.86767653944E+03  0.00000000000E+00 0. -1.
         -1   -1    0    0    0  501 -0.00000000000E+00 -0.00000000000E+00 -0.18340067154E+04  0.18340067154E+04  0.00000000000E+00 0.  1.
    9000010    2    1    2  502    0 -0.16500112299E+03  0.29291398263E+03  0.22748133839E+03  0.10955102561E+04  0.10175318128E+04 0.  0.
   -9000010    2    1    2    0  501  0.16500112299E+03 -0.29291398263E+03 -0.11938115143E+04  0.16061729988E+04  0.10205791485E+04 0.  0.
        -13    1    3    3    0    0 -0.52906760276E+03  0.87743640716E+02  0.37271832026E+03  0.65309297362E+03  0.10566000000E+00 0.  1.
          4    1    3    3  502    0  0.36406647976E+03  0.20517034192E+03 -0.14523698187E+03  0.44241728243E+03  0.00000000000E+00 0.  1.
         13    1    4    4    0    0  0.16169771265E+03 -0.32527409795E+03  0.45809268057E+02  0.36612551028E+03  0.10566000000E+00 0. -1.
         -4    1    4    4    0  501  0.33034103427E+01  0.32360115318E+02 -0.12396207824E+04  0.12400474885E+04  0.00000000000E+00 0. -1.
<mgrwt>
<rscale>  2 0.10730779E+04</rscale>
<asrwt>0</asrwt>
<pdfrwt beam="1">  1        1 0.13348870E+00 0.10730779E+04</pdfrwt>
<pdfrwt beam="2">  1       -1 0.28215488E+00 0.10730779E+04</pdfrwt>
<totfact> 0.61480078E-01</totfact>
</mgrwt>
</event>
<event>
 8    1  0.1373409E-005  0.1470076E+04  0.7818608E-02  0.8426932E-01
         -2   -1    0    0    0  501 -0.00000000000E+00  0.00000000000E+00  0.38236889160E+04  0.38236889160E+04  0.00000000000E+00 0. -1.
          2   -1    0    0  502    0  0.00000000000E+00 -0.00000000000E+00 -0.91300209694E+03  0.91300209694E+03  0.00000000000E+00 0.  1.
    9000010    2    1    2  502    0  0.32025557634E+03  0.10401963284E+04  0.29078547059E+04  0.32517002218E+04  0.96610729522E+03 0.  0.
   -9000010    2    1    2    0  501 -0.32025557634E+03 -0.10401963284E+04  0.28321130957E+01  0.14849907911E+04  0.10102562016E+04 0.  0.
        -13    1    3    3    0    0  0.12616809361E+03  0.95426988560E+00 -0.29763213592E+02  0.12963471188E+03  0.10566000000E+00 0.  1.
          4    1    3    3  502    0  0.19408748272E+03  0.10392420585E+04  0.29376179195E+04  0.31220655099E+04  0.00000000000E+00 0.  1.
         13    1    4    4    0    0 -0.61386469221E+03 -0.45484571699E+03 -0.21697643287E+03  0.79422494936E+03  0.10566000000E+00 0. -1.
         -4    1    4    4    0  501  0.29360911587E+03 -0.58535061144E+03  0.21980854596E+03  0.69076584174E+03  0.00000000000E+00 0. -1.
<mgrwt>
<rscale>  2 0.14700756E+04</rscale>
<asrwt>0</asrwt>
<pdfrwt beam="2">  1        2 0.14046186E+00 0.14700756E+04</pdfrwt>
<pdfrwt beam="1">  1       -2 0.58825982E+00 0.14700756E+04</pdfrwt>
<totfact> 0.19904347E-01</totfact>
</mgrwt>
</event>
<event>
 8    1  0.1373409E-005  0.1170785E+04  0.7818608E-02  0.8628893E-01
         -2   -1    0    0    0  501 -0.00000000000E+00  0.00000000000E+00  0.65499498139E+03  0.65499498139E+03  0.00000000000E+00 0. -1.
          2   -1    0    0  502    0  0.00000000000E+00 -0.00000000000E+00 -0.28242228003E+04  0.28242228003E+04  0.00000000000E+00 0.  1.
    9000010    2    1    2  502    0 -0.45201366022E+03 -0.34689870342E+03 -0.19637385515E+04  0.22817378773E+04  0.10126221323E+04 0.  0.
   -9000010    2    1    2    0  501  0.45201366022E+03  0.34689870342E+03 -0.20548926739E+03  0.11974799043E+04  0.10329942995E+04 0.  0.
        -13    1    3    3    0    0 -0.61493106250E+03 -0.54845796811E+03 -0.10659608122E+04  0.13473005673E+04  0.10566000000E+00 0.  1.
          4    1    3    3  502    0  0.16291740228E+03  0.20155926469E+03 -0.89777773929E+03  0.93443731000E+03  0.00000000000E+00 0.  1.
         13    1    4    4    0    0  0.11041454826E+03 -0.36597342995E+03 -0.64759888068E+01  0.38232168849E+03  0.10566000000E+00 0. -1.
         -4    1    4    4    0  501  0.34159911196E+03  0.71287213337E+03 -0.19901327859E+03  0.81515821585E+03  0.00000000000E+00 0. -1.
<mgrwt>
<rscale>  2 0.11707848E+04</rscale>
<asrwt>0</asrwt>
<pdfrwt beam="2">  1        2 0.43449582E+00 0.11707848E+04</pdfrwt>
<pdfrwt beam="1">  1       -2 0.10076846E+00 0.11707848E+04</pdfrwt>
<totfact> 0.28444451E+00</totfact>
</mgrwt>
</event>
<event>
 8    1  0.1373409E-005  0.1141786E+04  0.7818608E-02  0.8651737E-01
          2   -1    0    0  502    0  0.00000000000E+00  0.00000000000E+00  0.31180008002E+04  0.31180008002E+04  0.00000000000E+00 0.  1.
         -2   -1    0    0    0  501 -0.00000000000E+00 -0.00000000000E+00 -0.10034778800E+04  0.10034778800E+04  0.00000000000E+00 0. -1.
    9000010    2    1    2  502    0 -0.30715929534E+03  0.46442150006E+03  0.26360127920E+04  0.28778160129E+04  0.10115470341E+04 0.  0.
   -9000010    2    1    2    0  501  0.30715929534E+03 -0.46442150006E+03 -0.52148987173E+03  0.12436626674E+04  0.98219701762E+03 0.  0.
        -13    1    3    3    0    0 -0.27929640504E+03  0.37657554253E+03  0.33805529582E+03  0.57801125880E+03  0.10566000000E+00 0.  1.
          4    1    3    3  502    0 -0.27862890296E+02  0.87845957532E+02  0.22979574961E+04  0.22998047541E+04  0.00000000000E+00 0.  1.
         13    1    4    4    0    0 -0.11703229552E+03 -0.41982576422E+03  0.13896538851E+03  0.45745122239E+03  0.10566000000E+00 0. -1.
         -4    1    4    4    0  501  0.42419159086E+03 -0.44595735842E+02 -0.66045526025E+03  0.78621144497E+03  0.00000000000E+00 0. -1.
<mgrwt>
<rscale>  2 0.11417859E+04</rscale>
<asrwt>0</asrwt>
<pdfrwt beam="1">  1        2 0.47969243E+00 0.11417859E+04</pdfrwt>
<pdfrwt beam="2">  1       -2 0.15438121E+00 0.11417859E+04</pdfrwt>
<totfact> 0.59022783E-01</totfact>
</mgrwt>
</event>
<event>
 8    1  0.1373409E-005  0.1156797E+04  0.7818608E-02  0.8639825E-01
         -2   -1    0    0    0  501 -0.00000000000E+00  0.00000000000E+00  0.78467033894E+03  0.78467033894E+03  0.00000000000E+00 0.  1.
          2   -1    0    0  502    0  0.00000000000E+00 -0.00000000000E+00 -0.17129353218E+04  0.17129353218E+04  0.00000000000E+00 0. -1.
    9000010    2    1    2  502    0 -0.55989427148E+03  0.17227039598E+03 -0.54387201956E+03  0.12720988284E+04  0.98958575723E+03 0.  0.
   -9000010    2    1    2    0  501  0.55989427148E+03 -0.17227039598E+03 -0.38439296331E+03  0.12255068324E+04  0.10054602734E+04 0.  0.
        -13    1    3    3    0    0 -0.31479921508E+03  0.22820118829E+03 -0.81460913765E+03  0.90264189270E+03  0.10566000000E+00 0.  1.
          4    1    3    3  502    0 -0.24509505640E+03 -0.55930792312E+02  0.27073711809E+03  0.36945693567E+03  0.00000000000E+00 0.  1.
         13    1    4    4    0    0 -0.70835998857E+02  0.44430025315E+02  0.27513064150E+03  0.28755633698E+03  0.10566000000E+00 0. -1.
         -4    1    4    4    0  501  0.63073027034E+03 -0.21670042130E+03 -0.65952360481E+03  0.93795049539E+03  0.00000000000E+00 0. -1.
<mgrwt>
<rscale>  2 0.11567974E+04</rscale>
<asrwt>0</asrwt>
<pdfrwt beam="2">  1        2 0.26352851E+00 0.11567974E+04</pdfrwt>
<pdfrwt beam="1">  1       -2 0.12071851E+00 0.11567974E+04</pdfrwt>
<totfact> 0.74956608E+00</totfact>
</mgrwt>
</event>
<event>
 8    1  0.1373409E-005  0.1384577E+04  0.7818608E-02  0.8479187E-01
         -2   -1    0    0    0  501 -0.00000000000E+00  0.00000000000E+00  0.13310178534E+04  0.13310178534E+04  0.00000000000E+00 0. -1.
          2   -1    0    0  502    0  0.00000000000E+00 -0.00000000000E+00 -0.20504080424E+04  0.20504080424E+04  0.00000000000E+00 0.  1.
    9000010    2    1    2  502    0 -0.88758006258E+02  0.95602529862E+03  0.56262114674E+03  0.14942658754E+04  0.99720890312E+03 0.  0.
   -9000010    2    1    2    0  501  0.88758006258E+02 -0.95602529862E+03 -0.12820113357E+04  0.18871600203E+04  0.99797671411E+03 0.  0.
        -13    1    3    3    0    0  0.11766370533E+03  0.11017283415E+04  0.34405041604E+03  0.11601813591E+04  0.10566000000E+00 0.  1.
          4    1    3    3  502    0 -0.20642171158E+03 -0.14570304291E+03  0.21857073070E+03  0.33408451632E+03  0.00000000000E+00 0.  1.
         13    1    4    4    0    0 -0.82474289975E+02 -0.97932405107E+03 -0.53209055114E+03  0.11175857780E+04  0.10566000000E+00 0. -1.
         -4    1    4    4    0  501  0.17123229623E+03  0.23298752449E+02 -0.74992078460E+03  0.76957424224E+03  0.00000000000E+00 0. -1.
<mgrwt>
<rscale>  2 0.13845771E+04</rscale>
<asrwt>0</asrwt>
<pdfrwt beam="2">  1        2 0.31544739E+00 0.13845771E+04</pdfrwt>
<pdfrwt beam="1">  1       -2 0.20477198E+00 0.13845771E+04</pdfrwt>
<totfact> 0.89033190E-01</totfact>
</mgrwt>
</event>
<event>
 8    1  0.1373409E-005  0.1292211E+04  0.7818608E-02  0.8540182E-01
         -1   -1    0    0    0  501 -0.00000000000E+00  0.00000000000E+00  0.12933361051E+04  0.12933361051E+04  0.00000000000E+00 0. -1.
          1   -1    0    0  502    0  0.00000000000E+00 -0.00000000000E+00 -0.12980498961E+04  0.12980498961E+04  0.00000000000E+00 0.  1.
    9000010    2    1    2  502    0  0.80897778869E+03 -0.75014665834E+01 -0.96837554664E+02  0.13048072890E+04  0.10191384669E+04 0.  0.
   -9000010    2    1    2    0  501 -0.80897778869E+03  0.75014665834E+01  0.92123763676E+02  0.12865787122E+04  0.99614088374E+03 0.  0.
        -13    1    3    3    0    0  0.16953399585E+03 -0.45827184918E+03 -0.17393668150E+03  0.51866062491E+03  0.10566000000E+00 0.  1.
          4    1    3    3  502    0  0.63944379284E+03  0.45077038260E+03  0.77099126839E+02  0.78614666404E+03  0.00000000000E+00 0.  1.
         13    1    4    4    0    0 -0.10321652706E+04 -0.95005023095E+02  0.95831185809E+02  0.10409489553E+04  0.10566000000E+00 0. -1.
         -4    1    4    4    0  501  0.22318748189E+03  0.10250648968E+03 -0.37074221329E+01  0.24562975690E+03  0.00000000000E+00 0. -1.
<mgrwt>
<rscale>  2 0.12922115E+04</rscale>
<asrwt>0</asrwt>
<pdfrwt beam="2">  1        1 0.19969998E+00 0.12922115E+04</pdfrwt>
<pdfrwt beam="1">  1       -1 0.19897479E+00 0.12922115E+04</pdfrwt>
<totfact> 0.16816792E+00</totfact>
</mgrwt>
</event>
<event>
 8    1  0.1373409E-005  0.1210049E+04  0.7818608E-02  0.8599033E-01
          1   -1    0    0  502    0  0.00000000000E+00  0.00000000000E+00  0.20899582384E+04  0.20899582384E+04  0.00000000000E+00 0.  1.
         -1   -1    0    0    0  501 -0.00000000000E+00 -0.00000000000E+00 -0.78253166195E+03  0.78253166195E+03  0.00000000000E+00 0. -1.
    9000010    2    1    2  502    0  0.37939189114E+03  0.45973976378E+03  0.16773970597E+03  0.11708818383E+04  0.99374484290E+03 0.  0.
   -9000010    2    1    2    0  501 -0.37939189114E+03 -0.45973976378E+03  0.11396868704E+04  0.17016080620E+04  0.11141296947E+04 0.  0.
        -13    1    3    3    0    0 -0.57098364566E+02  0.59542023723E+03  0.33328362147E+03  0.68473605546E+03  0.10566000000E+00 0.  1.
          4    1    3    3  502    0  0.43649025571E+03 -0.13568047345E+03 -0.16554391549E+03  0.48614578283E+03  0.00000000000E+00 0.  1.
         13    1    4    4    0    0  0.30334707484E+03  0.12298311284E+03  0.13423808917E+03  0.35378548530E+03  0.10566000000E+00 0. -1.
         -4    1    4    4    0  501 -0.68273896598E+03 -0.58272287662E+03  0.10054487813E+04  0.13478225767E+04  0.00000000000E+00 0. -1.
<mgrwt>
<rscale>  2 0.12100491E+04</rscale>
<asrwt>0</asrwt>
<pdfrwt beam="1">  1        1 0.32153203E+00 0.12100491E+04</pdfrwt>
<pdfrwt beam="2">  1       -1 0.12038949E+00 0.12100491E+04</pdfrwt>
<totfact> 0.21005767E+00</totfact>
</mgrwt>
</event>
<event>
 8    1  0.1373409E-005  0.1206811E+04  0.7818608E-02  0.8601451E-01
          4   -1    0    0  502    0  0.00000000000E+00  0.00000000000E+00  0.16520492317E+04  0.16520492317E+04  0.00000000000E+00 0.  1.
         -4   -1    0    0    0  501 -0.00000000000E+00 -0.00000000000E+00 -0.98053879029E+03  0.98053879029E+03  0.00000000000E+00 0. -1.
    9000010    2    1    2  502    0  0.20705351143E+03  0.63975932436E+03  0.75495863659E+03  0.14270170961E+04  0.10071008390E+04 0.  0.
   -9000010    2    1    2    0  501 -0.20705351143E+03 -0.63975932436E+03 -0.83448195207E+02  0.12055709259E+04  0.99713314373E+03 0.  0.
        -13    1    3    3    0    0 -0.16045556765E+03  0.72155886084E+03  0.74631039490E+03  0.10504153443E+04  0.10566000000E+00 0.  1.
          4    1    3    3  502    0  0.36750907908E+03 -0.81799536482E+02  0.86482416897E+01  0.37660175180E+03  0.00000000000E+00 0.  1.
         13    1    4    4    0    0  0.81158674740E+02  0.13562185088E+03 -0.30993893340E+03  0.34791115320E+03  0.10566000000E+00 0. -1.
         -4    1    4    4    0  501 -0.28821218617E+03 -0.77538117524E+03  0.22649073819E+03  0.85765977267E+03  0.00000000000E+00 0. -1.
<mgrwt>
<rscale>  2 0.12068108E+04</rscale>
<asrwt>0</asrwt>
<pdfrwt beam="1">  1        4 0.25416142E+00 0.12068108E+04</pdfrwt>
<pdfrwt beam="2">  1       -4 0.15085212E+00 0.12068108E+04</pdfrwt>
<totfact> 0.19535564E-01</totfact>
</mgrwt>
</event>
<event>
 8    1  0.1373409E-005  0.1137002E+04  0.7818608E-02  0.8655574E-01
          1   -1    0    0  502    0  0.00000000000E+00  0.00000000000E+00  0.14198375926E+04  0.14198375926E+04  0.00000000000E+00 0. -1.
         -1   -1    0    0    0  501 -0.00000000000E+00 -0.00000000000E+00 -0.10049399350E+04  0.10049399350E+04  0.00000000000E+00 0.  1.
    9000010    2    1    2  502    0 -0.53780243604E+03  0.33187408927E+02 -0.16617698739E+03  0.11356221708E+04  0.98574340438E+03 0.  0.
   -9000010    2    1    2    0  501  0.53780243604E+03 -0.33187408927E+02  0.58107464492E+03  0.12891553569E+04  0.10168288582E+04 0.  0.
        -13    1    3    3    0    0 -0.58400327764E+03  0.37026357336E+03  0.10645897813E+03  0.69963452405E+03  0.10566000000E+00 0.  1.
          4    1    3    3  502    0  0.46200841596E+02 -0.33707616444E+03 -0.27263596552E+03  0.43598764672E+03  0.00000000000E+00 0.  1.
         13    1    4    4    0    0  0.72904212354E+03  0.22379766301E+03  0.59688475247E+03  0.96843132475E+03  0.10566000000E+00 0. -1.
         -4    1    4    4    0  501 -0.19123968749E+03 -0.25698507194E+03 -0.15810107557E+02  0.32072403211E+03  0.00000000000E+00 0. -1.
<mgrwt>
<rscale>  2 0.11370021E+04</rscale>
<asrwt>0</asrwt>
<pdfrwt beam="1">  1        1 0.21843655E+00 0.11370021E+04</pdfrwt>
<pdfrwt beam="2">  1       -1 0.15460614E+00 0.11370021E+04</pdfrwt>
<totfact> 0.33925223E+00</totfact>
</mgrwt>
</event>
<event>
 8    1  0.1373409E-005  0.1417031E+04  0.7818608E-02  0.8458908E-01
          2   -1    0    0  502    0  0.00000000000E+00  0.00000000000E+00  0.15470361601E+04  0.15470361601E+04  0.00000000000E+00 0. -1.
         -2   -1    0    0    0  501 -0.00000000000E+00 -0.00000000000E+00 -0.13469080761E+04  0.13469080761E+04  0.00000000000E+00 0.  1.
    9000010    2    1    2  502    0  0.86116737087E+03 -0.49257293553E+03  0.37601687033E+03  0.14673225284E+04  0.10136120451E+04 0.  0.
   -9000010    2    1    2    0  501 -0.86116737087E+03  0.49257293553E+03 -0.17588878639E+03  0.14266217078E+04  0.10099877695E+04 0.  0.
        -13    1    3    3    0    0  0.69752104849E+03 -0.78036066026E+03  0.12967066241E+03  0.10546624413E+04  0.10566000000E+00 0.  1.
          4    1    3    3  502    0  0.16364632238E+03  0.28778772473E+03  0.24634620792E+03  0.41266008711E+03  0.00000000000E+00 0.  1.
         13    1    4    4    0    0 -0.45136317857E+03 -0.25711558412E+03  0.99600364935E+02  0.52892096425E+03  0.10566000000E+00 0. -1.
         -4    1    4    4    0  501 -0.40980419230E+03  0.74968851966E+03 -0.27548915133E+03  0.89770074358E+03  0.00000000000E+00 0. -1.
<mgrwt>
<rscale>  2 0.14170308E+04</rscale>
<asrwt>0</asrwt>
<pdfrwt beam="1">  1        2 0.23800556E+00 0.14170308E+04</pdfrwt>
<pdfrwt beam="2">  1       -2 0.20721663E+00 0.14170308E+04</pdfrwt>
<totfact> 0.15965206E+00</totfact>
</mgrwt>
</event>
<event>
 8    1  0.1373409E-005  0.1111604E+04  0.7818608E-02  0.8676275E-01
          1   -1    0    0  502    0  0.00000000000E+00  0.00000000000E+00  0.21563354123E+04  0.21563354123E+04  0.00000000000E+00 0.  1.
         -1   -1    0    0    0  501 -0.00000000000E+00 -0.00000000000E+00 -0.70152228968E+03  0.70152228968E+03  0.00000000000E+00 0. -1.
    9000010    2    1    2  502    0 -0.22477997170E+03 -0.41353192032E+03  0.13432949258E+04  0.17489358235E+04  0.10162679628E+04 0.  0.
   -9000010    2    1    2    0  501  0.22477997170E+03  0.41353192032E+03  0.11151819684E+03  0.11089218785E+04  0.99786609305E+03 0.  0.
        -13    1    3    3    0    0  0.30651396562E+03 -0.27383660258E+03  0.10469697160E+04  0.11247590379E+04  0.10566000000E+00 0.  1.
          4    1    3    3  502    0 -0.53129393733E+03 -0.13969531774E+03  0.29632520981E+03  0.62417678554E+03  0.00000000000E+00 0.  1.
         13    1    4    4    0    0 -0.29022631657E+03 -0.90115284477E+02 -0.15464527198E+03  0.34097983905E+03  0.10566000000E+00 0. -1.
         -4    1    4    4    0  501  0.51500628828E+03  0.50364720480E+03  0.26616346882E+03  0.76794203948E+03  0.00000000000E+00 0. -1.
<mgrwt>
<rscale>  2 0.11116044E+04</rscale>
<asrwt>0</asrwt>
<pdfrwt beam="1">  1        1 0.33174391E+00 0.11116044E+04</pdfrwt>
<pdfrwt beam="2">  1       -1 0.10792651E+00 0.11116044E+04</pdfrwt>
<totfact> 0.24458200E+00</totfact>
</mgrwt>
</event>
<event>
 8    1  0.1373409E-005  0.1173531E+04  0.7818608E-02  0.8626765E-01
          2   -1    0    0  502    0  0.00000000000E+00  0.00000000000E+00  0.17370055019E+04  0.17370055019E+04  0.00000000000E+00 0. -1.
         -2   -1    0    0    0  501 -0.00000000000E+00 -0.00000000000E+00 -0.17161758488E+04  0.17161758488E+04  0.00000000000E+00 0.  1.
    9000010    2    1    2  502    0 -0.10224772039E+03  0.55307371478E+03 -0.12558718389E+04  0.17053312309E+04  0.10072712648E+04 0.  0.
   -9000010    2    1    2    0  501  0.10224772039E+03 -0.55307371478E+03  0.12767014921E+04  0.17478501198E+04  0.10529331466E+04 0.  0.
        -13    1    3    3    0    0  0.31070406973E+03  0.63092237986E+03 -0.59020008494E+03  0.91811558084E+03  0.10566000000E+00 0.  1.
          4    1    3    3  502    0 -0.41295179012E+03 -0.77848665085E+02 -0.66567175397E+03  0.78721565003E+03  0.00000000000E+00 0.  1.
         13    1    4    4    0    0 -0.76113178134E+01  0.31434939133E+03  0.26999611299E+03  0.41445311458E+03  0.10566000000E+00 0. -1.
         -4    1    4    4    0  501  0.10985903820E+03 -0.86742310611E+03  0.10067053791E+04  0.13333970053E+04  0.00000000000E+00 0. -1.
<mgrwt>
<rscale>  2 0.11735305E+04</rscale>
<asrwt>0</asrwt>
<pdfrwt beam="1">  1        2 0.26723162E+00 0.11735305E+04</pdfrwt>
<pdfrwt beam="2">  1       -2 0.26402705E+00 0.11735305E+04</pdfrwt>
<totfact> 0.45838105E-01</totfact>
</mgrwt>
</event>
<event>
 8    1  0.1373409E-005  0.1049409E+04  0.7818608E-02  0.8729503E-01
         -2   -1    0    0    0  501 -0.00000000000E+00  0.00000000000E+00  0.33349717917E+04  0.33349717917E+04  0.00000000000E+00 0.  1.
          2   -1    0    0  502    0  0.00000000000E+00 -0.00000000000E+00 -0.37482971774E+03  0.37482971774E+03  0.00000000000E+00 0. -1.
    9000010    2    1    2  502    0 -0.44338381434E+03 -0.27560380326E+03  0.20224108990E+04  0.22484681838E+04  0.83241616151E+03 0.  0.
   -9000010    2    1    2    0  501  0.44338381434E+03  0.27560380326E+03  0.93773117496E+03  0.14613333257E+04  0.99177047193E+03 0.  0.
        -13    1    3    3    0    0 -0.24958122025E+03 -0.32617719080E+03  0.28584458680E+03  0.50038933269E+03  0.10566000000E+00 0.  1.
          4    1    3    3  502    0 -0.19380259409E+03  0.50573387545E+02  0.17365663122E+04  0.17480788511E+04  0.00000000000E+00 0.  1.
         13    1    4    4    0    0  0.69789412899E+03  0.15011310128E+03  0.32151457145E+03  0.78291876288E+03  0.10566000000E+00 0. -1.
         -4    1    4    4    0  501 -0.25451031464E+03  0.12549070198E+03  0.61621660351E+03  0.67841456277E+03  0.00000000000E+00 0. -1.
<mgrwt>
<rscale>  2 0.10494090E+04</rscale>
<asrwt>0</asrwt>
<pdfrwt beam="2">  1        2 0.57666113E-01 0.10494090E+04</pdfrwt>
<pdfrwt beam="1">  1       -2 0.51307256E+00 0.10494090E+04</pdfrwt>
<totfact> 0.34671073E-01</totfact>
</mgrwt>
</event>
<event>
 8    1  0.1373409E-005  0.1225179E+04  0.7818608E-02  0.8587839E-01
         -2   -1    0    0    0  501 -0.00000000000E+00  0.00000000000E+00  0.14534083488E+04  0.14534083488E+04  0.00000000000E+00 0. -1.
          2   -1    0    0  502    0  0.00000000000E+00 -0.00000000000E+00 -0.12344916526E+04  0.12344916526E+04  0.00000000000E+00 0.  1.
    9000010    2    1    2  502    0 -0.15162047291E+03  0.62336146664E+03 -0.42315158655E+03  0.13648881945E+04  0.11279602087E+04 0.  0.
   -9000010    2    1    2    0  501  0.15162047291E+03 -0.62336146664E+03  0.64206828276E+03  0.13230118070E+04  0.96256962131E+03 0.  0.
        -13    1    3    3    0    0  0.26452928948E+03  0.75125868097E+03 -0.61376232504E+02  0.79883189960E+03  0.10566000000E+00 0.  1.
          4    1    3    3  502    0 -0.41614976239E+03 -0.12789721434E+03 -0.36177535404E+03  0.56605629487E+03  0.00000000000E+00 0.  1.
         13    1    4    4    0    0  0.22353101011E+03 -0.41656141848E+03 -0.15414584512E+03  0.49724287886E+03  0.10566000000E+00 0. -1.
         -4    1    4    4    0  501 -0.71910537197E+02 -0.20680004816E+03  0.79621412788E+03  0.82576892816E+03  0.00000000000E+00 0. -1.
<mgrwt>
<rscale>  2 0.12251789E+04</rscale>
<asrwt>0</asrwt>
<pdfrwt beam="2">  1        2 0.18992179E+00 0.12251789E+04</pdfrwt>
<pdfrwt beam="1">  1       -2 0.22360128E+00 0.12251789E+04</pdfrwt>
<totfact> 0.17848498E+00</totfact>
</mgrwt>
</event>
<event>
 8    1  0.1373409E-005  0.1315273E+04  0.7818608E-02  0.8524472E-01
          2   -1    0    0  502    0  0.00000000000E+00  0.00000000000E+00  0.23347748799E+04  0.23347748799E+04  0.00000000000E+00 0.  1.
         -2   -1    0    0    0  501 -0.00000000000E+00 -0.00000000000E+00 -0.78604486370E+03  0.78604486370E+03  0.00000000000E+00 0. -1.
    9000010    2    1    2  502    0  0.84885479962E+03 -0.11992638536E+03  0.39871986012E+03  0.13711033656E+04  0.99298041453E+03 0.  0.
   -9000010    2    1    2    0  501 -0.84885479962E+03  0.11992638536E+03  0.11500101561E+04  0.17497163779E+04  0.10020215744E+04 0.  0.
        -13    1    3    3    0    0  0.12178768996E+03 -0.35125548720E+03  0.47627151237E+03  0.60419137976E+03  0.10566000000E+00 0.  1.
          4    1    3    3  502    0  0.72706710966E+03  0.23132910184E+03 -0.77551652251E+02  0.76691198587E+03  0.00000000000E+00 0.  1.
         13    1    4    4    0    0 -0.89011171177E+03  0.40540966629E+03  0.10714829255E+04  0.14507692883E+04  0.10566000000E+00 0. -1.
         -4    1    4    4    0  501  0.41256912155E+02 -0.28548328092E+03  0.78527230539E+02  0.29894708967E+03  0.00000000000E+00 0. -1.
<mgrwt>
<rscale>  2 0.13152726E+04</rscale>
<asrwt>0</asrwt>
<pdfrwt beam="1">  1        2 0.35919613E+00 0.13152726E+04</pdfrwt>
<pdfrwt beam="2">  1       -2 0.12092998E+00 0.13152726E+04</pdfrwt>
<totfact> 0.33551791E+00</totfact>
</mgrwt>
</event>
<event>
 8    1  0.1373409E-005  0.1084648E+04  0.7818608E-02  0.8698888E-01
         -2   -1    0    0    0  501 -0.00000000000E+00  0.00000000000E+00  0.51664197032E+03  0.51664197032E+03  0.00000000000E+00 0. -1.
          2   -1    0    0  502    0  0.00000000000E+00 -0.00000000000E+00 -0.23966694883E+04  0.23966694883E+04  0.00000000000E+00 0.  1.
    9000010    2    1    2  502    0  0.18078388793E+03  0.37389410960E+03 -0.58331970971E+03  0.11930294429E+04  0.95424197587E+03 0.  0.
   -9000010    2    1    2    0  501 -0.18078388793E+03 -0.37389410960E+03 -0.12967078082E+04  0.17202820157E+04  0.10513988084E+04 0.  0.
        -13    1    3    3    0    0  0.52377600858E+03  0.44633925899E+03 -0.35126707080E+03  0.77262449318E+03  0.10566000000E+00 0.  1.
          4    1    3    3  502    0 -0.34299212065E+03 -0.72445149390E+02 -0.23205263891E+03  0.42040494969E+03  0.00000000000E+00 0.  1.
         13    1    4    4    0    0  0.25514965160E+03 -0.24988859758E+03 -0.12063903208E+04  0.12581427873E+04  0.10566000000E+00 0. -1.
         -4    1    4    4    0  501 -0.43593353953E+03 -0.12400551201E+03 -0.90317487409E+02  0.46213922840E+03  0.00000000000E+00 0. -1.
<mgrwt>
<rscale>  2 0.10846477E+04</rscale>
<asrwt>0</asrwt>
<pdfrwt beam="2">  1        2 0.36871838E+00 0.10846477E+04</pdfrwt>
<pdfrwt beam="1">  1       -2 0.79483380E-01 0.10846477E+04</pdfrwt>
<totfact> 0.87076591E+00</totfact>
</mgrwt>
</event>
<event>
 8    1  0.1373409E-005  0.1314513E+04  0.7818608E-02  0.8524985E-01
          2   -1    0    0  502    0  0.00000000000E+00  0.00000000000E+00  0.23163926569E+04  0.23163926569E+04  0.00000000000E+00 0.  1.
         -2   -1    0    0    0  501 -0.00000000000E+00 -0.00000000000E+00 -0.80869024918E+03  0.80869024918E+03  0.00000000000E+00 0. -1.
    9000010    2    1    2  502    0  0.59584074960E+03 -0.58498668718E+03  0.11895334266E+04  0.17735426314E+04  0.10164782681E+04 0.  0.
   -9000010    2    1    2    0  501 -0.59584074960E+03  0.58498668718E+03  0.31816898112E+03  0.13515402746E+04  0.10139990090E+04 0.  0.
        -13    1    3    3    0    0  0.68269879575E+03  0.32194577828E+02  0.72380522656E+03  0.99549392450E+03  0.10566000000E+00 0.  1.
          4    1    3    3  502    0 -0.86858046151E+02 -0.61718126501E+03  0.46572820000E+03  0.77804870692E+03  0.00000000000E+00 0.  1.
         13    1    4    4    0    0 -0.14862462410E+03  0.58592703588E+03  0.57629652993E+03  0.83517511447E+03  0.10566000000E+00 0. -1.
         -4    1    4    4    0  501 -0.44721612550E+03 -0.94034869395E+00 -0.25812754881E+03  0.51636516015E+03  0.00000000000E+00 0. -1.
<mgrwt>
<rscale>  2 0.13145131E+04</rscale>
<asrwt>0</asrwt>
<pdfrwt beam="1">  1        2 0.35636810E+00 0.13145131E+04</pdfrwt>
<pdfrwt beam="2">  1       -2 0.12441389E+00 0.13145131E+04</pdfrwt>
<totfact> 0.31826244E+00</totfact>
</mgrwt>
</event>
<event>
 8    1  0.1373409E-005  0.1309396E+04  0.7818608E-02  0.8528444E-01
          1   -1    0    0  502    0  0.00000000000E+00  0.00000000000E+00  0.76824853245E+03  0.76824853245E+03  0.00000000000E+00 0.  1.
         -1   -1    0    0    0  501 -0.00000000000E+00 -0.00000000000E+00 -0.27294686153E+04  0.27294686153E+04  0.00000000000E+00 0. -1.
    9000010    2    1    2  502    0 -0.21085740029E+03 -0.83224270507E+03 -0.17340335779E+04  0.21795532597E+04  0.10032403498E+04 0.  0.
   -9000010    2    1    2    0  501  0.21085740029E+03  0.83224270507E+03 -0.22718650496E+03  0.13181638880E+04  0.97409114780E+03 0.  0.
        -13    1    3    3    0    0 -0.60009135312E+03 -0.33963861085E+03 -0.83307927672E+03  0.10814273487E+04  0.10566000000E+00 0.  1.
          4    1    3    3  502    0  0.38923395283E+03 -0.49260409421E+03 -0.90095430115E+03  0.10981259110E+04  0.00000000000E+00 0.  1.
         13    1    4    4    0    0  0.18833717819E+03  0.39271992769E+03 -0.59997564836E+03  0.74139775025E+03  0.10566000000E+00 0. -1.
         -4    1    4    4    0  501  0.22520222107E+02  0.43952277737E+03  0.37278914340E+03  0.57676613776E+03  0.00000000000E+00 0. -1.
<mgrwt>
<rscale>  2 0.13093964E+04</rscale>
<asrwt>0</asrwt>
<pdfrwt beam="1">  1        1 0.11819208E+00 0.13093964E+04</pdfrwt>
<pdfrwt beam="2">  1       -1 0.41991825E+00 0.13093964E+04</pdfrwt>
<totfact> 0.36738454E-01</totfact>
</mgrwt>
</event>
<event>
 8    1  0.1373409E-005  0.1195810E+04  0.7818608E-02  0.8609724E-01
         -2   -1    0    0    0  501 -0.00000000000E+00  0.00000000000E+00  0.43466193228E+03  0.43466193228E+03  0.00000000000E+00 0.  1.
          2   -1    0    0  502    0  0.00000000000E+00 -0.00000000000E+00 -0.32905833505E+04  0.32905833505E+04  0.00000000000E+00 0. -1.
    9000010    2    1    2  502    0  0.63546777822E+03 -0.18330557606E+03 -0.14268484078E+04  0.18708016675E+04  0.10132039622E+04 0.  0.
   -9000010    2    1    2    0  501 -0.63546777822E+03  0.18330557606E+03 -0.14290730104E+04  0.18544436153E+04  0.97943413342E+03 0.  0.
        -13    1    3    3    0    0  0.29186134560E+02 -0.34734094131E+03 -0.43147995327E+02  0.35122545555E+03  0.10566000000E+00 0.  1.
          4    1    3    3  502    0  0.60628164366E+03  0.16403536525E+03 -0.13837004125E+04  0.15195762119E+04  0.00000000000E+00 0.  1.
         13    1    4    4    0    0  0.13504469070E+03  0.36232153973E+03 -0.54359712476E+03  0.66709205650E+03  0.10566000000E+00 0. -1.
         -4    1    4    4    0  501 -0.77051246892E+03 -0.17901596367E+03 -0.88547588567E+03  0.11873515588E+04  0.00000000000E+00 0. -1.
<mgrwt>
<rscale>  2 0.11958099E+04</rscale>
<asrwt>0</asrwt>
<pdfrwt beam="2">  1        2 0.50624359E+00 0.11958099E+04</pdfrwt>
<pdfrwt beam="1">  1       -2 0.66871067E-01 0.11958099E+04</pdfrwt>
<totfact> 0.35976763E+00</totfact>
</mgrwt>
</event>
<event>
 8    1  0.1373409E-005  0.1341181E+04  0.7818608E-02  0.8507214E-01
         -4   -1    0    0    0  501 -0.00000000000E+00  0.00000000000E+00  0.14584780891E+04  0.14584780891E+04  0.00000000000E+00 0. -1.
          4   -1    0    0  502    0  0.00000000000E+00 -0.00000000000E+00 -0.12495633790E+04  0.12495633790E+04  0.00000000000E+00 0.  1.
    9000010    2    1    2  502    0  0.69381257662E+03 -0.59668651108E+03 -0.50078937179E+02  0.13399692543E+04  0.97754745078E+03 0.  0.
   -9000010    2    1    2    0  501 -0.69381257662E+03  0.59668651108E+03  0.25899364728E+03  0.13680722139E+04  0.98342930052E+03 0.  0.
        -13    1    3    3    0    0  0.65626816285E+03 -0.37210586520E+03  0.38643798271E+03  0.84763494627E+03  0.10566000000E+00 0.  1.
          4    1    3    3  502    0  0.37544413770E+02 -0.22458064588E+03 -0.43651691989E+03  0.49233430802E+03  0.00000000000E+00 0.  1.
         13    1    4    4    0    0 -0.44690110263E+03  0.17797105232E+03 -0.34559163582E+03  0.59230725211E+03  0.10566000000E+00 0. -1.
         -4    1    4    4    0  501 -0.24691147399E+03  0.41871545876E+03  0.60458528310E+03  0.77576496178E+03  0.00000000000E+00 0. -1.
<mgrwt>
<rscale>  2 0.13411814E+04</rscale>
<asrwt>0</asrwt>
<pdfrwt beam="2">  1        4 0.19224052E+00 0.13411814E+04</pdfrwt>
<pdfrwt beam="1">  1       -4 0.22438125E+00 0.13411814E+04</pdfrwt>
<totfact> 0.16366874E-01</totfact>
</mgrwt>
</event>
<event>
 8    1  0.1373409E-005  0.1022795E+04  0.7818608E-02  0.8753464E-01
          3   -1    0    0  502    0  0.00000000000E+00  0.00000000000E+00  0.91633695129E+03  0.91633695129E+03  0.00000000000E+00 0.  1.
         -3   -1    0    0    0  501 -0.00000000000E+00 -0.00000000000E+00 -0.13417623189E+04  0.13417623189E+04  0.00000000000E+00 0. -1.
    9000010    2    1    2  502    0  0.19029524008E+03 -0.18546520721E+03  0.22052171014E+03  0.10604399717E+04  0.10026432503E+04 0.  0.
   -9000010    2    1    2    0  501 -0.19029524008E+03  0.18546520721E+03 -0.64594707773E+03  0.11976592985E+04  0.97289801449E+03 0.  0.
        -13    1    3    3    0    0  0.34075085808E+03 -0.53467649736E+03  0.29008011276E+02  0.63469014487E+03  0.10566000000E+00 0.  1.
          4    1    3    3  502    0 -0.15045561800E+03  0.34921129015E+03  0.19151369887E+03  0.42574982679E+03  0.00000000000E+00 0.  1.
         13    1    4    4    0    0 -0.57509710695E+03 -0.12273153303E+02 -0.39022410044E+03  0.69509867821E+03  0.10566000000E+00 0. -1.
         -4    1    4    4    0  501  0.38480186687E+03  0.19773836051E+03 -0.25572297728E+03  0.50256062030E+03  0.00000000000E+00 0. -1.
<mgrwt>
<rscale>  2 0.10227948E+04</rscale>
<asrwt>0</asrwt>
<pdfrwt beam="1">  1        3 0.14097492E+00 0.10227948E+04</pdfrwt>
<pdfrwt beam="2">  1       -3 0.20642497E+00 0.10227948E+04</pdfrwt>
<totfact> 0.37748037E-02</totfact>
</mgrwt>
</event>
<event>
 8    1  0.1373409E-005  0.1156218E+04  0.7818608E-02  0.8640281E-01
         -1   -1    0    0    0  501 -0.00000000000E+00  0.00000000000E+00  0.88237203563E+03  0.88237203563E+03  0.00000000000E+00 0.  1.
          1   -1    0    0  502    0  0.00000000000E+00 -0.00000000000E+00 -0.15202190433E+04  0.15202190433E+04  0.00000000000E+00 0. -1.
    9000010    2    1    2  502    0  0.45285848695E+03 -0.30067207911E+03 -0.25635999626E+03  0.12019820561E+04  0.10409399153E+04 0.  0.
   -9000010    2    1    2    0  501 -0.45285848695E+03  0.30067207911E+03 -0.38148701140E+03  0.12006090228E+04  0.10002225639E+04 0.  0.
        -13    1    3    3    0    0  0.24953712125E+03  0.70657513293E+02 -0.60197809545E+03  0.65546845662E+03  0.10566000000E+00 0.  1.
          4    1    3    3  502    0  0.20332136569E+03 -0.37132959240E+03  0.34561809919E+03  0.54651359949E+03  0.00000000000E+00 0.  1.
         13    1    4    4    0    0 -0.40763004761E+03  0.66856730958E+02  0.27901890469E+03  0.49848133218E+03  0.10566000000E+00 0. -1.
         -4    1    4    4    0  501 -0.45228439339E+02  0.23381534815E+03 -0.66050591610E+03  0.70212769063E+03  0.00000000000E+00 0. -1.
<mgrwt>
<rscale>  2 0.11562177E+04</rscale>
<asrwt>0</asrwt>
<pdfrwt beam="2">  1        1 0.23387985E+00 0.11562177E+04</pdfrwt>
<pdfrwt beam="1">  1       -1 0.13574955E+00 0.11562177E+04</pdfrwt>
<totfact> 0.41504414E+00</totfact>
</mgrwt>
</event>
<event>
 8    1  0.1373409E-005  0.1168777E+04  0.7818608E-02  0.8630452E-01
          2   -1    0    0  502    0  0.00000000000E+00  0.00000000000E+00  0.15304456744E+04  0.15304456744E+04  0.00000000000E+00 0. -1.
         -2   -1    0    0    0  501 -0.00000000000E+00 -0.00000000000E+00 -0.10616091918E+04  0.10616091918E+04  0.00000000000E+00 0.  1.
    9000010    2    1    2  502    0 -0.35977043067E+03 -0.67961668320E+03  0.75757307495E+03  0.14661391743E+04  0.99213583522E+03 0.  0.
   -9000010    2    1    2    0  501  0.35977043067E+03  0.67961668320E+03 -0.28873659235E+03  0.11259156919E+04  0.77006735204E+03 0.  0.
        -13    1    3    3    0    0  0.25660702745E+03 -0.25639718372E+03  0.60137707993E+03  0.70231124567E+03  0.10566000000E+00 0.  1.
          4    1    3    3  502    0 -0.61637745813E+03 -0.42321949948E+03  0.15619599502E+03  0.76382792859E+03  0.00000000000E+00 0.  1.
         13    1    4    4    0    0  0.73482439462E+02  0.25442436870E+03  0.26271048978E+03  0.37302579120E+03  0.10566000000E+00 0. -1.
         -4    1    4    4    0  501  0.28628799121E+03  0.42519231450E+03 -0.55144708212E+03  0.75288990072E+03  0.00000000000E+00 0. -1.
<mgrwt>
<rscale>  2 0.11687773E+04</rscale>
<asrwt>0</asrwt>
<pdfrwt beam="1">  1        2 0.23545318E+00 0.11687773E+04</pdfrwt>
<pdfrwt beam="2">  1       -2 0.16332449E+00 0.11687773E+04</pdfrwt>
<totfact> 0.38863278E+00</totfact>
</mgrwt>
</event>
<event>
 8    1  0.1373409E-005  0.2089649E+04  0.7818608E-02  0.8132836E-01
          2   -1    0    0  502    0  0.00000000000E+00  0.00000000000E+00  0.21827458979E+04  0.21827458979E+04  0.00000000000E+00 0. -1.
         -2   -1    0    0    0  501 -0.00000000000E+00 -0.00000000000E+00 -0.20434722287E+04  0.20434722287E+04  0.00000000000E+00 0.  1.
    9000010    2    1    2  502    0 -0.13431366429E+04  0.12509821637E+04  0.37598485948E+03  0.21232165858E+04  0.99885516474E+03 0.  0.
   -9000010    2    1    2    0  501  0.13431366429E+04 -0.12509821637E+04 -0.23671119028E+03  0.21030015407E+04  0.99880472428E+03 0.  0.
        -13    1    3    3    0    0 -0.47745271757E+03  0.42676351552E+03 -0.34490420110E+03  0.72735625027E+03  0.10566000000E+00 0.  1.
          4    1    3    3  502    0 -0.86568392537E+03  0.82421864814E+03  0.72088906058E+03  0.13958603355E+04  0.00000000000E+00 0.  1.
         13    1    4    4    0    0  0.11878204183E+04 -0.79342176898E+03  0.21139961023E+03  0.14439962798E+04  0.10566000000E+00 0. -1.
         -4    1    4    4    0  501  0.15531622463E+03 -0.45756039468E+03 -0.44811080050E+03  0.65900526094E+03  0.00000000000E+00 0. -1.
<mgrwt>
<rscale>  2 0.20896492E+04</rscale>
<asrwt>0</asrwt>
<pdfrwt beam="1">  1        2 0.33580706E+00 0.20896492E+04</pdfrwt>
<pdfrwt beam="2">  1       -2 0.31438034E+00 0.20896492E+04</pdfrwt>
<totfact> 0.10439253E-01</totfact>
</mgrwt>
</event>
<event>
 8    1  0.1373409E-005  0.1222739E+04  0.7818608E-02  0.8589633E-01
         -2   -1    0    0    0  501 -0.00000000000E+00  0.00000000000E+00  0.89970293714E+03  0.89970293714E+03  0.00000000000E+00 0. -1.
          2   -1    0    0  502    0  0.00000000000E+00 -0.00000000000E+00 -0.16617791739E+04  0.16617791739E+04  0.00000000000E+00 0.  1.
    9000010    2    1    2  502    0  0.26594977674E+03 -0.65082074226E+03 -0.38108940347E+03  0.12844628979E+04  0.10051461984E+04 0.  0.
   -9000010    2    1    2    0  501 -0.26594977674E+03  0.65082074226E+03 -0.38098683329E+03  0.12770192132E+04  0.99565565402E+03 0.  0.
        -13    1    3    3    0    0  0.57666047265E+03 -0.39301487936E+03 -0.50582852460E+03  0.86189355699E+03  0.10566000000E+00 0.  1.
          4    1    3    3  502    0 -0.31071069591E+03 -0.25780586290E+03  0.12473912113E+03  0.42256934087E+03  0.00000000000E+00 0.  1.
         13    1    4    4    0    0 -0.63278390169E+03  0.26610527834E+03 -0.23800585536E+03  0.72654957418E+03  0.10566000000E+00 0. -1.
         -4    1    4    4    0  501  0.36683412495E+03  0.38471546392E+03 -0.14298097793E+03  0.55046963899E+03  0.00000000000E+00 0. -1.
<mgrwt>
<rscale>  2 0.12227393E+04</rscale>
<asrwt>0</asrwt>
<pdfrwt beam="2">  1        2 0.25565833E+00 0.12227393E+04</pdfrwt>
<pdfrwt beam="1">  1       -2 0.13841584E+00 0.12227393E+04</pdfrwt>
<totfact> 0.54357834E+00</totfact>
</mgrwt>
</event>
<event>
 8    1  0.1373409E-005  0.1233003E+04  0.7818608E-02  0.8582117E-01
         -1   -1    0    0    0  501 -0.00000000000E+00  0.00000000000E+00  0.10227469245E+04  0.10227469245E+04  0.00000000000E+00 0. -1.
          1   -1    0    0  502    0  0.00000000000E+00 -0.00000000000E+00 -0.15858081935E+04  0.15858081935E+04  0.00000000000E+00 0.  1.
    9000010    2    1    2  502    0 -0.59791990256E+03  0.41521567553E+03  0.42930852242E+02  0.12423359775E+04  0.10058048299E+04 0.  0.
   -9000010    2    1    2    0  501  0.59791990256E+03 -0.41521567553E+03 -0.60599212128E+03  0.13662191405E+04  0.98458926550E+03 0.  0.
        -13    1    3    3    0    0 -0.86894151652E+03  0.40086277943E+03  0.10863392031E+03  0.96309483794E+03  0.10566000000E+00 0.  1.
          4    1    3    3  502    0  0.27102161397E+03  0.14352896108E+02 -0.65703068063E+02  0.27924113955E+03  0.00000000000E+00 0.  1.
         13    1    4    4    0    0 -0.15666795570E+03  0.12761849326E+03 -0.34651500984E+03  0.40112839761E+03  0.10566000000E+00 0. -1.
         -4    1    4    4    0  501  0.75458785826E+03 -0.54283416880E+03 -0.25947711145E+03  0.96509074289E+03  0.00000000000E+00 0. -1.
<mgrwt>
<rscale>  2 0.12330026E+04</rscale>
<asrwt>0</asrwt>
<pdfrwt beam="2">  1        1 0.24397049E+00 0.12330026E+04</pdfrwt>
<pdfrwt beam="1">  1       -1 0.15734568E+00 0.12330026E+04</pdfrwt>
<totfact> 0.23881111E+00</totfact>
</mgrwt>
</event>
<event>
 8    1  0.1373409E-005  0.1082083E+04  0.7818608E-02  0.8701074E-01
         -2   -1    0    0    0  501 -0.00000000000E+00  0.00000000000E+00  0.45228286033E+03  0.45228286033E+03  0.00000000000E+00 0.  1.
          2   -1    0    0  502    0  0.00000000000E+00 -0.00000000000E+00 -0.26009432474E+04  0.26009432474E+04  0.00000000000E+00 0. -1.
    9000010    2    1    2  502    0 -0.42418682642E+02  0.25126958391E+03 -0.12013439535E+04  0.16457281424E+04  0.10955629036E+04 0.  0.
   -9000010    2    1    2    0  501  0.42418682642E+02 -0.25126958391E+03 -0.94731643360E+03  0.14074979654E+04  0.10093098378E+04 0.  0.
        -13    1    3    3    0    0 -0.20619748289E+03 -0.21559727106E+03 -0.11012512698E+04  0.11409443263E+04  0.10566000000E+00 0.  1.
          4    1    3    3  502    0  0.16377880024E+03  0.46686685497E+03 -0.10009268366E+03  0.50478381610E+03  0.00000000000E+00 0.  1.
         13    1    4    4    0    0 -0.38841590143E+03  0.91925555291E+02 -0.69539149159E+03  0.80180206905E+03  0.10566000000E+00 0. -1.
         -4    1    4    4    0  501  0.43083458407E+03 -0.34319513920E+03 -0.25192494202E+03  0.60569589631E+03  0.00000000000E+00 0. -1.
<mgrwt>
<rscale>  2 0.10820834E+04</rscale>
<asrwt>0</asrwt>
<pdfrwt beam="2">  1        2 0.40014512E+00 0.10820834E+04</pdfrwt>
<pdfrwt beam="1">  1       -2 0.69581978E-01 0.10820834E+04</pdfrwt>
<totfact> 0.88841167E+00</totfact>
</mgrwt>
</event>
<event>
 8    1  0.1373409E-005  0.1259776E+04  0.7818608E-02  0.8562860E-01
          2   -1    0    0  502    0  0.00000000000E+00  0.00000000000E+00  0.89034148997E+03  0.89034148997E+03  0.00000000000E+00 0.  1.
         -2   -1    0    0    0  501 -0.00000000000E+00 -0.00000000000E+00 -0.22831962319E+04  0.22831962319E+04  0.00000000000E+00 0. -1.
    9000010    2    1    2  502    0 -0.20724027300E+02 -0.76537913953E+03  0.47959521447E+02  0.12576172399E+04  0.99652711646E+03 0.  0.
   -9000010    2    1    2    0  501  0.20724027300E+02  0.76537913953E+03 -0.14408142633E+04  0.19159204819E+04  0.10042762763E+04 0.  0.
        -13    1    3    3    0    0 -0.46428708388E+03 -0.27654716046E+03 -0.16332154238E+03  0.56454828455E+03  0.10566000000E+00 0.  1.
          4    1    3    3  502    0  0.44356305658E+03 -0.48883197907E+03  0.21128106383E+03  0.69306895535E+03  0.00000000000E+00 0.  1.
         13    1    4    4    0    0 -0.30416790588E+01  0.83234302079E+03 -0.15651521184E+04  0.17727112909E+04  0.10566000000E+00 0. -1.
         -4    1    4    4    0  501  0.23765706359E+02 -0.66963881256E+02  0.12433785506E+03  0.14320919102E+03  0.00000000000E+00 0. -1.
<mgrwt>
<rscale>  2 0.12597755E+04</rscale>
<asrwt>0</asrwt>
<pdfrwt beam="1">  1        2 0.13697561E+00 0.12597755E+04</pdfrwt>
<pdfrwt beam="2">  1       -2 0.35126096E+00 0.12597755E+04</pdfrwt>
<totfact> 0.34585505E-01</totfact>
</mgrwt>
</event>
<event>
 8    1  0.1373409E-005  0.1429517E+04  0.7818608E-02  0.8451254E-01
         -2   -1    0    0    0  501 -0.00000000000E+00  0.00000000000E+00  0.11219251657E+04  0.11219251657E+04  0.00000000000E+00 0.  1.
          2   -1    0    0  502    0  0.00000000000E+00 -0.00000000000E+00 -0.18248472324E+04  0.18248472324E+04  0.00000000000E+00 0. -1.
    9000010    2    1    2  502    0  0.79653082479E+03  0.63532155335E+03 -0.28808099516E+03  0.14593469597E+04  0.10042948064E+04 0.  0.
   -9000010    2    1    2    0  501 -0.79653082479E+03 -0.63532155335E+03 -0.41484107159E+03  0.14874254384E+04  0.10011226144E+04 0.  0.
        -13    1    3    3    0    0  0.68480060317E+03  0.41854496620E+03  0.27285298577E+03  0.84769128687E+03  0.10566000000E+00 0.  1.
          4    1    3    3  502    0  0.11173022162E+03  0.21677658715E+03 -0.56093398093E+03  0.61165567285E+03  0.00000000000E+00 0.  1.
         13    1    4    4    0    0 -0.33979162302E+03 -0.84065830482E+03 -0.38703507745E+03  0.98588077113E+03  0.10566000000E+00 0. -1.
         -4    1    4    4    0  501 -0.45673920176E+03  0.20533675147E+03 -0.27805994139E+02  0.50154466724E+03  0.00000000000E+00 0. -1.
<mgrwt>
<rscale>  2 0.14295173E+04</rscale>
<asrwt>0</asrwt>
<pdfrwt beam="2">  1        2 0.28074573E+00 0.14295173E+04</pdfrwt>
<pdfrwt beam="1">  1       -2 0.17260387E+00 0.14295173E+04</pdfrwt>
<totfact> 0.21811175E+00</totfact>
</mgrwt>
</event>
<event>
 8    1  0.1373409E-005  0.1318615E+04  0.7818608E-02  0.8522223E-01
          2   -1    0    0  502    0  0.00000000000E+00  0.00000000000E+00  0.19115577164E+04  0.19115577164E+04  0.00000000000E+00 0.  1.
         -2   -1    0    0    0  501 -0.00000000000E+00 -0.00000000000E+00 -0.91018308657E+03  0.91018308657E+03  0.00000000000E+00 0. -1.
    9000010    2    1    2  502    0  0.79088354447E+03  0.45778763662E+03  0.50627151756E+03  0.13852107241E+04  0.90963267284E+03 0.  0.
   -9000010    2    1    2    0  501 -0.79088354447E+03 -0.45778763662E+03  0.49510311230E+03  0.14365300789E+04  0.99167800953E+03 0.  0.
        -13    1    3    3    0    0  0.62953296165E+02  0.53083127248E+03  0.85775800008E+02  0.54138937593E+03  0.10566000000E+00 0.  1.
          4    1    3    3  502    0  0.72793024831E+03 -0.73043635863E+02  0.42049571755E+03  0.84382134817E+03  0.00000000000E+00 0.  1.
         13    1    4    4    0    0 -0.51355787726E+03  0.26206284319E+03  0.23178335604E+03  0.62140338137E+03  0.10566000000E+00 0. -1.
         -4    1    4    4    0  501 -0.27732566721E+03 -0.71985047981E+03  0.26331975626E+03  0.81512669752E+03  0.00000000000E+00 0. -1.
<mgrwt>
<rscale>  2 0.13186153E+04</rscale>
<asrwt>0</asrwt>
<pdfrwt beam="1">  1        2 0.29408580E+00 0.13186153E+04</pdfrwt>
<pdfrwt beam="2">  1       -2 0.14002817E+00 0.13186153E+04</pdfrwt>
<totfact> 0.38043574E+00</totfact>
</mgrwt>
</event>
<event>
 8    1  0.1373409E-005  0.1114250E+04  0.7818608E-02  0.8674092E-01
          1   -1    0    0  502    0  0.00000000000E+00  0.00000000000E+00  0.50796197947E+04  0.50796197947E+04  0.00000000000E+00 0. -1.
         -1   -1    0    0    0  501 -0.00000000000E+00 -0.00000000000E+00 -0.24893967037E+03  0.24893967037E+03  0.00000000000E+00 0.  1.
    9000010    2    1    2  502    0  0.44325415197E+03  0.30561020929E+03  0.27917698027E+04  0.30090616748E+04  0.98519119374E+03 0.  0.
   -9000010    2    1    2    0  501 -0.44325415197E+03 -0.30561020929E+03  0.20389103216E+04  0.23194977903E+04  0.96594143514E+03 0.  0.
        -13    1    3    3    0    0  0.60501977590E+03  0.59094180028E+02  0.25678398274E+04  0.26388145903E+04  0.10566000000E+00 0.  1.
          4    1    3    3  502    0 -0.16176562393E+03  0.24651602926E+03  0.22392997524E+03  0.37024708450E+03  0.00000000000E+00 0.  1.
         13    1    4    4    0    0 -0.34157076995E+03 -0.36135975804E+03  0.30842276315E+03  0.58512911191E+03  0.10566000000E+00 0. -1.
         -4    1    4    4    0  501 -0.10168338202E+03  0.55749548753E+02  0.17304875585E+04  0.17343686784E+04  0.00000000000E+00 0. -1.
<mgrwt>
<rscale>  2 0.11142496E+04</rscale>
<asrwt>0</asrwt>
<pdfrwt beam="1">  1        1 0.78147989E+00 0.11142496E+04</pdfrwt>
<pdfrwt beam="2">  1       -1 0.38298415E-01 0.11142496E+04</pdfrwt>
<totfact> 0.52642556E-02</totfact>
</mgrwt>
</event>
<event>
 8    1  0.1373409E-005  0.1236829E+04  0.7818608E-02  0.8579334E-01
         -1   -1    0    0    0  501 -0.00000000000E+00  0.00000000000E+00  0.72619224874E+03  0.72619224874E+03  0.00000000000E+00 0.  1.
          1   -1    0    0  502    0  0.00000000000E+00 -0.00000000000E+00 -0.21907675563E+04  0.21907675563E+04  0.00000000000E+00 0. -1.
    9000010    2    1    2  502    0  0.69531419816E+03 -0.53166508062E+02 -0.42260202920E+03  0.12569430848E+04  0.95656935541E+03 0.  0.
   -9000010    2    1    2    0  501 -0.69531419816E+03  0.53166508062E+02 -0.10419732783E+04  0.16600167202E+04  0.10879607928E+04 0.  0.
        -13    1    3    3    0    0  0.15174984149E+03  0.97443695291E+02  0.29405012496E+03  0.34494749644E+03  0.10566000000E+00 0.  1.
          4    1    3    3  502    0  0.54356435668E+03 -0.15061020335E+03 -0.71665215417E+03  0.91199558841E+03  0.00000000000E+00 0.  1.
         13    1    4    4    0    0 -0.10776746787E+03  0.24799926417E+03  0.15556306899E+03  0.31195727553E+03  0.10566000000E+00 0. -1.
         -4    1    4    4    0  501 -0.58754673030E+03 -0.19483275611E+03 -0.11975363473E+04  0.13480594447E+04  0.00000000000E+00 0. -1.
<mgrwt>
<rscale>  2 0.12368286E+04</rscale>
<asrwt>0</asrwt>
<pdfrwt beam="2">  1        1 0.33704116E+00 0.12368286E+04</pdfrwt>
<pdfrwt beam="1">  1       -1 0.11172189E+00 0.12368286E+04</pdfrwt>
<totfact> 0.20834715E+00</totfact>
</mgrwt>
</event>
<event>
 8    1  0.1373409E-005  0.1165015E+04  0.7818608E-02  0.8633383E-01
          1   -1    0    0  502    0  0.00000000000E+00  0.00000000000E+00  0.18061579437E+04  0.18061579437E+04  0.00000000000E+00 0.  1.
         -1   -1    0    0    0  501 -0.00000000000E+00 -0.00000000000E+00 -0.86259460533E+03  0.86259460533E+03  0.00000000000E+00 0. -1.
    9000010    2    1    2  502    0  0.60372864711E+03 -0.95773305116E+02 -0.91082931389E+01  0.11594596214E+04  0.98519178203E+03 0.  0.
   -9000010    2    1    2    0  501 -0.60372864711E+03  0.95773305116E+02  0.95267163154E+03  0.15092929277E+04  0.99835920320E+03 0.  0.
        -13    1    3    3    0    0  0.83527367204E+03 -0.21991401793E+03 -0.12421747254E+03  0.87262493325E+03  0.10566000000E+00 0.  1.
          4    1    3    3  502    0 -0.23154502493E+03  0.12414071282E+03  0.11510917940E+03  0.28683468816E+03  0.00000000000E+00 0.  1.
         13    1    4    4    0    0 -0.63397791352E+03 -0.34304206409E+03  0.68495939790E+03  0.99437178183E+03  0.10566000000E+00 0. -1.
         -4    1    4    4    0  501  0.30249266413E+02  0.43881536921E+03  0.26771223364E+03  0.51492114582E+03  0.00000000000E+00 0. -1.
<mgrwt>
<rscale>  2 0.11650150E+04</rscale>
<asrwt>0</asrwt>
<pdfrwt beam="1">  1        1 0.27787045E+00 0.11650150E+04</pdfrwt>
<pdfrwt beam="2">  1       -1 0.13270686E+00 0.11650150E+04</pdfrwt>
<totfact> 0.27001431E+00</totfact>
</mgrwt>
</event>
<event>
 8    1  0.1373409E-005  0.1564413E+04  0.7818608E-02  0.8373365E-01
         -1   -1    0    0    0  501 -0.00000000000E+00  0.00000000000E+00  0.59013170056E+03  0.59013170056E+03  0.00000000000E+00 0. -1.
          1   -1    0    0  502    0  0.00000000000E+00 -0.00000000000E+00 -0.42471924761E+04  0.42471924761E+04  0.00000000000E+00 0.  1.
    9000010    2    1    2  502    0  0.31572846820E+03  0.10187825733E+04 -0.22835088794E+04  0.28322347536E+04  0.12921062264E+04 0.  0.
   -9000010    2    1    2    0  501 -0.31572846820E+03 -0.10187825733E+04 -0.13735518962E+04  0.20050894230E+04  0.99806632317E+03 0.  0.
        -13    1    3    3    0    0 -0.14442576428E+02  0.21154918933E+03 -0.18429929669E+04  0.18551508657E+04  0.10566000000E+00 0.  1.
          4    1    3    3  502    0  0.33017104462E+03  0.80723338396E+03 -0.44051591251E+03  0.97708388794E+03  0.00000000000E+00 0.  1.
         13    1    4    4    0    0 -0.22695678801E+03 -0.94143664017E+03 -0.15291266051E+04  0.18099835680E+04  0.10566000000E+00 0. -1.
         -4    1    4    4    0  501 -0.88771680191E+02 -0.77345933123E+02  0.15557470892E+03  0.19510585494E+03  0.00000000000E+00 0. -1.
<mgrwt>
<rscale>  2 0.15644128E+04</rscale>
<asrwt>0</asrwt>
<pdfrwt beam="2">  1        1 0.65341423E+00 0.15644128E+04</pdfrwt>
<pdfrwt beam="1">  1       -1 0.90789492E-01 0.15644128E+04</pdfrwt>
<totfact> 0.51684891E-02</totfact>
</mgrwt>
</event>
<event>
 8    1  0.1373409E-005  0.1612542E+04  0.7818608E-02  0.8347521E-01
         -2   -1    0    0    0  501 -0.00000000000E+00  0.00000000000E+00  0.10581389486E+04  0.10581389486E+04  0.00000000000E+00 0.  1.
          2   -1    0    0  502    0  0.00000000000E+00 -0.00000000000E+00 -0.26749915055E+04  0.26749915055E+04  0.00000000000E+00 0. -1.
    9000010    2    1    2  502    0  0.11386963774E+04 -0.52927235033E+03 -0.28253787851E+03  0.16504585089E+04  0.10331635766E+04 0.  0.
   -9000010    2    1    2    0  501 -0.11386963774E+04  0.52927235033E+03 -0.13343146784E+04  0.20826719453E+04  0.99013539977E+03 0.  0.
        -13    1    3    3    0    0  0.96696356714E+03 -0.54508203418E+03  0.20902212016E+03  0.11295234491E+04  0.10566000000E+00 0.  1.
          4    1    3    3  502    0  0.17173281030E+03  0.15809683853E+02 -0.49155999867E+03  0.52093505980E+03  0.00000000000E+00 0.  1.
         13    1    4    4    0    0 -0.65357735604E+03  0.50534304065E+03 -0.13654906915E+04  0.15959635926E+04  0.10566000000E+00 0. -1.
         -4    1    4    4    0  501 -0.48511902140E+03  0.23929309674E+02  0.31176013136E+02  0.48670835269E+03  0.00000000000E+00 0. -1.
<mgrwt>
<rscale>  2 0.16125421E+04</rscale>
<asrwt>0</asrwt>
<pdfrwt beam="2">  1        2 0.41153716E+00 0.16125421E+04</pdfrwt>
<pdfrwt beam="1">  1       -2 0.16279060E+00 0.16125421E+04</pdfrwt>
<totfact> 0.87260338E-01</totfact>
</mgrwt>
</event>
<event>
 8    1  0.1373409E-005  0.1105358E+04  0.7818608E-02  0.8681455E-01
          2   -1    0    0  502    0  0.00000000000E+00  0.00000000000E+00  0.36149685369E+04  0.36149685369E+04  0.00000000000E+00 0.  1.
         -2   -1    0    0    0  501 -0.00000000000E+00 -0.00000000000E+00 -0.33803368831E+03  0.33803368831E+03  0.00000000000E+00 0. -1.
    9000010    2    1    2  502    0  0.27116422186E+03  0.40066570849E+03  0.16308385926E+04  0.19743524227E+04  0.10021825826E+04 0.  0.
   -9000010    2    1    2    0  501 -0.27116422186E+03 -0.40066570849E+03  0.16460962560E+04  0.19786498025E+04  0.98557552310E+03 0.  0.
        -13    1    3    3    0    0  0.46485726671E+03 -0.12855594513E+03  0.42303704572E+03  0.64154443545E+03  0.10566000000E+00 0.  1.
          4    1    3    3  502    0 -0.19369304485E+03  0.52922165362E+03  0.12078015469E+04  0.13328079873E+04  0.00000000000E+00 0.  1.
         13    1    4    4    0    0  0.14792951836E+03  0.26586365151E+03  0.36771645482E+03  0.47726515262E+03  0.10566000000E+00 0. -1.
         -4    1    4    4    0  501 -0.41909374022E+03 -0.66652936000E+03  0.12783798012E+04  0.15013846499E+04  0.00000000000E+00 0. -1.
<mgrwt>
<rscale>  2 0.11053579E+04</rscale>
<asrwt>0</asrwt>
<pdfrwt beam="1">  1        2 0.55614898E+00 0.11053579E+04</pdfrwt>
<pdfrwt beam="2">  1       -2 0.52005185E-01 0.11053579E+04</pdfrwt>
<totfact> 0.35206075E+00</totfact>
</mgrwt>
</event>
<event>
 8    1  0.1373409E-005  0.1219532E+04  0.7818608E-02  0.8591998E-01
         -2   -1    0    0    0  501 -0.00000000000E+00  0.00000000000E+00  0.59862869360E+03  0.59862869360E+03  0.00000000000E+00 0. -1.
          2   -1    0    0  502    0  0.00000000000E+00 -0.00000000000E+00 -0.29940890588E+04  0.29940890588E+04  0.00000000000E+00 0.  1.
    9000010    2    1    2  502    0 -0.71821213481E+03 -0.89536998828E+02 -0.19419114100E+04  0.22951014164E+04  0.98621754324E+03 0.  0.
   -9000010    2    1    2    0  501  0.71821213481E+03  0.89536998828E+02 -0.45354895524E+03  0.12976163360E+04  0.97686025406E+03 0.  0.
        -13    1    3    3    0    0 -0.83444628125E+03  0.12047492225E+03 -0.93070611296E+03  0.12557980264E+04  0.10566000000E+00 0.  1.
          4    1    3    3  502    0  0.11623414644E+03 -0.21001192108E+03 -0.10112052970E+04  0.10393033900E+04  0.00000000000E+00 0.  1.
         13    1    4    4    0    0 -0.19256255511E+03 -0.55163664407E+02 -0.30297886769E+03  0.36320734152E+03  0.10566000000E+00 0. -1.
         -4    1    4    4    0  501  0.91077468992E+03  0.14470066323E+03 -0.15057008755E+03  0.93440899450E+03  0.00000000000E+00 0. -1.
<mgrwt>
<rscale>  2 0.12195317E+04</rscale>
<asrwt>0</asrwt>
<pdfrwt beam="2">  1        2 0.46062910E+00 0.12195317E+04</pdfrwt>
<pdfrwt beam="1">  1       -2 0.92096719E-01 0.12195317E+04</pdfrwt>
<totfact> 0.27560757E+00</totfact>
</mgrwt>
</event>
<event>
 8    1  0.1373409E-005  0.1474795E+04  0.7818608E-02  0.8424154E-01
          2   -1    0    0  502    0  0.00000000000E+00  0.00000000000E+00  0.24609843551E+04  0.24609843551E+04  0.00000000000E+00 0.  1.
         -2   -1    0    0    0  501 -0.00000000000E+00 -0.00000000000E+00 -0.11428179124E+04  0.11428179124E+04  0.00000000000E+00 0. -1.
    9000010    2    1    2  502    0 -0.97124660525E+03 -0.48732224626E+03  0.15167234560E+04  0.21151273772E+04  0.99624838251E+03 0.  0.
   -9000010    2    1    2    0  501  0.97124660525E+03  0.48732224626E+03 -0.19855701330E+03  0.14886748903E+04  0.99796047089E+03 0.  0.
        -13    1    3    3    0    0  0.12306680403E+02 -0.24349692924E+03  0.89196521997E+03  0.92468598656E+03  0.10566000000E+00 0.  1.
          4    1    3    3  502    0 -0.98355328565E+03 -0.24382531702E+03  0.62475823604E+03  0.11904413906E+04  0.00000000000E+00 0.  1.
         13    1    4    4    0    0  0.94446856261E+03 -0.17259863564E+02 -0.25975705093E+03  0.97969000471E+03  0.10566000000E+00 0. -1.
         -4    1    4    4    0  501  0.26778042638E+02  0.50458210982E+03  0.61200037630E+02  0.50898488556E+03  0.00000000000E+00 0. -1.
<mgrwt>
<rscale>  2 0.14747950E+04</rscale>
<asrwt>0</asrwt>
<pdfrwt beam="1">  1        2 0.37861298E+00 0.14747950E+04</pdfrwt>
<pdfrwt beam="2">  1       -2 0.17581814E+00 0.14747950E+04</pdfrwt>
<totfact> 0.91123096E-01</totfact>
</mgrwt>
</event>
<event>
 8    1  0.1373409E-005  0.1273532E+04  0.7818608E-02  0.8553157E-01
          1   -1    0    0  502    0  0.00000000000E+00  0.00000000000E+00  0.15115854154E+04  0.15115854154E+04  0.00000000000E+00 0. -1.
         -1   -1    0    0    0  501 -0.00000000000E+00 -0.00000000000E+00 -0.13113534851E+04  0.13113534851E+04  0.00000000000E+00 0.  1.
    9000010    2    1    2  502    0  0.42316625053E+03  0.68285947285E+03  0.70231769579E+03  0.14605243386E+04  0.99725345960E+03 0.  0.
   -9000010    2    1    2    0  501 -0.42316625053E+03 -0.68285947285E+03 -0.50208576551E+03  0.13624145619E+04  0.97914073934E+03 0.  0.
        -13    1    3    3    0    0  0.29258267053E+03  0.13431064268E+03 -0.21259902534E+03  0.38580088721E+03  0.10566000000E+00 0.  1.
          4    1    3    3  502    0  0.13058358000E+03  0.54854883017E+03  0.91491672113E+03  0.10747234514E+04  0.00000000000E+00 0.  1.
         13    1    4    4    0    0  0.14967340392E+02 -0.75156448498E+03 -0.90100918740E+02  0.75709403846E+03  0.10566000000E+00 0. -1.
         -4    1    4    4    0  501 -0.43813359092E+03  0.68705012124E+02 -0.41198484677E+03  0.60532052348E+03  0.00000000000E+00 0. -1.
<mgrwt>
<rscale>  2 0.12735319E+04</rscale>
<asrwt>0</asrwt>
<pdfrwt beam="1">  1        1 0.23255160E+00 0.12735319E+04</pdfrwt>
<pdfrwt beam="2">  1       -1 0.20174669E+00 0.12735319E+04</pdfrwt>
<totfact> 0.11008396E+00</totfact>
</mgrwt>
</event>
<event>
 8    1  0.1373409E-005  0.1326795E+04  0.7818608E-02  0.8516747E-01
          2   -1    0    0  502    0  0.00000000000E+00  0.00000000000E+00  0.17170741900E+04  0.17170741900E+04  0.00000000000E+00 0.  1.
         -2   -1    0    0    0  501 -0.00000000000E+00 -0.00000000000E+00 -0.10327617742E+04  0.10327617742E+04  0.00000000000E+00 0. -1.
    9000010    2    1    2  502    0  0.16670102894E+03 -0.85501022698E+03  0.22303857750E+03  0.13381076803E+04  0.99093604024E+03 0.  0.
   -9000010    2    1    2    0  501 -0.16670102894E+03  0.85501022698E+03  0.46127383833E+03  0.14117282838E+04  0.10106292456E+04 0.  0.
        -13    1    3    3    0    0  0.50173828079E+03 -0.26138284161E+03 -0.11489680953E+03  0.57728985813E+03  0.10566000000E+00 0.  1.
          4    1    3    3  502    0 -0.33503725185E+03 -0.59362738537E+03  0.33793538703E+03  0.76081782221E+03  0.00000000000E+00 0.  1.
         13    1    4    4    0    0 -0.13034830386E+03 -0.16963524375E+03  0.30805495904E+03  0.37505288319E+03  0.10566000000E+00 0. -1.
         -4    1    4    4    0  501 -0.36352725080E+02  0.10246454707E+04  0.15321887929E+03  0.10366754006E+04  0.00000000000E+00 0. -1.
<mgrwt>
<rscale>  2 0.13267947E+04</rscale>
<asrwt>0</asrwt>
<pdfrwt beam="1">  1        2 0.26416526E+00 0.13267947E+04</pdfrwt>
<pdfrwt beam="2">  1       -2 0.15888643E+00 0.13267947E+04</pdfrwt>
<totfact> 0.33013714E+00</totfact>
</mgrwt>
</event>
<event>
 8    1  0.1373409E-005  0.1355319E+04  0.7818608E-02  0.8497965E-01
         -2   -1    0    0    0  501 -0.00000000000E+00  0.00000000000E+00  0.65664525983E+03  0.65664525983E+03  0.00000000000E+00 0.  1.
          2   -1    0    0  502    0  0.00000000000E+00 -0.00000000000E+00 -0.34124636208E+04  0.34124636208E+04  0.00000000000E+00 0. -1.
    9000010    2    1    2  502    0 -0.90500298572E+03 -0.52348112586E+02 -0.22428367079E+04  0.26212520223E+04  0.10093933509E+04 0.  0.
   -9000010    2    1    2    0  501  0.90500298572E+03  0.52348112586E+02 -0.51298165303E+03  0.14478568583E+04  0.10056682240E+04 0.  0.
        -13    1    3    3    0    0 -0.38357435770E+03  0.47771785270E+03 -0.10489266704E+04  0.12147389866E+04  0.10566000000E+00 0.  1.
          4    1    3    3  502    0 -0.52142862802E+03 -0.53006596529E+03 -0.11939100375E+04  0.14065130356E+04  0.00000000000E+00 0.  1.
         13    1    4    4    0    0  0.55107365986E+03 -0.20469561994E+03  0.19180496681E+03  0.61836205565E+03  0.10566000000E+00 0. -1.
         -4    1    4    4    0  501  0.35392932586E+03  0.25704373253E+03 -0.70478661984E+03  0.82949480266E+03  0.00000000000E+00 0. -1.
<mgrwt>
<rscale>  2 0.13553187E+04</rscale>
<asrwt>0</asrwt>
<pdfrwt beam="2">  1        2 0.52499441E+00 0.13553187E+04</pdfrwt>
<pdfrwt beam="1">  1       -2 0.10102235E+00 0.13553187E+04</pdfrwt>
<totfact> 0.11578365E+00</totfact>
</mgrwt>
</event>
<event>
 8    1  0.1373409E-005  0.1125430E+04  0.7818608E-02  0.8664935E-01
         -1   -1    0    0    0  501 -0.00000000000E+00  0.00000000000E+00  0.11430816744E+04  0.11430816744E+04  0.00000000000E+00 0.  1.
          1   -1    0    0  502    0  0.00000000000E+00 -0.00000000000E+00 -0.13534519868E+04  0.13534519868E+04  0.00000000000E+00 0. -1.
    9000010    2    1    2  502    0  0.87743550634E+02  0.49341889268E+03 -0.63747046218E+03  0.13039966570E+04  0.10212137665E+04 0.  0.
   -9000010    2    1    2    0  501 -0.87743550634E+02 -0.49341889268E+03  0.42710014977E+03  0.11925370043E+04  0.99426798916E+03 0.  0.
        -13    1    3    3    0    0 -0.17045557679E+03  0.70722709442E+03 -0.63973754678E+03  0.96875662922E+03  0.10566000000E+00 0.  1.
          4    1    3    3  502    0  0.25819912743E+03 -0.21380820174E+03  0.22670846006E+01  0.33524002776E+03  0.00000000000E+00 0.  1.
         13    1    4    4    0    0 -0.89685608922E+02  0.30238013562E+03  0.87568394927E+02  0.32733085681E+03  0.10566000000E+00 0. -1.
         -4    1    4    4    0  501  0.19420582873E+01 -0.79579902830E+03  0.33953175484E+03  0.86520614745E+03  0.00000000000E+00 0. -1.
<mgrwt>
<rscale>  2 0.11254303E+04</rscale>
<asrwt>0</asrwt>
<pdfrwt beam="2">  1        1 0.20822338E+00 0.11254303E+04</pdfrwt>
<pdfrwt beam="1">  1       -1 0.17585872E+00 0.11254303E+04</pdfrwt>
<totfact> 0.24913078E+00</totfact>
</mgrwt>
</event>
<event>
 8    1  0.1373409E-005  0.1101621E+04  0.7818608E-02  0.8684571E-01
          4   -1    0    0  502    0  0.00000000000E+00  0.00000000000E+00  0.30985196529E+03  0.30985196529E+03  0.00000000000E+00 0.  1.
         -4   -1    0    0    0  501 -0.00000000000E+00 -0.00000000000E+00 -0.39696157504E+04  0.39696157504E+04  0.00000000000E+00 0. -1.
    9000010    2    1    2  502    0 -0.48114087060E+03  0.14228531747E+03 -0.16172476061E+04  0.19678621099E+04  0.10026214714E+04 0.  0.
   -9000010    2    1    2    0  501  0.48114087060E+03 -0.14228531747E+03 -0.20425161789E+04  0.23116056058E+04  0.95911755617E+03 0.  0.
        -13    1    3    3    0    0  0.19422110915E+03  0.35644124809E+03 -0.69536632826E+03  0.80517485320E+03  0.10566000000E+00 0.  1.
          4    1    3    3  502    0 -0.67536197975E+03 -0.21415593062E+03 -0.92188127787E+03  0.11626872567E+04  0.00000000000E+00 0.  1.
         13    1    4    4    0    0  0.97116496696E+02  0.38149428243E+03 -0.10884907263E+04  0.11574893408E+04  0.10566000000E+00 0. -1.
         -4    1    4    4    0  501  0.38402437390E+03 -0.52377959990E+03 -0.95402545260E+03  0.11541162650E+04  0.00000000000E+00 0. -1.
<mgrwt>
<rscale>  2 0.11016214E+04</rscale>
<asrwt>0</asrwt>
<pdfrwt beam="1">  1        4 0.47669535E-01 0.11016214E+04</pdfrwt>
<pdfrwt beam="2">  1       -4 0.61071009E+00 0.11016214E+04</pdfrwt>
<totfact> 0.62934410E-02</totfact>
</mgrwt>
</event>
<event>
 8    1  0.1373409E-005  0.1062448E+04  0.7818608E-02  0.8718031E-01
          4   -1    0    0  502    0  0.00000000000E+00  0.00000000000E+00  0.12247741667E+04  0.12247741667E+04  0.00000000000E+00 0.  1.
         -4   -1    0    0    0  501 -0.00000000000E+00 -0.00000000000E+00 -0.92893269679E+03  0.92893269679E+03  0.00000000000E+00 0. -1.
    9000010    2    1    2  502    0  0.37692287082E+03  0.90173108988E+02  0.24395952433E+03  0.10954629199E+04  0.99514859150E+03 0.  0.
   -9000010    2    1    2    0  501 -0.37692287082E+03 -0.90173108988E+02  0.51881945581E+02  0.10582439436E+04  0.98335470091E+03 0.  0.
        -13    1    3    3    0    0  0.25046315329E+03  0.17997614333E+02  0.63250634327E+03  0.68052919902E+03  0.10566000000E+00 0.  1.
          4    1    3    3  502    0  0.12645971753E+03  0.72175494655E+02 -0.38854681894E+03  0.41493372085E+03  0.00000000000E+00 0.  1.
         13    1    4    4    0    0 -0.44740235688E+03 -0.36693924703E+03 -0.26086375567E+03  0.63471504641E+03  0.10566000000E+00 0. -1.
         -4    1    4    4    0  501  0.70479486061E+02  0.27676613805E+03  0.31274570125E+03  0.42352889721E+03  0.00000000000E+00 0. -1.
<mgrwt>
<rscale>  2 0.10624478E+04</rscale>
<asrwt>0</asrwt>
<pdfrwt beam="1">  1        4 0.18842680E+00 0.10624478E+04</pdfrwt>
<pdfrwt beam="2">  1       -4 0.14291272E+00 0.10624478E+04</pdfrwt>
<totfact> 0.31444617E-01</totfact>
</mgrwt>
</event>
<event>
 8    1  0.1373409E-005  0.1175236E+04  0.7818608E-02  0.8625447E-01
         -2   -1    0    0    0  501 -0.00000000000E+00  0.00000000000E+00  0.14830503739E+04  0.14830503739E+04  0.00000000000E+00 0. -1.
          2   -1    0    0  502    0  0.00000000000E+00 -0.00000000000E+00 -0.98343221103E+03  0.98343221103E+03  0.00000000000E+00 0.  1.
    9000010    2    1    2  502    0  0.52720713961E+03 -0.35817316169E+03  0.53483775248E+03  0.12965673431E+04  0.99438426767E+03 0.  0.
   -9000010    2    1    2    0  501 -0.52720713961E+03  0.35817316169E+03 -0.35219589603E+02  0.11699152419E+04  0.98042127266E+03 0.  0.
        -13    1    3    3    0    0  0.59419596715E+03 -0.33890588101E+03 -0.70093854768E+02  0.68763304400E+03  0.10566000000E+00 0.  1.
          4    1    3    3  502    0 -0.66988827540E+02 -0.19267280687E+02  0.60493160725E+03  0.60893429906E+03  0.00000000000E+00 0.  1.
         13    1    4    4    0    0 -0.46639397760E+03  0.22365202369E+03  0.43576287455E+03  0.67633783277E+03  0.10566000000E+00 0. -1.
         -4    1    4    4    0  501 -0.60813162009E+02  0.13452113800E+03 -0.47098246415E+03  0.49357740911E+03  0.00000000000E+00 0. -1.
<mgrwt>
<rscale>  2 0.11752360E+04</rscale>
<asrwt>0</asrwt>
<pdfrwt beam="2">  1        2 0.15129726E+00 0.11752360E+04</pdfrwt>
<pdfrwt beam="1">  1       -2 0.22816160E+00 0.11752360E+04</pdfrwt>
<totfact> 0.23147684E+00</totfact>
</mgrwt>
</event>
<event>
 8    1  0.1373409E-005  0.1117190E+04  0.7818608E-02  0.8671674E-01
          2   -1    0    0  502    0  0.00000000000E+00  0.00000000000E+00  0.11208599263E+04  0.11208599263E+04  0.00000000000E+00 0. -1.
         -2   -1    0    0    0  501 -0.00000000000E+00 -0.00000000000E+00 -0.11276433532E+04  0.11276433532E+04  0.00000000000E+00 0.  1.
    9000010    2    1    2  502    0  0.52331761773E+03  0.59778066270E+02 -0.12908418944E+03  0.11293331688E+04  0.99060382194E+03 0.  0.
   -9000010    2    1    2    0  501 -0.52331761773E+03 -0.59778066270E+02  0.12230076256E+03  0.11191701107E+04  0.97987219268E+03 0.  0.
        -13    1    3    3    0    0 -0.29153930126E+03  0.12948995338E+02  0.43595766382E+02  0.29506514988E+03  0.10566000000E+00 0.  1.
          4    1    3    3  502    0  0.81485691899E+03  0.46829070931E+02 -0.17267995582E+03  0.83426801896E+03  0.00000000000E+00 0.  1.
         13    1    4    4    0    0 -0.56194321986E+03  0.37495688435E+03  0.90111703108E+02  0.68153721665E+03  0.10566000000E+00 0. -1.
         -4    1    4    4    0  501  0.38625602133E+02 -0.43473495062E+03  0.32189059451E+02  0.43763289408E+03  0.00000000000E+00 0. -1.
<mgrwt>
<rscale>  2 0.11171896E+04</rscale>
<asrwt>0</asrwt>
<pdfrwt beam="1">  1        2 0.17243999E+00 0.11171896E+04</pdfrwt>
<pdfrwt beam="2">  1       -2 0.17348359E+00 0.11171896E+04</pdfrwt>
<totfact> 0.54393188E+00</totfact>
</mgrwt>
</event>
<event>
 8    1  0.1373409E-005  0.1197922E+04  0.7818608E-02  0.8608129E-01
         -2   -1    0    0    0  501 -0.00000000000E+00  0.00000000000E+00  0.72287003404E+03  0.72287003404E+03  0.00000000000E+00 0. -1.
          2   -1    0    0  502    0  0.00000000000E+00 -0.00000000000E+00 -0.23614405113E+04  0.23614405113E+04  0.00000000000E+00 0.  1.
    9000010    2    1    2  502    0 -0.64419229714E+03  0.16318411424E+03 -0.20429167159E+03  0.12162386205E+04  0.99794214464E+03 0.  0.
   -9000010    2    1    2    0  501  0.64419229714E+03 -0.16318411424E+03 -0.14342788057E+04  0.18680719248E+04  0.99545178344E+03 0.  0.
        -13    1    3    3    0    0 -0.55252236370E+03  0.54486930883E+03 -0.50030652650E+01  0.77600809784E+03  0.10566000000E+00 0.  1.
          4    1    3    3  502    0 -0.91669933448E+02 -0.38168519459E+03 -0.19928860632E+03  0.44023052265E+03  0.00000000000E+00 0.  1.
         13    1    4    4    0    0  0.86380749120E+03 -0.15766120135E+03 -0.76814460798E+03  0.11666475844E+04  0.10566000000E+00 0. -1.
         -4    1    4    4    0  501 -0.21961519406E+03 -0.55229128915E+01 -0.66613419768E+03  0.70142434043E+03  0.00000000000E+00 0. -1.
<mgrwt>
<rscale>  2 0.11979220E+04</rscale>
<asrwt>0</asrwt>
<pdfrwt beam="2">  1        2 0.36329854E+00 0.11979220E+04</pdfrwt>
<pdfrwt beam="1">  1       -2 0.11121077E+00 0.11979220E+04</pdfrwt>
<totfact> 0.40836084E+00</totfact>
</mgrwt>
</event>
<event>
 8    1  0.1373409E-005  0.1237189E+04  0.7818608E-02  0.8579072E-01
          1   -1    0    0  502    0  0.00000000000E+00  0.00000000000E+00  0.22717986190E+04  0.22717986190E+04  0.00000000000E+00 0.  1.
         -1   -1    0    0    0  501 -0.00000000000E+00 -0.00000000000E+00 -0.69185528264E+03  0.69185528264E+03  0.00000000000E+00 0. -1.
    9000010    2    1    2  502    0  0.56281761576E+03 -0.48128529083E+03  0.54793022084E+03  0.13495624354E+04  0.98625150972E+03 0.  0.
   -9000010    2    1    2    0  501 -0.56281761576E+03  0.48128529083E+03  0.10320131156E+04  0.16140914663E+04  0.99591214019E+03 0.  0.
        -13    1    3    3    0    0  0.75568024988E+03 -0.12994986326E+03  0.14331871493E+03  0.78005119847E+03  0.10566000000E+00 0.  1.
          4    1    3    3  502    0 -0.19286263412E+03 -0.35133542757E+03  0.40461150592E+03  0.56951123696E+03  0.00000000000E+00 0.  1.
         13    1    4    4    0    0 -0.80841604312E+03  0.55820262976E+03  0.78724577156E+03  0.12589212011E+04  0.10566000000E+00 0. -1.
         -4    1    4    4    0  501  0.24559842736E+03 -0.76917338920E+02  0.24476734400E+03  0.35517026513E+03  0.00000000000E+00 0. -1.
<mgrwt>
<rscale>  2 0.12371887E+04</rscale>
<asrwt>0</asrwt>
<pdfrwt beam="1">  1        1 0.34950748E+00 0.12371887E+04</pdfrwt>
<pdfrwt beam="2">  1       -1 0.10643928E+00 0.12371887E+04</pdfrwt>
<totfact> 0.19994357E+00</totfact>
</mgrwt>
</event>
<event>
 8    1  0.1373409E-005  0.1348638E+04  0.7818608E-02  0.8502322E-01
          2   -1    0    0  502    0  0.00000000000E+00  0.00000000000E+00  0.47958389174E+03  0.47958389174E+03  0.00000000000E+00 0. -1.
         -2   -1    0    0    0  501 -0.00000000000E+00 -0.00000000000E+00 -0.37937198169E+04  0.37937198169E+04  0.00000000000E+00 0.  1.
    9000010    2    1    2  502    0  0.85686853184E+03 -0.32214260881E+03 -0.17009011956E+04  0.21739896380E+04  0.99758033648E+03 0.  0.
   -9000010    2    1    2    0  501 -0.85686853184E+03  0.32214260881E+03 -0.16132347296E+04  0.20993140707E+04  0.98315498943E+03 0.  0.
        -13    1    3    3    0    0 -0.18133378914E+03  0.11236556011E+02 -0.59006908469E+03  0.61740565202E+03  0.10566000000E+00 0.  1.
          4    1    3    3  502    0  0.10382023210E+04 -0.33337916482E+03 -0.11108321109E+04  0.15565839860E+04  0.00000000000E+00 0.  1.
         13    1    4    4    0    0 -0.39901795802E+03 -0.32990801336E+03 -0.85441474629E+03  0.99903913735E+03  0.10566000000E+00 0. -1.
         -4    1    4    4    0  501 -0.45785057382E+03  0.65205062218E+03 -0.75881998334E+03  0.11002749333E+04  0.00000000000E+00 0. -1.
<mgrwt>
<rscale>  2 0.13486377E+04</rscale>
<asrwt>0</asrwt>
<pdfrwt beam="1">  1        2 0.73782140E-01 0.13486377E+04</pdfrwt>
<pdfrwt beam="2">  1       -2 0.58364918E+00 0.13486377E+04</pdfrwt>
<totfact> 0.44805466E-01</totfact>
</mgrwt>
</event>
<event>
 8    1  0.1373409E-005  0.1344743E+04  0.7818608E-02  0.8504873E-01
          1   -1    0    0  502    0  0.00000000000E+00  0.00000000000E+00  0.10599405935E+04  0.10599405935E+04  0.00000000000E+00 0. -1.
         -1   -1    0    0    0  501 -0.00000000000E+00 -0.00000000000E+00 -0.24438971759E+04  0.24438971759E+04  0.00000000000E+00 0.  1.
    9000010    2    1    2  502    0  0.21543753838E+03  0.86438949375E+03  0.27012606347E+03  0.13729790505E+04  0.10092179413E+04 0.  0.
   -9000010    2    1    2    0  501 -0.21543753838E+03 -0.86438949375E+03 -0.16540826458E+04  0.21308587189E+04  0.10054784686E+04 0.  0.
        -13    1    3    3    0    0  0.25151525432E+03 -0.10559917566E+03  0.29527611231E+03  0.40199390881E+03  0.10566000000E+00 0.  1.
          4    1    3    3  502    0 -0.36077715934E+02  0.96998866942E+03 -0.25150048848E+02  0.97098514167E+03  0.00000000000E+00 0.  1.
         13    1    4    4    0    0 -0.21222007360E+03  0.18545106580E+03 -0.24336706476E+03  0.37236675042E+03  0.10566000000E+00 0. -1.
         -4    1    4    4    0  501 -0.32174647854E+01 -0.10498405596E+04 -0.14107155811E+04  0.17584919685E+04  0.00000000000E+00 0. -1.
<mgrwt>
<rscale>  2 0.13447425E+04</rscale>
<asrwt>0</asrwt>
<pdfrwt beam="1">  1        1 0.16306778E+00 0.13447425E+04</pdfrwt>
<pdfrwt beam="2">  1       -1 0.37598418E+00 0.13447425E+04</pdfrwt>
<totfact> 0.19060740E-01</totfact>
</mgrwt>
</event>
<event>
 8    1  0.1373409E-005  0.1673007E+04  0.7818608E-02  0.8316344E-01
          1   -1    0    0  502    0  0.00000000000E+00  0.00000000000E+00  0.48272690020E+04  0.48272690020E+04  0.00000000000E+00 0.  1.
         -1   -1    0    0    0  501 -0.00000000000E+00 -0.00000000000E+00 -0.61847807789E+03  0.61847807789E+03  0.00000000000E+00 0. -1.
    9000010    2    1    2  502    0 -0.97708203097E+03  0.90815623815E+03  0.14123429758E+04  0.21820219721E+04  0.99351404491E+03 0.  0.
   -9000010    2    1    2    0  501  0.97708203097E+03 -0.90815623815E+03  0.27964479483E+04  0.32637251078E+04  0.10258379030E+04 0.  0.
        -13    1    3    3    0    0 -0.11181261519E+04  0.87215916561E+03  0.14536038056E+04  0.20307219742E+04  0.10566000000E+00 0.  1.
          4    1    3    3  502    0  0.14104412093E+03  0.35997072540E+02 -0.41260829846E+02  0.15129999789E+03  0.00000000000E+00 0.  1.
         13    1    4    4    0    0  0.45355657841E+03 -0.29858584774E+03  0.25810287964E+03  0.60123554946E+03  0.10566000000E+00 0. -1.
         -4    1    4    4    0  501  0.52352545256E+03 -0.60957039041E+03  0.25383450687E+04  0.26624895583E+04  0.00000000000E+00 0. -1.
<mgrwt>
<rscale>  2 0.16730073E+04</rscale>
<asrwt>0</asrwt>
<pdfrwt beam="1">  1        1 0.74265674E+00 0.16730073E+04</pdfrwt>
<pdfrwt beam="2">  1       -1 0.95150477E-01 0.16730073E+04</pdfrwt>
<totfact> 0.17748264E-02</totfact>
</mgrwt>
</event>
<event>
 8    1  0.1373409E-005  0.1105587E+04  0.7818608E-02  0.8681265E-01
         -1   -1    0    0    0  501 -0.00000000000E+00  0.00000000000E+00  0.10309464319E+04  0.10309464319E+04  0.00000000000E+00 0. -1.
          1   -1    0    0  502    0  0.00000000000E+00 -0.00000000000E+00 -0.11909096055E+04  0.11909096055E+04  0.00000000000E+00 0.  1.
    9000010    2    1    2  502    0  0.51527671720E+03 -0.11469338571E+03 -0.14922440275E+02  0.11367177697E+04  0.10065982022E+04 0.  0.
   -9000010    2    1    2    0  501 -0.51527671720E+03  0.11469338571E+03 -0.14504073334E+03  0.10851382677E+04  0.93692239686E+03 0.  0.
        -13    1    3    3    0    0  0.36925318999E+03  0.67771267096E+02  0.46814810657E+03  0.60008626364E+03  0.10566000000E+00 0.  1.
          4    1    3    3  502    0  0.14602352721E+03 -0.18246465281E+03 -0.48307054685E+03  0.53663150602E+03  0.00000000000E+00 0.  1.
         13    1    4    4    0    0 -0.33071405767E+03 -0.16762053260E+03 -0.48217764567E+03  0.60824643364E+03  0.10566000000E+00 0. -1.
         -4    1    4    4    0  501 -0.18456265953E+03  0.28231391831E+03  0.33713691233E+03  0.47689183408E+03  0.00000000000E+00 0. -1.
<mgrwt>
<rscale>  2 0.11055870E+04</rscale>
<asrwt>0</asrwt>
<pdfrwt beam="2">  1        1 0.18321686E+00 0.11055870E+04</pdfrwt>
<pdfrwt beam="1">  1       -1 0.15860714E+00 0.11055870E+04</pdfrwt>
<totfact> 0.46856885E+00</totfact>
</mgrwt>
</event>
<event>
 8    1  0.1373409E-005  0.1338247E+04  0.7818608E-02  0.8509148E-01
         -2   -1    0    0    0  501 -0.00000000000E+00  0.00000000000E+00  0.15543190239E+04  0.15543190239E+04  0.00000000000E+00 0. -1.
          2   -1    0    0  502    0  0.00000000000E+00 -0.00000000000E+00 -0.13002084249E+04  0.13002084249E+04  0.00000000000E+00 0.  1.
    9000010    2    1    2  502    0  0.43144940352E+03 -0.80451499793E+03  0.60958191113E+03  0.14842376709E+04  0.99898868249E+03 0.  0.
   -9000010    2    1    2    0  501 -0.43144940352E+03  0.80451499793E+03 -0.35547131217E+03  0.13702897779E+04  0.95809250693E+03 0.  0.
        -13    1    3    3    0    0  0.27656552391E+03 -0.18914468183E+03 -0.24839820376E+03  0.41709217024E+03  0.10566000000E+00 0.  1.
          4    1    3    3  502    0  0.15488387961E+03 -0.61537031610E+03  0.85798011489E+03  0.10671455007E+04  0.00000000000E+00 0.  1.
         13    1    4    4    0    0 -0.36313037519E+03  0.41948650293E+03  0.28204365075E+03  0.62239957232E+03  0.10566000000E+00 0. -1.
         -4    1    4    4    0  501 -0.68319028327E+02  0.38502849499E+03 -0.63751496292E+03  0.74789020554E+03  0.00000000000E+00 0. -1.
<mgrwt>
<rscale>  2 0.13382473E+04</rscale>
<asrwt>0</asrwt>
<pdfrwt beam="2">  1        2 0.20003207E+00 0.13382473E+04</pdfrwt>
<pdfrwt beam="1">  1       -2 0.23912600E+00 0.13382473E+04</pdfrwt>
<totfact> 0.12173659E+00</totfact>
</mgrwt>
</event>
<event>
 8    1  0.1373409E-005  0.1203766E+04  0.7818608E-02  0.8603732E-01
          4   -1    0    0  502    0  0.00000000000E+00  0.00000000000E+00  0.29221093093E+04  0.29221093093E+04  0.00000000000E+00 0.  1.
         -4   -1    0    0    0  501 -0.00000000000E+00 -0.00000000000E+00 -0.49774464879E+03  0.49774464879E+03  0.00000000000E+00 0. -1.
    9000010    2    1    2  502    0 -0.60472906616E+03  0.49368886268E+02  0.11776598054E+04  0.17180714321E+04  0.10939617443E+04 0.  0.
   -9000010    2    1    2    0  501  0.60472906616E+03 -0.49368886268E+02  0.12467048550E+04  0.17017825260E+04  0.98674020889E+03 0.  0.
        -13    1    3    3    0    0 -0.71844201771E+03 -0.34935967138E+03  0.56576010332E+03  0.97892574717E+03  0.10566000000E+00 0.  1.
          4    1    3    3  502    0  0.11371295155E+03  0.39872855765E+03  0.61189970212E+03  0.73914568489E+03  0.00000000000E+00 0.  1.
         13    1    4    4    0    0 -0.14954107257E+03  0.14111441630E+03  0.75260279885E+03  0.78018382121E+03  0.10566000000E+00 0. -1.
         -4    1    4    4    0  501  0.75427013873E+03 -0.19048330256E+03  0.49410205617E+03  0.92159870478E+03  0.00000000000E+00 0. -1.
<mgrwt>
<rscale>  2 0.12037656E+04</rscale>
<asrwt>0</asrwt>
<pdfrwt beam="1">  1        4 0.44955527E+00 0.12037656E+04</pdfrwt>
<pdfrwt beam="2">  1       -4 0.76576102E-01 0.12037656E+04</pdfrwt>
<totfact> 0.14550541E-01</totfact>
</mgrwt>
</event>
<event>
 8    1  0.1373409E-005  0.1108133E+04  0.7818608E-02  0.8679149E-01
          2   -1    0    0  502    0  0.00000000000E+00  0.00000000000E+00  0.21064565150E+04  0.21064565150E+04  0.00000000000E+00 0.  1.
         -2   -1    0    0    0  501 -0.00000000000E+00 -0.00000000000E+00 -0.69188396970E+03  0.69188396970E+03  0.00000000000E+00 0. -1.
    9000010    2    1    2  502    0  0.30052474513E+03  0.47541881829E+03  0.13441113410E+03  0.10808001050E+04  0.91308506654E+03 0.  0.
   -9000010    2    1    2    0  501 -0.30052474513E+03 -0.47541881829E+03  0.12801614112E+04  0.17175403797E+04  0.99739337372E+03 0.  0.
        -13    1    3    3    0    0  0.99657162038E+02 -0.23245088938E+03 -0.14755267642E+03  0.29280841758E+03  0.10566000000E+00 0.  1.
          4    1    3    3  502    0  0.20086758310E+03  0.70786970767E+03  0.28196381052E+03  0.78799168741E+03  0.00000000000E+00 0.  1.
         13    1    4    4    0    0  0.22296818251E+03 -0.49548667301E+03  0.33907091743E+03  0.64046151465E+03  0.10566000000E+00 0. -1.
         -4    1    4    4    0  501 -0.52349292764E+03  0.20067854715E+02  0.94109049373E+03  0.10770788650E+04  0.00000000000E+00 0. -1.
<mgrwt>
<rscale>  2 0.11081331E+04</rscale>
<asrwt>0</asrwt>
<pdfrwt beam="1">  1        2 0.32407023E+00 0.11081331E+04</pdfrwt>
<pdfrwt beam="2">  1       -2 0.10644369E+00 0.11081331E+04</pdfrwt>
<totfact> 0.63496702E+00</totfact>
</mgrwt>
</event>
<event>
 8    1  0.1373409E-005  0.1967306E+04  0.7818608E-02  0.8181835E-01
          2   -1    0    0  502    0  0.00000000000E+00  0.00000000000E+00  0.12407558842E+04  0.12407558842E+04  0.00000000000E+00 0. -1.
         -2   -1    0    0    0  501 -0.00000000000E+00 -0.00000000000E+00 -0.31877346476E+04  0.31877346476E+04  0.00000000000E+00 0.  1.
    9000010    2    1    2  502    0  0.14296446547E+04  0.79376868629E+03 -0.63427104389E+03  0.20333935713E+04  0.10288037193E+04 0.  0.
   -9000010    2    1    2    0  501 -0.14296446547E+04 -0.79376868629E+03 -0.13127077195E+04  0.23950969605E+04  0.11572965598E+04 0.  0.
        -13    1    3    3    0    0  0.72284315017E+03 -0.40876124960E+02  0.78019026590E+02  0.72818957492E+03  0.10566000000E+00 0.  1.
          4    1    3    3  502    0  0.70680150455E+03  0.83464481125E+03 -0.71229007048E+03  0.13052039964E+04  0.00000000000E+00 0.  1.
         13    1    4    4    0    0 -0.56114397892E+03  0.23557415469E+03 -0.17818198713E+03  0.63413451186E+03  0.10566000000E+00 0. -1.
         -4    1    4    4    0  501 -0.86850067581E+03 -0.10293428410E+04 -0.11345257324E+04  0.17609624487E+04  0.00000000000E+00 0. -1.
<mgrwt>
<rscale>  2 0.19673056E+04</rscale>
<asrwt>0</asrwt>
<pdfrwt beam="1">  1        2 0.19088553E+00 0.19673056E+04</pdfrwt>
<pdfrwt beam="2">  1       -2 0.49042070E+00 0.19673056E+04</pdfrwt>
<totfact> 0.69059962E-02</totfact>
</mgrwt>
</event>
<event>
 8    1  0.1373409E-005  0.1549491E+04  0.7818608E-02  0.8381573E-01
         -1   -1    0    0    0  501 -0.00000000000E+00  0.00000000000E+00  0.97147301881E+03  0.97147301881E+03  0.00000000000E+00 0.  1.
          1   -1    0    0  502    0  0.00000000000E+00 -0.00000000000E+00 -0.24826337485E+04  0.24826337485E+04  0.00000000000E+00 0. -1.
    9000010    2    1    2  502    0 -0.29400558021E+03  0.11378768923E+04 -0.63611034797E+03  0.16678633850E+04  0.99796232040E+03 0.  0.
   -9000010    2    1    2    0  501  0.29400558021E+03 -0.11378768923E+04 -0.87505038170E+03  0.17862433823E+04  0.10216404197E+04 0.  0.
        -13    1    3    3    0    0 -0.40537217939E+03  0.98400701272E+03 -0.86428243507E+03  0.13709779516E+04  0.10566000000E+00 0.  1.
          4    1    3    3  502    0  0.11136659918E+03  0.15386987958E+03  0.22817208709E+03  0.29688543343E+03  0.00000000000E+00 0.  1.
         13    1    4    4    0    0 -0.30331122910E+03 -0.83063201865E+03 -0.53255565144E+03  0.10322610063E+04  0.10566000000E+00 0. -1.
         -4    1    4    4    0  501  0.59731680931E+03 -0.30724487365E+03 -0.34249473026E+03  0.75398237601E+03  0.00000000000E+00 0. -1.
<mgrwt>
<rscale>  2 0.15494912E+04</rscale>
<asrwt>0</asrwt>
<pdfrwt beam="2">  1        1 0.38194366E+00 0.15494912E+04</pdfrwt>
<pdfrwt beam="1">  1       -1 0.14945739E+00 0.15494912E+04</pdfrwt>
<totfact> 0.52298082E-01</totfact>
</mgrwt>
</event>
<event>
 8    1  0.1373409E-005  0.1247622E+04  0.7818608E-02  0.8571540E-01
         -2   -1    0    0    0  501 -0.00000000000E+00  0.00000000000E+00  0.79920026439E+03  0.79920026439E+03  0.00000000000E+00 0. -1.
          2   -1    0    0  502    0  0.00000000000E+00 -0.00000000000E+00 -0.25240070302E+04  0.25240070302E+04  0.00000000000E+00 0.  1.
    9000010    2    1    2  502    0  0.68068264155E+03  0.31025768294E+03 -0.69123479694E+02  0.12509098709E+04  0.10002043598E+04 0.  0.
   -9000010    2    1    2    0  501 -0.68068264155E+03 -0.31025768294E+03 -0.16556832861E+04  0.20722974237E+04  0.99676515788E+03 0.  0.
        -13    1    3    3    0    0  0.78241651980E+03  0.49946424425E+03  0.15427780858E+03  0.94097916828E+03  0.10566000000E+00 0.  1.
          4    1    3    3  502    0 -0.10173387825E+03 -0.18920656132E+03 -0.22340128827E+03  0.30993070263E+03  0.00000000000E+00 0.  1.
         13    1    4    4    0    0 -0.14093073465E+03  0.34830249287E+03 -0.68332597803E+03  0.77981440223E+03  0.10566000000E+00 0. -1.
         -4    1    4    4    0  501 -0.53975190690E+03 -0.65856017581E+03 -0.97235730807E+03  0.12924830214E+04  0.00000000000E+00 0. -1.
<mgrwt>
<rscale>  2 0.12476216E+04</rscale>
<asrwt>0</asrwt>
<pdfrwt beam="2">  1        2 0.38830878E+00 0.12476216E+04</pdfrwt>
<pdfrwt beam="1">  1       -2 0.12295388E+00 0.12476216E+04</pdfrwt>
<totfact> 0.25392849E+00</totfact>
</mgrwt>
</event>
<event>
 8    1  0.1373409E-005  0.1324191E+04  0.7818608E-02  0.8518486E-01
         -1   -1    0    0    0  501 -0.00000000000E+00  0.00000000000E+00  0.59579890817E+03  0.59579890817E+03  0.00000000000E+00 0. -1.
          1   -1    0    0  502    0  0.00000000000E+00 -0.00000000000E+00 -0.31762915916E+04  0.31762915916E+04  0.00000000000E+00 0.  1.
    9000010    2    1    2  502    0  0.68053378018E+03  0.55307834451E+03 -0.17965450128E+04  0.22287456316E+04  0.98524678431E+03 0.  0.
   -9000010    2    1    2    0  501 -0.68053378018E+03 -0.55307834451E+03 -0.78394767058E+03  0.15433448682E+04  0.99915842128E+03 0.  0.
        -13    1    3    3    0    0  0.57591728006E+03  0.47488927999E+03 -0.44114904819E+03  0.86707152854E+03  0.10566000000E+00 0.  1.
          4    1    3    3  502    0  0.10461650012E+03  0.78189064522E+02 -0.13553959647E+04  0.13616741030E+04  0.00000000000E+00 0.  1.
         13    1    4    4    0    0  0.15932598974E+03 -0.44083302469E+03 -0.17692236145E+03  0.50101902140E+03  0.10566000000E+00 0. -1.
         -4    1    4    4    0  501 -0.83985976992E+03 -0.11224531982E+03 -0.60702530913E+03  0.10423258468E+04  0.00000000000E+00 0. -1.
<mgrwt>
<rscale>  2 0.13241911E+04</rscale>
<asrwt>0</asrwt>
<pdfrwt beam="2">  1        1 0.48866025E+00 0.13241911E+04</pdfrwt>
<pdfrwt beam="1">  1       -1 0.91661370E-01 0.13241911E+04</pdfrwt>
<totfact> 0.34816741E-01</totfact>
</mgrwt>
</event>
<event>
 8    1  0.1373409E-005  0.1134016E+04  0.7818608E-02  0.8657978E-01
         -1   -1    0    0    0  501 -0.00000000000E+00  0.00000000000E+00  0.16008072534E+04  0.16008072534E+04  0.00000000000E+00 0. -1.
          1   -1    0    0  502    0  0.00000000000E+00 -0.00000000000E+00 -0.84596622384E+03  0.84596622384E+03  0.00000000000E+00 0.  1.
    9000010    2    1    2  502    0  0.18050085494E+03 -0.49521529686E+03  0.10495901640E+03  0.11453843851E+04  0.10114693498E+04 0.  0.
   -9000010    2    1    2    0  501 -0.18050085494E+03  0.49521529686E+03  0.64988201319E+03  0.13013890922E+04  0.99671871127E+03 0.  0.
        -13    1    3    3    0    0 -0.39588343762E+03 -0.16947931913E+03 -0.11848045575E+03  0.44663695027E+03  0.10566000000E+00 0.  1.
          4    1    3    3  502    0  0.57638429256E+03 -0.32573597773E+03  0.22343947215E+03  0.69874743478E+03  0.00000000000E+00 0.  1.
         13    1    4    4    0    0 -0.19858713193E+03 -0.28442941785E+03  0.22221829059E+03  0.41196835138E+03  0.10566000000E+00 0. -1.
         -4    1    4    4    0  501  0.18086276985E+02  0.77964471471E+03  0.42766372261E+03  0.88942074083E+03  0.00000000000E+00 0. -1.
<mgrwt>
<rscale>  2 0.11340162E+04</rscale>
<asrwt>0</asrwt>
<pdfrwt beam="2">  1        1 0.13014865E+00 0.11340162E+04</pdfrwt>
<pdfrwt beam="1">  1       -1 0.24627804E+00 0.11340162E+04</pdfrwt>
<totfact> 0.14352614E+00</totfact>
</mgrwt>
</event>
<event>
 8    1  0.1373409E-005  0.9559022E+03  0.7818608E-02  0.8817165E-01
         -1   -1    0    0    0  501 -0.00000000000E+00  0.00000000000E+00  0.69180203226E+03  0.69180203226E+03  0.00000000000E+00 0.  1.
          1   -1    0    0  502    0  0.00000000000E+00 -0.00000000000E+00 -0.16120799923E+04  0.16120799923E+04  0.00000000000E+00 0. -1.
    9000010    2    1    2  502    0  0.31282312539E+03  0.27620110278E+03  0.55787955492E+02  0.85255209541E+03  0.74134163680E+03 0.  0.
   -9000010    2    1    2    0  501 -0.31282312539E+03 -0.27620110278E+03 -0.97606591548E+03  0.14513299291E+04  0.98970123512E+03 0.  0.
        -13    1    3    3    0    0  0.25816744626E+03 -0.20488387692E+03 -0.99163842751E+02  0.34418209164E+03  0.10566000000E+00 0.  1.
          4    1    3    3  502    0  0.54655679137E+02  0.48108497971E+03  0.15495179824E+03  0.50837000378E+03  0.00000000000E+00 0.  1.
         13    1    4    4    0    0 -0.32683562361E+03 -0.60375269753E+03 -0.41710660700E+03  0.80331611300E+03  0.10566000000E+00 0. -1.
         -4    1    4    4    0  501  0.14012498220E+02  0.32755159475E+03 -0.55895930848E+03  0.64801381611E+03  0.00000000000E+00 0. -1.
<mgrwt>
<rscale>  2 0.95590216E+03</rscale>
<asrwt>0</asrwt>
<pdfrwt beam="2">  1        1 0.24801231E+00 0.95590216E+03</pdfrwt>
<pdfrwt beam="1">  1       -1 0.10643108E+00 0.95590216E+03</pdfrwt>
<totfact> 0.66353078E+00</totfact>
</mgrwt>
</event>
<event>
 8    1  0.1373409E-005  0.1284152E+04  0.7818608E-02  0.8545752E-01
         -1   -1    0    0    0  501 -0.00000000000E+00  0.00000000000E+00  0.67681927809E+03  0.67681927809E+03  0.00000000000E+00 0. -1.
          1   -1    0    0  502    0  0.00000000000E+00 -0.00000000000E+00 -0.24470577426E+04  0.24470577426E+04  0.00000000000E+00 0.  1.
    9000010    2    1    2  502    0 -0.77919329837E+03 -0.83597492604E+02 -0.77360302069E+03  0.14862631318E+04  0.99819122736E+03 0.  0.
   -9000010    2    1    2    0  501  0.77919329837E+03  0.83597492604E+02 -0.99663544386E+03  0.16376138889E+04  0.10365164274E+04 0.  0.
        -13    1    3    3    0    0 -0.21614007268E+03  0.39572271372E+03 -0.55521163444E+03  0.71524329242E+03  0.10566000000E+00 0.  1.
          4    1    3    3  502    0 -0.56305322570E+03 -0.47932020632E+03 -0.21839138625E+03  0.77101983940E+03  0.00000000000E+00 0.  1.
         13    1    4    4    0    0  0.22093063955E+03  0.41611791621E+03 -0.28968018011E+02  0.47202078865E+03  0.10566000000E+00 0. -1.
         -4    1    4    4    0  501  0.55826265882E+03 -0.33252042361E+03 -0.96766742585E+03  0.11655931003E+04  0.00000000000E+00 0. -1.
<mgrwt>
<rscale>  2 0.12841518E+04</rscale>
<asrwt>0</asrwt>
<pdfrwt beam="2">  1        1 0.37647042E+00 0.12841518E+04</pdfrwt>
<pdfrwt beam="1">  1       -1 0.10412604E+00 0.12841518E+04</pdfrwt>
<totfact> 0.14724616E+00</totfact>
</mgrwt>
</event>
<event>
 8    1  0.1373409E-005  0.1213561E+04  0.7818608E-02  0.8596420E-01
          2   -1    0    0  502    0  0.00000000000E+00  0.00000000000E+00  0.13595648034E+04  0.13595648034E+04  0.00000000000E+00 0.  1.
         -2   -1    0    0    0  501 -0.00000000000E+00 -0.00000000000E+00 -0.15097540019E+04  0.15097540019E+04  0.00000000000E+00 0. -1.
    9000010    2    1    2  502    0 -0.47472103727E+03 -0.49887223136E+03  0.68740942484E+03  0.13954734894E+04  0.10002904457E+04 0.  0.
   -9000010    2    1    2    0  501  0.47472103727E+03  0.49887223136E+03 -0.83759862340E+03  0.14738453159E+04  0.99820588801E+03 0.  0.
        -13    1    3    3    0    0 -0.17847656512E+03 -0.78025332236E+03  0.39168788390E+03  0.89110523559E+03  0.10566000000E+00 0.  1.
          4    1    3    3  502    0 -0.29624447216E+03  0.28138109100E+03  0.29572154094E+03  0.50436825379E+03  0.00000000000E+00 0.  1.
         13    1    4    4    0    0 -0.22367182572E+01 -0.23286688555E+03 -0.47324380802E+03  0.52743881379E+03  0.10566000000E+00 0. -1.
         -4    1    4    4    0  501  0.47695775553E+03  0.73173911691E+03 -0.36435481538E+03  0.94640650212E+03  0.00000000000E+00 0. -1.
<mgrwt>
<rscale>  2 0.12135609E+04</rscale>
<asrwt>0</asrwt>
<pdfrwt beam="1">  1        2 0.20916382E+00 0.12135609E+04</pdfrwt>
<pdfrwt beam="2">  1       -2 0.23226985E+00 0.12135609E+04</pdfrwt>
<totfact> 0.12962198E+00</totfact>
</mgrwt>
</event>
<event>
 8    1  0.1373409E-005  0.1024148E+04  0.7818608E-02  0.8752228E-01
          2   -1    0    0  502    0  0.00000000000E+00  0.00000000000E+00  0.11424031650E+04  0.11424031650E+04  0.00000000000E+00 0.  1.
         -2   -1    0    0    0  501 -0.00000000000E+00 -0.00000000000E+00 -0.10660724569E+04  0.10660724569E+04  0.00000000000E+00 0. -1.
    9000010    2    1    2  502    0 -0.25511292889E+03 -0.20541462416E+03  0.44781397535E+03  0.10949273211E+04  0.94395482292E+03 0.  0.
   -9000010    2    1    2    0  501  0.25511292889E+03  0.20541462416E+03 -0.37148326722E+03  0.11135483008E+04  0.99735260867E+03 0.  0.
        -13    1    3    3    0    0 -0.54867917613E+03 -0.36988023455E+03  0.27406428422E+03  0.71622026589E+03  0.10566000000E+00 0.  1.
          4    1    3    3  502    0  0.29356624723E+03  0.16446561039E+03  0.17374969113E+03  0.37870705523E+03  0.00000000000E+00 0.  1.
         13    1    4    4    0    0  0.31321170882E+03 -0.34223587410E+03 -0.28598923082E+02  0.46480627968E+03  0.10566000000E+00 0. -1.
         -4    1    4    4    0  501 -0.58098779929E+02  0.54765049826E+03 -0.34288434413E+03  0.64874202109E+03  0.00000000000E+00 0. -1.
<mgrwt>
<rscale>  2 0.10241481E+04</rscale>
<asrwt>0</asrwt>
<pdfrwt beam="1">  1        2 0.17575433E+00 0.10241481E+04</pdfrwt>
<pdfrwt beam="2">  1       -2 0.16401115E+00 0.10241481E+04</pdfrwt>
<totfact> 0.64136028E+00</totfact>
</mgrwt>
</event>
<event>
 8    1  0.1373409E-005  0.1461320E+04  0.7818608E-02  0.8432114E-01
          2   -1    0    0  502    0  0.00000000000E+00  0.00000000000E+00  0.17637956974E+04  0.17637956974E+04  0.00000000000E+00 0. -1.
         -2   -1    0    0    0  501 -0.00000000000E+00 -0.00000000000E+00 -0.16513173355E+04  0.16513173355E+04  0.00000000000E+00 0.  1.
    9000010    2    1    2  502    0  0.48469633271E+03  0.94287210250E+03 -0.82587245291E+03  0.16757430645E+04  0.10010550300E+04 0.  0.
   -9000010    2    1    2    0  501 -0.48469633271E+03 -0.94287210250E+03  0.93835081485E+03  0.17393699684E+04  0.10104292645E+04 0.  0.
        -13    1    3    3    0    0  0.37224616369E+03  0.84648114622E+03 -0.94507178605E+02  0.92953168599E+03  0.10566000000E+00 0.  1.
          4    1    3    3  502    0  0.11245016902E+03  0.96390956280E+02 -0.73136527430E+03  0.74621137851E+03  0.00000000000E+00 0.  1.
         13    1    4    4    0    0 -0.54676764615E+02 -0.47128315747E+03 -0.13264355312E+03  0.49263747975E+03  0.10566000000E+00 0. -1.
         -4    1    4    4    0  501 -0.43001956810E+03 -0.47158894503E+03  0.10709943680E+04  0.12467324886E+04  0.00000000000E+00 0. -1.
<mgrwt>
<rscale>  2 0.14613202E+04</rscale>
<asrwt>0</asrwt>
<pdfrwt beam="1">  1        2 0.27135318E+00 0.14613202E+04</pdfrwt>
<pdfrwt beam="2">  1       -2 0.25404882E+00 0.14613202E+04</pdfrwt>
<totfact> 0.51135715E-01</totfact>
</mgrwt>
</event>
<event>
 8    1  0.1373409E-005  0.1134022E+04  0.7818608E-02  0.8657974E-01
         -2   -1    0    0    0  501 -0.00000000000E+00  0.00000000000E+00  0.78962886444E+03  0.78962886444E+03  0.00000000000E+00 0.  1.
          2   -1    0    0  502    0  0.00000000000E+00 -0.00000000000E+00 -0.18511371848E+04  0.18511371848E+04  0.00000000000E+00 0. -1.
    9000010    2    1    2  502    0 -0.48840150811E+03  0.19211217769E+03 -0.98635495448E+03  0.14990453117E+04  0.99939863337E+03 0.  0.
   -9000010    2    1    2    0  501  0.48840150811E+03 -0.19211217769E+03 -0.75153365881E+02  0.11417207375E+04  0.10111553255E+04 0.  0.
        -13    1    3    3    0    0  0.23976643470E+03 -0.16465102693E+03 -0.41632599280E+03  0.50786341404E+03  0.10566000000E+00 0.  1.
          4    1    3    3  502    0 -0.72816794280E+03  0.35676320463E+03 -0.57002896168E+03  0.99118189766E+03  0.00000000000E+00 0.  1.
         13    1    4    4    0    0  0.73772743931E+02  0.25869766909E+03  0.31598898875E+03  0.41498910095E+03  0.10566000000E+00 0. -1.
         -4    1    4    4    0  501  0.41462876417E+03 -0.45080984678E+03 -0.39114235463E+03  0.72673163659E+03  0.00000000000E+00 0. -1.
<mgrwt>
<rscale>  2 0.11340217E+04</rscale>
<asrwt>0</asrwt>
<pdfrwt beam="2">  1        2 0.28479033E+00 0.11340217E+04</pdfrwt>
<pdfrwt beam="1">  1       -2 0.12148136E+00 0.11340217E+04</pdfrwt>
<totfact> 0.62181567E+00</totfact>
</mgrwt>
</event>
<event>
 8    1  0.1373409E-005  0.1006983E+04  0.7818608E-02  0.8768058E-01
         -4   -1    0    0    0  501 -0.00000000000E+00  0.00000000000E+00  0.10293378588E+04  0.10293378588E+04  0.00000000000E+00 0. -1.
          4   -1    0    0  502    0  0.00000000000E+00 -0.00000000000E+00 -0.14228079930E+04  0.14228079930E+04  0.00000000000E+00 0.  1.
    9000010    2    1    2  502    0 -0.83303168934E+02 -0.22124873226E+03 -0.87355949183E+03  0.13177479895E+04  0.95784297184E+03 0.  0.
   -9000010    2    1    2    0  501  0.83303168934E+02  0.22124873226E+03  0.48008935769E+03  0.11343978622E+04  0.10002411204E+04 0.  0.
        -13    1    3    3    0    0 -0.22621155159E+03 -0.18059646808E+03  0.11984909599E+03  0.31328990939E+03  0.10566000000E+00 0.  1.
          4    1    3    3  502    0  0.14290838265E+03 -0.40652264186E+02 -0.99340858782E+03  0.10044580802E+04  0.00000000000E+00 0.  1.
         13    1    4    4    0    0 -0.20097200855E+03  0.10454890153E+03 -0.25294336510E+03  0.33955938824E+03  0.10566000000E+00 0. -1.
         -4    1    4    4    0  501  0.28427517749E+03  0.11669983074E+03  0.73303272279E+03  0.79483847398E+03  0.00000000000E+00 0. -1.
<mgrwt>
<rscale>  2 0.10069826E+04</rscale>
<asrwt>0</asrwt>
<pdfrwt beam="2">  1        4 0.21889354E+00 0.10069826E+04</pdfrwt>
<pdfrwt beam="1">  1       -4 0.15835967E+00 0.10069826E+04</pdfrwt>
<totfact> 0.22362931E-01</totfact>
</mgrwt>
</event>
<event>
 8    1  0.1373409E-005  0.1173564E+04  0.7818608E-02  0.8626739E-01
          2   -1    0    0  502    0  0.00000000000E+00  0.00000000000E+00  0.47706324415E+03  0.47706324415E+03  0.00000000000E+00 0.  1.
         -2   -1    0    0    0  501 -0.00000000000E+00 -0.00000000000E+00 -0.29349705532E+04  0.29349705532E+04  0.00000000000E+00 0. -1.
    9000010    2    1    2  502    0 -0.62500037090E+03 -0.46155565524E+01 -0.10136436160E+04  0.15528471391E+04  0.99660126933E+03 0.  0.
   -9000010    2    1    2    0  501  0.62500037090E+03  0.46155565524E+01 -0.14442636930E+04  0.18591866583E+04  0.98996497327E+03 0.  0.
        -13    1    3    3    0    0 -0.98527657731E+02 -0.42834313379E+03 -0.16848719195E+03  0.47071592773E+03  0.10566000000E+00 0.  1.
          4    1    3    3  502    0 -0.52647271317E+03  0.42372757723E+03 -0.84515642405E+03  0.10821312113E+04  0.00000000000E+00 0.  1.
         13    1    4    4    0    0  0.67947819518E+03  0.38322560774E+02 -0.35414705120E+03  0.76718927353E+03  0.10566000000E+00 0. -1.
         -4    1    4    4    0  501 -0.54477824281E+02 -0.33707004222E+02 -0.10901166418E+04  0.10919973847E+04  0.00000000000E+00 0. -1.
<mgrwt>
<rscale>  2 0.11735644E+04</rscale>
<asrwt>0</asrwt>
<pdfrwt beam="1">  1        2 0.73394346E-01 0.11735644E+04</pdfrwt>
<pdfrwt beam="2">  1       -2 0.45153393E+00 0.11735644E+04</pdfrwt>
<totfact> 0.27765830E-01</totfact>
</mgrwt>
</event>
<event>
 8    1  0.1373409E-005  0.1135613E+04  0.7818608E-02  0.8656691E-01
         -2   -1    0    0    0  501 -0.00000000000E+00  0.00000000000E+00  0.69265074604E+03  0.69265074604E+03  0.00000000000E+00 0.  1.
          2   -1    0    0  502    0  0.00000000000E+00 -0.00000000000E+00 -0.19244131867E+04  0.19244131867E+04  0.00000000000E+00 0. -1.
    9000010    2    1    2  502    0 -0.21486982883E+03 -0.35083091474E+03 -0.82783402456E+03  0.13753790009E+04  0.10183844312E+04 0.  0.
   -9000010    2    1    2    0  501  0.21486982883E+03  0.35083091474E+03 -0.40392841605E+03  0.12416849318E+04  0.10997144768E+04 0.  0.
        -13    1    3    3    0    0 -0.96677982258E+02  0.44312191670E+02 -0.94155923688E+03  0.94754631037E+03  0.10566000000E+00 0.  1.
          4    1    3    3  502    0 -0.11819184657E+03 -0.39514310641E+03  0.11372521232E+03  0.42783269049E+03  0.00000000000E+00 0.  1.
         13    1    4    4    0    0  0.13453578057E+03  0.11328777354E+03 -0.77451357731E+03  0.79423251538E+03  0.10566000000E+00 0. -1.
         -4    1    4    4    0  501  0.80334048251E+02  0.23754314119E+03  0.37058516126E+03  0.44745241645E+03  0.00000000000E+00 0. -1.
<mgrwt>
<rscale>  2 0.11356133E+04</rscale>
<asrwt>0</asrwt>
<pdfrwt beam="2">  1        2 0.29606357E+00 0.11356133E+04</pdfrwt>
<pdfrwt beam="1">  1       -2 0.10656165E+00 0.11356133E+04</pdfrwt>
<totfact> 0.79312575E+00</totfact>
</mgrwt>
</event>
<event>
 8    1  0.1373409E-005  0.1218334E+04  0.7818608E-02  0.8592883E-01
         -2   -1    0    0    0  501 -0.00000000000E+00  0.00000000000E+00  0.10090633690E+04  0.10090633690E+04  0.00000000000E+00 0.  1.
          2   -1    0    0  502    0  0.00000000000E+00 -0.00000000000E+00 -0.17473310980E+04  0.17473310980E+04  0.00000000000E+00 0. -1.
    9000010    2    1    2  502    0  0.57111019355E+03  0.32807757042E+03 -0.91766750440E+03  0.15267409320E+04  0.10271428720E+04 0.  0.
   -9000010    2    1    2    0  501 -0.57111019355E+03 -0.32807757042E+03  0.17939977548E+03  0.12296535350E+04  0.10227716222E+04 0.  0.
        -13    1    3    3    0    0 -0.51615086256E+00  0.43539639826E+03 -0.83174781011E+03  0.93881559468E+03  0.10566000000E+00 0.  1.
          4    1    3    3  502    0  0.57162634441E+03 -0.10731882784E+03 -0.85919694290E+02  0.58792533735E+03  0.00000000000E+00 0.  1.
         13    1    4    4    0    0 -0.74722409924E+03 -0.25054630526E+03 -0.19218215871E+03  0.81120361122E+03  0.10566000000E+00 0. -1.
         -4    1    4    4    0  501  0.17611390570E+03 -0.77531265157E+02  0.37158193419E+03  0.41844992373E+03  0.00000000000E+00 0. -1.
<mgrwt>
<rscale>  2 0.12183337E+04</rscale>
<asrwt>0</asrwt>
<pdfrwt beam="2">  1        2 0.26882017E+00 0.12183337E+04</pdfrwt>
<pdfrwt beam="1">  1       -2 0.15524052E+00 0.12183337E+04</pdfrwt>
<totfact> 0.34592514E+00</totfact>
</mgrwt>
</event>
<event>
 8    1  0.1373409E-005  0.1084353E+04  0.7818608E-02  0.8699138E-01
         -1   -1    0    0    0  501 -0.00000000000E+00  0.00000000000E+00  0.12072156951E+04  0.12072156951E+04  0.00000000000E+00 0. -1.
          1   -1    0    0  502    0  0.00000000000E+00 -0.00000000000E+00 -0.97415266974E+03  0.97415266974E+03  0.00000000000E+00 0.  1.
    9000010    2    1    2  502    0  0.54685485533E+01  0.42888015355E+03  0.10312941651E+03  0.10839848556E+04  0.99016129973E+03 0.  0.
   -9000010    2    1    2    0  501 -0.54685485533E+01 -0.42888015355E+03  0.12993360881E+03  0.10973835092E+04  0.10016984239E+04 0.  0.
        -13    1    3    3    0    0  0.30392822694E+03 -0.19973328199E+03 -0.61652181363E+02  0.36887227288E+03  0.10566000000E+00 0.  1.
          4    1    3    3  502    0 -0.29845967839E+03  0.62861343554E+03  0.16478159787E+03  0.71511258272E+03  0.00000000000E+00 0.  1.
         13    1    4    4    0    0 -0.95375966129E+02  0.18923444735E+03  0.37149175366E+03  0.42768257526E+03  0.10566000000E+00 0. -1.
         -4    1    4    4    0  501  0.89907417576E+02 -0.61811460090E+03 -0.24155814485E+03  0.66970093394E+03  0.00000000000E+00 0. -1.
<mgrwt>
<rscale>  2 0.10843530E+04</rscale>
<asrwt>0</asrwt>
<pdfrwt beam="2">  1        1 0.14986964E+00 0.10843530E+04</pdfrwt>
<pdfrwt beam="1">  1       -1 0.18572549E+00 0.10843530E+04</pdfrwt>
<totfact> 0.40542512E+00</totfact>
</mgrwt>
</event>
<event>
 8    1  0.1373409E-005  0.1249328E+04  0.7818608E-02  0.8570315E-01
          2   -1    0    0  502    0  0.00000000000E+00  0.00000000000E+00  0.13058783985E+04  0.13058783985E+04  0.00000000000E+00 0.  1.
         -2   -1    0    0    0  501 -0.00000000000E+00 -0.00000000000E+00 -0.12078474113E+04  0.12078474113E+04  0.00000000000E+00 0. -1.
    9000010    2    1    2  502    0 -0.69522655624E+03  0.13436074464E+03 -0.78302981946E+02  0.12647032345E+04  0.10449641813E+04 0.  0.
   -9000010    2    1    2    0  501  0.69522655624E+03 -0.13436074464E+03  0.17633396910E+03  0.12490225753E+04  0.10136917434E+04 0.  0.
        -13    1    3    3    0    0 -0.45641405704E+03  0.36567653598E+03  0.38078069949E+03  0.69787324974E+03  0.10566000000E+00 0.  1.
          4    1    3    3  502    0 -0.23881249920E+03 -0.23131579134E+03 -0.45908368143E+03  0.56682998479E+03  0.00000000000E+00 0.  1.
         13    1    4    4    0    0  0.59860553913E+03 -0.52180384941E+03 -0.39547603018E+02  0.79509236747E+03  0.10566000000E+00 0. -1.
         -4    1    4    4    0  501  0.96621017104E+02  0.38744310477E+03  0.21588157212E+03  0.45393020781E+03  0.00000000000E+00 0. -1.
<mgrwt>
<rscale>  2 0.12493284E+04</rscale>
<asrwt>0</asrwt>
<pdfrwt beam="1">  1        2 0.20090437E+00 0.12493284E+04</pdfrwt>
<pdfrwt beam="2">  1       -2 0.18582268E+00 0.12493284E+04</pdfrwt>
<totfact> 0.33229605E+00</totfact>
</mgrwt>
</event>
<event>
 8    1  0.1373409E-005  0.1103118E+04  0.7818608E-02  0.8683321E-01
         -2   -1    0    0    0  501 -0.00000000000E+00  0.00000000000E+00  0.14588114769E+04  0.14588114769E+04  0.00000000000E+00 0.  1.
          2   -1    0    0  502    0  0.00000000000E+00 -0.00000000000E+00 -0.85603243695E+03  0.85603243695E+03  0.00000000000E+00 0. -1.
    9000010    2    1    2  502    0 -0.27289979581E+03  0.49642711079E+03  0.13680590377E+03  0.11615477663E+04  0.10047702141E+04 0.  0.
   -9000010    2    1    2    0  501  0.27289979581E+03 -0.49642711079E+03  0.46597313618E+03  0.11532961475E+04  0.88997014861E+03 0.  0.
        -13    1    3    3    0    0 -0.23781386931E+03  0.30562545405E+03  0.56873187776E+03  0.68805400555E+03  0.10566000000E+00 0.  1.
          4    1    3    3  502    0 -0.35085926504E+02  0.19080165674E+03 -0.43192597400E+03  0.47349376075E+03  0.00000000000E+00 0.  1.
         13    1    4    4    0    0  0.54518742515E+03 -0.54979642599E+03  0.30263194912E+03  0.83131916035E+03  0.10566000000E+00 0. -1.
         -4    1    4    4    0  501 -0.27228762934E+03  0.53369315193E+02  0.16334118706E+03  0.32197698720E+03  0.00000000000E+00 0. -1.
<mgrwt>
<rscale>  2 0.11031177E+04</rscale>
<asrwt>0</asrwt>
<pdfrwt beam="2">  1        2 0.13169730E+00 0.11031177E+04</pdfrwt>
<pdfrwt beam="1">  1       -2 0.22443253E+00 0.11031177E+04</pdfrwt>
<totfact> 0.30098137E+00</totfact>
</mgrwt>
</event>
<event>
 8    1  0.1373409E-005  0.1279081E+04  0.7818608E-02  0.8549279E-01
          1   -1    0    0  502    0  0.00000000000E+00  0.00000000000E+00  0.40304654575E+04  0.40304654575E+04  0.00000000000E+00 0.  1.
         -1   -1    0    0    0  501 -0.00000000000E+00 -0.00000000000E+00 -0.41664208738E+03  0.41664208738E+03  0.00000000000E+00 0. -1.
    9000010    2    1    2  502    0 -0.79200060972E+03 -0.79557842272E+02  0.14546286237E+04  0.19391064870E+04  0.10052836012E+04 0.  0.
   -9000010    2    1    2    0  501  0.79200060972E+03  0.79557842272E+02  0.21591947465E+04  0.25080010579E+04  0.99717247126E+03 0.  0.
        -13    1    3    3    0    0 -0.65309509632E+02  0.39440242572E+03  0.32785758789E+03  0.51701954950E+03  0.10566000000E+00 0.  1.
          4    1    3    3  502    0 -0.72669110009E+03 -0.47396026799E+03  0.11267710358E+04  0.14220869375E+04  0.00000000000E+00 0.  1.
         13    1    4    4    0    0  0.86459490381E+03 -0.28000291176E+03  0.15138944877E+04  0.17657300217E+04  0.10566000000E+00 0. -1.
         -4    1    4    4    0  501 -0.72594294086E+02  0.35956075403E+03  0.64530025871E+03  0.74227103625E+03  0.00000000000E+00 0. -1.
<mgrwt>
<rscale>  2 0.12790810E+04</rscale>
<asrwt>0</asrwt>
<pdfrwt beam="1">  1        1 0.62007158E+00 0.12790810E+04</pdfrwt>
<pdfrwt beam="2">  1       -1 0.64098785E-01 0.12790810E+04</pdfrwt>
<totfact> 0.13059022E-01</totfact>
</mgrwt>
</event>
<event>
 8    1  0.1373409E-005  0.1355118E+04  0.7818608E-02  0.8498096E-01
         -1   -1    0    0    0  501 -0.00000000000E+00  0.00000000000E+00  0.10316131251E+04  0.10316131251E+04  0.00000000000E+00 0.  1.
          1   -1    0    0  502    0  0.00000000000E+00 -0.00000000000E+00 -0.17908306796E+04  0.17908306796E+04  0.00000000000E+00 0. -1.
    9000010    2    1    2  502    0  0.32547487017E+03 -0.86648957501E+03 -0.27005772620E+03  0.13811782862E+04  0.98893084094E+03 0.  0.
   -9000010    2    1    2    0  501 -0.32547487017E+03  0.86648957501E+03 -0.48915982825E+03  0.14412655185E+04  0.99057098816E+03 0.  0.
        -13    1    3    3    0    0  0.47976035893E+03 -0.10140825220E+04 -0.13842927986E+03  0.11303521753E+04  0.10566000000E+00 0.  1.
          4    1    3    3  502    0 -0.15428548876E+03  0.14759294701E+03 -0.13162844634E+03  0.25082611095E+03  0.00000000000E+00 0.  1.
         13    1    4    4    0    0 -0.13710619834E+03  0.24478905712E+03  0.30555647898E+03  0.41483076684E+03  0.10566000000E+00 0. -1.
         -4    1    4    4    0  501 -0.18836867184E+03  0.62170051789E+03 -0.79471630723E+03  0.10264347517E+04  0.00000000000E+00 0. -1.
<mgrwt>
<rscale>  2 0.13551180E+04</rscale>
<asrwt>0</asrwt>
<pdfrwt beam="2">  1        1 0.27551241E+00 0.13551180E+04</pdfrwt>
<pdfrwt beam="1">  1       -1 0.15870971E+00 0.13551180E+04</pdfrwt>
<totfact> 0.16092609E+00</totfact>
</mgrwt>
</event>
<event>
 8    1  0.1373409E-005  0.9527475E+03  0.7818608E-02  0.8820302E-01
         -2   -1    0    0    0  501 -0.00000000000E+00  0.00000000000E+00  0.68635416451E+03  0.68635416451E+03  0.00000000000E+00 0.  1.
          2   -1    0    0  502    0  0.00000000000E+00 -0.00000000000E+00 -0.13533550314E+04  0.13533550314E+04  0.00000000000E+00 0. -1.
    9000010    2    1    2  502    0 -0.16514535194E+02 -0.31535413038E+03 -0.48133539298E+03  0.11586679360E+04  0.10055379993E+04 0.  0.
   -9000010    2    1    2    0  501  0.16514535194E+02  0.31535413038E+03 -0.18566547395E+03  0.88104125995E+03  0.80127465709E+03 0.  0.
        -13    1    3    3    0    0 -0.94879376222E+02  0.25927830250E+02  0.29287637707E+03  0.30895134216E+03  0.10566000000E+00 0.  1.
          4    1    3    3  502    0  0.78364841028E+02 -0.34128196063E+03 -0.77421177004E+03  0.84971659383E+03  0.00000000000E+00 0.  1.
         13    1    4    4    0    0 -0.18139484327E+03  0.53019489751E+03 -0.18109207573E+03  0.58890157884E+03  0.10566000000E+00 0. -1.
         -4    1    4    4    0  501  0.19790937847E+03 -0.21484076713E+03 -0.45733982193E+01  0.29213968111E+03  0.00000000000E+00 0. -1.
<mgrwt>
<rscale>  2 0.95274750E+03</rscale>
<asrwt>0</asrwt>
<pdfrwt beam="2">  1        2 0.20820847E+00 0.95274750E+03</pdfrwt>
<pdfrwt beam="1">  1       -2 0.10559295E+00 0.95274750E+03</pdfrwt>
<totfact> 0.16920185E+01</totfact>
</mgrwt>
</event>
<event>
 8    1  0.1373409E-005  0.1167962E+04  0.7818608E-02  0.8631086E-01
         -4   -1    0    0    0  501 -0.00000000000E+00  0.00000000000E+00  0.90734899723E+03  0.90734899723E+03  0.00000000000E+00 0. -1.
          4   -1    0    0  502    0  0.00000000000E+00 -0.00000000000E+00 -0.17238102421E+04  0.17238102421E+04  0.00000000000E+00 0.  1.
    9000010    2    1    2  502    0  0.52756170892E+03  0.66749751351E+02 -0.88962168134E+03  0.15047587068E+04  0.10909148197E+04 0.  0.
   -9000010    2    1    2    0  501 -0.52756170892E+03 -0.66749751351E+02  0.73160436479E+02  0.11264005325E+04  0.99027714512E+03 0.  0.
        -13    1    3    3    0    0  0.78795775174E+03  0.30709106668E+03 -0.52026002732E+03  0.99290122819E+03  0.10566000000E+00 0.  1.
          4    1    3    3  502    0 -0.26039604281E+03 -0.24034131533E+03 -0.36936165403E+03  0.51185747863E+03  0.00000000000E+00 0.  1.
         13    1    4    4    0    0 -0.16087162028E+03  0.10760243948E+02  0.51928380867E+03  0.54373812279E+03  0.10566000000E+00 0. -1.
         -4    1    4    4    0  501 -0.36669008864E+03 -0.77509995299E+02 -0.44612337220E+03  0.58266240972E+03  0.00000000000E+00 0. -1.
<mgrwt>
<rscale>  2 0.11679619E+04</rscale>
<asrwt>0</asrwt>
<pdfrwt beam="2">  1        4 0.26520158E+00 0.11679619E+04</pdfrwt>
<pdfrwt beam="1">  1       -4 0.13959215E+00 0.11679619E+04</pdfrwt>
<totfact> 0.20714163E-01</totfact>
</mgrwt>
</event>
<event>
 8    1  0.1373409E-005  0.1083331E+04  0.7818608E-02  0.8700010E-01
         -2   -1    0    0    0  501 -0.00000000000E+00  0.00000000000E+00  0.15834082075E+04  0.15834082075E+04  0.00000000000E+00 0. -1.
          2   -1    0    0  502    0  0.00000000000E+00 -0.00000000000E+00 -0.76938852657E+03  0.76938852657E+03  0.00000000000E+00 0.  1.
    9000010    2    1    2  502    0 -0.42108109183E+03 -0.75522009028E+02  0.63041718069E+03  0.12492496303E+04  0.99004341191E+03 0.  0.
   -9000010    2    1    2    0  501  0.42108109183E+03  0.75522009028E+02  0.18360250026E+03  0.11035471037E+04  0.10005465868E+04 0.  0.
        -13    1    3    3    0    0 -0.25248027157E+03 -0.52776731810E+03  0.43267236488E+03  0.72766064624E+03  0.10566000000E+00 0.  1.
          4    1    3    3  502    0 -0.16860082026E+03  0.45224530907E+03  0.19774481581E+03  0.52158898411E+03  0.00000000000E+00 0.  1.
         13    1    4    4    0    0  0.48775914477E+02  0.28171883889E+02  0.56538647288E+03  0.56818537446E+03  0.10566000000E+00 0. -1.
         -4    1    4    4    0  501  0.37230517735E+03  0.47350125139E+02 -0.38178397262E+03  0.53536172928E+03  0.00000000000E+00 0. -1.
<mgrwt>
<rscale>  2 0.10833310E+04</rscale>
<asrwt>0</asrwt>
<pdfrwt beam="2">  1        2 0.11836747E+00 0.10833310E+04</pdfrwt>
<pdfrwt beam="1">  1       -2 0.24360126E+00 0.10833310E+04</pdfrwt>
<totfact> 0.24341622E+00</totfact>
</mgrwt>
</event>
<event>
 8    1  0.1373409E-005  0.1105461E+04  0.7818608E-02  0.8681369E-01
         -2   -1    0    0    0  501 -0.00000000000E+00  0.00000000000E+00  0.10747472046E+04  0.10747472046E+04  0.00000000000E+00 0.  1.
          2   -1    0    0  502    0  0.00000000000E+00 -0.00000000000E+00 -0.11419929038E+04  0.11419929038E+04  0.00000000000E+00 0. -1.
    9000010    2    1    2  502    0 -0.47248430655E+03  0.12886115226E+03 -0.10466457583E+03  0.10962495932E+04  0.97517274397E+03 0.  0.
   -9000010    2    1    2    0  501  0.47248430655E+03 -0.12886115226E+03  0.37418876542E+02  0.11204905152E+04  0.10071008916E+04 0.  0.
        -13    1    3    3    0    0 -0.68016533542E+03 -0.14520929092E+03  0.89696255392E+02  0.70125320040E+03  0.10566000000E+00 0.  1.
          4    1    3    3  502    0  0.20768102887E+03  0.27407044318E+03 -0.19436083122E+03  0.39499639276E+03  0.00000000000E+00 0.  1.
         13    1    4    4    0    0 -0.24203575269E+03 -0.23240481974E+03 -0.16037249429E+03  0.37190409235E+03  0.10566000000E+00 0. -1.
         -4    1    4    4    0  501  0.71452005924E+03  0.10354366748E+03  0.19779137083E+03  0.74858642287E+03  0.00000000000E+00 0. -1.
<mgrwt>
<rscale>  2 0.11054610E+04</rscale>
<asrwt>0</asrwt>
<pdfrwt beam="2">  1        2 0.17569122E+00 0.11054610E+04</pdfrwt>
<pdfrwt beam="1">  1       -2 0.16534572E+00 0.11054610E+04</pdfrwt>
<totfact> 0.61974852E+00</totfact>
</mgrwt>
</event>
<event>
 8    1  0.1373409E-005  0.1039487E+04  0.7818608E-02  0.8738350E-01
         -2   -1    0    0    0  501 -0.00000000000E+00  0.00000000000E+00  0.77087381766E+03  0.77087381766E+03  0.00000000000E+00 0.  1.
          2   -1    0    0  502    0  0.00000000000E+00 -0.00000000000E+00 -0.19787517848E+04  0.19787517848E+04  0.00000000000E+00 0. -1.
    9000010    2    1    2  502    0 -0.31164779711E+03 -0.24155875577E+02  0.14256199436E+03  0.10392007278E+04  0.98076825737E+03 0.  0.
   -9000010    2    1    2    0  501  0.31164779711E+03  0.24155875577E+02 -0.13504399615E+04  0.17104248747E+04  0.10020764973E+04 0.  0.
        -13    1    3    3    0    0 -0.58819089167E+03 -0.25809817641E+02 -0.17872414187E+03  0.61528611375E+03  0.10566000000E+00 0.  1.
          4    1    3    3  502    0  0.27654309456E+03  0.16539420633E+01  0.32128613623E+03  0.42391461405E+03  0.00000000000E+00 0.  1.
         13    1    4    4    0    0  0.63941572177E+03 -0.13354952287E+03 -0.10593552392E+04  0.12445567381E+04  0.10566000000E+00 0. -1.
         -4    1    4    4    0  501 -0.32776792466E+03  0.15770539844E+03 -0.29108472232E+03  0.46586813661E+03  0.00000000000E+00 0. -1.
<mgrwt>
<rscale>  2 0.10394870E+04</rscale>
<asrwt>0</asrwt>
<pdfrwt beam="2">  1        2 0.30442335E+00 0.10394870E+04</pdfrwt>
<pdfrwt beam="1">  1       -2 0.11859597E+00 0.10394870E+04</pdfrwt>
<totfact> 0.57101791E+00</totfact>
</mgrwt>
</event>
<event>
 8    1  0.1373409E-005  0.1516957E+04  0.7818608E-02  0.8399807E-01
         -2   -1    0    0    0  501 -0.00000000000E+00  0.00000000000E+00  0.91872776742E+03  0.91872776742E+03  0.00000000000E+00 0.  1.
          2   -1    0    0  502    0  0.00000000000E+00 -0.00000000000E+00 -0.25176035410E+04  0.25176035410E+04  0.00000000000E+00 0. -1.
    9000010    2    1    2  502    0 -0.61017190052E+03 -0.10042217915E+04 -0.70307755742E+03  0.17057924065E+04  0.10171718280E+04 0.  0.
   -9000010    2    1    2    0  501  0.61017190052E+03  0.10042217915E+04 -0.89579821614E+03  0.17305389019E+04  0.90085475646E+03 0.  0.
        -13    1    3    3    0    0 -0.51423857585E+01 -0.30277622598E+03 -0.71810330845E+03  0.77934091380E+03  0.10566000000E+00 0.  1.
          4    1    3    3  502    0 -0.60502951476E+03 -0.70144556551E+03  0.15025751036E+02  0.92645149269E+03  0.00000000000E+00 0.  1.
         13    1    4    4    0    0 -0.11150439924E+03 -0.82957094986E+02 -0.22206956380E+03  0.26197330587E+03  0.10566000000E+00 0. -1.
         -4    1    4    4    0  501  0.72167629976E+03  0.10871788865E+04 -0.67372865233E+03  0.14685655960E+04  0.00000000000E+00 0. -1.
<mgrwt>
<rscale>  2 0.15169568E+04</rscale>
<asrwt>0</asrwt>
<pdfrwt beam="2">  1        2 0.38732361E+00 0.15169568E+04</pdfrwt>
<pdfrwt beam="1">  1       -2 0.14134274E+00 0.15169568E+04</pdfrwt>
<totfact> 0.16801421E+00</totfact>
</mgrwt>
</event>
<event>
 8    1  0.1373409E-005  0.1203687E+04  0.7818608E-02  0.8603791E-01
          1   -1    0    0  502    0  0.00000000000E+00  0.00000000000E+00  0.12586093738E+04  0.12586093738E+04  0.00000000000E+00 0.  1.
         -1   -1    0    0    0  501 -0.00000000000E+00 -0.00000000000E+00 -0.12858670815E+04  0.12858670815E+04  0.00000000000E+00 0. -1.
    9000010    2    1    2  502    0 -0.65071535491E+03  0.19666144225E+03 -0.42536661362E+03  0.12739058340E+04  0.98984499894E+03 0.  0.
   -9000010    2    1    2    0  501  0.65071535491E+03 -0.19666144225E+03  0.39810890584E+03  0.12705706213E+04  0.99687150969E+03 0.  0.
        -13    1    3    3    0    0  0.24121368520E+03  0.65685192997E+02  0.49710158548E+02  0.25489154072E+03  0.10566000000E+00 0.  1.
          4    1    3    3  502    0 -0.89192904010E+03  0.13097624925E+03 -0.47507677217E+03  0.10190142933E+04  0.00000000000E+00 0.  1.
         13    1    4    4    0    0  0.58651260527E+03 -0.36894272483E+03 -0.13562979779E+03  0.70605327246E+03  0.10566000000E+00 0. -1.
         -4    1    4    4    0  501  0.64202749641E+02  0.17228128258E+03  0.53373870363E+03  0.56451734884E+03  0.00000000000E+00 0. -1.
<mgrwt>
<rscale>  2 0.12036870E+04</rscale>
<asrwt>0</asrwt>
<pdfrwt beam="1">  1        1 0.19363221E+00 0.12036870E+04</pdfrwt>
<pdfrwt beam="2">  1       -1 0.19782571E+00 0.12036870E+04</pdfrwt>
<totfact> 0.18655751E+00</totfact>
</mgrwt>
</event>
<event>
 8    1  0.1373409E-005  0.1119822E+04  0.7818608E-02  0.8669515E-01
         -1   -1    0    0    0  501 -0.00000000000E+00  0.00000000000E+00  0.58741860740E+03  0.58741860740E+03  0.00000000000E+00 0.  1.
          1   -1    0    0  502    0  0.00000000000E+00 -0.00000000000E+00 -0.22433156650E+04  0.22433156650E+04  0.00000000000E+00 0. -1.
    9000010    2    1    2  502    0  0.18481951444E+03 -0.44597179162E+03 -0.11410011458E+04  0.16004331315E+04  0.10131404156E+04 0.  0.
   -9000010    2    1    2    0  501 -0.18481951444E+03  0.44597179162E+03 -0.51489591173E+03  0.12303011409E+04  0.10077073015E+04 0.  0.
        -13    1    3    3    0    0  0.13293552603E+03 -0.16635371878E+02 -0.11598506417E+04  0.11675624660E+04  0.10566000000E+00 0.  1.
          4    1    3    3  502    0  0.51883988407E+02 -0.42933641974E+03  0.18849495867E+02  0.43287066551E+03  0.00000000000E+00 0.  1.
         13    1    4    4    0    0 -0.35083363841E+01  0.75687312468E+03 -0.33026687226E+03  0.82579988700E+03  0.10566000000E+00 0. -1.
         -4    1    4    4    0  501 -0.18131117805E+03 -0.31090133307E+03 -0.18462903947E+03  0.40450125390E+03  0.00000000000E+00 0. -1.
<mgrwt>
<rscale>  2 0.11198218E+04</rscale>
<asrwt>0</asrwt>
<pdfrwt beam="2">  1        1 0.34512548E+00 0.11198218E+04</pdfrwt>
<pdfrwt beam="1">  1       -1 0.90372094E-01 0.11198218E+04</pdfrwt>
<totfact> 0.30427927E+00</totfact>
</mgrwt>
</event>
<event>
 8    1  0.1373409E-005  0.1115366E+04  0.7818608E-02  0.8673173E-01
         -2   -1    0    0    0  501 -0.00000000000E+00  0.00000000000E+00  0.11961114584E+04  0.11961114584E+04  0.00000000000E+00 0.  1.
          2   -1    0    0  502    0  0.00000000000E+00 -0.00000000000E+00 -0.10439101433E+04  0.10439101433E+04  0.00000000000E+00 0. -1.
    9000010    2    1    2  502    0 -0.49203536480E+03  0.79054877626E+02  0.14408668417E+03  0.11256501227E+04  0.99898886495E+03 0.  0.
   -9000010    2    1    2    0  501  0.49203536480E+03 -0.79054877626E+02  0.81146308921E+01  0.11143714790E+04  0.99669928867E+03 0.  0.
        -13    1    3    3    0    0  0.25584518944E+02  0.40054482631E+03  0.29475393413E+03  0.49796648315E+03  0.10566000000E+00 0.  1.
          4    1    3    3  502    0 -0.51761988375E+03 -0.32148994868E+03 -0.15066724996E+03  0.62768363955E+03  0.00000000000E+00 0.  1.
         13    1    4    4    0    0  0.52539994258E+02 -0.23770392230E+03  0.42395160150E+03  0.48887480734E+03  0.10566000000E+00 0. -1.
         -4    1    4    4    0  501  0.43949537054E+03  0.15864904467E+03 -0.41583697061E+03  0.62549667164E+03  0.00000000000E+00 0. -1.
<mgrwt>
<rscale>  2 0.11153656E+04</rscale>
<asrwt>0</asrwt>
<pdfrwt beam="2">  1        2 0.16060156E+00 0.11153656E+04</pdfrwt>
<pdfrwt beam="1">  1       -2 0.18401715E+00 0.11153656E+04</pdfrwt>
<totfact> 0.49353458E+00</totfact>
</mgrwt>
</event>
<event>
 8    1  0.1373409E-005  0.1202351E+04  0.7818608E-02  0.8604794E-01
          1   -1    0    0  502    0  0.00000000000E+00  0.00000000000E+00  0.15869630498E+04  0.15869630498E+04  0.00000000000E+00 0. -1.
         -1   -1    0    0    0  501 -0.00000000000E+00 -0.00000000000E+00 -0.96767771689E+03  0.96767771689E+03  0.00000000000E+00 0.  1.
    9000010    2    1    2  502    0  0.25515758546E+02  0.66743969371E+03 -0.11721456439E+01  0.11956103053E+04  0.99164299495E+03 0.  0.
   -9000010    2    1    2    0  501 -0.25515758546E+02 -0.66743969371E+03  0.62045747855E+03  0.13590304614E+04  0.10079035240E+04 0.  0.
        -13    1    3    3    0    0  0.19368506825E+03  0.89101313474E+03 -0.42511498955E+02  0.91281189226E+03  0.10566000000E+00 0.  1.
          4    1    3    3  502    0 -0.16816930970E+03 -0.22357344103E+03  0.41339353311E+02  0.28279841299E+03  0.00000000000E+00 0.  1.
         13    1    4    4    0    0 -0.49838157761E+03 -0.20911862465E+03  0.36752784848E+03  0.65359890349E+03  0.10566000000E+00 0. -1.
         -4    1    4    4    0  501  0.47286581906E+03 -0.45832106906E+03  0.25292963007E+03  0.70543155795E+03  0.00000000000E+00 0. -1.
<mgrwt>
<rscale>  2 0.12023511E+04</rscale>
<asrwt>0</asrwt>
<pdfrwt beam="1">  1        1 0.24414816E+00 0.12023511E+04</pdfrwt>
<pdfrwt beam="2">  1       -1 0.14887350E+00 0.12023511E+04</pdfrwt>
<totfact> 0.28308990E+00</totfact>
</mgrwt>
</event>
<event>
 8    1  0.1373409E-005  0.2140519E+04  0.7818608E-02  0.8113462E-01
          1   -1    0    0  502    0  0.00000000000E+00  0.00000000000E+00  0.13510361011E+04  0.13510361011E+04  0.00000000000E+00 0.  1.
         -1   -1    0    0    0  501 -0.00000000000E+00 -0.00000000000E+00 -0.44385768923E+04  0.44385768923E+04  0.00000000000E+00 0. -1.
    9000010    2    1    2  502    0  0.16918158611E+04  0.81658770796E+03 -0.29466281665E+04  0.36385950833E+04  0.10137555108E+04 0.  0.
   -9000010    2    1    2    0  501 -0.16918158611E+04 -0.81658770796E+03 -0.14091262467E+03  0.21510179102E+04  0.10382510726E+04 0.  0.
        -13    1    3    3    0    0  0.46058173054E+03  0.25377148240E+03 -0.17534967742E+03  0.55433114320E+03  0.10566000000E+00 0.  1.
          4    1    3    3  502    0  0.12312341305E+04  0.56281622556E+03 -0.27712784891E+04  0.30842639401E+04  0.00000000000E+00 0.  1.
         13    1    4    4    0    0 -0.19539467337E+03  0.19051498745E+03 -0.21244690974E+03  0.34584496446E+03  0.10566000000E+00 0. -1.
         -4    1    4    4    0  501 -0.14964211877E+04 -0.10071026954E+04  0.71534285066E+02  0.18051729457E+04  0.00000000000E+00 0. -1.
<mgrwt>
<rscale>  2 0.21405187E+04</rscale>
<asrwt>0</asrwt>
<pdfrwt beam="1">  1        1 0.20785171E+00 0.21405187E+04</pdfrwt>
<pdfrwt beam="2">  1       -1 0.68285799E+00 0.21405187E+04</pdfrwt>
<totfact> 0.10780256E-02</totfact>
</mgrwt>
</event>
<event>
 8    1  0.1373409E-005  0.1350618E+04  0.7818608E-02  0.8501028E-01
          2   -1    0    0  502    0  0.00000000000E+00  0.00000000000E+00  0.22558181492E+04  0.22558181492E+04  0.00000000000E+00 0. -1.
         -2   -1    0    0    0  501 -0.00000000000E+00 -0.00000000000E+00 -0.85337237464E+03  0.85337237464E+03  0.00000000000E+00 0.  1.
    9000010    2    1    2  502    0  0.57039077555E+03 -0.69984251587E+03  0.10598911648E+04  0.17214058392E+04  0.10122962008E+04 0.  0.
   -9000010    2    1    2    0  501 -0.57039077555E+03  0.69984251587E+03  0.34255460975E+03  0.13877846846E+04  0.99673340789E+03 0.  0.
        -13    1    3    3    0    0 -0.68988536110E+02 -0.67671467715E+03  0.74327857817E+03  0.10075540821E+04  0.10566000000E+00 0.  1.
          4    1    3    3  502    0  0.63937931165E+03 -0.23127838725E+02  0.31661258661E+03  0.71385175709E+03  0.00000000000E+00 0.  1.
         13    1    4    4    0    0 -0.85773942061E+03  0.47943614012E+03  0.25620255595E+03  0.10154879059E+04  0.10566000000E+00 0. -1.
         -4    1    4    4    0  501  0.28734864506E+03  0.22040637576E+03  0.86352053803E+02  0.37229677878E+03  0.00000000000E+00 0. -1.
<mgrwt>
<rscale>  2 0.13506179E+04</rscale>
<asrwt>0</asrwt>
<pdfrwt beam="1">  1        2 0.34704894E+00 0.13506179E+04</pdfrwt>
<pdfrwt beam="2">  1       -2 0.13128806E+00 0.13506179E+04</pdfrwt>
<totfact> 0.29523401E+00</totfact>
</mgrwt>
</event>
<event>
 8    1  0.1373409E-005  0.1376531E+04  0.7818608E-02  0.8484303E-01
          1   -1    0    0  502    0  0.00000000000E+00  0.00000000000E+00  0.21491620404E+04  0.21491620404E+04  0.00000000000E+00 0.  1.
         -1   -1    0    0    0  501 -0.00000000000E+00 -0.00000000000E+00 -0.10412625766E+04  0.10412625766E+04  0.00000000000E+00 0. -1.
    9000010    2    1    2  502    0  0.90185551941E+03  0.28150463450E+03  0.11759558182E+04  0.18049574379E+04  0.99116649916E+03 0.  0.
   -9000010    2    1    2    0  501 -0.90185551941E+03 -0.28150463450E+03 -0.68056354422E+02  0.13854671792E+04  0.10110882257E+04 0.  0.
        -13    1    3    3    0    0 -0.39813872148E+01  0.15198526102E+03 -0.13695670637E+03  0.20462776350E+03  0.10566000000E+00 0.  1.
          4    1    3    3  502    0  0.90583690662E+03  0.12951937347E+03  0.13129125246E+04  0.16003296744E+04  0.00000000000E+00 0.  1.
         13    1    4    4    0    0 -0.15204702353E+03 -0.12174272667E+03  0.42944280134E+03  0.47155139661E+03  0.10566000000E+00 0. -1.
         -4    1    4    4    0  501 -0.74980849587E+03 -0.15976190782E+03 -0.49749915576E+03  0.91391578258E+03  0.00000000000E+00 0. -1.
<mgrwt>
<rscale>  2 0.13765313E+04</rscale>
<asrwt>0</asrwt>
<pdfrwt beam="1">  1        1 0.33064031E+00 0.13765313E+04</pdfrwt>
<pdfrwt beam="2">  1       -1 0.16019424E+00 0.13765313E+04</pdfrwt>
<totfact> 0.82950162E-01</totfact>
</mgrwt>
</event>
<event>
 8    1  0.1373409E-005  0.1293445E+04  0.7818608E-02  0.8539333E-01
         -2   -1    0    0    0  501 -0.00000000000E+00  0.00000000000E+00  0.60755158798E+03  0.60755158798E+03  0.00000000000E+00 0.  1.
          2   -1    0    0  502    0  0.00000000000E+00 -0.00000000000E+00 -0.28424452490E+04  0.28424452490E+04  0.00000000000E+00 0. -1.
    9000010    2    1    2  502    0  0.10456277909E+03 -0.74556035462E+03 -0.13935245623E+04  0.18805882082E+04  0.10138578234E+04 0.  0.
   -9000010    2    1    2    0  501 -0.10456277909E+03  0.74556035462E+03 -0.84136909875E+03  0.15694086288E+04  0.10901136943E+04 0.  0.
        -13    1    3    3    0    0 -0.36139770515E+03 -0.70094254276E+03 -0.78348773238E+03  0.11116572257E+04  0.10566000000E+00 0.  1.
          4    1    3    3  502    0  0.46596048424E+03 -0.44617811862E+02 -0.61003682988E+03  0.76893098248E+03  0.00000000000E+00 0.  1.
         13    1    4    4    0    0  0.14510465018E+03  0.46030483758E+03 -0.10362749086E+04  0.11431542330E+04  0.10566000000E+00 0. -1.
         -4    1    4    4    0  501 -0.24966742928E+03  0.28525551705E+03  0.19490580984E+03  0.42625439582E+03  0.00000000000E+00 0. -1.
<mgrwt>
<rscale>  2 0.12934447E+04</rscale>
<asrwt>0</asrwt>
<pdfrwt beam="2">  1        2 0.43729927E+00 0.12934447E+04</pdfrwt>
<pdfrwt beam="1">  1       -2 0.93469474E-01 0.12934447E+04</pdfrwt>
<totfact> 0.32670219E+00</totfact>
</mgrwt>
</event>
<event>
 8    1  0.1373409E-005  0.1103430E+04  0.7818608E-02  0.8683061E-01
          2   -1    0    0  502    0  0.00000000000E+00  0.00000000000E+00  0.22998431735E+04  0.22998431735E+04  0.00000000000E+00 0. -1.
         -2   -1    0    0    0  501 -0.00000000000E+00 -0.00000000000E+00 -0.58462312474E+03  0.58462312474E+03  0.00000000000E+00 0.  1.
    9000010    2    1    2  502    0  0.43525430020E+03 -0.10169594609E+02  0.40332639374E+03  0.11595108111E+04  0.99611415750E+03 0.  0.
   -9000010    2    1    2    0  501 -0.43525430020E+03  0.10169594609E+02  0.13118936550E+04  0.17249554871E+04  0.10319189619E+04 0.  0.
        -13    1    3    3    0    0 -0.21169897963E+03  0.17328829050E+03 -0.12841317573E+03  0.30221721405E+03  0.10566000000E+00 0.  1.
          4    1    3    3  502    0  0.64695327982E+03 -0.18345788511E+03  0.53173956947E+03  0.85729359710E+03  0.00000000000E+00 0.  1.
         13    1    4    4    0    0 -0.35114802900E+03  0.22695276368E+03  0.14114039111E+04  0.14720304027E+04  0.10566000000E+00 0. -1.
         -4    1    4    4    0  501 -0.84106271199E+02 -0.21678316907E+03 -0.99510256047E+02  0.25292508437E+03  0.00000000000E+00 0. -1.
<mgrwt>
<rscale>  2 0.11034304E+04</rscale>
<asrwt>0</asrwt>
<pdfrwt beam="1">  1        2 0.35382202E+00 0.11034304E+04</pdfrwt>
<pdfrwt beam="2">  1       -2 0.89942021E-01 0.11034304E+04</pdfrwt>
<totfact> 0.74373159E+00</totfact>
</mgrwt>
</event>
<event>
 8    1  0.1373409E-005  0.1145423E+04  0.7818608E-02  0.8648834E-01
         -4   -1    0    0    0  501 -0.00000000000E+00  0.00000000000E+00  0.11328195287E+04  0.11328195287E+04  0.00000000000E+00 0. -1.
          4   -1    0    0  502    0  0.00000000000E+00 -0.00000000000E+00 -0.23844644087E+04  0.23844644087E+04  0.00000000000E+00 0.  1.
    9000010    2    1    2  502    0 -0.17104431142E+03  0.51118305274E+03 -0.18758992551E+04  0.21786654435E+04  0.96799836242E+03 0.  0.
   -9000010    2    1    2    0  501  0.17104431142E+03 -0.51118305274E+03  0.62425437507E+03  0.13386184938E+04  0.10543441930E+04 0.  0.
        -13    1    3    3    0    0  0.41229052912E+02  0.76369752377E+03 -0.11471244303E+04  0.13787052667E+04  0.10566000000E+00 0.  1.
          4    1    3    3  502    0 -0.21227336433E+03 -0.25251447102E+03 -0.72877482476E+03  0.79996017681E+03  0.00000000000E+00 0.  1.
         13    1    4    4    0    0  0.60972722175E+03 -0.18823121666E+03  0.36782484544E+03  0.73654151543E+03  0.10566000000E+00 0. -1.
         -4    1    4    4    0  501 -0.43868291034E+03 -0.32295183609E+03  0.25642952963E+03  0.60207697840E+03  0.00000000000E+00 0. -1.
<mgrwt>
<rscale>  2 0.11454229E+04</rscale>
<asrwt>0</asrwt>
<pdfrwt beam="2">  1        4 0.36684067E+00 0.11454229E+04</pdfrwt>
<pdfrwt beam="1">  1       -4 0.17427993E+00 0.11454229E+04</pdfrwt>
<totfact> 0.76478054E-02</totfact>
</mgrwt>
</event>
<event>
 8    1  0.1373409E-005  0.1087466E+04  0.7818608E-02  0.8696492E-01
          2   -1    0    0  502    0  0.00000000000E+00  0.00000000000E+00  0.18874721312E+04  0.18874721312E+04  0.00000000000E+00 0.  1.
         -2   -1    0    0    0  501 -0.00000000000E+00 -0.00000000000E+00 -0.68768515159E+03  0.68768515159E+03  0.00000000000E+00 0. -1.
    9000010    2    1    2  502    0  0.24568482364E+03  0.34990560064E+03  0.98545350263E+03  0.14699887399E+04  0.10034706411E+04 0.  0.
   -9000010    2    1    2    0  501 -0.24568482364E+03 -0.34990560064E+03  0.21433347696E+03  0.11051685429E+04  0.99632510103E+03 0.  0.
        -13    1    3    3    0    0  0.42994678207E+03  0.46371134840E+03  0.21225903303E+03  0.66703550004E+03  0.10566000000E+00 0.  1.
          4    1    3    3  502    0 -0.18426195843E+03 -0.11380574776E+03  0.77319446960E+03  0.80295323984E+03  0.00000000000E+00 0.  1.
         13    1    4    4    0    0 -0.21272759409E+03 -0.68368485240E+02 -0.38332591014E+03  0.44369589091E+03  0.10566000000E+00 0. -1.
         -4    1    4    4    0  501 -0.32957229546E+02 -0.28153711541E+03  0.59765938711E+03  0.66147265199E+03  0.00000000000E+00 0. -1.
<mgrwt>
<rscale>  2 0.10874658E+04</rscale>
<asrwt>0</asrwt>
<pdfrwt beam="1">  1        2 0.29038033E+00 0.10874658E+04</pdfrwt>
<pdfrwt beam="2">  1       -2 0.10579772E+00 0.10874658E+04</pdfrwt>
<totfact> 0.85002871E+00</totfact>
</mgrwt>
</event>
<event>
 8    1  0.1373409E-005  0.1297004E+04  0.7818608E-02  0.8536890E-01
         -2   -1    0    0    0  501 -0.00000000000E+00  0.00000000000E+00  0.82489118114E+03  0.82489118114E+03  0.00000000000E+00 0.  1.
          2   -1    0    0  502    0  0.00000000000E+00 -0.00000000000E+00 -0.20437648236E+04  0.20437648236E+04  0.00000000000E+00 0. -1.
    9000010    2    1    2  502    0 -0.40640848831E+03  0.66088208761E+03 -0.63019845501E+03  0.14976062013E+04  0.11152314775E+04 0.  0.
   -9000010    2    1    2    0  501  0.40640848831E+03 -0.66088208761E+03 -0.58867518749E+03  0.13710498034E+04  0.96504201673E+03 0.  0.
        -13    1    3    3    0    0 -0.67582193525E+02  0.24593530750E+03  0.31854148374E+03  0.40806888681E+03  0.10566000000E+00 0.  1.
          4    1    3    3  502    0 -0.33882629478E+03  0.41494678011E+03 -0.94873993875E+03  0.10895373145E+04  0.00000000000E+00 0.  1.
         13    1    4    4    0    0  0.61346738773E+02 -0.84177264530E+03 -0.45706736707E+03  0.95982039879E+03  0.10566000000E+00 0. -1.
         -4    1    4    4    0  501  0.34506174954E+03  0.18089055769E+03 -0.13160782042E+03  0.41122940465E+03  0.00000000000E+00 0. -1.
<mgrwt>
<rscale>  2 0.12970038E+04</rscale>
<asrwt>0</asrwt>
<pdfrwt beam="2">  1        2 0.31442536E+00 0.12970038E+04</pdfrwt>
<pdfrwt beam="1">  1       -2 0.12690634E+00 0.12970038E+04</pdfrwt>
<totfact> 0.42645386E+00</totfact>
</mgrwt>
</event>
<event>
 8    1  0.1373409E-005  0.1335550E+04  0.7818608E-02  0.8510931E-01
          2   -1    0    0  502    0  0.00000000000E+00  0.00000000000E+00  0.22612382571E+04  0.22612382571E+04  0.00000000000E+00 0.  1.
         -2   -1    0    0    0  501 -0.00000000000E+00 -0.00000000000E+00 -0.85481359322E+03  0.85481359322E+03  0.00000000000E+00 0. -1.
    9000010    2    1    2  502    0  0.80939848944E+03  0.33989638761E+03  0.11405489006E+04  0.17634400950E+04  0.10189277230E+04 0.  0.
   -9000010    2    1    2    0  501 -0.80939848944E+03 -0.33989638761E+03  0.26587576329E+03  0.13526117554E+04  0.99408911590E+03 0.  0.
        -13    1    3    3    0    0 -0.21375262058E+03  0.35175491598E+02  0.22866388378E+02  0.21783108340E+03  0.10566000000E+00 0.  1.
          4    1    3    3  502    0  0.10231511100E+04  0.30472089601E+03  0.11176825122E+04  0.15456090115E+04  0.00000000000E+00 0.  1.
         13    1    4    4    0    0  0.17897015021E+03 -0.63375481646E+02  0.26536445275E+03  0.32628985624E+03  0.10566000000E+00 0. -1.
         -4    1    4    4    0  501 -0.98836863964E+03 -0.27652090596E+03  0.51131053602E+00  0.10263218992E+04  0.00000000000E+00 0. -1.
<mgrwt>
<rscale>  2 0.13355500E+04</rscale>
<asrwt>0</asrwt>
<pdfrwt beam="1">  1        2 0.34788281E+00 0.13355500E+04</pdfrwt>
<pdfrwt beam="2">  1       -2 0.13150978E+00 0.13355500E+04</pdfrwt>
<totfact> 0.29228679E+00</totfact>
</mgrwt>
</event>
<event>
 8    1  0.1373409E-005  0.1225552E+04  0.7818608E-02  0.8587566E-01
          2   -1    0    0  502    0  0.00000000000E+00  0.00000000000E+00  0.30475082545E+04  0.30475082545E+04  0.00000000000E+00 0. -1.
         -2   -1    0    0    0  501 -0.00000000000E+00 -0.00000000000E+00 -0.49396817003E+03  0.49396817003E+03  0.00000000000E+00 0.  1.
    9000010    2    1    2  502    0  0.21728188234E+02 -0.73774015361E+03  0.11799262163E+04  0.16905270457E+04  0.95964741851E+03 0.  0.
   -9000010    2    1    2    0  501 -0.21728188234E+02  0.73774015361E+03  0.13736138682E+04  0.18509493788E+04  0.99722910900E+03 0.  0.
        -13    1    3    3    0    0 -0.87724472117E+02 -0.81495510118E+03  0.42401803956E+03  0.92284273253E+03  0.10566000000E+00 0.  1.
          4    1    3    3  502    0  0.10945266035E+03  0.77214947575E+02  0.75590817675E+03  0.76768431316E+03  0.00000000000E+00 0.  1.
         13    1    4    4    0    0 -0.35217877352E+02  0.49486667642E+03  0.42659049111E+02  0.49794892505E+03  0.10566000000E+00 0. -1.
         -4    1    4    4    0  501  0.13489689118E+02  0.24287347718E+03  0.13309548190E+04  0.13530004538E+04  0.00000000000E+00 0. -1.
<mgrwt>
<rscale>  2 0.12255518E+04</rscale>
<asrwt>0</asrwt>
<pdfrwt beam="1">  1        2 0.46884741E+00 0.12255518E+04</pdfrwt>
<pdfrwt beam="2">  1       -2 0.75995105E-01 0.12255518E+04</pdfrwt>
<totfact> 0.39214278E+00</totfact>
</mgrwt>
</event>
<event>
 8    1  0.1373409E-005  0.1084038E+04  0.7818608E-02  0.8699407E-01
         -2   -1    0    0    0  501 -0.00000000000E+00  0.00000000000E+00  0.52401167111E+03  0.52401167111E+03  0.00000000000E+00 0. -1.
          2   -1    0    0  502    0  0.00000000000E+00 -0.00000000000E+00 -0.23596650419E+04  0.23596650419E+04  0.00000000000E+00 0.  1.
    9000010    2    1    2  502    0 -0.33407325997E+03  0.23896107236E+03 -0.58760518517E+03  0.12228251522E+04  0.99061302335E+03 0.  0.
   -9000010    2    1    2    0  501  0.33407325997E+03 -0.23896107236E+03 -0.12480481856E+04  0.16608515608E+04  0.10159214026E+04 0.  0.
        -13    1    3    3    0    0 -0.67532191888E+02 -0.38570848566E+03 -0.18241159195E+03  0.43197874125E+03  0.10566000000E+00 0.  1.
          4    1    3    3  502    0 -0.26654106808E+03  0.62466955802E+03 -0.40519359322E+03  0.79084641092E+03  0.00000000000E+00 0.  1.
         13    1    4    4    0    0  0.37989603792E+03 -0.27268369044E+03 -0.14119406541E+04  0.14873647221E+04  0.10566000000E+00 0. -1.
         -4    1    4    4    0  501 -0.45822777947E+02  0.33722618082E+02  0.16389246855E+03  0.17348683868E+03  0.00000000000E+00 0. -1.
<mgrwt>
<rscale>  2 0.10840380E+04</rscale>
<asrwt>0</asrwt>
<pdfrwt beam="2">  1        2 0.36302539E+00 0.10840380E+04</pdfrwt>
<pdfrwt beam="1">  1       -2 0.80617181E-01 0.10840380E+04</pdfrwt>
<totfact> 0.88458052E+00</totfact>
</mgrwt>
</event>
<event>
 8    1  0.1373409E-005  0.1566324E+04  0.7818608E-02  0.8372320E-01
         -2   -1    0    0    0  501 -0.00000000000E+00  0.00000000000E+00  0.43358337760E+04  0.43358337760E+04  0.00000000000E+00 0.  1.
          2   -1    0    0  502    0  0.00000000000E+00 -0.00000000000E+00 -0.65633751879E+03  0.65633751879E+03  0.00000000000E+00 0. -1.
    9000010    2    1    2  502    0 -0.80931287399E+03  0.92138918336E+03  0.27823249797E+04  0.32007503898E+04  0.99976267678E+03 0.  0.
   -9000010    2    1    2    0  501  0.80931287399E+03 -0.92138918336E+03  0.89717127749E+03  0.17914209050E+04  0.94885573319E+03 0.  0.
        -13    1    3    3    0    0 -0.33322709102E+03  0.67556931003E+03  0.24661190102E+04  0.25785998469E+04  0.10566000000E+00 0.  1.
          4    1    3    3  502    0 -0.47608578297E+03  0.24581987333E+03  0.31620596951E+03  0.62215054290E+03  0.00000000000E+00 0.  1.
         13    1    4    4    0    0  0.21299605893E+03 -0.74109443186E+03  0.96758435969E+02  0.77714251212E+03  0.10566000000E+00 0. -1.
         -4    1    4    4    0  501  0.59631681506E+03 -0.18029475151E+03  0.80041284152E+03  0.10142783929E+04  0.00000000000E+00 0. -1.
<mgrwt>
<rscale>  2 0.15663238E+04</rscale>
<asrwt>0</asrwt>
<pdfrwt beam="2">  1        2 0.10097501E+00 0.15663238E+04</pdfrwt>
<pdfrwt beam="1">  1       -2 0.66705133E+00 0.15663238E+04</pdfrwt>
<totfact> 0.15428021E-01</totfact>
</mgrwt>
</event>
<event>
 8    1  0.1373409E-005  0.1591845E+04  0.7818608E-02  0.8358519E-01
          2   -1    0    0  502    0  0.00000000000E+00  0.00000000000E+00  0.37305395231E+04  0.37305395231E+04  0.00000000000E+00 0. -1.
         -2   -1    0    0    0  501 -0.00000000000E+00 -0.00000000000E+00 -0.70548814874E+03  0.70548814874E+03  0.00000000000E+00 0.  1.
    9000010    2    1    2  502    0  0.10242901332E+04 -0.69192073207E+03  0.19402733388E+04  0.25097114046E+04  0.10030284786E+04 0.  0.
   -9000010    2    1    2    0  501 -0.10242901332E+04  0.69192073207E+03  0.10847780356E+04  0.19263162672E+04  0.10030086732E+04 0.  0.
        -13    1    3    3    0    0  0.93570203974E+03 -0.46275756681E+03  0.72768049292E+03  0.12724785985E+04  0.10566000000E+00 0.  1.
          4    1    3    3  502    0  0.88588093474E+02 -0.22916316526E+03  0.12125928458E+04  0.12372328061E+04  0.00000000000E+00 0.  1.
         13    1    4    4    0    0  0.12834422215E+03 -0.66075856105E+02  0.31509886734E+03  0.34659135229E+03  0.10566000000E+00 0. -1.
         -4    1    4    4    0  501 -0.11526343554E+04  0.75799658817E+03  0.76967916826E+03  0.15797249149E+04  0.00000000000E+00 0. -1.
<mgrwt>
<rscale>  2 0.15918451E+04</rscale>
<asrwt>0</asrwt>
<pdfrwt beam="1">  1        2 0.57392914E+00 0.15918451E+04</pdfrwt>
<pdfrwt beam="2">  1       -2 0.10853664E+00 0.15918451E+04</pdfrwt>
<totfact> 0.53502230E-01</totfact>
</mgrwt>
</event>
<event>
 8    1  0.1373409E-005  0.1290344E+04  0.7818608E-02  0.8541469E-01
          1   -1    0    0  502    0  0.00000000000E+00  0.00000000000E+00  0.19271791093E+04  0.19271791093E+04  0.00000000000E+00 0. -1.
         -1   -1    0    0    0  501 -0.00000000000E+00 -0.00000000000E+00 -0.89862420958E+03  0.89862420958E+03  0.00000000000E+00 0.  1.
    9000010    2    1    2  502    0 -0.67102808177E+02  0.78572747013E+03  0.23005009736E+03  0.12915197024E+04  0.99660907591E+03 0.  0.
   -9000010    2    1    2    0  501  0.67102808177E+02 -0.78572747013E+03  0.79850480236E+03  0.15342836165E+04  0.10462054541E+04 0.  0.
        -13    1    3    3    0    0  0.17541929134E+03  0.92217169014E+03  0.13311614607E+02  0.93880230300E+03  0.10566000000E+00 0.  1.
          4    1    3    3  502    0 -0.24252209952E+03 -0.13644422001E+03  0.21673848275E+03  0.35271739939E+03  0.00000000000E+00 0.  1.
         13    1    4    4    0    0  0.32514657912E+03  0.12917094609E+03  0.13488360187E+03  0.37496536966E+03  0.10566000000E+00 0. -1.
         -4    1    4    4    0  501 -0.25804377094E+03 -0.91489841622E+03  0.66362120049E+03  0.11593182468E+04  0.00000000000E+00 0. -1.
<mgrwt>
<rscale>  2 0.12903440E+04</rscale>
<asrwt>0</asrwt>
<pdfrwt beam="1">  1        1 0.29648909E+00 0.12903440E+04</pdfrwt>
<pdfrwt beam="2">  1       -1 0.13824988E+00 0.12903440E+04</pdfrwt>
<totfact> 0.19268683E+00</totfact>
</mgrwt>
</event>
<event>
 8    1  0.1373409E-005  0.1142117E+04  0.7818608E-02  0.8651472E-01
          2   -1    0    0  502    0  0.00000000000E+00  0.00000000000E+00  0.26607269176E+04  0.26607269176E+04  0.00000000000E+00 0.  1.
         -2   -1    0    0    0  501 -0.00000000000E+00 -0.00000000000E+00 -0.93269866339E+03  0.93269866339E+03  0.00000000000E+00 0. -1.
    9000010    2    1    2  502    0  0.47371578984E+03 -0.32938280323E+03  0.21070097640E+04  0.24035252807E+04  0.10022693992E+04 0.  0.
   -9000010    2    1    2    0  501 -0.47371578984E+03  0.32938280323E+03 -0.37898150980E+03  0.11899003003E+04  0.96919350973E+03 0.  0.
        -13    1    3    3    0    0  0.57357585733E+03  0.72325586196E+02  0.57041671763E+03  0.81215484820E+03  0.10566000000E+00 0.  1.
          4    1    3    3  502    0 -0.99860067500E+02 -0.40170838942E+03  0.15365930464E+04  0.15913704325E+04  0.00000000000E+00 0.  1.
         13    1    4    4    0    0  0.27962889697E+02  0.53552813724E+03 -0.14545715216E+02  0.53645493564E+03  0.10566000000E+00 0. -1.
         -4    1    4    4    0  501 -0.50167867953E+03 -0.20614533402E+03 -0.36443579458E+03  0.65344536467E+03  0.00000000000E+00 0. -1.
<mgrwt>
<rscale>  2 0.11421175E+04</rscale>
<asrwt>0</asrwt>
<pdfrwt beam="1">  1        2 0.40934260E+00 0.11421175E+04</pdfrwt>
<pdfrwt beam="2">  1       -2 0.14349210E+00 0.11421175E+04</pdfrwt>
<totfact> 0.13922431E+00</totfact>
</mgrwt>
</event>
<event>
 8    1  0.1373409E-005  0.1440619E+04  0.7818608E-02  0.8444515E-01
          2   -1    0    0  502    0  0.00000000000E+00  0.00000000000E+00  0.23310025860E+04  0.23310025860E+04  0.00000000000E+00 0.  1.
         -2   -1    0    0    0  501 -0.00000000000E+00 -0.00000000000E+00 -0.99027538423E+03  0.99027538423E+03  0.00000000000E+00 0. -1.
    9000010    2    1    2  502    0  0.68324436889E+03 -0.78095715624E+03  0.14799288477E+03  0.14601254235E+04  0.10165369698E+04 0.  0.
   -9000010    2    1    2    0  501 -0.68324436889E+03  0.78095715624E+03  0.11927343170E+04  0.18611525466E+04  0.98211847733E+03 0.  0.
        -13    1    3    3    0    0  0.68636327228E+03 -0.71240493861E+03 -0.27885124990E+03  0.10278002573E+04  0.10566000000E+00 0.  1.
          4    1    3    3  502    0 -0.31189033907E+01 -0.68552217634E+02  0.42684413467E+03  0.43232516628E+03  0.00000000000E+00 0.  1.
         13    1    4    4    0    0 -0.85357647989E+03  0.78564525130E+03  0.73651159368E+03  0.13741472289E+04  0.10566000000E+00 0. -1.
         -4    1    4    4    0  501  0.17033211100E+03 -0.46880950530E+01  0.45622272329E+03  0.48700531775E+03  0.00000000000E+00 0. -1.
<mgrwt>
<rscale>  2 0.14406193E+04</rscale>
<asrwt>0</asrwt>
<pdfrwt beam="1">  1        2 0.35861578E+00 0.14406193E+04</pdfrwt>
<pdfrwt beam="2">  1       -2 0.15235006E+00 0.14406193E+04</pdfrwt>
<totfact> 0.17164569E+00</totfact>
</mgrwt>
</event>
<event>
 8    1  0.1373409E-005  0.1490540E+04  0.7818608E-02  0.8414964E-01
         -2   -1    0    0    0  501 -0.00000000000E+00  0.00000000000E+00  0.82666532732E+03  0.82666532732E+03  0.00000000000E+00 0. -1.
          2   -1    0    0  502    0  0.00000000000E+00 -0.00000000000E+00 -0.35798420532E+04  0.35798420532E+04  0.00000000000E+00 0.  1.
    9000010    2    1    2  502    0 -0.77860706264E+03  0.75692105131E+03 -0.24758072652E+04  0.28893034376E+04  0.10194578482E+04 0.  0.
   -9000010    2    1    2    0  501  0.77860706264E+03 -0.75692105131E+03 -0.27736946073E+03  0.15172039429E+04  0.10226512362E+04 0.  0.
        -13    1    3    3    0    0 -0.31942521151E+03  0.90604444431E+02 -0.54648173739E+02  0.33649378175E+03  0.10566000000E+00 0.  1.
          4    1    3    3  502    0 -0.45918185113E+03  0.66631660688E+03 -0.24211590914E+04  0.25528096558E+04  0.00000000000E+00 0.  1.
         13    1    4    4    0    0  0.86408825667E+03 -0.16333153553E+03 -0.26085856051E+03  0.91726381460E+03  0.10566000000E+00 0. -1.
         -4    1    4    4    0  501 -0.85481194033E+02 -0.59358951577E+03 -0.16510900216E+02  0.59994012834E+03  0.00000000000E+00 0. -1.
<mgrwt>
<rscale>  2 0.14905405E+04</rscale>
<asrwt>0</asrwt>
<pdfrwt beam="2">  1        2 0.55074494E+00 0.14905405E+04</pdfrwt>
<pdfrwt beam="1">  1       -2 0.12717928E+00 0.14905405E+04</pdfrwt>
<totfact> 0.47384124E-01</totfact>
</mgrwt>
</event>
<event>
 8    1  0.1373409E-005  0.1148080E+04  0.7818608E-02  0.8646720E-01
         -2   -1    0    0    0  501 -0.00000000000E+00  0.00000000000E+00  0.48842461149E+03  0.48842461149E+03  0.00000000000E+00 0.  1.
          2   -1    0    0  502    0  0.00000000000E+00 -0.00000000000E+00 -0.40811681492E+04  0.40811681492E+04  0.00000000000E+00 0. -1.
    9000010    2    1    2  502    0 -0.54159945270E+03  0.65278039789E+02 -0.46853847704E+03  0.12417755750E+04  0.10123670700E+04 0.  0.
   -9000010    2    1    2    0  501  0.54159945270E+03 -0.65278039789E+02 -0.31242050606E+04  0.33278171857E+04  0.10080271677E+04 0.  0.
        -13    1    3    3    0    0  0.76782692477E+02 -0.25400049116E+03  0.15504489170E+03  0.30732842527E+03  0.10566000000E+00 0.  1.
          4    1    3    3  502    0 -0.61838214518E+03  0.31927853095E+03 -0.62358336874E+03  0.93444714969E+03  0.00000000000E+00 0.  1.
         13    1    4    4    0    0  0.36659635691E+03 -0.28715042609E+03 -0.48076338945E+03  0.66931435358E+03  0.10566000000E+00 0. -1.
         -4    1    4    4    0  501  0.17500309579E+03  0.22187238630E+03 -0.26434416712E+04  0.26585028321E+04  0.00000000000E+00 0. -1.
<mgrwt>
<rscale>  2 0.11480796E+04</rscale>
<asrwt>0</asrwt>
<pdfrwt beam="2">  1        2 0.62787202E+00 0.11480796E+04</pdfrwt>
<pdfrwt beam="1">  1       -2 0.75142249E-01 0.11480796E+04</pdfrwt>
<totfact> 0.66979830E-01</totfact>
</mgrwt>
</event>
<event>
 8    1  0.1373409E-005  0.2069378E+04  0.7818608E-02  0.8140715E-01
         -2   -1    0    0    0  501 -0.00000000000E+00  0.00000000000E+00  0.19905954937E+04  0.19905954937E+04  0.00000000000E+00 0.  1.
          2   -1    0    0  502    0  0.00000000000E+00 -0.00000000000E+00 -0.21848162419E+04  0.21848162419E+04  0.00000000000E+00 0. -1.
    9000010    2    1    2  502    0 -0.15227254325E+04 -0.98833549413E+03 -0.35552376691E+03  0.20952797572E+04  0.98402252013E+03 0.  0.
   -9000010    2    1    2    0  501  0.15227254325E+04  0.98833549413E+03  0.16130301869E+03  0.20801319785E+04  0.10027116197E+04 0.  0.
        -13    1    3    3    0    0 -0.14112384574E+04 -0.62285821527E+03  0.42991833477E+02  0.15431768041E+04  0.10566000000E+00 0.  1.
          4    1    3    3  502    0 -0.11148697516E+03 -0.36547727886E+03 -0.39851560039E+03  0.55210295303E+03  0.00000000000E+00 0.  1.
         13    1    4    4    0    0  0.43960269585E+03  0.14592963187E+03 -0.38591289670E+03  0.60288868182E+03  0.10566000000E+00 0. -1.
         -4    1    4    4    0  501  0.10831227367E+04  0.84240586226E+03  0.54721591539E+03  0.14772432967E+04  0.00000000000E+00 0. -1.
<mgrwt>
<rscale>  2 0.20693779E+04</rscale>
<asrwt>0</asrwt>
<pdfrwt beam="2">  1        2 0.33612558E+00 0.20693779E+04</pdfrwt>
<pdfrwt beam="1">  1       -2 0.30624546E+00 0.20693779E+04</pdfrwt>
<totfact> 0.11864167E-01</totfact>
</mgrwt>
</event>
<event>
 8    1  0.1373409E-005  0.1359897E+04  0.7818608E-02  0.8494995E-01
         -1   -1    0    0    0  501 -0.00000000000E+00  0.00000000000E+00  0.83648870305E+03  0.83648870305E+03  0.00000000000E+00 0.  1.
          1   -1    0    0  502    0  0.00000000000E+00 -0.00000000000E+00 -0.22143283027E+04  0.22143283027E+04  0.00000000000E+00 0. -1.
    9000010    2    1    2  502    0  0.10124605560E+03  0.87484594812E+03 -0.62590296626E+03  0.14637574267E+04  0.98753485220E+03 0.  0.
   -9000010    2    1    2    0  501 -0.10124605560E+03 -0.87484594812E+03 -0.75193663335E+03  0.15870595790E+04  0.10852387802E+04 0.  0.
        -13    1    3    3    0    0  0.10561950827E+03  0.79951558091E+03 -0.88297683890E+03  0.11958380968E+04  0.10566000000E+00 0.  1.
          4    1    3    3  502    0 -0.43734526765E+01  0.75330367210E+02  0.25707387265E+03  0.26791932985E+03  0.00000000000E+00 0.  1.
         13    1    4    4    0    0 -0.38674736589E+03 -0.98798677288E+03 -0.71112142674E+03  0.12772568587E+04  0.10566000000E+00 0. -1.
         -4    1    4    4    0  501  0.28550131029E+03  0.11314082476E+03 -0.40815206609E+02  0.30980272028E+03  0.00000000000E+00 0. -1.
<mgrwt>
<rscale>  2 0.13598971E+04</rscale>
<asrwt>0</asrwt>
<pdfrwt beam="2">  1        1 0.34066589E+00 0.13598971E+04</pdfrwt>
<pdfrwt beam="1">  1       -1 0.12869057E+00 0.13598971E+04</pdfrwt>
<totfact> 0.13852013E+00</totfact>
</mgrwt>
</event>
<event>
 8    1  0.1373409E-005  0.1013252E+04  0.7818608E-02  0.8762239E-01
          2   -1    0    0  502    0  0.00000000000E+00  0.00000000000E+00  0.17414816865E+04  0.17414816865E+04  0.00000000000E+00 0. -1.
         -2   -1    0    0    0  501 -0.00000000000E+00 -0.00000000000E+00 -0.61766946009E+03  0.61766946009E+03  0.00000000000E+00 0.  1.
    9000010    2    1    2  502    0 -0.15146235762E+03 -0.17131327046E+03  0.80922229572E+03  0.12905337059E+04  0.97895221522E+03 0.  0.
   -9000010    2    1    2    0  501  0.15146235762E+03  0.17131327046E+03  0.31458993073E+03  0.10686174407E+04  0.99533277236E+03 0.  0.
        -13    1    3    3    0    0  0.26163088642E+03 -0.43943341407E+03  0.44631397434E+03  0.67878466467E+03  0.10566000000E+00 0.  1.
          4    1    3    3  502    0 -0.41309324405E+03  0.26812014361E+03  0.36290832138E+03  0.61174904120E+03  0.00000000000E+00 0.  1.
         13    1    4    4    0    0  0.34067705674E+03 -0.21120545941E+03  0.46702483089E+03  0.61545170964E+03  0.10566000000E+00 0. -1.
         -4    1    4    4    0  501 -0.18921469912E+03  0.38251872986E+03 -0.15243490016E+03  0.45316573110E+03  0.00000000000E+00 0. -1.
<mgrwt>
<rscale>  2 0.10132518E+04</rscale>
<asrwt>0</asrwt>
<pdfrwt beam="1">  1        2 0.26792026E+00 0.10132518E+04</pdfrwt>
<pdfrwt beam="2">  1       -2 0.95026071E-01 0.10132518E+04</pdfrwt>
<totfact> 0.13304674E+01</totfact>
</mgrwt>
</event>
<event>
 8    1  0.1373409E-005  0.1111345E+04  0.7818608E-02  0.8676489E-01
         -1   -1    0    0    0  501 -0.00000000000E+00  0.00000000000E+00  0.19587579280E+04  0.19587579280E+04  0.00000000000E+00 0.  1.
          1   -1    0    0  502    0  0.00000000000E+00 -0.00000000000E+00 -0.63580417235E+03  0.63580417235E+03  0.00000000000E+00 0. -1.
    9000010    2    1    2  502    0 -0.28770724905E+03  0.37727060539E+03  0.53975932149E+03  0.12293815397E+04  0.99746191612E+03 0.  0.
   -9000010    2    1    2    0  501  0.28770724905E+03 -0.37727060539E+03  0.78319443412E+03  0.13651805606E+04  0.10125294419E+04 0.  0.
        -13    1    3    3    0    0 -0.34960419478E+03  0.18343556957E+03  0.80410070204E+03  0.89579554106E+03  0.10566000000E+00 0.  1.
          4    1    3    3  502    0  0.61896945737E+02  0.19383503582E+03 -0.26434138055E+03  0.33358599862E+03  0.00000000000E+00 0.  1.
         13    1    4    4    0    0 -0.21822547355E+03 -0.94719807676E+02 -0.13937318618E+03  0.27571560613E+03  0.10566000000E+00 0. -1.
         -4    1    4    4    0  501  0.50593272259E+03 -0.28255079771E+03  0.92256762030E+03  0.10894649545E+04  0.00000000000E+00 0. -1.
<mgrwt>
<rscale>  2 0.11113455E+04</rscale>
<asrwt>0</asrwt>
<pdfrwt beam="2">  1        1 0.97816027E-01 0.11113455E+04</pdfrwt>
<pdfrwt beam="1">  1       -1 0.30134737E+00 0.11113455E+04</pdfrwt>
<totfact> 0.67463453E-01</totfact>
</mgrwt>
</event>
<event>
 8    1  0.1373409E-005  0.1214105E+04  0.7818608E-02  0.8596016E-01
          2   -1    0    0  502    0  0.00000000000E+00  0.00000000000E+00  0.37308540548E+04  0.37308540548E+04  0.00000000000E+00 0. -1.
         -2   -1    0    0    0  501 -0.00000000000E+00 -0.00000000000E+00 -0.46018100620E+03  0.46018100620E+03  0.00000000000E+00 0.  1.
    9000010    2    1    2  502    0  0.64808178915E+03 -0.13379223882E+03  0.86495715299E+03  0.15029696482E+04  0.10357878733E+04 0.  0.
   -9000010    2    1    2    0  501 -0.64808178915E+03  0.13379223882E+03  0.24057158957E+04  0.26880654128E+04  0.10001581496E+04 0.  0.
        -13    1    3    3    0    0 -0.20147103981E+03 -0.68519480345E+02  0.55817880279E+03  0.59736846763E+03  0.10566000000E+00 0.  1.
          4    1    3    3  502    0  0.84955282896E+03 -0.65272758474E+02  0.30677835019E+03  0.90560118062E+03  0.00000000000E+00 0.  1.
         13    1    4    4    0    0 -0.57534504233E+02 -0.35033526295E+03  0.12760235299E+04  0.13244927617E+04  0.10566000000E+00 0. -1.
         -4    1    4    4    0  501 -0.59054728491E+03  0.48412750177E+03  0.11296923657E+04  0.13635726511E+04  0.00000000000E+00 0. -1.
<mgrwt>
<rscale>  2 0.12141049E+04</rscale>
<asrwt>0</asrwt>
<pdfrwt beam="1">  1        2 0.57397753E+00 0.12141049E+04</pdfrwt>
<pdfrwt beam="2">  1       -2 0.70797080E-01 0.12141049E+04</pdfrwt>
<totfact> 0.14929797E+00</totfact>
</mgrwt>
</event>
<event>
 8    1  0.1373409E-005  0.1011441E+04  0.7818608E-02  0.8763915E-01
          1   -1    0    0  502    0  0.00000000000E+00  0.00000000000E+00  0.26918857039E+04  0.26918857039E+04  0.00000000000E+00 0. -1.
         -1   -1    0    0    0  501 -0.00000000000E+00 -0.00000000000E+00 -0.61423968071E+03  0.61423968071E+03  0.00000000000E+00 0.  1.
    9000010    2    1    2  502    0  0.13035962693E+03  0.11132511450E+03  0.20167823834E+02  0.10149165120E+04  0.10001309273E+04 0.  0.
   -9000010    2    1    2    0  501 -0.13035962693E+03 -0.11132511450E+03  0.20574781994E+04  0.22912088727E+04  0.99349617204E+03 0.  0.
        -13    1    3    3    0    0 -0.31587375547E+03 -0.26649040146E+03  0.98909087472E+02  0.42494279876E+03  0.10566000000E+00 0.  1.
          4    1    3    3  502    0  0.44623338240E+03  0.37781551596E+03 -0.78741263637E+02  0.58997371320E+03  0.00000000000E+00 0.  1.
         13    1    4    4    0    0 -0.41528724530E+03 -0.10376287571E+03  0.19336188609E+04  0.19804323116E+04  0.10566000000E+00 0. -1.
         -4    1    4    4    0  501  0.28492761837E+03 -0.75622387927E+01  0.12385933844E+03  0.31077656103E+03  0.00000000000E+00 0. -1.
<mgrwt>
<rscale>  2 0.10114414E+04</rscale>
<asrwt>0</asrwt>
<pdfrwt beam="1">  1        1 0.41413626E+00 0.10114414E+04</pdfrwt>
<pdfrwt beam="2">  1       -1 0.94498414E-01 0.10114414E+04</pdfrwt>
<totfact> 0.11273816E+00</totfact>
</mgrwt>
</event>
<event>
 8    1  0.1373409E-005  0.1328860E+04  0.7818608E-02  0.8515371E-01
          2   -1    0    0  502    0  0.00000000000E+00  0.00000000000E+00  0.25591516019E+04  0.25591516019E+04  0.00000000000E+00 0. -1.
         -2   -1    0    0    0  501 -0.00000000000E+00 -0.00000000000E+00 -0.69043546006E+03  0.69043546006E+03  0.00000000000E+00 0.  1.
    9000010    2    1    2  502    0 -0.12423447284E+03 -0.83209356877E+03  0.96391226617E+03  0.16326778431E+04  0.10142466026E+04 0.  0.
   -9000010    2    1    2    0  501  0.12423447284E+03  0.83209356877E+03  0.90480387568E+03  0.16169092189E+04  0.10430299407E+04 0.  0.
        -13    1    3    3    0    0  0.13387929383E+03 -0.23470587384E+03  0.94367640716E+03  0.98159853562E+03  0.10566000000E+00 0.  1.
          4    1    3    3  502    0 -0.25811376667E+03 -0.59738769494E+03  0.20235859010E+02  0.65107930745E+03  0.00000000000E+00 0.  1.
         13    1    4    4    0    0 -0.22433750097E+03 -0.10295834760E+03 -0.31108091555E+02  0.24878798244E+03  0.10566000000E+00 0. -1.
         -4    1    4    4    0  501  0.34857197380E+03  0.93505191638E+03  0.93591196724E+03  0.13681212365E+04  0.00000000000E+00 0. -1.
<mgrwt>
<rscale>  2 0.13288602E+04</rscale>
<asrwt>0</asrwt>
<pdfrwt beam="1">  1        2 0.39371563E+00 0.13288602E+04</pdfrwt>
<pdfrwt beam="2">  1       -2 0.10622084E+00 0.13288602E+04</pdfrwt>
<totfact> 0.35002397E+00</totfact>
</mgrwt>
</event>
<event>
 8    1  0.1373409E-005  0.1278893E+04  0.7818608E-02  0.8549410E-01
         -2   -1    0    0    0  501 -0.00000000000E+00  0.00000000000E+00  0.91843759729E+03  0.91843759729E+03  0.00000000000E+00 0. -1.
          2   -1    0    0  502    0  0.00000000000E+00 -0.00000000000E+00 -0.20990526831E+04  0.20990526831E+04  0.00000000000E+00 0.  1.
    9000010    2    1    2  502    0  0.11795213986E+03 -0.83624516840E+03  0.75050063440E+01  0.12503494648E+04  0.92200800969E+03 0.  0.
   -9000010    2    1    2    0  501 -0.11795213986E+03  0.83624516840E+03 -0.11881200922E+04  0.17671408157E+04  0.99896877828E+03 0.  0.
        -13    1    3    3    0    0  0.27888660271E+03 -0.77050793339E+02 -0.29888864979E+03  0.41599158413E+03  0.10566000000E+00 0.  1.
          4    1    3    3  502    0 -0.16093446285E+03 -0.75919437506E+03  0.30639365614E+03  0.83435788063E+03  0.00000000000E+00 0.  1.
         13    1    4    4    0    0 -0.61084307475E+02  0.23711997642E+03  0.15882637240E+03  0.29186127453E+03  0.10566000000E+00 0. -1.
         -4    1    4    4    0  501 -0.56867832389E+02  0.59912519198E+03 -0.13469464646E+04  0.14752795411E+04  0.00000000000E+00 0. -1.
<mgrwt>
<rscale>  2 0.12788932E+04</rscale>
<asrwt>0</asrwt>
<pdfrwt beam="2">  1        2 0.32293118E+00 0.12788932E+04</pdfrwt>
<pdfrwt beam="1">  1       -2 0.14129809E+00 0.12788932E+04</pdfrwt>
<totfact> 0.29391949E+00</totfact>
</mgrwt>
</event>
<event>
 8    1  0.1373409E-005  0.1156948E+04  0.7818608E-02  0.8639706E-01
          2   -1    0    0  502    0  0.00000000000E+00  0.00000000000E+00  0.87703310876E+03  0.87703310876E+03  0.00000000000E+00 0. -1.
         -2   -1    0    0    0  501 -0.00000000000E+00 -0.00000000000E+00 -0.15276340939E+04  0.15276340939E+04  0.00000000000E+00 0.  1.
    9000010    2    1    2  502    0 -0.55337805247E+03 -0.32400225166E+03 -0.34374590497E+03  0.12404622707E+04  0.10046793865E+04 0.  0.
   -9000010    2    1    2    0  501  0.55337805247E+03  0.32400225166E+03 -0.30685508017E+03  0.11642049320E+04  0.92195897708E+03 0.  0.
        -13    1    3    3    0    0 -0.79137123758E+03 -0.24545792925E+03 -0.17088239337E+02  0.82874003752E+03  0.10566000000E+00 0.  1.
          4    1    3    3  502    0  0.23799318512E+03 -0.78544322416E+02 -0.32665766563E+03  0.41172223314E+03  0.00000000000E+00 0.  1.
         13    1    4    4    0    0  0.61025637163E+03 -0.14876064329E+03 -0.68920538239E+02  0.63189605147E+03  0.10566000000E+00 0. -1.
         -4    1    4    4    0  501 -0.56878319165E+02  0.47276289496E+03 -0.23793454194E+03  0.53230888052E+03  0.00000000000E+00 0. -1.
<mgrwt>
<rscale>  2 0.11569483E+04</rscale>
<asrwt>0</asrwt>
<pdfrwt beam="1">  1        2 0.13492817E+00 0.11569483E+04</pdfrwt>
<pdfrwt beam="2">  1       -2 0.23502063E+00 0.11569483E+04</pdfrwt>
<totfact> 0.23870905E+00</totfact>
</mgrwt>
</event>
<event>
 8    1  0.1373409E-005  0.1159822E+04  0.7818608E-02  0.8637448E-01
          2   -1    0    0  502    0  0.00000000000E+00  0.00000000000E+00  0.56673663030E+03  0.56673663030E+03  0.00000000000E+00 0.  1.
         -2   -1    0    0    0  501 -0.00000000000E+00 -0.00000000000E+00 -0.37513204971E+04  0.37513204971E+04  0.00000000000E+00 0. -1.
    9000010    2    1    2  502    0  0.59371436377E+03 -0.55822542564E+02 -0.28890932203E+03  0.12008801950E+04  0.10015147249E+04 0.  0.
   -9000010    2    1    2    0  501 -0.59371436377E+03  0.55822542564E+02 -0.28956745448E+04  0.31171769325E+04  0.98805265900E+03 0.  0.
        -13    1    3    3    0    0 -0.44845066307E+02 -0.79471376192E+02 -0.51503223761E+03  0.52305353125E+03  0.10566000000E+00 0.  1.
          4    1    3    3  502    0  0.63855943008E+03  0.23648833629E+02  0.22612291558E+03  0.67782666370E+03  0.00000000000E+00 0.  1.
         13    1    4    4    0    0 -0.34313511459E+03  0.51935437561E+03 -0.14277073782E+04  0.15575041070E+04  0.10566000000E+00 0. -1.
         -4    1    4    4    0  501 -0.25057924919E+03 -0.46353183305E+03 -0.14679671666E+04  0.15596728255E+04  0.00000000000E+00 0. -1.
<mgrwt>
<rscale>  2 0.11598216E+04</rscale>
<asrwt>0</asrwt>
<pdfrwt beam="1">  1        2 0.87190254E-01 0.11598216E+04</pdfrwt>
<pdfrwt beam="2">  1       -2 0.57712621E+00 0.11598216E+04</pdfrwt>
<totfact> 0.37104709E-01</totfact>
</mgrwt>
</event>
<event>
 8    1  0.1373409E-005  0.1590876E+04  0.7818608E-02  0.8359038E-01
          2   -1    0    0  502    0  0.00000000000E+00  0.00000000000E+00  0.19852982014E+04  0.19852982014E+04  0.00000000000E+00 0.  1.
         -2   -1    0    0    0  501 -0.00000000000E+00 -0.00000000000E+00 -0.12937124899E+04  0.12937124899E+04  0.00000000000E+00 0. -1.
    9000010    2    1    2  502    0  0.49788948523E+02  0.12327865172E+04  0.14938163288E+03  0.16053082682E+04  0.10160995166E+04 0.  0.
   -9000010    2    1    2    0  501 -0.49788948523E+02 -0.12327865172E+04  0.54220407864E+03  0.16737024231E+04  0.99249836367E+03 0.  0.
        -13    1    3    3    0    0  0.16047783558E+03  0.57896645584E+03 -0.41855566886E+03  0.73221865027E+03  0.10566000000E+00 0.  1.
          4    1    3    3  502    0 -0.11068888706E+03  0.65382006132E+03  0.56793730174E+03  0.87308961797E+03  0.00000000000E+00 0.  1.
         13    1    4    4    0    0  0.54794674229E+02 -0.78757167865E+03  0.82026913038E+03  0.11384696143E+04  0.10566000000E+00 0. -1.
         -4    1    4    4    0  501 -0.10458362275E+03 -0.44521483851E+03 -0.27806505174E+03  0.53523280876E+03  0.00000000000E+00 0. -1.
<mgrwt>
<rscale>  2 0.15908759E+04</rscale>
<asrwt>0</asrwt>
<pdfrwt beam="1">  1        2 0.30543049E+00 0.15908759E+04</pdfrwt>
<pdfrwt beam="2">  1       -2 0.19903269E+00 0.15908759E+04</pdfrwt>
<totfact> 0.10550481E+00</totfact>
</mgrwt>
</event>
<event>
 8    1  0.1373409E-005  0.1161496E+04  0.7818608E-02  0.8636135E-01
         -2   -1    0    0    0  501 -0.00000000000E+00  0.00000000000E+00  0.11592819283E+04  0.11592819283E+04  0.00000000000E+00 0. -1.
          2   -1    0    0  502    0  0.00000000000E+00 -0.00000000000E+00 -0.11682577890E+04  0.11682577890E+04  0.00000000000E+00 0.  1.
    9000010    2    1    2  502    0 -0.54562424171E+02  0.58066173782E+03 -0.77067499977E+02  0.11641872060E+04  0.10046130295E+04 0.  0.
   -9000010    2    1    2    0  501  0.54562424171E+02 -0.58066173782E+03  0.68091639251E+02  0.11633525113E+04  0.10042945198E+04 0.  0.
        -13    1    3    3    0    0 -0.75347214706E+02  0.69920367584E+03 -0.40731616138E+03  0.81269271533E+03  0.10566000000E+00 0.  1.
          4    1    3    3  502    0  0.20784790534E+02 -0.11854193802E+03  0.33024866140E+03  0.35149449063E+03  0.00000000000E+00 0.  1.
         13    1    4    4    0    0  0.42787958107E+03 -0.64716113662E+03  0.10267120774E+03  0.78258536960E+03  0.10566000000E+00 0. -1.
         -4    1    4    4    0  501 -0.37331715690E+03  0.66499398802E+02 -0.34579568485E+02  0.38076714175E+03  0.00000000000E+00 0. -1.
<mgrwt>
<rscale>  2 0.11614958E+04</rscale>
<asrwt>0</asrwt>
<pdfrwt beam="2">  1        2 0.17973197E+00 0.11614958E+04</pdfrwt>
<pdfrwt beam="1">  1       -2 0.17835107E+00 0.11614958E+04</pdfrwt>
<totfact> 0.46300818E+00</totfact>
</mgrwt>
</event>
<event>
 8    1  0.1373409E-005  0.1145677E+04  0.7818608E-02  0.8648632E-01
         -1   -1    0    0    0  501 -0.00000000000E+00  0.00000000000E+00  0.36854923850E+04  0.36854923850E+04  0.00000000000E+00 0.  1.
          1   -1    0    0  502    0  0.00000000000E+00 -0.00000000000E+00 -0.35907735942E+03  0.35907735942E+03  0.00000000000E+00 0. -1.
    9000010    2    1    2  502    0  0.57005526619E+02  0.59288334408E+03  0.15075103928E+04  0.19038802837E+04  0.99870529209E+03 0.  0.
   -9000010    2    1    2    0  501 -0.57005526619E+02 -0.59288334408E+03  0.18189046328E+04  0.21406894607E+04  0.95884149597E+03 0.  0.
        -13    1    3    3    0    0  0.41479967478E+02  0.77918612118E+03  0.15281095926E+04  0.17158002614E+04  0.10566000000E+00 0.  1.
          4    1    3    3  502    0  0.15525559140E+02 -0.18630277710E+03 -0.20599199737E+02  0.18808002226E+03  0.00000000000E+00 0.  1.
         13    1    4    4    0    0  0.96405490979E+02 -0.82828230968E+03  0.12032919175E+04  0.14639866984E+04  0.10566000000E+00 0. -1.
         -4    1    4    4    0  501 -0.15341101760E+03  0.23539896560E+03  0.61561271529E+03  0.67670276234E+03  0.00000000000E+00 0. -1.
<mgrwt>
<rscale>  2 0.11456767E+04</rscale>
<asrwt>0</asrwt>
<pdfrwt beam="2">  1        1 0.55242673E-01 0.11456767E+04</pdfrwt>
<pdfrwt beam="1">  1       -1 0.56699880E+00 0.11456767E+04</pdfrwt>
<totfact> 0.42895196E-01</totfact>
</mgrwt>
</event>
<event>
 8    1  0.1373409E-005  0.1354918E+04  0.7818608E-02  0.8498226E-01
          2   -1    0    0  502    0  0.00000000000E+00  0.00000000000E+00  0.24674628134E+04  0.24674628134E+04  0.00000000000E+00 0.  1.
         -2   -1    0    0    0  501 -0.00000000000E+00 -0.00000000000E+00 -0.75502960050E+03  0.75502960050E+03  0.00000000000E+00 0. -1.
    9000010    2    1    2  502    0 -0.83148737869E+03  0.34398128948E+03  0.10465184904E+04  0.17066533751E+04  0.10038776835E+04 0.  0.
   -9000010    2    1    2    0  501  0.83148737869E+03 -0.34398128948E+03  0.66591472245E+03  0.15158390388E+04  0.10220720060E+04 0.  0.
        -13    1    3    3    0    0 -0.22313058798E+03 -0.12951743758E+03 -0.13859531332E+03  0.29286634831E+03  0.10566000000E+00 0.  1.
          4    1    3    3  502    0 -0.60835679071E+03  0.47349872706E+03  0.11851138037E+04  0.14137870268E+04  0.00000000000E+00 0.  1.
         13    1    4    4    0    0  0.63608959722E+03 -0.69856821824E+03  0.55633658733E+03  0.10964113921E+04  0.10566000000E+00 0. -1.
         -4    1    4    4    0  501  0.19539778147E+03  0.35458692876E+03  0.10957813512E+03  0.41942764662E+03  0.00000000000E+00 0. -1.
<mgrwt>
<rscale>  2 0.13549180E+04</rscale>
<asrwt>0</asrwt>
<pdfrwt beam="1">  1        2 0.37960966E+00 0.13549180E+04</pdfrwt>
<pdfrwt beam="2">  1       -2 0.11615840E+00 0.13549180E+04</pdfrwt>
<totfact> 0.31359317E+00</totfact>
</mgrwt>
</event>
<event>
 8    1  0.1373409E-005  0.1427310E+04  0.7818608E-02  0.8452601E-01
          1   -1    0    0  502    0  0.00000000000E+00  0.00000000000E+00  0.29836627251E+04  0.29836627251E+04  0.00000000000E+00 0.  1.
         -1   -1    0    0    0  501 -0.00000000000E+00 -0.00000000000E+00 -0.80522141888E+03  0.80522141888E+03  0.00000000000E+00 0. -1.
    9000010    2    1    2  502    0 -0.30489418128E+03  0.96489423301E+03  0.35783962580E+03  0.14822912866E+04  0.10223291632E+04 0.  0.
   -9000010    2    1    2    0  501  0.30489418128E+03 -0.96489423301E+03  0.18206016804E+04  0.23065928573E+04  0.99085760231E+03 0.  0.
        -13    1    3    3    0    0 -0.53186134203E+03  0.10376348354E+04  0.41418845222E+03  0.12373821657E+04  0.10566000000E+00 0.  1.
          4    1    3    3  502    0  0.22696716075E+03 -0.72740602404E+02 -0.56348826418E+02  0.24490912097E+03  0.00000000000E+00 0.  1.
         13    1    4    4    0    0  0.12699529846E+03 -0.11300061717E+04  0.12689066895E+04  0.17038679385E+04  0.10566000000E+00 0. -1.
         -4    1    4    4    0  501  0.17789888282E+03  0.16511193870E+03  0.55169499092E+03  0.60272491886E+03  0.00000000000E+00 0. -1.
<mgrwt>
<rscale>  2 0.14273097E+04</rscale>
<asrwt>0</asrwt>
<pdfrwt beam="1">  1        1 0.45902503E+00 0.14273097E+04</pdfrwt>
<pdfrwt beam="2">  1       -1 0.12388022E+00 0.14273097E+04</pdfrwt>
<totfact> 0.28809726E-01</totfact>
</mgrwt>
</event>
<event>
 8    1  0.1373409E-005  0.1143286E+04  0.7818608E-02  0.8650538E-01
          2   -1    0    0  502    0  0.00000000000E+00  0.00000000000E+00  0.71678924990E+03  0.71678924990E+03  0.00000000000E+00 0. -1.
         -2   -1    0    0    0  501 -0.00000000000E+00 -0.00000000000E+00 -0.18294311942E+04  0.18294311942E+04  0.00000000000E+00 0.  1.
    9000010    2    1    2  502    0 -0.45068674879E+03 -0.34359797753E+03 -0.48343657293E+03  0.12398802154E+04  0.99116795391E+03 0.  0.
   -9000010    2    1    2    0  501  0.45068674879E+03  0.34359797753E+03 -0.62920537132E+03  0.13063402286E+04  0.99470964503E+03 0.  0.
        -13    1    3    3    0    0 -0.41060445412E+02 -0.54044128300E+03  0.43847953657E+02  0.54376961551E+03  0.10566000000E+00 0.  1.
          4    1    3    3  502    0 -0.40962630338E+03  0.19684330547E+03 -0.52728452659E+03  0.69611059991E+03  0.00000000000E+00 0.  1.
         13    1    4    4    0    0  0.30836166133E+03  0.34534617323E+03 -0.89340300831E+03  0.10062404484E+04  0.10566000000E+00 0. -1.
         -4    1    4    4    0  501  0.14232508746E+03 -0.17481957009E+01  0.26419763699E+03  0.30009978023E+03  0.00000000000E+00 0. -1.
<mgrwt>
<rscale>  2 0.11432865E+04</rscale>
<asrwt>0</asrwt>
<pdfrwt beam="1">  1        2 0.11027527E+00 0.11432865E+04</pdfrwt>
<pdfrwt beam="2">  1       -2 0.28145095E+00 0.11432865E+04</pdfrwt>
<totfact> 0.13580356E+00</totfact>
</mgrwt>
</event>
<event>
 8    1  0.1373409E-005  0.1397484E+04  0.7818608E-02  0.8471055E-01
          2   -1    0    0  502    0  0.00000000000E+00  0.00000000000E+00  0.22340962126E+04  0.22340962126E+04  0.00000000000E+00 0.  1.
         -2   -1    0    0    0  501 -0.00000000000E+00 -0.00000000000E+00 -0.95516421036E+03  0.95516421036E+03  0.00000000000E+00 0. -1.
    9000010    2    1    2  502    0  0.42276197275E+03 -0.87942413577E+03  0.17470202752E+03  0.14074394059E+04  0.99912481032E+03 0.  0.
   -9000010    2    1    2    0  501 -0.42276197275E+03  0.87942413577E+03  0.11042299747E+04  0.17818210170E+04  0.10017224185E+04 0.  0.
        -13    1    3    3    0    0 -0.19656775418E+03 -0.39147489857E+03  0.39387006951E+03  0.58908838133E+03  0.10566000000E+00 0.  1.
          4    1    3    3  502    0  0.61932972693E+03 -0.48794923720E+03 -0.21916804200E+03  0.81835102454E+03  0.00000000000E+00 0.  1.
         13    1    4    4    0    0 -0.47136163461E+02 -0.21187630738E+03  0.59498926684E+02  0.22506337102E+03  0.10566000000E+00 0. -1.
         -4    1    4    4    0  501 -0.37562580929E+03  0.10913004432E+04  0.10447310480E+04  0.15567576460E+04  0.00000000000E+00 0. -1.
<mgrwt>
<rscale>  2 0.13974841E+04</rscale>
<asrwt>0</asrwt>
<pdfrwt beam="1">  1        2 0.34370711E+00 0.13974841E+04</pdfrwt>
<pdfrwt beam="2">  1       -2 0.14694834E+00 0.13974841E+04</pdfrwt>
<totfact> 0.21781736E+00</totfact>
</mgrwt>
</event>
<event>
 8    1  0.1373409E-005  0.1746051E+04  0.7818608E-02  0.8280445E-01
         -2   -1    0    0    0  501 -0.00000000000E+00  0.00000000000E+00  0.12733850467E+04  0.12733850467E+04  0.00000000000E+00 0. -1.
          2   -1    0    0  502    0  0.00000000000E+00 -0.00000000000E+00 -0.31293635979E+04  0.31293635979E+04  0.00000000000E+00 0.  1.
    9000010    2    1    2  502    0 -0.14230347049E+04 -0.12624776846E+03  0.14031776985E+03  0.17484829319E+04  0.99826710660E+03 0.  0.
   -9000010    2    1    2    0  501  0.14230347049E+04  0.12624776846E+03 -0.19962963210E+04  0.26542657127E+04  0.10094360812E+04 0.  0.
        -13    1    3    3    0    0 -0.95919413709E+03 -0.54509124121E+03 -0.19422391359E+02  0.11034287899E+04  0.10566000000E+00 0.  1.
          4    1    3    3  502    0 -0.46384056784E+03  0.41884347275E+03  0.15974016121E+03  0.64505414203E+03  0.00000000000E+00 0.  1.
         13    1    4    4    0    0  0.15654297006E+04  0.78204769098E+02 -0.16449250626E+04  0.22721057647E+04  0.10566000000E+00 0. -1.
         -4    1    4    4    0  501 -0.14239499570E+03  0.48042999363E+02 -0.35137125840E+03  0.38215994795E+03  0.00000000000E+00 0. -1.
<mgrwt>
<rscale>  2 0.17460512E+04</rscale>
<asrwt>0</asrwt>
<pdfrwt beam="2">  1        2 0.48144056E+00 0.17460512E+04</pdfrwt>
<pdfrwt beam="1">  1       -2 0.19590539E+00 0.17460512E+04</pdfrwt>
<totfact> 0.23895133E-01</totfact>
</mgrwt>
</event>
<event>
 8    1  0.1373409E-005  0.1075822E+04  0.7818608E-02  0.8706441E-01
         -2   -1    0    0    0  501 -0.00000000000E+00  0.00000000000E+00  0.60420132376E+03  0.60420132376E+03  0.00000000000E+00 0. -1.
          2   -1    0    0  502    0  0.00000000000E+00 -0.00000000000E+00 -0.19896564023E+04  0.19896564023E+04  0.00000000000E+00 0.  1.
    9000010    2    1    2  502    0 -0.37080922163E+03  0.22172001532E+02 -0.44583048584E+03  0.11694407223E+04  0.10153007951E+04 0.  0.
   -9000010    2    1    2    0  501  0.37080922163E+03 -0.22172001532E+02 -0.93962459269E+03  0.14244170037E+04  0.10040310497E+04 0.  0.
        -13    1    3    3    0    0 -0.80195252211E+02 -0.40109896110E+03 -0.50805326607E+03  0.65224978912E+03  0.10566000000E+00 0.  1.
          4    1    3    3  502    0 -0.29061396942E+03  0.42327096264E+03  0.62222780233E+02  0.51719093323E+03  0.00000000000E+00 0.  1.
         13    1    4    4    0    0  0.37955646169E+03  0.40284383447E+03 -0.23461170512E+03  0.60115632403E+03  0.10566000000E+00 0. -1.
         -4    1    4    4    0  501 -0.87472400546E+01 -0.42501583600E+03 -0.70501288756E+03  0.82326067967E+03  0.00000000000E+00 0. -1.
<mgrwt>
<rscale>  2 0.10758216E+04</rscale>
<asrwt>0</asrwt>
<pdfrwt beam="2">  1        2 0.30610098E+00 0.10758216E+04</pdfrwt>
<pdfrwt beam="1">  1       -2 0.92954051E-01 0.10758216E+04</pdfrwt>
<totfact> 0.10208867E+01</totfact>
</mgrwt>
</event>
<event>
 8    1  0.1373409E-005  0.1406273E+04  0.7818608E-02  0.8465568E-01
          1   -1    0    0  502    0  0.00000000000E+00  0.00000000000E+00  0.16463969643E+04  0.16463969643E+04  0.00000000000E+00 0. -1.
         -1   -1    0    0    0  501 -0.00000000000E+00 -0.00000000000E+00 -0.12012941260E+04  0.12012941260E+04  0.00000000000E+00 0.  1.
    9000010    2    1    2  502    0  0.17905731282E+03 -0.96497978974E+03  0.23593372134E+03  0.14223667766E+04  0.10021052891E+04 0.  0.
   -9000010    2    1    2    0  501 -0.17905731282E+03  0.96497978974E+03  0.20916911702E+03  0.14253243138E+04  0.10122006540E+04 0.  0.
        -13    1    3    3    0    0 -0.67160495193E+02 -0.95861804342E+03  0.48125295260E+03  0.10747388059E+04  0.10566000000E+00 0.  1.
          4    1    3    3  502    0  0.24621780802E+03 -0.63617463180E+01 -0.24531923126E+03  0.34762797072E+03  0.00000000000E+00 0.  1.
         13    1    4    4    0    0 -0.13333379554E+03  0.10458930333E+04 -0.14035168646E+03  0.10636581900E+04  0.10566000000E+00 0. -1.
         -4    1    4    4    0  501 -0.45723517279E+02 -0.80913243529E+02  0.34952080348E+03  0.36166612376E+03  0.00000000000E+00 0. -1.
<mgrwt>
<rscale>  2 0.14062731E+04</rscale>
<asrwt>0</asrwt>
<pdfrwt beam="1">  1        1 0.25329184E+00 0.14062731E+04</pdfrwt>
<pdfrwt beam="2">  1       -1 0.18481448E+00 0.14062731E+04</pdfrwt>
<totfact> 0.12144736E+00</totfact>
</mgrwt>
</event>
<event>
 8    1  0.1373409E-005  0.1250831E+04  0.7818608E-02  0.8569238E-01
         -1   -1    0    0    0  501 -0.00000000000E+00  0.00000000000E+00  0.18693682627E+04  0.18693682627E+04  0.00000000000E+00 0. -1.
          1   -1    0    0  502    0  0.00000000000E+00 -0.00000000000E+00 -0.11300428734E+04  0.11300428734E+04  0.00000000000E+00 0.  1.
    9000010    2    1    2  502    0  0.53154750340E+03  0.49617415891E+03  0.11386699748E+04  0.17116634043E+04  0.10509475505E+04 0.  0.
   -9000010    2    1    2    0  501 -0.53154750340E+03 -0.49617415891E+03 -0.39934458553E+03  0.12877477318E+04  0.98492973272E+03 0.  0.
        -13    1    3    3    0    0  0.77110454289E+03  0.23151442047E+03  0.10843747241E+04  0.13505812439E+04  0.10566000000E+00 0.  1.
          4    1    3    3  502    0 -0.23955703950E+03  0.26465973844E+03  0.54295250667E+02  0.36108216041E+03  0.00000000000E+00 0.  1.
         13    1    4    4    0    0 -0.25834201206E+03 -0.12306307645E+03 -0.68625910850E+03  0.74352988585E+03  0.10566000000E+00 0. -1.
         -4    1    4    4    0  501 -0.27320549134E+03 -0.37311108246E+03  0.28691452298E+03  0.54421784594E+03  0.00000000000E+00 0. -1.
<mgrwt>
<rscale>  2 0.12508308E+04</rscale>
<asrwt>0</asrwt>
<pdfrwt beam="2">  1        1 0.17385275E+00 0.12508308E+04</pdfrwt>
<pdfrwt beam="1">  1       -1 0.28759512E+00 0.12508308E+04</pdfrwt>
<totfact> 0.32661790E-01</totfact>
</mgrwt>
</event>
<event>
 8    1  0.1373409E-005  0.1433873E+04  0.7818608E-02  0.8448603E-01
          2   -1    0    0  502    0  0.00000000000E+00  0.00000000000E+00  0.21985464046E+04  0.21985464046E+04  0.00000000000E+00 0.  1.
         -2   -1    0    0    0  501 -0.00000000000E+00 -0.00000000000E+00 -0.10599075035E+04  0.10599075035E+04  0.00000000000E+00 0. -1.
    9000010    2    1    2  502    0  0.10058236727E+04 -0.15370873679E+03  0.81593239414E+01  0.14274367777E+04  0.10011001666E+04 0.  0.
   -9000010    2    1    2    0  501 -0.10058236727E+04  0.15370873679E+03  0.11304795771E+04  0.18310171303E+04  0.10194763464E+04 0.  0.
        -13    1    3    3    0    0  0.11593817216E+04  0.50526644929E+02 -0.62997110407E+02  0.11621908472E+04  0.10566000000E+00 0.  1.
          4    1    3    3  502    0 -0.15355804888E+03 -0.20423538172E+03  0.71156434349E+02  0.26524593055E+03  0.00000000000E+00 0.  1.
         13    1    4    4    0    0 -0.13031738980E+03  0.45481818408E+03  0.59956797868E+03  0.76375648925E+03  0.10566000000E+00 0. -1.
         -4    1    4    4    0  501 -0.87550628289E+03 -0.30110944729E+03  0.53091159847E+03  0.10672606411E+04  0.00000000000E+00 0. -1.
<mgrwt>
<rscale>  2 0.14338726E+04</rscale>
<asrwt>0</asrwt>
<pdfrwt beam="1">  1        2 0.33823791E+00 0.14338726E+04</pdfrwt>
<pdfrwt beam="2">  1       -2 0.16306269E+00 0.14338726E+04</pdfrwt>
<totfact> 0.16383053E+00</totfact>
</mgrwt>
</event>
<event>
 8    1  0.1373409E-005  0.1522597E+04  0.7818608E-02  0.8396612E-01
         -2   -1    0    0    0  501 -0.00000000000E+00  0.00000000000E+00  0.74461290917E+03  0.74461290917E+03  0.00000000000E+00 0.  1.
          2   -1    0    0  502    0  0.00000000000E+00 -0.00000000000E+00 -0.31197434707E+04  0.31197434707E+04  0.00000000000E+00 0. -1.
    9000010    2    1    2  502    0  0.61554209259E+03  0.98210578782E+03 -0.12709315216E+04  0.19799987819E+04  0.98066528328E+03 0.  0.
   -9000010    2    1    2    0  501 -0.61554209259E+03 -0.98210578782E+03 -0.11041990400E+04  0.18843575979E+04  0.99404436057E+03 0.  0.
        -13    1    3    3    0    0 -0.83823267858E+00  0.73443382976E+03 -0.10471691766E+04  0.12790453661E+04  0.10566000000E+00 0.  1.
          4    1    3    3  502    0  0.61638032527E+03  0.24767195806E+03 -0.22376234495E+03  0.70095341586E+03  0.00000000000E+00 0.  1.
         13    1    4    4    0    0 -0.47767849306E+03 -0.13498014607E+03 -0.13637493319E+02  0.49657061426E+03  0.10566000000E+00 0. -1.
         -4    1    4    4    0  501 -0.13786359953E+03 -0.84712564175E+03 -0.10905615467E+04  0.13877869837E+04  0.00000000000E+00 0. -1.
<mgrwt>
<rscale>  2 0.15225966E+04</rscale>
<asrwt>0</asrwt>
<pdfrwt beam="2">  1        2 0.47996052E+00 0.15225966E+04</pdfrwt>
<pdfrwt beam="1">  1       -2 0.11455583E+00 0.15225966E+04</pdfrwt>
<totfact> 0.13017724E+00</totfact>
</mgrwt>
</event>
<event>
 8    1  0.1373409E-005  0.1059248E+04  0.7818608E-02  0.8720830E-01
         -2   -1    0    0    0  501 -0.00000000000E+00  0.00000000000E+00  0.55351295347E+03  0.55351295347E+03  0.00000000000E+00 0. -1.
          2   -1    0    0  502    0  0.00000000000E+00 -0.00000000000E+00 -0.21522959454E+04  0.21522959454E+04  0.00000000000E+00 0.  1.
    9000010    2    1    2  502    0 -0.19929838586E+03 -0.24809177510E+03 -0.11069199263E+04  0.15155213545E+04  0.98501973450E+03 0.  0.
   -9000010    2    1    2    0  501  0.19929838586E+03  0.24809177510E+03 -0.49186306562E+03  0.11902875443E+04  0.10361398493E+04 0.  0.
        -13    1    3    3    0    0  0.16117962769E+03 -0.47966255263E+03 -0.91596389105E+03  0.10464439295E+04  0.10566000000E+00 0.  1.
          4    1    3    3  502    0 -0.36047801355E+03  0.23157077753E+03 -0.19095603525E+03  0.46907742501E+03  0.00000000000E+00 0.  1.
         13    1    4    4    0    0  0.99182996083E+02 -0.40278923796E+03 -0.11045695261E+03  0.42927518734E+03  0.10566000000E+00 0. -1.
         -4    1    4    4    0  501  0.10011538978E+03  0.65088101305E+03 -0.38140611301E+03  0.76101235697E+03  0.00000000000E+00 0. -1.
<mgrwt>
<rscale>  2 0.10592476E+04</rscale>
<asrwt>0</asrwt>
<pdfrwt beam="2">  1        2 0.33112246E+00 0.10592476E+04</pdfrwt>
<pdfrwt beam="1">  1       -2 0.85155838E-01 0.10592476E+04</pdfrwt>
<totfact> 0.10198989E+01</totfact>
</mgrwt>
</event>
<event>
 8    1  0.1373409E-005  0.1504888E+04  0.7818608E-02  0.8406692E-01
         -2   -1    0    0    0  501 -0.00000000000E+00  0.00000000000E+00  0.14485654250E+04  0.14485654250E+04  0.00000000000E+00 0. -1.
          2   -1    0    0  502    0  0.00000000000E+00 -0.00000000000E+00 -0.16067572962E+04  0.16067572962E+04  0.00000000000E+00 0.  1.
    9000010    2    1    2  502    0 -0.75125004920E+03  0.82719803257E+03 -0.32997639152E+03  0.15394085924E+04  0.10061119093E+04 0.  0.
   -9000010    2    1    2    0  501  0.75125004920E+03 -0.82719803257E+03  0.17178452031E+03  0.15159141288E+04  0.10098774693E+04 0.  0.
        -13    1    3    3    0    0 -0.34123584069E+03  0.76259429163E+03 -0.61369419674E+03  0.10366351966E+04  0.10566000000E+00 0.  1.
          4    1    3    3  502    0 -0.41001420851E+03  0.64603740942E+02  0.28371780522E+03  0.50277339580E+03  0.00000000000E+00 0.  1.
         13    1    4    4    0    0  0.83664549691E+03 -0.10026134952E+04  0.19157921424E+03  0.13198151820E+04  0.10566000000E+00 0. -1.
         -4    1    4    4    0  501 -0.85395447714E+02  0.17541546263E+03 -0.19794693932E+02  0.19609894678E+03  0.00000000000E+00 0. -1.
<mgrwt>
<rscale>  2 0.15048877E+04</rscale>
<asrwt>0</asrwt>
<pdfrwt beam="2">  1        2 0.24719343E+00 0.15048877E+04</pdfrwt>
<pdfrwt beam="1">  1       -2 0.22285622E+00 0.15048877E+04</pdfrwt>
<totfact> 0.10926281E+00</totfact>
</mgrwt>
</event>
<event>
 8    1  0.1373409E-005  0.1222833E+04  0.7818608E-02  0.8589564E-01
          2   -1    0    0  502    0  0.00000000000E+00  0.00000000000E+00  0.33567583610E+04  0.33567583610E+04  0.00000000000E+00 0.  1.
         -2   -1    0    0    0  501 -0.00000000000E+00 -0.00000000000E+00 -0.54389802241E+03  0.54389802241E+03  0.00000000000E+00 0. -1.
    9000010    2    1    2  502    0  0.45961123866E+03 -0.50496708022E+03  0.22542565010E+04  0.25741759982E+04  0.10384967281E+04 0.  0.
   -9000010    2    1    2    0  501 -0.45961123866E+03  0.50496708022E+03  0.55860383755E+03  0.13264803852E+04  0.99059463067E+03 0.  0.
        -13    1    3    3    0    0  0.51381228878E+03  0.34008921066E+02  0.17840273545E+04  0.18568557531E+04  0.10566000000E+00 0.  1.
          4    1    3    3  502    0 -0.54201050121E+02 -0.53897600129E+03  0.47022914649E+03  0.71732024508E+03  0.00000000000E+00 0.  1.
         13    1    4    4    0    0  0.27472497758E+02  0.30052881311E+02  0.64003989732E+03  0.64133376266E+03  0.10566000000E+00 0. -1.
         -4    1    4    4    0  501 -0.48708373641E+03  0.47491419891E+03 -0.81436059768E+02  0.68514662258E+03  0.00000000000E+00 0. -1.
<mgrwt>
<rscale>  2 0.12228333E+04</rscale>
<asrwt>0</asrwt>
<pdfrwt beam="1">  1        2 0.51642435E+00 0.12228333E+04</pdfrwt>
<pdfrwt beam="2">  1       -2 0.83676621E-01 0.12228333E+04</pdfrwt>
<totfact> 0.19981341E+00</totfact>
</mgrwt>
</event>
<event>
 8    1  0.1373409E-005  0.1016615E+04  0.7818608E-02  0.8759136E-01
         -1   -1    0    0    0  501 -0.00000000000E+00  0.00000000000E+00  0.40066929496E+03  0.40066929496E+03  0.00000000000E+00 0. -1.
          1   -1    0    0  502    0  0.00000000000E+00 -0.00000000000E+00 -0.26723548591E+04  0.26723548591E+04  0.00000000000E+00 0.  1.
    9000010    2    1    2  502    0  0.93133022376E+01  0.23307833234E+03 -0.81911421732E+03  0.12813445866E+04  0.95733150057E+03 0.  0.
   -9000010    2    1    2    0  501 -0.93133022376E+01 -0.23307833234E+03 -0.14525713468E+04  0.17916795675E+04  0.10226142519E+04 0.  0.
        -13    1    3    3    0    0 -0.20648010301E+03  0.40935807811E+03 -0.47473620091E+02  0.46093581421E+03  0.10566000000E+00 0.  1.
          4    1    3    3  502    0  0.21579340525E+03 -0.17627974577E+03 -0.77164059723E+03  0.82040877239E+03  0.00000000000E+00 0.  1.
         13    1    4    4    0    0  0.44783204093E+03 -0.14308864377E+02 -0.10593994296E+04  0.11502545124E+04  0.10566000000E+00 0. -1.
         -4    1    4    4    0  501 -0.45714534316E+03 -0.21876946796E+03 -0.39317191718E+03  0.64142505513E+03  0.00000000000E+00 0. -1.
<mgrwt>
<rscale>  2 0.10166146E+04</rscale>
<asrwt>0</asrwt>
<pdfrwt beam="2">  1        1 0.41113152E+00 0.10166146E+04</pdfrwt>
<pdfrwt beam="1">  1       -1 0.61641429E-01 0.10166146E+04</pdfrwt>
<totfact> 0.26868452E+00</totfact>
</mgrwt>
</event>
<event>
 8    1  0.1373409E-005  0.1388065E+04  0.7818608E-02  0.8476981E-01
         -2   -1    0    0    0  501 -0.00000000000E+00  0.00000000000E+00  0.82754772898E+03  0.82754772898E+03  0.00000000000E+00 0.  1.
          2   -1    0    0  502    0  0.00000000000E+00 -0.00000000000E+00 -0.28858698133E+04  0.28858698133E+04  0.00000000000E+00 0. -1.
    9000010    2    1    2  502    0  0.48485587014E+03 -0.82433121072E+03 -0.21293894508E+03  0.14042188486E+04  0.10059226713E+04 0.  0.
   -9000010    2    1    2    0  501 -0.48485587014E+03  0.82433121072E+03 -0.18453831393E+04  0.23091986938E+04  0.10061573022E+04 0.  0.
        -13    1    3    3    0    0  0.45122354536E+03 -0.42683424599E+03  0.35101029052E+03  0.71344123559E+03  0.10566000000E+00 0.  1.
          4    1    3    3  502    0  0.33632324784E+02 -0.39749696473E+03 -0.56394923560E+03  0.69077761297E+03  0.00000000000E+00 0.  1.
         13    1    4    4    0    0 -0.14804163410E+03 -0.15337232300E+03 -0.23708009837E+02  0.21447954631E+03  0.10566000000E+00 0. -1.
         -4    1    4    4    0  501 -0.33681423604E+03  0.97770353372E+03 -0.18216751294E+04  0.20947191474E+04  0.00000000000E+00 0. -1.
<mgrwt>
<rscale>  2 0.13880647E+04</rscale>
<asrwt>0</asrwt>
<pdfrwt beam="2">  1        2 0.44397997E+00 0.13880647E+04</pdfrwt>
<pdfrwt beam="1">  1       -2 0.12731504E+00 0.13880647E+04</pdfrwt>
<totfact> 0.13955832E+00</totfact>
</mgrwt>
</event>
<event>
 8    1  0.1373409E-005  0.1207529E+04  0.7818608E-02  0.8600914E-01
         -2   -1    0    0    0  501 -0.00000000000E+00  0.00000000000E+00  0.88447559220E+03  0.88447559220E+03  0.00000000000E+00 0.  1.
          2   -1    0    0  502    0  0.00000000000E+00 -0.00000000000E+00 -0.18006253213E+04  0.18006253213E+04  0.00000000000E+00 0. -1.
    9000010    2    1    2  502    0 -0.27631916948E+03 -0.64809535585E+03 -0.70985364105E+02  0.12180583785E+04  0.99108396103E+03 0.  0.
   -9000010    2    1    2    0  501  0.27631916948E+03  0.64809535585E+03 -0.84516436495E+03  0.14670425350E+04  0.97032526604E+03 0.  0.
        -13    1    3    3    0    0  0.35197434411E+03 -0.17766297621E+03 -0.16529349051E+03  0.42751844545E+03  0.10566000000E+00 0.  1.
          4    1    3    3  502    0 -0.62829351359E+03 -0.47043237965E+03  0.94308126410E+02  0.79053993305E+03  0.00000000000E+00 0.  1.
         13    1    4    4    0    0  0.47783892264E+03 -0.26671172700E+02 -0.22565935438E+03  0.52911581230E+03  0.10566000000E+00 0. -1.
         -4    1    4    4    0  501 -0.20151975316E+03  0.67476652855E+03 -0.61950501057E+03  0.93792672266E+03  0.00000000000E+00 0. -1.
<mgrwt>
<rscale>  2 0.12075293E+04</rscale>
<asrwt>0</asrwt>
<pdfrwt beam="2">  1        2 0.27701928E+00 0.12075293E+04</pdfrwt>
<pdfrwt beam="1">  1       -2 0.13607317E+00 0.12075293E+04</pdfrwt>
<totfact> 0.48032435E+00</totfact>
</mgrwt>
</event>
<event>
 8    1  0.1373409E-005  0.1777478E+04  0.7818608E-02  0.8265552E-01
         -2   -1    0    0    0  501 -0.00000000000E+00  0.00000000000E+00  0.19741200904E+04  0.19741200904E+04  0.00000000000E+00 0. -1.
          2   -1    0    0  502    0  0.00000000000E+00 -0.00000000000E+00 -0.16403847781E+04  0.16403847781E+04  0.00000000000E+00 0.  1.
    9000010    2    1    2  502    0 -0.14331939898E+04 -0.36623368942E+03 -0.11513228243E+03  0.17820376720E+04  0.98703125296E+03 0.  0.
   -9000010    2    1    2    0  501  0.14331939898E+04  0.36623368942E+03  0.44886759476E+03  0.18324671964E+04  0.98401309977E+03 0.  0.
        -13    1    3    3    0    0 -0.36519839213E+03  0.26360467814E+03 -0.28136715893E+03  0.53106005427E+03  0.10566000000E+00 0.  1.
          4    1    3    3  502    0 -0.10679955977E+04 -0.62983836757E+03  0.16623487650E+03  0.12509776178E+04  0.00000000000E+00 0.  1.
         13    1    4    4    0    0  0.15124624089E+04  0.40553605496E+03  0.58374874719E+03  0.16711566776E+04  0.10566000000E+00 0. -1.
         -4    1    4    4    0  501 -0.79268419029E+02 -0.39302365538E+02 -0.13488115243E+03  0.16131051880E+03  0.00000000000E+00 0. -1.
<mgrwt>
<rscale>  2 0.17774777E+04</rscale>
<asrwt>0</asrwt>
<pdfrwt beam="2">  1        2 0.25236689E+00 0.17774777E+04</pdfrwt>
<pdfrwt beam="1">  1       -2 0.30371078E+00 0.17774777E+04</pdfrwt>
<totfact> 0.25206626E-01</totfact>
</mgrwt>
</event>
<event>
 8    1  0.1373409E-005  0.1338436E+04  0.7818608E-02  0.8509024E-01
          4   -1    0    0  502    0  0.00000000000E+00  0.00000000000E+00  0.37091074309E+04  0.37091074309E+04  0.00000000000E+00 0.  1.
         -4   -1    0    0    0  501 -0.00000000000E+00 -0.00000000000E+00 -0.50129262037E+03  0.50129262037E+03  0.00000000000E+00 0. -1.
    9000010    2    1    2  502    0 -0.81026752250E+02 -0.86506034823E+03  0.11991661350E+04  0.17955465896E+04  0.10154276909E+04 0.  0.
   -9000010    2    1    2    0  501  0.81026752250E+02  0.86506034823E+03  0.20086486755E+04  0.24148534617E+04  0.10207609901E+04 0.  0.
        -13    1    3    3    0    0  0.10068095686E+03 -0.78217464296E+02  0.93827664835E+03  0.94689899503E+03  0.10566000000E+00 0.  1.
          4    1    3    3  502    0 -0.18170770911E+03 -0.78684288393E+03  0.26088948664E+03  0.84864759458E+03  0.00000000000E+00 0.  1.
         13    1    4    4    0    0  0.20868426584E+03  0.87850727185E+02  0.14033716753E+04  0.14215199412E+04  0.10566000000E+00 0. -1.
         -4    1    4    4    0  501 -0.12765751359E+03  0.77720962104E+03  0.60527700028E+03  0.99333352047E+03  0.00000000000E+00 0. -1.
<mgrwt>
<rscale>  2 0.13384355E+04</rscale>
<asrwt>0</asrwt>
<pdfrwt beam="1">  1        4 0.57063190E+00 0.13384355E+04</pdfrwt>
<pdfrwt beam="2">  1       -4 0.77121944E-01 0.13384355E+04</pdfrwt>
<totfact> 0.36413191E-02</totfact>
</mgrwt>
</event>
<event>
 8    1  0.1373409E-005  0.1094066E+04  0.7818608E-02  0.8690910E-01
         -2   -1    0    0    0  501 -0.00000000000E+00  0.00000000000E+00  0.53054198424E+03  0.53054198424E+03  0.00000000000E+00 0.  1.
          2   -1    0    0  502    0  0.00000000000E+00 -0.00000000000E+00 -0.22848948376E+04  0.22848948376E+04  0.00000000000E+00 0. -1.
    9000010    2    1    2  502    0 -0.49143169943E+03  0.12016293477E+03 -0.69679467191E+03  0.12655108387E+04  0.92738914262E+03 0.  0.
   -9000010    2    1    2    0  501  0.49143169943E+03 -0.12016293477E+03 -0.10575581814E+04  0.15499259831E+04  0.10138525534E+04 0.  0.
        -13    1    3    3    0    0 -0.47829981550E+03  0.48737182014E+03 -0.51662280596E+03  0.85627165046E+03  0.10566000000E+00 0.  1.
          4    1    3    3  502    0 -0.13131883934E+02 -0.36720888538E+03 -0.18017186595E+03  0.40923918819E+03  0.00000000000E+00 0.  1.
         13    1    4    4    0    0  0.92768191991E+00 -0.32922032987E+03 -0.95074859244E+03  0.10061360660E+04  0.10566000000E+00 0. -1.
         -4    1    4    4    0  501  0.49050401751E+03  0.20905739510E+03 -0.10680958897E+03  0.54378991710E+03  0.00000000000E+00 0. -1.
<mgrwt>
<rscale>  2 0.10940656E+04</rscale>
<asrwt>0</asrwt>
<pdfrwt beam="2">  1        2 0.35152229E+00 0.10940656E+04</pdfrwt>
<pdfrwt beam="1">  1       -2 0.81621843E-01 0.10940656E+04</pdfrwt>
<totfact> 0.94465165E+00</totfact>
</mgrwt>
</event>
<event>
 8    1  0.1373409E-005  0.1150314E+04  0.7818608E-02  0.8644947E-01
          2   -1    0    0  502    0  0.00000000000E+00  0.00000000000E+00  0.10569920526E+04  0.10569920526E+04  0.00000000000E+00 0. -1.
         -2   -1    0    0    0  501 -0.00000000000E+00 -0.00000000000E+00 -0.12636574334E+04  0.12636574334E+04  0.00000000000E+00 0.  1.
    9000010    2    1    2  502    0  0.16776753036E+03  0.51057195870E+03  0.80956472915E+01  0.11258392379E+04  0.98925162664E+03 0.  0.
   -9000010    2    1    2    0  501 -0.16776753036E+03 -0.51057195870E+03 -0.21476102810E+03  0.11948102482E+04  0.10452844401E+04 0.  0.
        -13    1    3    3    0    0 -0.20824376660E+03  0.32415139204E+03 -0.38940187807E+03  0.54778958104E+03  0.10566000000E+00 0.  1.
          4    1    3    3  502    0  0.37601129696E+03  0.18642056666E+03  0.39749752536E+03  0.57804965685E+03  0.00000000000E+00 0.  1.
         13    1    4    4    0    0  0.17790713383E+03 -0.10771610131E+02 -0.49463405406E+03  0.52576595026E+03  0.10566000000E+00 0. -1.
         -4    1    4    4    0  501 -0.34567466419E+03 -0.49980034857E+03  0.27987302595E+03  0.66904429790E+03  0.00000000000E+00 0. -1.
<mgrwt>
<rscale>  2 0.11503137E+04</rscale>
<asrwt>0</asrwt>
<pdfrwt beam="1">  1        2 0.16261416E+00 0.11503137E+04</pdfrwt>
<pdfrwt beam="2">  1       -2 0.19440884E+00 0.11503137E+04</pdfrwt>
<totfact> 0.39584691E+00</totfact>
</mgrwt>
</event>
<event>
 8    1  0.1373409E-005  0.1446818E+04  0.7818608E-02  0.8440779E-01
          4   -1    0    0  502    0  0.00000000000E+00  0.00000000000E+00  0.23017903197E+04  0.23017903197E+04  0.00000000000E+00 0.  1.
         -4   -1    0    0    0  501 -0.00000000000E+00 -0.00000000000E+00 -0.96926137097E+03  0.96926137097E+03  0.00000000000E+00 0. -1.
    9000010    2    1    2  502    0  0.54900203432E+03 -0.89915300734E+03  0.10716442040E+04  0.17985881445E+04  0.98824017807E+03 0.  0.
   -9000010    2    1    2    0  501 -0.54900203432E+03  0.89915300734E+03  0.26088474479E+03  0.14724635461E+04  0.99509229739E+03 0.  0.
        -13    1    3    3    0    0 -0.20063490123E+03  0.17390640171E+02  0.37268042672E+03  0.42361245210E+03  0.10566000000E+00 0.  1.
          4    1    3    3  502    0  0.74963693554E+03 -0.91654364751E+03  0.69896377724E+03  0.13749756924E+04  0.00000000000E+00 0.  1.
         13    1    4    4    0    0 -0.34094242255E+03  0.11044870081E+04  0.18688040410E+03  0.11709216811E+04  0.10566000000E+00 0. -1.
         -4    1    4    4    0  501 -0.20805961176E+03 -0.20533400080E+03  0.74004340681E+02  0.30154186504E+03  0.00000000000E+00 0. -1.
<mgrwt>
<rscale>  2 0.14468179E+04</rscale>
<asrwt>0</asrwt>
<pdfrwt beam="1">  1        4 0.35412159E+00 0.14468179E+04</pdfrwt>
<pdfrwt beam="2">  1       -4 0.14911713E+00 0.14468179E+04</pdfrwt>
<totfact> 0.10380003E-01</totfact>
</mgrwt>
</event>
<event>
 8    1  0.1373409E-005  0.1179944E+04  0.7818608E-02  0.8621820E-01
          2   -1    0    0  502    0  0.00000000000E+00  0.00000000000E+00  0.12136013985E+04  0.12136013985E+04  0.00000000000E+00 0. -1.
         -2   -1    0    0    0  501 -0.00000000000E+00 -0.00000000000E+00 -0.11707416152E+04  0.11707416152E+04  0.00000000000E+00 0.  1.
    9000010    2    1    2  502    0 -0.59147148137E+03  0.41120765602E+03 -0.13893591669E+03  0.12388554734E+04  0.99826321448E+03 0.  0.
   -9000010    2    1    2    0  501  0.59147148137E+03 -0.41120765602E+03  0.18179569998E+03  0.11454875403E+04  0.87187257032E+03 0.  0.
        -13    1    3    3    0    0  0.15694553557E+02  0.56352076102E+03  0.92864215622E+02  0.57133680156E+03  0.10566000000E+00 0.  1.
          4    1    3    3  502    0 -0.60716603493E+03 -0.15231310499E+03 -0.23180013231E+03  0.66751867185E+03  0.00000000000E+00 0.  1.
         13    1    4    4    0    0  0.31457184395E+03 -0.24572626469E+03  0.53476726032E+03  0.66731767251E+03  0.10566000000E+00 0. -1.
         -4    1    4    4    0  501  0.27689963742E+03 -0.16548139133E+03 -0.35297156034E+03  0.47816986782E+03  0.00000000000E+00 0. -1.
<mgrwt>
<rscale>  2 0.11799444E+04</rscale>
<asrwt>0</asrwt>
<pdfrwt beam="1">  1        2 0.18670791E+00 0.11799444E+04</pdfrwt>
<pdfrwt beam="2">  1       -2 0.18011409E+00 0.11799444E+04</pdfrwt>
<totfact> 0.42091436E+00</totfact>
</mgrwt>
</event>
<event>
 8    1  0.1373409E-005  0.1080727E+04  0.7818608E-02  0.8702234E-01
          1   -1    0    0  502    0  0.00000000000E+00  0.00000000000E+00  0.15038577772E+04  0.15038577772E+04  0.00000000000E+00 0. -1.
         -1   -1    0    0    0  501 -0.00000000000E+00 -0.00000000000E+00 -0.88934098434E+03  0.88934098434E+03  0.00000000000E+00 0.  1.
    9000010    2    1    2  502    0 -0.65077902829E+02 -0.39196921232E+03  0.73425981553E+03  0.13101591958E+04  0.10097052267E+04 0.  0.
   -9000010    2    1    2    0  501  0.65077902829E+02  0.39196921232E+03 -0.11974302265E+03  0.10830395658E+04  0.10003805839E+04 0.  0.
        -13    1    3    3    0    0  0.47195328408E+03 -0.15285707906E+03  0.30641969451E+03  0.58309367113E+03  0.10566000000E+00 0.  1.
          4    1    3    3  502    0 -0.53703118691E+03 -0.23911213326E+03  0.42784012102E+03  0.72706552465E+03  0.00000000000E+00 0.  1.
         13    1    4    4    0    0  0.28945256948E+03  0.44756832017E+03 -0.43786448648E+03  0.68980106616E+03  0.10566000000E+00 0. -1.
         -4    1    4    4    0  501 -0.22437466665E+03 -0.55599107851E+02  0.31812146383E+03  0.39323849961E+03  0.00000000000E+00 0. -1.
<mgrwt>
<rscale>  2 0.10807268E+04</rscale>
<asrwt>0</asrwt>
<pdfrwt beam="1">  1        1 0.23136273E+00 0.10807268E+04</pdfrwt>
<pdfrwt beam="2">  1       -1 0.13682169E+00 0.10807268E+04</pdfrwt>
<totfact> 0.42177931E+00</totfact>
</mgrwt>
</event>
<event>
 8    1  0.1373409E-005  0.1226311E+04  0.7818608E-02  0.8587009E-01
         -2   -1    0    0    0  501 -0.00000000000E+00  0.00000000000E+00  0.54387619024E+03  0.54387619024E+03  0.00000000000E+00 0. -1.
          2   -1    0    0  502    0  0.00000000000E+00 -0.00000000000E+00 -0.29987963688E+04  0.29987963688E+04  0.00000000000E+00 0.  1.
    9000010    2    1    2  502    0  0.68005030179E+03 -0.22439112357E+03 -0.73409994204E+03  0.14303504274E+04  0.99708566888E+03 0.  0.
   -9000010    2    1    2    0  501 -0.68005030179E+03  0.22439112357E+03 -0.17208202366E+04  0.21123221316E+04  0.99391282915E+03 0.  0.
        -13    1    3    3    0    0  0.50199806808E+03 -0.13128069111E+03  0.13676906692E+03  0.53660271062E+03  0.10566000000E+00 0.  1.
          4    1    3    3  502    0  0.17805223371E+03 -0.93110432460E+02 -0.87086900895E+03  0.89374771682E+03  0.00000000000E+00 0.  1.
         13    1    4    4    0    0 -0.19959895080E+03 -0.26882253037E+03 -0.97057765525E+02  0.34860509894E+03  0.10566000000E+00 0. -1.
         -4    1    4    4    0  501 -0.48045135099E+03  0.49321365393E+03 -0.16237624710E+04  0.17637170327E+04  0.00000000000E+00 0. -1.
<mgrwt>
<rscale>  2 0.12263106E+04</rscale>
<asrwt>0</asrwt>
<pdfrwt beam="2">  1        2 0.46135329E+00 0.12263106E+04</pdfrwt>
<pdfrwt beam="1">  1       -2 0.83673259E-01 0.12263106E+04</pdfrwt>
<totfact> 0.34065139E+00</totfact>
</mgrwt>
</event>
<event>
 8    1  0.1373409E-005  0.1449114E+04  0.7818608E-02  0.8439400E-01
          2   -1    0    0  502    0  0.00000000000E+00  0.00000000000E+00  0.36172000424E+04  0.36172000424E+04  0.00000000000E+00 0.  1.
         -2   -1    0    0    0  501 -0.00000000000E+00 -0.00000000000E+00 -0.59383240075E+03  0.59383240075E+03  0.00000000000E+00 0. -1.
    9000010    2    1    2  502    0  0.10312920015E+04 -0.23181866057E+03  0.12007081191E+04  0.18849329391E+04  0.99697999678E+03 0.  0.
   -9000010    2    1    2    0  501 -0.10312920015E+04  0.23181866057E+03  0.18226595225E+04  0.23260995040E+04  0.98556992844E+03 0.  0.
        -13    1    3    3    0    0  0.21215755665E+02  0.10895743695E+02 -0.16629638563E+03  0.16799798974E+03  0.10566000000E+00 0.  1.
          4    1    3    3  502    0  0.10100762458E+04 -0.24271440427E+03  0.13670045048E+04  0.17169349494E+04  0.00000000000E+00 0.  1.
         13    1    4    4    0    0 -0.34976514786E+03  0.57453260789E+03  0.98941472184E+03  0.11963966228E+04  0.10566000000E+00 0. -1.
         -4    1    4    4    0  501 -0.68152685362E+03 -0.34271394731E+03  0.83324480070E+03  0.11297028812E+04  0.00000000000E+00 0. -1.
<mgrwt>
<rscale>  2 0.14491139E+04</rscale>
<asrwt>0</asrwt>
<pdfrwt beam="1">  1        2 0.55649230E+00 0.14491139E+04</pdfrwt>
<pdfrwt beam="2">  1       -2 0.91358833E-01 0.14491139E+04</pdfrwt>
<totfact> 0.10222476E+00</totfact>
</mgrwt>
</event>
<event>
 8    1  0.1373409E-005  0.1200127E+04  0.7818608E-02  0.8606466E-01
         -1   -1    0    0    0  501 -0.00000000000E+00  0.00000000000E+00  0.68840384811E+03  0.68840384811E+03  0.00000000000E+00 0.  1.
          1   -1    0    0  502    0  0.00000000000E+00 -0.00000000000E+00 -0.21395168003E+04  0.21395168003E+04  0.00000000000E+00 0. -1.
    9000010    2    1    2  502    0  0.41396246822E+02  0.66828579381E+03 -0.51373690941E+03  0.13028856473E+04  0.99260558445E+03 0.  0.
   -9000010    2    1    2    0  501 -0.41396246822E+02 -0.66828579381E+03 -0.93737604281E+03  0.15250350012E+04  0.99936897977E+03 0.  0.
        -13    1    3    3    0    0  0.53727629988E+02  0.81100184059E+03 -0.46417288941E+02  0.81410393657E+03  0.10566000000E+00 0.  1.
          4    1    3    3  502    0 -0.12331383166E+02 -0.14271604678E+03 -0.46731962047E+03  0.48878171068E+03  0.00000000000E+00 0.  1.
         13    1    4    4    0    0  0.27123920139E+03 -0.64632885097E+03 -0.20795435345E+03  0.73113385385E+03  0.10566000000E+00 0. -1.
         -4    1    4    4    0  501 -0.31263544822E+03 -0.21956942839E+02 -0.72942168936E+03  0.79390114733E+03  0.00000000000E+00 0. -1.
<mgrwt>
<rscale>  2 0.12001275E+04</rscale>
<asrwt>0</asrwt>
<pdfrwt beam="2">  1        1 0.32915643E+00 0.12001275E+04</pdfrwt>
<pdfrwt beam="1">  1       -1 0.10590829E+00 0.12001275E+04</pdfrwt>
<totfact> 0.26000718E+00</totfact>
</mgrwt>
</event>
<event>
 8    1  0.1373409E-005  0.1105328E+04  0.7818608E-02  0.8681480E-01
         -2   -1    0    0    0  501 -0.00000000000E+00  0.00000000000E+00  0.78470855064E+03  0.78470855064E+03  0.00000000000E+00 0. -1.
          2   -1    0    0  502    0  0.00000000000E+00 -0.00000000000E+00 -0.15664026543E+04  0.15664026543E+04  0.00000000000E+00 0.  1.
    9000010    2    1    2  502    0 -0.18010987618E+03 -0.46105974264E+03 -0.30030593053E+03  0.11474829610E+04  0.99071582202E+03 0.  0.
   -9000010    2    1    2    0  501  0.18010987618E+03  0.46105974264E+03 -0.48138817310E+03  0.12036282440E+04  0.98588575538E+03 0.  0.
        -13    1    3    3    0    0 -0.45197902719E+03 -0.24859373832E+03 -0.52477703123E+03  0.73584973427E+03  0.10566000000E+00 0.  1.
          4    1    3    3  502    0  0.27186915101E+03 -0.21246600432E+03  0.22447110070E+03  0.41163322669E+03  0.00000000000E+00 0.  1.
         13    1    4    4    0    0 -0.32018201555E+03 -0.42855048707E+02 -0.35922497797E+03  0.48311041620E+03  0.10566000000E+00 0. -1.
         -4    1    4    4    0  501  0.50029189173E+03  0.50391479134E+03 -0.12216319513E+03  0.72051782775E+03  0.00000000000E+00 0. -1.
<mgrwt>
<rscale>  2 0.11053283E+04</rscale>
<asrwt>0</asrwt>
<pdfrwt beam="2">  1        2 0.24098502E+00 0.11053283E+04</pdfrwt>
<pdfrwt beam="1">  1       -2 0.12072439E+00 0.11053283E+04</pdfrwt>
<totfact> 0.90529171E+00</totfact>
</mgrwt>
</event>
<event>
 8    1  0.1373409E-005  0.1647041E+04  0.7818608E-02  0.8329564E-01
          1   -1    0    0  502    0  0.00000000000E+00  0.00000000000E+00  0.79263370047E+03  0.79263370047E+03  0.00000000000E+00 0.  1.
         -1   -1    0    0    0  501 -0.00000000000E+00 -0.00000000000E+00 -0.35044219446E+04  0.35044219446E+04  0.00000000000E+00 0. -1.
    9000010    2    1    2  502    0  0.15704639493E+03 -0.13155407631E+04 -0.16759830178E+04  0.23426622843E+04  0.96116410284E+03 0.  0.
   -9000010    2    1    2    0  501 -0.15704639493E+03  0.13155407631E+04 -0.10358052264E+04  0.19543933608E+04  0.99571575881E+03 0.  0.
        -13    1    3    3    0    0 -0.73435180402E+02 -0.38039028460E+03 -0.12142732445E+04  0.12745779764E+04  0.10566000000E+00 0.  1.
          4    1    3    3  502    0  0.23048157533E+03 -0.93515047852E+03 -0.46170977330E+03  0.10680843079E+04  0.00000000000E+00 0.  1.
         13    1    4    4    0    0 -0.97190006449E+02  0.49522832384E+03  0.13605961940E+03  0.52269419481E+03  0.10566000000E+00 0. -1.
         -4    1    4    4    0  501 -0.59856388478E+02  0.82031243928E+03 -0.11718648458E+04  0.14316991660E+04  0.00000000000E+00 0. -1.
<mgrwt>
<rscale>  2 0.16470409E+04</rscale>
<asrwt>0</asrwt>
<pdfrwt beam="1">  1        1 0.12194365E+00 0.16470409E+04</pdfrwt>
<pdfrwt beam="2">  1       -1 0.53914183E+00 0.16470409E+04</pdfrwt>
<totfact> 0.19411643E-01</totfact>
</mgrwt>
</event>
<event>
 8    1  0.1373409E-005  0.1584224E+04  0.7818608E-02  0.8362612E-01
         -1   -1    0    0    0  501 -0.00000000000E+00  0.00000000000E+00  0.29745813941E+04  0.29745813941E+04  0.00000000000E+00 0.  1.
          1   -1    0    0  502    0  0.00000000000E+00 -0.00000000000E+00 -0.10449161468E+04  0.10449161468E+04  0.00000000000E+00 0. -1.
    9000010    2    1    2  502    0 -0.10446411620E+04  0.64682241899E+03  0.18444182968E+04  0.24284267471E+04  0.99283594489E+03 0.  0.
   -9000010    2    1    2    0  501  0.10446411620E+04 -0.64682241899E+03  0.85246950493E+02  0.15910707937E+04  0.10072660169E+04 0.  0.
        -13    1    3    3    0    0 -0.26191405109E+03  0.11303768050E+03  0.13099608973E+04  0.13406617959E+04  0.10566000000E+00 0.  1.
          4    1    3    3  502    0 -0.78272711096E+03  0.53378473849E+03  0.53445739954E+03  0.10877649513E+04  0.00000000000E+00 0.  1.
         13    1    4    4    0    0 -0.18579377369E+03 -0.14623811244E+01 -0.57131670778E+02  0.19438493735E+03  0.10566000000E+00 0. -1.
         -4    1    4    4    0  501  0.12304349357E+04 -0.64536003786E+03  0.14237862127E+03  0.13966858564E+04  0.00000000000E+00 0. -1.
<mgrwt>
<rscale>  2 0.15842244E+04</rscale>
<asrwt>0</asrwt>
<pdfrwt beam="2">  1        1 0.16075633E+00 0.15842244E+04</pdfrwt>
<pdfrwt beam="1">  1       -1 0.45762790E+00 0.15842244E+04</pdfrwt>
<totfact> 0.19513424E-01</totfact>
</mgrwt>
</event>
<event>
 8    1  0.1373409E-005  0.1144945E+04  0.7818608E-02  0.8649214E-01
          2   -1    0    0  502    0  0.00000000000E+00  0.00000000000E+00  0.21804621213E+04  0.21804621213E+04  0.00000000000E+00 0.  1.
         -2   -1    0    0    0  501 -0.00000000000E+00 -0.00000000000E+00 -0.62601977100E+03  0.62601977100E+03  0.00000000000E+00 0. -1.
    9000010    2    1    2  502    0  0.35405354345E+02 -0.55580543772E+03  0.50025480567E+03  0.12528250520E+04  0.10045608576E+04 0.  0.
   -9000010    2    1    2    0  501 -0.35405354345E+02  0.55580543772E+03  0.10541875446E+04  0.15536568402E+04  0.99617517251E+03 0.  0.
        -13    1    3    3    0    0  0.30728200394E+03 -0.14926400644E+03 -0.20213355247E+03  0.39693822915E+03  0.10566000000E+00 0.  1.
          4    1    3    3  502    0 -0.27187664960E+03 -0.40654143128E+03  0.70238835814E+03  0.85588682289E+03  0.00000000000E+00 0.  1.
         13    1    4    4    0    0 -0.25174521192E+03 -0.84594656087E+02  0.78041301045E+03  0.82436423115E+03  0.10566000000E+00 0. -1.
         -4    1    4    4    0  501  0.21633985757E+03  0.64040009381E+03  0.27377453416E+03  0.72929260909E+03  0.00000000000E+00 0. -1.
<mgrwt>
<rscale>  2 0.11449455E+04</rscale>
<asrwt>0</asrwt>
<pdfrwt beam="1">  1        2 0.33545571E+00 0.11449455E+04</pdfrwt>
<pdfrwt beam="2">  1       -2 0.96310735E-01 0.11449455E+04</pdfrwt>
<totfact> 0.73361798E+00</totfact>
</mgrwt>
</event>
<event>
 8    1  0.1373409E-005  0.1468106E+04  0.7818608E-02  0.8428095E-01
         -2   -1    0    0    0  501 -0.00000000000E+00  0.00000000000E+00  0.31519476456E+04  0.31519476456E+04  0.00000000000E+00 0. -1.
          2   -1    0    0  502    0  0.00000000000E+00 -0.00000000000E+00 -0.68674784342E+03  0.68674784342E+03  0.00000000000E+00 0.  1.
    9000010    2    1    2  502    0  0.33935381186E+03  0.98149754165E+03  0.13789888857E+04  0.20406781609E+04  0.10882364520E+04 0.  0.
   -9000010    2    1    2    0  501 -0.33935381186E+03 -0.98149754165E+03  0.10862109165E+04  0.17980173281E+04  0.98717461641E+03 0.  0.
        -13    1    3    3    0    0  0.34242467754E+03  0.10596670089E+04  0.15170992367E+04  0.18819508322E+04  0.10566000000E+00 0.  1.
          4    1    3    3  502    0 -0.30708656777E+01 -0.78169467244E+02 -0.13811035100E+03  0.15872732871E+03  0.00000000000E+00 0.  1.
         13    1    4    4    0    0 -0.11717632139E+03 -0.71749875267E+03  0.76548063655E+02  0.73102282289E+03  0.10566000000E+00 0. -1.
         -4    1    4    4    0  501 -0.22217749047E+03 -0.26399878898E+03  0.10096628528E+04  0.10669945052E+04  0.00000000000E+00 0. -1.
<mgrwt>
<rscale>  2 0.14681058E+04</rscale>
<asrwt>0</asrwt>
<pdfrwt beam="2">  1        2 0.10565352E+00 0.14681058E+04</pdfrwt>
<pdfrwt beam="1">  1       -2 0.48491501E+00 0.14681058E+04</pdfrwt>
<totfact> 0.16067981E-01</totfact>
</mgrwt>
</event>
<event>
 8    1  0.1373409E-005  0.1135505E+04  0.7818608E-02  0.8656779E-01
          1   -1    0    0  502    0  0.00000000000E+00  0.00000000000E+00  0.36490904294E+03  0.36490904294E+03  0.00000000000E+00 0. -1.
         -1   -1    0    0    0  501 -0.00000000000E+00 -0.00000000000E+00 -0.35445757089E+04  0.35445757089E+04  0.00000000000E+00 0.  1.
    9000010    2    1    2  502    0 -0.52073299372E+03 -0.96402877207E+02 -0.14854749115E+04  0.18720296817E+04  0.10086639932E+04 0.  0.
   -9000010    2    1    2    0  501  0.52073299372E+03  0.96402877207E+02 -0.16941917545E+04  0.20374550701E+04  0.10002405192E+04 0.  0.
        -13    1    3    3    0    0 -0.40919924660E+01 -0.10758939252E+03  0.13412096590E+03  0.17199030915E+03  0.10566000000E+00 0.  1.
          4    1    3    3  502    0 -0.51664100125E+03  0.11186515314E+02 -0.16195958774E+04  0.17000393726E+04  0.00000000000E+00 0.  1.
         13    1    4    4    0    0  0.75531266460E+03  0.30649290195E+03 -0.11701053894E+04  0.14260370801E+04  0.10566000000E+00 0. -1.
         -4    1    4    4    0  501 -0.23457967088E+03 -0.21009002474E+03 -0.52408636506E+03  0.61141799003E+03  0.00000000000E+00 0. -1.
<mgrwt>
<rscale>  2 0.11355046E+04</rscale>
<asrwt>0</asrwt>
<pdfrwt beam="1">  1        1 0.56139853E-01 0.11355046E+04</pdfrwt>
<pdfrwt beam="2">  1       -1 0.54531934E+00 0.11355046E+04</pdfrwt>
<totfact> 0.59416780E-01</totfact>
</mgrwt>
</event>
<event>
 8    1  0.1373409E-005  0.1263642E+04  0.7818608E-02  0.8560119E-01
         -2   -1    0    0    0  501 -0.00000000000E+00  0.00000000000E+00  0.99247752099E+03  0.99247752099E+03  0.00000000000E+00 0.  1.
          2   -1    0    0  502    0  0.00000000000E+00 -0.00000000000E+00 -0.16945179270E+04  0.16945179270E+04  0.00000000000E+00 0. -1.
    9000010    2    1    2  502    0  0.69282924490E+03 -0.34739372602E+03 -0.65176501892E+03  0.14177351105E+04  0.99220987711E+03 0.  0.
   -9000010    2    1    2    0  501 -0.69282924490E+03  0.34739372602E+03 -0.50275387053E+02  0.12692603374E+04  0.10038921387E+04 0.  0.
        -13    1    3    3    0    0  0.35253261160E+03  0.27233880282E+03 -0.54308399457E+03  0.70241576156E+03  0.10566000000E+00 0.  1.
          4    1    3    3  502    0  0.34029663331E+03 -0.61973252884E+03 -0.10868102435E+03  0.71531934896E+03  0.00000000000E+00 0.  1.
         13    1    4    4    0    0 -0.87553046516E+02  0.60255442284E+03 -0.64156623694E+02  0.61225276803E+03  0.10566000000E+00 0. -1.
         -4    1    4    4    0  501 -0.60527619839E+03 -0.25516069682E+03  0.13881236641E+02  0.65700756942E+03  0.00000000000E+00 0. -1.
<mgrwt>
<rscale>  2 0.12636424E+04</rscale>
<asrwt>0</asrwt>
<pdfrwt beam="2">  1        2 0.26069506E+00 0.12636424E+04</pdfrwt>
<pdfrwt beam="1">  1       -2 0.15268885E+00 0.12636424E+04</pdfrwt>
<totfact> 0.38756817E+00</totfact>
</mgrwt>
</event>
<event>
 8    1  0.1373409E-005  0.1650457E+04  0.7818608E-02  0.8327810E-01
          4   -1    0    0  502    0  0.00000000000E+00  0.00000000000E+00  0.13063911726E+04  0.13063911726E+04  0.00000000000E+00 0.  1.
         -4   -1    0    0    0  501 -0.00000000000E+00 -0.00000000000E+00 -0.31054212821E+04  0.31054212821E+04  0.00000000000E+00 0. -1.
    9000010    2    1    2  502    0 -0.21154869722E+03 -0.13233957352E+04  0.35919122736E+03  0.17039953739E+04  0.98916771745E+03 0.  0.
   -9000010    2    1    2    0  501  0.21154869722E+03  0.13233957352E+04 -0.21582213368E+04  0.27078170808E+04  0.93713653266E+03 0.  0.
        -13    1    3    3    0    0 -0.58109299592E+03 -0.99368382965E+03  0.36847971917E+03  0.12086579077E+04  0.10566000000E+00 0.  1.
          4    1    3    3  502    0  0.36954429870E+03 -0.32971190556E+03 -0.92884918116E+01  0.49533746622E+03  0.00000000000E+00 0.  1.
         13    1    4    4    0    0 -0.19428698839E+03  0.72995413379E+02 -0.76343866750E+03  0.79114750486E+03  0.10566000000E+00 0. -1.
         -4    1    4    4    0  501  0.40583568562E+03  0.12504003218E+04 -0.13947826693E+04  0.19166695759E+04  0.00000000000E+00 0. -1.
<mgrwt>
<rscale>  2 0.16504566E+04</rscale>
<asrwt>0</asrwt>
<pdfrwt beam="1">  1        4 0.20098326E+00 0.16504566E+04</pdfrwt>
<pdfrwt beam="2">  1       -4 0.47775712E+00 0.16504566E+04</pdfrwt>
<totfact> 0.20183842E-02</totfact>
</mgrwt>
</event>
<event>
 8    1  0.1373409E-005  0.1503810E+04  0.7818608E-02  0.8407310E-01
         -2   -1    0    0    0  501 -0.00000000000E+00  0.00000000000E+00  0.18075219631E+04  0.18075219631E+04  0.00000000000E+00 0.  1.
          2   -1    0    0  502    0  0.00000000000E+00 -0.00000000000E+00 -0.12514234474E+04  0.12514234474E+04  0.00000000000E+00 0. -1.
    9000010    2    1    2  502    0 -0.84707777469E+03  0.74314302494E+03  0.30155630113E+03  0.15413450233E+04  0.10074750450E+04 0.  0.
   -9000010    2    1    2    0  501  0.84707777469E+03 -0.74314302494E+03  0.25454221460E+03  0.15176003872E+04  0.98413255423E+03 0.  0.
        -13    1    3    3    0    0 -0.89305790357E+03  0.84862737858E+03  0.14455880526E+02  0.12320429499E+04  0.10566000000E+00 0.  1.
          4    1    3    3  502    0  0.45980128878E+02 -0.10548435364E+03  0.28710042060E+03  0.30930207342E+03  0.00000000000E+00 0.  1.
         13    1    4    4    0    0 -0.63112361600E+02 -0.43369959695E+03  0.33680236580E+03  0.55273353015E+03  0.10566000000E+00 0. -1.
         -4    1    4    4    0  501  0.91019013629E+03 -0.30944342799E+03 -0.82260151203E+02  0.96486685703E+03  0.00000000000E+00 0. -1.
<mgrwt>
<rscale>  2 0.15038099E+04</rscale>
<asrwt>0</asrwt>
<pdfrwt beam="2">  1        2 0.19252668E+00 0.15038099E+04</pdfrwt>
<pdfrwt beam="1">  1       -2 0.27808030E+00 0.15038099E+04</pdfrwt>
<totfact> 0.64026389E-01</totfact>
</mgrwt>
</event>
<event>
 8    1  0.1373409E-005  0.1167026E+04  0.7818608E-02  0.8631815E-01
          2   -1    0    0  502    0  0.00000000000E+00  0.00000000000E+00  0.19956528011E+04  0.19956528011E+04  0.00000000000E+00 0.  1.
         -2   -1    0    0    0  501 -0.00000000000E+00 -0.00000000000E+00 -0.10068781319E+04  0.10068781319E+04  0.00000000000E+00 0. -1.
    9000010    2    1    2  502    0  0.57050993073E+03  0.16079470768E+03  0.13475932269E+04  0.17850920224E+04  0.10095590642E+04 0.  0.
   -9000010    2    1    2    0  501 -0.57050993073E+03 -0.16079470768E+03 -0.35881855774E+03  0.12174389106E+04  0.10010345771E+04 0.  0.
        -13    1    3    3    0    0 -0.27042463589E+03  0.17545423716E+03  0.28799136463E+03  0.43226462994E+03  0.10566000000E+00 0.  1.
          4    1    3    3  502    0  0.84093456662E+03 -0.14659529484E+02  0.10596018623E+04  0.13528273924E+04  0.00000000000E+00 0.  1.
         13    1    4    4    0    0 -0.37462040452E+03  0.97243140644E+02 -0.66644819873E+03  0.77068144433E+03  0.10566000000E+00 0. -1.
         -4    1    4    4    0  501 -0.19588952622E+03 -0.25803784832E+03  0.30762964099E+03  0.44675746627E+03  0.00000000000E+00 0. -1.
<mgrwt>
<rscale>  2 0.11670259E+04</rscale>
<asrwt>0</asrwt>
<pdfrwt beam="1">  1        2 0.30702351E+00 0.11670259E+04</pdfrwt>
<pdfrwt beam="2">  1       -2 0.15490433E+00 0.11670259E+04</pdfrwt>
<totfact> 0.25679480E+00</totfact>
</mgrwt>
</event>
<event>
 8    1  0.1373409E-005  0.1319011E+04  0.7818608E-02  0.8521957E-01
          4   -1    0    0  502    0  0.00000000000E+00  0.00000000000E+00  0.13334109002E+04  0.13334109002E+04  0.00000000000E+00 0.  1.
         -4   -1    0    0    0  501 -0.00000000000E+00 -0.00000000000E+00 -0.20605226720E+04  0.20605226720E+04  0.00000000000E+00 0. -1.
    9000010    2    1    2  502    0 -0.43460862926E+03 -0.74103412208E+03  0.66361755857E+03  0.14793178585E+04  0.10049760355E+04 0.  0.
   -9000010    2    1    2    0  501  0.43460862926E+03  0.74103412208E+03 -0.13907293304E+04  0.19146157136E+04  0.99679939297E+03 0.  0.
        -13    1    3    3    0    0  0.86151145870E+02  0.14994214407E+03  0.36673367961E+03  0.40546056458E+03  0.10566000000E+00 0.  1.
          4    1    3    3  502    0 -0.52075977513E+03 -0.89097626615E+03  0.29688387896E+03  0.10738572940E+04  0.00000000000E+00 0.  1.
         13    1    4    4    0    0  0.70881140800E+03  0.25102460594E+03 -0.73802406669E+03  0.10536159163E+04  0.10566000000E+00 0. -1.
         -4    1    4    4    0  501 -0.27420277874E+03  0.49000951613E+03 -0.65270526369E+03  0.86099979734E+03  0.00000000000E+00 0. -1.
<mgrwt>
<rscale>  2 0.13190110E+04</rscale>
<asrwt>0</asrwt>
<pdfrwt beam="1">  1        4 0.20514014E+00 0.13190110E+04</pdfrwt>
<pdfrwt beam="2">  1       -4 0.31700349E+00 0.13190110E+04</pdfrwt>
<totfact> 0.87335776E-02</totfact>
</mgrwt>
</event>
<event>
 8    1  0.1373409E-005  0.1101488E+04  0.7818608E-02  0.8684682E-01
         -2   -1    0    0    0  501 -0.00000000000E+00  0.00000000000E+00  0.54209547261E+03  0.54209547261E+03  0.00000000000E+00 0. -1.
          2   -1    0    0  502    0  0.00000000000E+00 -0.00000000000E+00 -0.24456928377E+04  0.24456928377E+04  0.00000000000E+00 0.  1.
    9000010    2    1    2  502    0  0.52426172092E+03  0.11878368878E+02 -0.13966034841E+04  0.17865409250E+04  0.98297290773E+03 0.  0.
   -9000010    2    1    2    0  501 -0.52426172092E+03 -0.11878368878E+02 -0.50699388097E+03  0.12012473853E+04  0.95444278904E+03 0.  0.
        -13    1    3    3    0    0 -0.11644225672E+03  0.81183178622E+02  0.88751172327E+02  0.16741054147E+03  0.10566000000E+00 0.  1.
          4    1    3    3  502    0  0.64070397764E+03 -0.69304809744E+02 -0.14853546564E+04  0.16191303836E+04  0.00000000000E+00 0.  1.
         13    1    4    4    0    0  0.27642328152E+03  0.46972861952E+02 -0.18676682902E+03  0.33689484994E+03  0.10566000000E+00 0. -1.
         -4    1    4    4    0  501 -0.80068500244E+03 -0.58851230830E+02 -0.32022705195E+03  0.86435253531E+03  0.00000000000E+00 0. -1.
<mgrwt>
<rscale>  2 0.11014877E+04</rscale>
<asrwt>0</asrwt>
<pdfrwt beam="2">  1        2 0.37626044E+00 0.11014877E+04</pdfrwt>
<pdfrwt beam="1">  1       -2 0.83399303E-01 0.11014877E+04</pdfrwt>
<totfact> 0.73461885E+00</totfact>
</mgrwt>
</event>
<event>
 8    1  0.1373409E-005  0.1786001E+04  0.7818608E-02  0.8261567E-01
          1   -1    0    0  502    0  0.00000000000E+00  0.00000000000E+00  0.19853626968E+04  0.19853626968E+04  0.00000000000E+00 0. -1.
         -1   -1    0    0    0  501 -0.00000000000E+00 -0.00000000000E+00 -0.16878725041E+04  0.16878725041E+04  0.00000000000E+00 0.  1.
    9000010    2    1    2  502    0 -0.55866641076E+03 -0.13759046690E+04 -0.25449046906E+03  0.17990634527E+04  0.98317958239E+03 0.  0.
   -9000010    2    1    2    0  501  0.55866641076E+03  0.13759046690E+04  0.55198066171E+03  0.18741717482E+04  0.10013067831E+04 0.  0.
        -13    1    3    3    0    0 -0.21709843722E+03 -0.12330089048E+04 -0.50717492403E+03  0.13508031335E+04  0.10566000000E+00 0.  1.
          4    1    3    3  502    0 -0.34156797354E+03 -0.14289576424E+03  0.25268445497E+03  0.44826031920E+03  0.00000000000E+00 0.  1.
         13    1    4    4    0    0  0.33313390662E+03  0.14670407652E+04  0.32001695792E+03  0.15380499573E+04  0.10566000000E+00 0. -1.
         -4    1    4    4    0  501  0.22553250415E+03 -0.91136096155E+02  0.23196370379E+03  0.33612179091E+03  0.00000000000E+00 0. -1.
<mgrwt>
<rscale>  2 0.17860011E+04</rscale>
<asrwt>0</asrwt>
<pdfrwt beam="1">  1        1 0.30544042E+00 0.17860011E+04</pdfrwt>
<pdfrwt beam="2">  1       -1 0.25967269E+00 0.17860011E+04</pdfrwt>
<totfact> 0.12932206E-01</totfact>
</mgrwt>
</event>
<event>
 8    1  0.1373409E-005  0.1221089E+04  0.7818608E-02  0.8590849E-01
         -2   -1    0    0    0  501 -0.00000000000E+00  0.00000000000E+00  0.22720032630E+04  0.22720032630E+04  0.00000000000E+00 0.  1.
          2   -1    0    0  502    0  0.00000000000E+00 -0.00000000000E+00 -0.67740349656E+03  0.67740349656E+03  0.00000000000E+00 0. -1.
    9000010    2    1    2  502    0 -0.70722923991E+03  0.81360611082E+02  0.10681081378E+04  0.16358373349E+04  0.10140591923E+04 0.  0.
   -9000010    2    1    2    0  501  0.70722923991E+03 -0.81360611082E+02  0.52649162859E+03  0.13135694246E+04  0.97029812505E+03 0.  0.
        -13    1    3    3    0    0 -0.63431693376E+03  0.21752227283E+03  0.12744812360E+03  0.68258109189E+03  0.10566000000E+00 0.  1.
          4    1    3    3  502    0 -0.72912306151E+02 -0.13616166175E+03  0.94066001420E+03  0.95325624301E+03  0.00000000000E+00 0.  1.
         13    1    4    4    0    0  0.48360840538E+03  0.42586171125E+03  0.22488947724E+03  0.68250316849E+03  0.10566000000E+00 0. -1.
         -4    1    4    4    0  501  0.22362083453E+03 -0.50722232234E+03  0.30160215135E+03  0.63106625612E+03  0.00000000000E+00 0. -1.
<mgrwt>
<rscale>  2 0.12210888E+04</rscale>
<asrwt>0</asrwt>
<pdfrwt beam="2">  1        2 0.10421592E+00 0.12210888E+04</pdfrwt>
<pdfrwt beam="1">  1       -2 0.34953896E+00 0.12210888E+04</pdfrwt>
<totfact> 0.50284089E-01</totfact>
</mgrwt>
</event>
<event>
 8    1  0.1373409E-005  0.1264076E+04  0.7818608E-02  0.8559813E-01
          2   -1    0    0  502    0  0.00000000000E+00  0.00000000000E+00  0.12437140729E+04  0.12437140729E+04  0.00000000000E+00 0. -1.
         -2   -1    0    0    0  501 -0.00000000000E+00 -0.00000000000E+00 -0.12989451625E+04  0.12989451625E+04  0.00000000000E+00 0.  1.
    9000010    2    1    2  502    0 -0.13202610347E+03 -0.75123307565E+03  0.10509322944E+03  0.12598870995E+04  0.99724063834E+03 0.  0.
   -9000010    2    1    2    0  501  0.13202610347E+03  0.75123307565E+03 -0.16032431901E+03  0.12827721359E+04  0.10188318995E+04 0.  0.
        -13    1    3    3    0    0 -0.44768878489E+03 -0.63197581561E+03  0.34297814569E+03  0.84702579608E+03  0.10566000000E+00 0.  1.
          4    1    3    3  502    0  0.31566268142E+03 -0.11925726004E+03 -0.23788491625E+03  0.41286130346E+03  0.00000000000E+00 0.  1.
         13    1    4    4    0    0  0.32522754520E+03 -0.12997424566E+03 -0.14886436153E+03  0.38056125655E+03  0.10566000000E+00 0. -1.
         -4    1    4    4    0  501 -0.19320144172E+03  0.88120732131E+03 -0.11459957480E+02  0.90221087937E+03  0.00000000000E+00 0. -1.
<mgrwt>
<rscale>  2 0.12640757E+04</rscale>
<asrwt>0</asrwt>
<pdfrwt beam="1">  1        2 0.19134063E+00 0.12640757E+04</pdfrwt>
<pdfrwt beam="2">  1       -2 0.19983772E+00 0.12640757E+04</pdfrwt>
<totfact> 0.27503147E+00</totfact>
</mgrwt>
</event>
<event>
 8    1  0.1373409E-005  0.1244166E+04  0.7818608E-02  0.8574027E-01
         -1   -1    0    0    0  501 -0.00000000000E+00  0.00000000000E+00  0.19584537933E+04  0.19584537933E+04  0.00000000000E+00 0. -1.
          1   -1    0    0  502    0  0.00000000000E+00 -0.00000000000E+00 -0.79661407573E+03  0.79661407573E+03  0.00000000000E+00 0.  1.
    9000010    2    1    2  502    0  0.72832163346E+03  0.75324232091E+02  0.45778106727E+03  0.13227709712E+04  0.10020146681E+04 0.  0.
   -9000010    2    1    2    0  501 -0.72832163346E+03 -0.75324232091E+02  0.70405865027E+03  0.14322968978E+04  0.10097770440E+04 0.  0.
        -13    1    3    3    0    0  0.16614902933E+03 -0.44070009593E+03  0.24326516571E+03  0.53009435624E+03  0.10566000000E+00 0.  1.
          4    1    3    3  502    0  0.56217260413E+03  0.51602432802E+03  0.21451590155E+03  0.79267661500E+03  0.00000000000E+00 0.  1.
         13    1    4    4    0    0 -0.72242869711E+03 -0.28884860462E+03  0.86605454593E+03  0.11642109888E+04  0.10566000000E+00 0. -1.
         -4    1    4    4    0  501 -0.58929363536E+01  0.21352437253E+03 -0.16199589566E+03  0.26808590894E+03  0.00000000000E+00 0. -1.
<mgrwt>
<rscale>  2 0.12441656E+04</rscale>
<asrwt>0</asrwt>
<pdfrwt beam="2">  1        1 0.12255601E+00 0.12441656E+04</pdfrwt>
<pdfrwt beam="1">  1       -1 0.30130058E+00 0.12441656E+04</pdfrwt>
<totfact> 0.46845776E-01</totfact>
</mgrwt>
</event>
<event>
 8    1  0.1373409E-005  0.1412885E+04  0.7818608E-02  0.8461467E-01
         -1   -1    0    0    0  501 -0.00000000000E+00  0.00000000000E+00  0.15290082180E+04  0.15290082180E+04  0.00000000000E+00 0.  1.
          1   -1    0    0  502    0  0.00000000000E+00 -0.00000000000E+00 -0.16799624792E+04  0.16799624792E+04  0.00000000000E+00 0. -1.
    9000010    2    1    2  502    0  0.46519399644E+03 -0.87763342837E+03  0.68201809867E+03  0.15674393375E+04  0.10025325436E+04 0.  0.
   -9000010    2    1    2    0  501 -0.46519399644E+03  0.87763342837E+03 -0.83297235986E+03  0.16415313597E+04  0.10070433772E+04 0.  0.
        -13    1    3    3    0    0  0.16488349501E+03 -0.94022845260E+03  0.79322726967E+03  0.12411388410E+04  0.10566000000E+00 0.  1.
          4    1    3    3  502    0  0.30031050143E+03  0.62595024230E+02 -0.11120917100E+03  0.32630049654E+03  0.00000000000E+00 0.  1.
         13    1    4    4    0    0 -0.34224272773E+03  0.95343083739E+03 -0.99813351505E+03  0.14221219960E+04  0.10566000000E+00 0. -1.
         -4    1    4    4    0  501 -0.12295126871E+03 -0.75797409016E+02  0.16516115519E+03  0.21940936369E+03  0.00000000000E+00 0. -1.
<mgrwt>
<rscale>  2 0.14128852E+04</rscale>
<asrwt>0</asrwt>
<pdfrwt beam="2">  1        1 0.25845577E+00 0.14128852E+04</pdfrwt>
<pdfrwt beam="1">  1       -1 0.23523203E+00 0.14128852E+04</pdfrwt>
<totfact> 0.39703671E-01</totfact>
</mgrwt>
</event>
<event>
 8    1  0.1373409E-005  0.1068193E+04  0.7818608E-02  0.8713030E-01
          2   -1    0    0  502    0  0.00000000000E+00  0.00000000000E+00  0.14803748466E+04  0.14803748466E+04  0.00000000000E+00 0.  1.
         -2   -1    0    0    0  501 -0.00000000000E+00 -0.00000000000E+00 -0.77424398584E+03  0.77424398584E+03  0.00000000000E+00 0. -1.
    9000010    2    1    2  502    0  0.30190156971E+03  0.20092084818E+03  0.27702071180E+03  0.11017022599E+04  0.10027430627E+04 0.  0.
   -9000010    2    1    2    0  501 -0.30190156971E+03 -0.20092084818E+03  0.42911014897E+03  0.11529165725E+04  0.10067608247E+04 0.  0.
        -13    1    3    3    0    0  0.25435127281E+02  0.44124075910E+03  0.50433189869E+03  0.67059005987E+03  0.10566000000E+00 0.  1.
          4    1    3    3  502    0  0.27646644243E+03 -0.24031991092E+03 -0.22731118689E+03  0.43111220008E+03  0.00000000000E+00 0.  1.
         13    1    4    4    0    0 -0.11103139913E+03  0.38570573306E+03 -0.14721009286E+00  0.40136880415E+03  0.10566000000E+00 0. -1.
         -4    1    4    4    0  501 -0.19087017058E+03 -0.58662658123E+03  0.42925735906E+03  0.75154776837E+03  0.00000000000E+00 0. -1.
<mgrwt>
<rscale>  2 0.10681934E+04</rscale>
<asrwt>0</asrwt>
<pdfrwt beam="1">  1        2 0.22774998E+00 0.10681934E+04</pdfrwt>
<pdfrwt beam="2">  1       -2 0.11911446E+00 0.10681934E+04</pdfrwt>
<totfact> 0.10489700E+01</totfact>
</mgrwt>
</event>
<event>
 8    1  0.1373409E-005  0.1180509E+04  0.7818608E-02  0.8621386E-01
         -4   -1    0    0    0  501 -0.00000000000E+00  0.00000000000E+00  0.81939584025E+03  0.81939584025E+03  0.00000000000E+00 0. -1.
          4   -1    0    0  502    0  0.00000000000E+00 -0.00000000000E+00 -0.20015429970E+04  0.20015429970E+04  0.00000000000E+00 0.  1.
    9000010    2    1    2  502    0 -0.63072035993E+03 -0.59052573116E+02 -0.48175839566E+02  0.11903779020E+04  0.10066693892E+04 0.  0.
   -9000010    2    1    2    0  501  0.63072035993E+03  0.59052573116E+02 -0.11339713172E+04  0.16305609353E+04  0.98566862416E+03 0.  0.
        -13    1    3    3    0    0 -0.36997271456E+03 -0.53100004593E+03 -0.68588890184E+02  0.65080358428E+03  0.10566000000E+00 0.  1.
          4    1    3    3  502    0 -0.26074764537E+03  0.47194747281E+03  0.20413050617E+02  0.53957431768E+03  0.00000000000E+00 0.  1.
         13    1    4    4    0    0  0.32540297108E+03  0.52318135751E+03 -0.59990506081E+03  0.85993716026E+03  0.10566000000E+00 0. -1.
         -4    1    4    4    0  501  0.30531738885E+03 -0.46412878440E+03 -0.53406625634E+03  0.77062377500E+03  0.00000000000E+00 0. -1.
<mgrwt>
<rscale>  2 0.11805089E+04</rscale>
<asrwt>0</asrwt>
<pdfrwt beam="2">  1        4 0.30792968E+00 0.11805089E+04</pdfrwt>
<pdfrwt beam="1">  1       -4 0.12606090E+00 0.11805089E+04</pdfrwt>
<totfact> 0.18840650E-01</totfact>
</mgrwt>
</event>
<event>
 8    1  0.1373409E-005  0.1954889E+04  0.7818608E-02  0.8187010E-01
         -2   -1    0    0    0  501 -0.00000000000E+00  0.00000000000E+00  0.18440898226E+04  0.18440898226E+04  0.00000000000E+00 0.  1.
          2   -1    0    0  502    0  0.00000000000E+00 -0.00000000000E+00 -0.22111910349E+04  0.22111910349E+04  0.00000000000E+00 0. -1.
    9000010    2    1    2  502    0 -0.12057417735E+04 -0.11859062588E+04  0.32543363968E+03  0.19702281511E+04  0.95692477990E+03 0.  0.
   -9000010    2    1    2    0  501  0.12057417735E+04  0.11859062588E+04 -0.69253485200E+03  0.20850527065E+04  0.10038194003E+04 0.  0.
        -13    1    3    3    0    0 -0.10273290239E+04 -0.10897280274E+04 -0.97944130838E+02  0.15008348214E+04  0.10566000000E+00 0.  1.
          4    1    3    3  502    0 -0.17841274959E+03 -0.96178231420E+02  0.42337777052E+03  0.46939332972E+03  0.00000000000E+00 0.  1.
         13    1    4    4    0    0  0.78684092059E+03  0.11419039956E+03 -0.13515599714E+03  0.80648945213E+03  0.10566000000E+00 0. -1.
         -4    1    4    4    0  501  0.41890085293E+03  0.10717158592E+04 -0.55737885486E+03  0.12785632543E+04  0.00000000000E+00 0. -1.
<mgrwt>
<rscale>  2 0.19548886E+04</rscale>
<asrwt>0</asrwt>
<pdfrwt beam="2">  1        2 0.34018323E+00 0.19548886E+04</pdfrwt>
<pdfrwt beam="1">  1       -2 0.28370613E+00 0.19548886E+04</pdfrwt>
<totfact> 0.16471832E-01</totfact>
</mgrwt>
</event>
<event>
 8    1  0.1373409E-005  0.1057165E+04  0.7818608E-02  0.8722658E-01
          1   -1    0    0  502    0  0.00000000000E+00  0.00000000000E+00  0.22128436030E+04  0.22128436030E+04  0.00000000000E+00 0. -1.
         -1   -1    0    0    0  501 -0.00000000000E+00 -0.00000000000E+00 -0.50607774637E+03  0.50607774637E+03  0.00000000000E+00 0.  1.
    9000010    2    1    2  502    0 -0.27999003549E+03 -0.16914171808E+03  0.78426135864E+03  0.13064524692E+04  0.99234511886E+03 0.  0.
   -9000010    2    1    2    0  501  0.27999003549E+03  0.16914171808E+03  0.92250449796E+03  0.14124688801E+04  0.10183567389E+04 0.  0.
        -13    1    3    3    0    0 -0.34219952334E+03 -0.16504010898E+03  0.10064042490E+04  0.10757268588E+04  0.10566000000E+00 0.  1.
          4    1    3    3  502    0  0.62209487842E+02 -0.41016091015E+01 -0.22214289031E+03  0.23072561039E+03  0.00000000000E+00 0.  1.
         13    1    4    4    0    0  0.66039954981E+03  0.22270863348E+02  0.60067422448E+03  0.89299109282E+03  0.10566000000E+00 0. -1.
         -4    1    4    4    0  501 -0.38040951432E+03  0.14687085473E+03  0.32183027348E+03  0.51947778728E+03  0.00000000000E+00 0. -1.
<mgrwt>
<rscale>  2 0.10571646E+04</rscale>
<asrwt>0</asrwt>
<pdfrwt beam="1">  1        1 0.34043747E+00 0.10571646E+04</pdfrwt>
<pdfrwt beam="2">  1       -1 0.77858116E-01 0.10571646E+04</pdfrwt>
<totfact> 0.43716397E+00</totfact>
</mgrwt>
</event>
<event>
 8    1  0.1373409E-005  0.1574384E+04  0.7818608E-02  0.8367932E-01
         -2   -1    0    0    0  501 -0.00000000000E+00  0.00000000000E+00  0.11310562659E+04  0.11310562659E+04  0.00000000000E+00 0.  1.
          2   -1    0    0  502    0  0.00000000000E+00 -0.00000000000E+00 -0.22724486477E+04  0.22724486477E+04  0.00000000000E+00 0. -1.
    9000010    2    1    2  502    0  0.11348275647E+04  0.43055637385E+03 -0.89132562581E+03  0.18077028542E+04  0.10000579209E+04 0.  0.
   -9000010    2    1    2    0  501 -0.11348275647E+04 -0.43055637385E+03 -0.25006675603E+03  0.15958020595E+04  0.10054046140E+04 0.  0.
        -13    1    3    3    0    0 -0.10547685482E+03  0.26085874172E+03 -0.33584299549E+03  0.43813602776E+03  0.10566000000E+00 0.  1.
          4    1    3    3  502    0  0.12403044195E+04  0.16969763213E+03 -0.55548263032E+03  0.13695668264E+04  0.00000000000E+00 0.  1.
         13    1    4    4    0    0 -0.32273084377E+03  0.53425873942E+02 -0.51848675416E+03  0.61305631628E+03  0.10566000000E+00 0. -1.
         -4    1    4    4    0  501 -0.81209672095E+03 -0.48398224779E+03  0.26841999814E+03  0.98274574319E+03  0.00000000000E+00 0. -1.
<mgrwt>
<rscale>  2 0.15743836E+04</rscale>
<asrwt>0</asrwt>
<pdfrwt beam="2">  1        2 0.34960748E+00 0.15743836E+04</pdfrwt>
<pdfrwt beam="1">  1       -2 0.17400866E+00 0.15743836E+04</pdfrwt>
<totfact> 0.11877510E+00</totfact>
</mgrwt>
</event>
<event>
 8    1  0.1373409E-005  0.1192618E+04  0.7818608E-02  0.8612142E-01
         -2   -1    0    0    0  501 -0.00000000000E+00  0.00000000000E+00  0.61003159381E+03  0.61003159381E+03  0.00000000000E+00 0.  1.
          2   -1    0    0  502    0  0.00000000000E+00 -0.00000000000E+00 -0.32466485778E+04  0.32466485778E+04  0.00000000000E+00 0. -1.
    9000010    2    1    2  502    0  0.36020493095E+03  0.47914217740E+03 -0.32143434437E+03  0.12668091133E+04  0.10687190807E+04 0.  0.
   -9000010    2    1    2    0  501 -0.36020493095E+03 -0.47914217740E+03 -0.23151826397E+04  0.25898710583E+04  0.99400031451E+03 0.  0.
        -13    1    3    3    0    0  0.40706236053E+03  0.29986644229E+03 -0.68934048837E+03  0.85487424142E+03  0.10566000000E+00 0.  1.
          4    1    3    3  502    0 -0.46857429574E+02  0.17927573510E+03  0.36790614400E+03  0.41193487191E+03  0.00000000000E+00 0.  1.
         13    1    4    4    0    0 -0.58398648765E+03 -0.62296150881E+03 -0.14295709690E+04  0.16651709899E+04  0.10566000000E+00 0. -1.
         -4    1    4    4    0  501  0.22378155669E+03  0.14381933141E+03 -0.88561167067E+03  0.92470006837E+03  0.00000000000E+00 0. -1.
<mgrwt>
<rscale>  2 0.11926178E+04</rscale>
<asrwt>0</asrwt>
<pdfrwt beam="2">  1        2 0.49948440E+00 0.11926178E+04</pdfrwt>
<pdfrwt beam="1">  1       -2 0.93851015E-01 0.11926178E+04</pdfrwt>
<totfact> 0.18308903E+00</totfact>
</mgrwt>
</event>
<event>
 8    1  0.1373409E-005  0.1485595E+04  0.7818608E-02  0.8417838E-01
          1   -1    0    0  502    0  0.00000000000E+00  0.00000000000E+00  0.18569562137E+04  0.18569562137E+04  0.00000000000E+00 0.  1.
         -1   -1    0    0    0  501 -0.00000000000E+00 -0.00000000000E+00 -0.12246426484E+04  0.12246426484E+04  0.00000000000E+00 0. -1.
    9000010    2    1    2  502    0  0.10887183415E+04 -0.39782869680E+03  0.46300757790E+02  0.14420573234E+04  0.85662726116E+03 0.  0.
   -9000010    2    1    2    0  501 -0.10887183415E+04  0.39782869680E+03  0.58601280755E+03  0.16395415387E+04  0.10005549197E+04 0.  0.
        -13    1    3    3    0    0  0.51429650607E+03  0.16856571954E+02 -0.35752212965E+03  0.62658369315E+03  0.10566000000E+00 0.  1.
          4    1    3    3  502    0  0.57442183548E+03 -0.41468526875E+03  0.40382288744E+03  0.81547363024E+03  0.00000000000E+00 0.  1.
         13    1    4    4    0    0 -0.37920132841E+03  0.62256390568E+03  0.66676944284E+02  0.73200088127E+03  0.10566000000E+00 0. -1.
         -4    1    4    4    0  501 -0.70951701313E+03 -0.22473520888E+03  0.51933586327E+03  0.90754065744E+03  0.00000000000E+00 0. -1.
<mgrwt>
<rscale>  2 0.14855950E+04</rscale>
<asrwt>0</asrwt>
<pdfrwt beam="1">  1        1 0.28568557E+00 0.14855950E+04</pdfrwt>
<pdfrwt beam="2">  1       -1 0.18840656E+00 0.14855950E+04</pdfrwt>
<totfact> 0.77724325E-01</totfact>
</mgrwt>
</event>
<event>
 8    1  0.1373409E-005  0.1349811E+04  0.7818608E-02  0.8501555E-01
         -2   -1    0    0    0  501 -0.00000000000E+00  0.00000000000E+00  0.12949835739E+04  0.12949835739E+04  0.00000000000E+00 0. -1.
          2   -1    0    0  502    0  0.00000000000E+00 -0.00000000000E+00 -0.14132890882E+04  0.14132890882E+04  0.00000000000E+00 0.  1.
    9000010    2    1    2  502    0 -0.69618579610E+03  0.57433159739E+03  0.31549597378E+02  0.13457572532E+04  0.99776538373E+03 0.  0.
   -9000010    2    1    2    0  501  0.69618579610E+03 -0.57433159739E+03 -0.14985511167E+03  0.13625154090E+04  0.10096832368E+04 0.  0.
        -13    1    3    3    0    0 -0.84674394092E+03  0.20478885350E+03 -0.18669679719E+03  0.89093741713E+03  0.10566000000E+00 0.  1.
          4    1    3    3  502    0  0.15055814481E+03  0.36954274389E+03  0.21824639457E+03  0.45481983606E+03  0.00000000000E+00 0.  1.
         13    1    4    4    0    0  0.29165769615E+03 -0.38052027646E+03  0.41993945802E+03  0.63734531620E+03  0.10566000000E+00 0. -1.
         -4    1    4    4    0  501  0.40452809996E+03 -0.19381132092E+03 -0.56979456969E+03  0.72517009275E+03  0.00000000000E+00 0. -1.
<mgrwt>
<rscale>  2 0.13498112E+04</rscale>
<asrwt>0</asrwt>
<pdfrwt beam="2">  1        2 0.21742909E+00 0.13498112E+04</pdfrwt>
<pdfrwt beam="1">  1       -2 0.19922824E+00 0.13498112E+04</pdfrwt>
<totfact> 0.22168322E+00</totfact>
</mgrwt>
</event>
<event>
 8    1  0.1373409E-005  0.1287857E+04  0.7818608E-02  0.8543186E-01
          2   -1    0    0  502    0  0.00000000000E+00  0.00000000000E+00  0.18725126121E+04  0.18725126121E+04  0.00000000000E+00 0.  1.
         -2   -1    0    0    0  501 -0.00000000000E+00 -0.00000000000E+00 -0.96716993701E+03  0.96716993701E+03  0.00000000000E+00 0. -1.
    9000010    2    1    2  502    0 -0.79013349315E+03 -0.11825369638E+03  0.39006474441E+02  0.12830378513E+04  0.10031798189E+04 0.  0.
   -9000010    2    1    2    0  501  0.79013349315E+03  0.11825369638E+03  0.86633620069E+03  0.15566446979E+04  0.10170100438E+04 0.  0.
        -13    1    3    3    0    0 -0.91419123595E+02  0.39490716232E+03  0.87813510045E+02  0.41475335650E+03  0.10566000000E+00 0.  1.
          4    1    3    3  502    0 -0.69871436955E+03 -0.51316085871E+03 -0.48807035603E+02  0.86828449477E+03  0.00000000000E+00 0.  1.
         13    1    4    4    0    0  0.35817299066E+03 -0.14378480622E+03 -0.15599372594E+03  0.41628838013E+03  0.10566000000E+00 0. -1.
         -4    1    4    4    0  501  0.43196050249E+03  0.26203850260E+03  0.10223299266E+04  0.11403563178E+04  0.00000000000E+00 0. -1.
<mgrwt>
<rscale>  2 0.12878570E+04</rscale>
<asrwt>0</asrwt>
<pdfrwt beam="1">  1        2 0.28807886E+00 0.12878570E+04</pdfrwt>
<pdfrwt beam="2">  1       -2 0.14879538E+00 0.12878570E+04</pdfrwt>
<totfact> 0.33477581E+00</totfact>
</mgrwt>
</event>
<event>
 8    1  0.1373409E-005  0.1135184E+04  0.7818608E-02  0.8657037E-01
         -1   -1    0    0    0  501 -0.00000000000E+00  0.00000000000E+00  0.40490178026E+04  0.40490178026E+04  0.00000000000E+00 0. -1.
          1   -1    0    0  502    0  0.00000000000E+00 -0.00000000000E+00 -0.33347456043E+03  0.33347456043E+03  0.00000000000E+00 0.  1.
    9000010    2    1    2  502    0  0.42083271090E+03  0.23087708921E+03  0.22688272393E+04  0.25223369473E+04  0.99206967153E+03 0.  0.
   -9000010    2    1    2    0  501 -0.42083271090E+03 -0.23087708921E+03  0.14467160029E+04  0.18601554157E+04  0.10662019399E+04 0.  0.
        -13    1    3    3    0    0  0.59206742614E+03  0.26770785207E+03  0.22548763390E+04  0.23466313401E+04  0.10566000000E+00 0.  1.
          4    1    3    3  502    0 -0.17123471524E+03 -0.36830762854E+02  0.13950900360E+02  0.17570560725E+03  0.00000000000E+00 0.  1.
         13    1    4    4    0    0 -0.44053801921E+02  0.16436478586E+03 -0.11522932709E+03  0.20550992501E+03  0.10566000000E+00 0. -1.
         -4    1    4    4    0  501 -0.37677890898E+03 -0.39524187507E+03  0.15619453300E+04  0.16546454907E+04  0.00000000000E+00 0. -1.
<mgrwt>
<rscale>  2 0.11351839E+04</rscale>
<asrwt>0</asrwt>
<pdfrwt beam="2">  1        1 0.51303781E-01 0.11351839E+04</pdfrwt>
<pdfrwt beam="1">  1       -1 0.62292578E+00 0.11351839E+04</pdfrwt>
<totfact> 0.20078239E-01</totfact>
</mgrwt>
</event>
<event>
 8    1  0.1373409E-005  0.1641871E+04  0.7818608E-02  0.8332226E-01
          2   -1    0    0  502    0  0.00000000000E+00  0.00000000000E+00  0.20152015768E+04  0.20152015768E+04  0.00000000000E+00 0. -1.
         -2   -1    0    0    0  501 -0.00000000000E+00 -0.00000000000E+00 -0.13622909136E+04  0.13622909136E+04  0.00000000000E+00 0.  1.
    9000010    2    1    2  502    0 -0.11282559696E+04 -0.66097352947E+03  0.10101249448E+03  0.16517814089E+04  0.10041567402E+04 0.  0.
   -9000010    2    1    2    0  501  0.11282559696E+04  0.66097352947E+03  0.55189816879E+03  0.17257110816E+04  0.98165147001E+03 0.  0.
        -13    1    3    3    0    0 -0.38850598411E+03 -0.58595603872E+02  0.48433923477E+03  0.62366244875E+03  0.10566000000E+00 0.  1.
          4    1    3    3  502    0 -0.73974998554E+03 -0.60237792560E+03 -0.38332674029E+03  0.10281189601E+04  0.00000000000E+00 0.  1.
         13    1    4    4    0    0 -0.15234489540E+03  0.15100961692E+03  0.22133187823E+03  0.30822180819E+03  0.10566000000E+00 0. -1.
         -4    1    4    4    0  501  0.12806008650E+04  0.50996391254E+03  0.33056629056E+03  0.14174892734E+04  0.00000000000E+00 0. -1.
<mgrwt>
<rscale>  2 0.16418709E+04</rscale>
<asrwt>0</asrwt>
<pdfrwt beam="1">  1        2 0.31003101E+00 0.16418709E+04</pdfrwt>
<pdfrwt beam="2">  1       -2 0.20958322E+00 0.16418709E+04</pdfrwt>
<totfact> 0.82715632E-01</totfact>
</mgrwt>
</event>
<event>
 8    1  0.1373409E-005  0.1060515E+04  0.7818608E-02  0.8719721E-01
         -1   -1    0    0    0  501 -0.00000000000E+00  0.00000000000E+00  0.72867312679E+03  0.72867312679E+03  0.00000000000E+00 0.  1.
          1   -1    0    0  502    0  0.00000000000E+00 -0.00000000000E+00 -0.16233705651E+04  0.16233705651E+04  0.00000000000E+00 0. -1.
    9000010    2    1    2  502    0 -0.23425680094E+02  0.33750315296E+03 -0.71105720720E+03  0.12829555489E+04  0.10128748431E+04 0.  0.
   -9000010    2    1    2    0  501  0.23425680094E+02 -0.33750315296E+03 -0.18364023107E+03  0.10690881430E+04  0.99738086118E+03 0.  0.
        -13    1    3    3    0    0  0.40402586275E+03  0.28522893873E+03 -0.69373066973E+03  0.85197106673E+03  0.10566000000E+00 0.  1.
          4    1    3    3  502    0 -0.42745154284E+03  0.52274214227E+02 -0.17326537471E+02  0.43098448215E+03  0.00000000000E+00 0.  1.
         13    1    4    4    0    0  0.33705195468E+03 -0.40884040269E+03 -0.41487203939E+03  0.67295862819E+03  0.10566000000E+00 0. -1.
         -4    1    4    4    0  501 -0.31362627458E+03  0.71337249730E+02  0.23123180832E+03  0.39612951479E+03  0.00000000000E+00 0. -1.
<mgrwt>
<rscale>  2 0.10605147E+04</rscale>
<asrwt>0</asrwt>
<pdfrwt beam="2">  1        1 0.24974932E+00 0.10605147E+04</pdfrwt>
<pdfrwt beam="1">  1       -1 0.11210356E+00 0.10605147E+04</pdfrwt>
<totfact> 0.57015692E+00</totfact>
</mgrwt>
</event>
<event>
 8    1  0.1373409E-005  0.1279078E+04  0.7818608E-02  0.8549281E-01
          2   -1    0    0  502    0  0.00000000000E+00  0.00000000000E+00  0.76208570701E+03  0.76208570701E+03  0.00000000000E+00 0.  1.
         -2   -1    0    0    0  501 -0.00000000000E+00 -0.00000000000E+00 -0.21484919646E+04  0.21484919646E+04  0.00000000000E+00 0. -1.
    9000010    2    1    2  502    0  0.62283516490E+03 -0.46219877182E+03 -0.73852274788E+03  0.14904417108E+04  0.10365564611E+04 0.  0.
   -9000010    2    1    2    0  501 -0.62283516490E+03  0.46219877182E+03 -0.64788350971E+03  0.14201359608E+04  0.99773832120E+03 0.  0.
        -13    1    3    3    0    0  0.76629267749E+03 -0.56622948428E+02 -0.18669444218E+03  0.79073728366E+03  0.10566000000E+00 0.  1.
          4    1    3    3  502    0 -0.14345751259E+03 -0.40557582340E+03 -0.55182830570E+03  0.69970442718E+03  0.00000000000E+00 0.  1.
         13    1    4    4    0    0 -0.59368511724E+03  0.49469230550E+03 -0.88737568289E+03  0.11766979686E+04  0.10566000000E+00 0. -1.
         -4    1    4    4    0  501 -0.29150047657E+02 -0.32493533679E+02  0.23949217319E+03  0.24343799216E+03  0.00000000000E+00 0. -1.
<mgrwt>
<rscale>  2 0.12790780E+04</rscale>
<asrwt>0</asrwt>
<pdfrwt beam="1">  1        2 0.11724396E+00 0.12790780E+04</pdfrwt>
<pdfrwt beam="2">  1       -2 0.33053722E+00 0.12790780E+04</pdfrwt>
<totfact> 0.58552402E-01</totfact>
</mgrwt>
</event>
<event>
 8    1  0.1373409E-005  0.1418609E+04  0.7818608E-02  0.8457936E-01
          2   -1    0    0  502    0  0.00000000000E+00  0.00000000000E+00  0.11726167173E+04  0.11726167173E+04  0.00000000000E+00 0. -1.
         -2   -1    0    0    0  501 -0.00000000000E+00 -0.00000000000E+00 -0.17394673969E+04  0.17394673969E+04  0.00000000000E+00 0.  1.
    9000010    2    1    2  502    0  0.19844698388E+03  0.87246300598E+03 -0.14818370013E+03  0.15025635252E+04  0.11979840717E+04 0.  0.
   -9000010    2    1    2    0  501 -0.19844698388E+03 -0.87246300598E+03 -0.41866697941E+03  0.14095205890E+04  0.10054319216E+04 0.  0.
        -13    1    3    3    0    0 -0.37274509739E+03  0.79691682365E+03  0.78789304304E+02  0.88330238145E+03  0.10566000000E+00 0.  1.
          4    1    3    3  502    0  0.57119208126E+03  0.75546182336E+02 -0.22697300443E+03  0.61926114371E+03  0.00000000000E+00 0.  1.
         13    1    4    4    0    0 -0.51972706244E+03 -0.88283465644E+03 -0.31758026919E+03  0.10725532568E+04  0.10566000000E+00 0. -1.
         -4    1    4    4    0  501  0.32128007856E+03  0.10371650461E+02 -0.10108671022E+03  0.33696733224E+03  0.00000000000E+00 0. -1.
<mgrwt>
<rscale>  2 0.14186094E+04</rscale>
<asrwt>0</asrwt>
<pdfrwt beam="1">  1        2 0.18040257E+00 0.14186094E+04</pdfrwt>
<pdfrwt beam="2">  1       -2 0.26761037E+00 0.14186094E+04</pdfrwt>
<totfact> 0.85922311E-01</totfact>
</mgrwt>
</event>
<event>
 8    1  0.1373409E-005  0.1525822E+04  0.7818608E-02  0.8394792E-01
          2   -1    0    0  502    0  0.00000000000E+00  0.00000000000E+00  0.11016700594E+04  0.11016700594E+04  0.00000000000E+00 0. -1.
         -2   -1    0    0    0  501 -0.00000000000E+00 -0.00000000000E+00 -0.24696019854E+04  0.24696019854E+04  0.00000000000E+00 0.  1.
    9000010    2    1    2  502    0  0.78662557458E+03 -0.83638892341E+03 -0.52567712977E+01  0.15246868973E+04  0.10031531664E+04 0.  0.
   -9000010    2    1    2    0  501 -0.78662557458E+03  0.83638892341E+03 -0.13626751547E+04  0.20465851476E+04  0.10066285130E+04 0.  0.
        -13    1    3    3    0    0  0.41884133168E+03 -0.44112608999E+02 -0.38650571945E+03  0.57162983278E+03  0.10566000000E+00 0.  1.
          4    1    3    3  502    0  0.36778424290E+03 -0.79227631441E+03  0.38124894815E+03  0.95305706449E+03  0.00000000000E+00 0.  1.
         13    1    4    4    0    0  0.19676348159E+03  0.40765805909E+03 -0.36315258638E+03  0.58032815974E+03  0.10566000000E+00 0. -1.
         -4    1    4    4    0  501 -0.98338905616E+03  0.42873086432E+03 -0.99952256831E+03  0.14662569878E+04  0.00000000000E+00 0. -1.
<mgrwt>
<rscale>  2 0.15258218E+04</rscale>
<asrwt>0</asrwt>
<pdfrwt beam="1">  1        2 0.16948770E+00 0.15258218E+04</pdfrwt>
<pdfrwt beam="2">  1       -2 0.37993877E+00 0.15258218E+04</pdfrwt>
<totfact> 0.14640673E-01</totfact>
</mgrwt>
</event>
<event>
 8    1  0.1373409E-005  0.1194748E+04  0.7818608E-02  0.8610527E-01
          2   -1    0    0  502    0  0.00000000000E+00  0.00000000000E+00  0.38678595306E+04  0.38678595306E+04  0.00000000000E+00 0. -1.
         -2   -1    0    0    0  501 -0.00000000000E+00 -0.00000000000E+00 -0.36906982933E+03  0.36906982933E+03  0.00000000000E+00 0.  1.
    9000010    2    1    2  502    0  0.62061110376E+03 -0.11600598011E+03  0.17707701365E+04  0.21395601173E+04  0.10215062847E+04 0.  0.
   -9000010    2    1    2    0  501 -0.62061110376E+03  0.11600598011E+03  0.17280195647E+04  0.20973692426E+04  0.10071199503E+04 0.  0.
        -13    1    3    3    0    0 -0.25864104436E+03 -0.32599674706E+02  0.16973345130E+03  0.31107456385E+03  0.10566000000E+00 0.  1.
          4    1    3    3  502    0  0.87925214812E+03 -0.83406305399E+02  0.16010366852E+04  0.18284855535E+04  0.00000000000E+00 0.  1.
         13    1    4    4    0    0  0.12134261478E+03  0.42180370601E+01  0.11336967598E+04  0.11401798877E+04  0.10566000000E+00 0. -1.
         -4    1    4    4    0  501 -0.74195371854E+03  0.11178794305E+03  0.59432280491E+03  0.95718935488E+03  0.00000000000E+00 0. -1.
<mgrwt>
<rscale>  2 0.11947484E+04</rscale>
<asrwt>0</asrwt>
<pdfrwt beam="1">  1        2 0.59505529E+00 0.11947484E+04</pdfrwt>
<pdfrwt beam="2">  1       -2 0.56779976E-01 0.11947484E+04</pdfrwt>
<totfact> 0.18151295E+00</totfact>
</mgrwt>
</event>
<event>
 8    1  0.1373409E-005  0.1105330E+04  0.7818608E-02  0.8681478E-01
         -2   -1    0    0    0  501 -0.00000000000E+00  0.00000000000E+00  0.50028051422E+03  0.50028051422E+03  0.00000000000E+00 0. -1.
          2   -1    0    0  502    0  0.00000000000E+00 -0.00000000000E+00 -0.33874696742E+04  0.33874696742E+04  0.00000000000E+00 0.  1.
    9000010    2    1    2  502    0  0.71730235092E+02 -0.47758070311E+03 -0.24669086009E+04  0.27016804992E+04  0.99005601864E+03 0.  0.
   -9000010    2    1    2    0  501 -0.71730235092E+02  0.47758070311E+03 -0.42028055907E+03  0.11860696892E+04  0.99844729690E+03 0.  0.
        -13    1    3    3    0    0  0.38729802237E+03 -0.24338715033E+03 -0.21463288015E+04  0.21945305645E+04  0.10566000000E+00 0.  1.
          4    1    3    3  502    0 -0.31556778727E+03 -0.23419355278E+03 -0.32057979940E+03  0.50714993475E+03  0.00000000000E+00 0.  1.
         13    1    4    4    0    0  0.16895752958E+03  0.74278213719E+02  0.28450712902E+03  0.33912861492E+03  0.10566000000E+00 0. -1.
         -4    1    4    4    0  501 -0.24068776467E+03  0.40330248939E+03 -0.70478768809E+03  0.84694107427E+03  0.00000000000E+00 0. -1.
<mgrwt>
<rscale>  2 0.11053298E+04</rscale>
<asrwt>0</asrwt>
<pdfrwt beam="2">  1        2 0.52114917E+00 0.11053298E+04</pdfrwt>
<pdfrwt beam="1">  1       -2 0.76966234E-01 0.11053298E+04</pdfrwt>
<totfact> 0.23234068E+00</totfact>
</mgrwt>
</event>
<event>
 8    1  0.1373409E-005  0.1188623E+04  0.7818608E-02  0.8615179E-01
         -2   -1    0    0    0  501 -0.00000000000E+00  0.00000000000E+00  0.10624212569E+04  0.10624212569E+04  0.00000000000E+00 0. -1.
          2   -1    0    0  502    0  0.00000000000E+00 -0.00000000000E+00 -0.13647875849E+04  0.13647875849E+04  0.00000000000E+00 0.  1.
    9000010    2    1    2  502    0 -0.64086462764E+03 -0.16127195367E+03  0.43425563447E+02  0.11864721235E+04  0.98443598386E+03 0.  0.
   -9000010    2    1    2    0  501  0.64086462764E+03  0.16127195367E+03 -0.34579189142E+03  0.12407367183E+04  0.99153389147E+03 0.  0.
        -13    1    3    3    0    0  0.14823302031E+03 -0.55870801586E+02 -0.28437483435E+03  0.32552055596E+03  0.10566000000E+00 0.  1.
          4    1    3    3  502    0 -0.78909764796E+03 -0.10540115208E+03  0.32780039780E+03  0.86095156755E+03  0.00000000000E+00 0.  1.
         13    1    4    4    0    0  0.65598381560E+03  0.51704330084E+03 -0.25358882569E+03  0.87290082194E+03  0.10566000000E+00 0. -1.
         -4    1    4    4    0  501 -0.15119187954E+02 -0.35577134717E+03 -0.92203065732E+02  0.36783589635E+03  0.00000000000E+00 0. -1.
<mgrwt>
<rscale>  2 0.11886234E+04</rscale>
<asrwt>0</asrwt>
<pdfrwt beam="2">  1        2 0.20996732E+00 0.11886234E+04</pdfrwt>
<pdfrwt beam="1">  1       -2 0.16344942E+00 0.11886234E+04</pdfrwt>
<totfact> 0.47721361E+00</totfact>
</mgrwt>
</event>
<event>
 8    1  0.1373409E-005  0.1354964E+04  0.7818608E-02  0.8498196E-01
         -2   -1    0    0    0  501 -0.00000000000E+00  0.00000000000E+00  0.66703381250E+03  0.66703381250E+03  0.00000000000E+00 0.  1.
          2   -1    0    0  502    0  0.00000000000E+00 -0.00000000000E+00 -0.28273726452E+04  0.28273726452E+04  0.00000000000E+00 0. -1.
    9000010    2    1    2  502    0  0.81786072356E+02  0.91644609392E+03 -0.13587990803E+04  0.19136975566E+04  0.98455116302E+03 0.  0.
   -9000010    2    1    2    0  501 -0.81786072356E+02 -0.91644609392E+03 -0.80153975239E+03  0.15807089012E+04  0.10047946312E+04 0.  0.
        -13    1    3    3    0    0 -0.41419682604E+03  0.16288620898E+03 -0.46933690061E+03  0.64681377939E+03  0.10566000000E+00 0.  1.
          4    1    3    3  502    0  0.49598289840E+03  0.75355988494E+03 -0.88946217972E+03  0.12668837772E+04  0.00000000000E+00 0.  1.
         13    1    4    4    0    0 -0.45724515622E+03 -0.46590097647E+03 -0.90547185148E+02  0.65904146809E+03  0.10566000000E+00 0. -1.
         -4    1    4    4    0  501  0.37545908386E+03 -0.45054511745E+03 -0.71099256724E+03  0.92166743307E+03  0.00000000000E+00 0. -1.
<mgrwt>
<rscale>  2 0.13549644E+04</rscale>
<asrwt>0</asrwt>
<pdfrwt beam="2">  1        2 0.43498041E+00 0.13549644E+04</pdfrwt>
<pdfrwt beam="1">  1       -2 0.10262059E+00 0.13549644E+04</pdfrwt>
<totfact> 0.26501707E+00</totfact>
</mgrwt>
</event>
<event>
 8    1  0.1373409E-005  0.1201966E+04  0.7818608E-02  0.8605083E-01
         -1   -1    0    0    0  501 -0.00000000000E+00  0.00000000000E+00  0.10831418473E+04  0.10831418473E+04  0.00000000000E+00 0.  1.
          1   -1    0    0  502    0  0.00000000000E+00 -0.00000000000E+00 -0.13608289082E+04  0.13608289082E+04  0.00000000000E+00 0. -1.
    9000010    2    1    2  502    0  0.48535766493E+03 -0.45553974555E+03 -0.31048566357E+03  0.12376215600E+04  0.99610102693E+03 0.  0.
   -9000010    2    1    2    0  501 -0.48535766493E+03  0.45553974555E+03  0.32798602680E+02  0.12063491956E+04  0.10055417001E+04 0.  0.
        -13    1    3    3    0    0  0.32715838544E+03 -0.40830735791E+03 -0.66523436322E+03  0.84633579439E+03  0.10566000000E+00 0.  1.
          4    1    3    3  502    0  0.15819927948E+03 -0.47232387638E+02  0.35474869966E+03  0.39128576562E+03  0.00000000000E+00 0.  1.
         13    1    4    4    0    0 -0.67540540907E+03  0.30834008720E+02  0.21074810955E+03  0.70819346194E+03  0.10566000000E+00 0. -1.
         -4    1    4    4    0  501  0.19004774414E+03  0.42470573683E+03 -0.17794950687E+03  0.49815573363E+03  0.00000000000E+00 0. -1.
<mgrwt>
<rscale>  2 0.12019664E+04</rscale>
<asrwt>0</asrwt>
<pdfrwt beam="2">  1        1 0.20935829E+00 0.12019664E+04</pdfrwt>
<pdfrwt beam="1">  1       -1 0.16663721E+00 0.12019664E+04</pdfrwt>
<totfact> 0.29305600E+00</totfact>
</mgrwt>
</event>
<event>
 8    1  0.1373409E-005  0.1695133E+04  0.7818608E-02  0.8305274E-01
          2   -1    0    0  502    0  0.00000000000E+00  0.00000000000E+00  0.32655837225E+04  0.32655837225E+04  0.00000000000E+00 0. -1.
         -2   -1    0    0    0  501 -0.00000000000E+00 -0.00000000000E+00 -0.88255038280E+03  0.88255038280E+03  0.00000000000E+00 0.  1.
    9000010    2    1    2  502    0  0.75505286319E+03 -0.11525724520E+04  0.13029209228E+04  0.21361700311E+04  0.98340804721E+03 0.  0.
   -9000010    2    1    2    0  501 -0.75505286319E+03  0.11525724520E+04  0.10801124169E+04  0.20119640742E+04  0.99137708240E+03 0.  0.
        -13    1    3    3    0    0 -0.10394429650E+03 -0.18706591682E+03  0.65788867434E+03  0.69182049189E+03  0.10566000000E+00 0.  1.
          4    1    3    3  502    0  0.85899715970E+03 -0.96550653515E+03  0.64503224846E+03  0.14443495392E+04  0.00000000000E+00 0.  1.
         13    1    4    4    0    0  0.23418683774E+03  0.12403520250E+03  0.11309780731E+03  0.28813075436E+03  0.10566000000E+00 0. -1.
         -4    1    4    4    0  501 -0.98923970093E+03  0.10285372495E+04  0.96701460956E+03  0.17238333198E+04  0.00000000000E+00 0. -1.
<mgrwt>
<rscale>  2 0.16951334E+04</rscale>
<asrwt>0</asrwt>
<pdfrwt beam="1">  1        2 0.50239749E+00 0.16951334E+04</pdfrwt>
<pdfrwt beam="2">  1       -2 0.13577698E+00 0.16951334E+04</pdfrwt>
<totfact> 0.64672237E-01</totfact>
</mgrwt>
</event>
<event>
 8    1  0.1373409E-005  0.1272439E+04  0.7818608E-02  0.8553923E-01
         -2   -1    0    0    0  501 -0.00000000000E+00  0.00000000000E+00  0.31584437717E+03  0.31584437717E+03  0.00000000000E+00 0.  1.
          2   -1    0    0  502    0  0.00000000000E+00 -0.00000000000E+00 -0.51281062120E+04  0.51281062120E+04  0.00000000000E+00 0. -1.
    9000010    2    1    2  502    0  0.76428547590E+03  0.22218609946E+03 -0.23493366189E+04  0.26703866442E+04  0.98898095495E+03 0.  0.
   -9000010    2    1    2    0  501 -0.76428547590E+03 -0.22218609946E+03 -0.24629252159E+04  0.27735639449E+04  0.99657282024E+03 0.  0.
        -13    1    3    3    0    0  0.66669765697E+03  0.30650048370E+03 -0.24161678079E+04  0.25251327093E+04  0.10566000000E+00 0.  1.
          4    1    3    3  502    0  0.97587818926E+02 -0.84314384238E+02  0.66831189007E+02  0.14525393494E+03  0.00000000000E+00 0.  1.
         13    1    4    4    0    0 -0.49051154268E+02  0.35255758044E+03 -0.75805663788E+03  0.83746805351E+03  0.10566000000E+00 0. -1.
         -4    1    4    4    0  501 -0.71523432163E+03 -0.57474367990E+03 -0.17048685780E+04  0.19360958914E+04  0.00000000000E+00 0. -1.
<mgrwt>
<rscale>  2 0.12724393E+04</rscale>
<asrwt>0</asrwt>
<pdfrwt beam="2">  1        2 0.78893939E+00 0.12724393E+04</pdfrwt>
<pdfrwt beam="1">  1       -2 0.48591444E-01 0.12724393E+04</pdfrwt>
<totfact> 0.18769573E-01</totfact>
</mgrwt>
</event>
<event>
 8    1  0.1373409E-005  0.1380328E+04  0.7818608E-02  0.8481885E-01
          2   -1    0    0  502    0  0.00000000000E+00  0.00000000000E+00  0.11426388799E+04  0.11426388799E+04  0.00000000000E+00 0. -1.
         -2   -1    0    0    0  501 -0.00000000000E+00 -0.00000000000E+00 -0.16876246636E+04  0.16876246636E+04  0.00000000000E+00 0.  1.
    9000010    2    1    2  502    0  0.95197399397E+03 -0.15420637567E+03 -0.42862770011E+03  0.14537432599E+04  0.99980681584E+03 0.  0.
   -9000010    2    1    2    0  501 -0.95197399397E+03  0.15420637567E+03 -0.11635808358E+03  0.13765202836E+04  0.97531266586E+03 0.  0.
        -13    1    3    3    0    0  0.24132034203E+03  0.35995418738E+03  0.78694250540E+02  0.44044899900E+03  0.10566000000E+00 0.  1.
          4    1    3    3  502    0  0.71065365194E+03 -0.51416056305E+03 -0.50732195065E+03  0.10132942609E+04  0.00000000000E+00 0.  1.
         13    1    4    4    0    0 -0.31355693996E+03 -0.36917371292E+03  0.15333157542E+03  0.50805291860E+03  0.10566000000E+00 0. -1.
         -4    1    4    4    0  501 -0.63841705400E+03  0.52338008859E+03 -0.26968965900E+03  0.86846736505E+03  0.00000000000E+00 0. -1.
<mgrwt>
<rscale>  2 0.13803278E+04</rscale>
<asrwt>0</asrwt>
<pdfrwt beam="1">  1        2 0.17579060E+00 0.13803278E+04</pdfrwt>
<pdfrwt beam="2">  1       -2 0.25963456E+00 0.13803278E+04</pdfrwt>
<totfact> 0.10364211E+00</totfact>
</mgrwt>
</event>
<event>
 8    1  0.1373409E-005  0.1504333E+04  0.7818608E-02  0.8407010E-01
          2   -1    0    0  502    0  0.00000000000E+00  0.00000000000E+00  0.13625495623E+04  0.13625495623E+04  0.00000000000E+00 0.  1.
         -2   -1    0    0    0  501 -0.00000000000E+00 -0.00000000000E+00 -0.16618058871E+04  0.16618058871E+04  0.00000000000E+00 0. -1.
    9000010    2    1    2  502    0  0.71427381218E+03  0.89998912011E+03 -0.13522015801E+03  0.15417701605E+04  0.10191188555E+04 0.  0.
   -9000010    2    1    2    0  501 -0.71427381218E+03 -0.89998912011E+03 -0.16403616685E+03  0.14825852889E+04  0.92248782100E+03 0.  0.
        -13    1    3    3    0    0  0.45480891957E+03  0.10306065008E+04  0.14786131422E+03  0.11361619128E+04  0.10566000000E+00 0.  1.
          4    1    3    3  502    0  0.25946489261E+03 -0.13061738068E+03 -0.28308147224E+03  0.40560824764E+03  0.00000000000E+00 0.  1.
         13    1    4    4    0    0 -0.22911666369E+03 -0.94071422725E+03  0.19162862008E+01  0.96821556806E+03  0.10566000000E+00 0. -1.
         -4    1    4    4    0  501 -0.48515714850E+03  0.40725107139E+02 -0.16595245305E+03  0.51436972089E+03  0.00000000000E+00 0. -1.
<mgrwt>
<rscale>  2 0.15043329E+04</rscale>
<asrwt>0</asrwt>
<pdfrwt beam="1">  1        2 0.20962301E+00 0.15043329E+04</pdfrwt>
<pdfrwt beam="2">  1       -2 0.25566244E+00 0.15043329E+04</pdfrwt>
<totfact> 0.82372035E-01</totfact>
</mgrwt>
</event>
<event>
 8    1  0.1373409E-005  0.1316360E+04  0.7818608E-02  0.8523740E-01
          2   -1    0    0  502    0  0.00000000000E+00  0.00000000000E+00  0.11014484535E+04  0.11014484535E+04  0.00000000000E+00 0. -1.
         -2   -1    0    0    0  501 -0.00000000000E+00 -0.00000000000E+00 -0.16391675093E+04  0.16391675093E+04  0.00000000000E+00 0.  1.
    9000010    2    1    2  502    0  0.94496247754E+03  0.15942968783E+03 -0.52593028158E+03  0.13655462812E+04  0.81837770962E+03 0.  0.
   -9000010    2    1    2    0  501 -0.94496247754E+03 -0.15942968783E+03 -0.11788774174E+02  0.13750696817E+04  0.98605565002E+03 0.  0.
        -13    1    3    3    0    0  0.80507618754E+03  0.15909039253E+03  0.70935186349E+00  0.82064482882E+03  0.10566000000E+00 0.  1.
          4    1    3    3  502    0  0.13988629001E+03  0.33929530393E+00 -0.52663963345E+03  0.54490145235E+03  0.00000000000E+00 0.  1.
         13    1    4    4    0    0 -0.87978211513E+03 -0.19400186649E+03 -0.39580491721E+03  0.98402989688E+03  0.10566000000E+00 0. -1.
         -4    1    4    4    0  501 -0.65180362411E+02  0.34572178658E+02  0.38401614303E+03  0.39103978479E+03  0.00000000000E+00 0. -1.
<mgrwt>
<rscale>  2 0.13163603E+04</rscale>
<asrwt>0</asrwt>
<pdfrwt beam="1">  1        2 0.16945361E+00 0.13163603E+04</pdfrwt>
<pdfrwt beam="2">  1       -2 0.25217962E+00 0.13163603E+04</pdfrwt>
<totfact> 0.12563801E+00</totfact>
</mgrwt>
</event>
<event>
 8    1  0.1373409E-005  0.1783708E+04  0.7818608E-02  0.8262637E-01
         -2   -1    0    0    0  501 -0.00000000000E+00  0.00000000000E+00  0.26387912764E+04  0.26387912764E+04  0.00000000000E+00 0. -1.
          2   -1    0    0  502    0  0.00000000000E+00 -0.00000000000E+00 -0.12068486179E+04  0.12068486179E+04  0.00000000000E+00 0.  1.
    9000010    2    1    2  502    0  0.40719908693E+02 -0.14665770622E+04  0.65783899579E+03  0.19032446054E+04  0.10183719817E+04 0.  0.
   -9000010    2    1    2    0  501 -0.40719908693E+02  0.14665770622E+04  0.77410366268E+03  0.19423952889E+04  0.10105229276E+04 0.  0.
        -13    1    3    3    0    0 -0.46317283251E+03 -0.93556822970E+03  0.28721547036E+03  0.10827325260E+04  0.10566000000E+00 0.  1.
          4    1    3    3  502    0  0.50389274120E+03 -0.53100883254E+03  0.37062352543E+03  0.82051207942E+03  0.00000000000E+00 0.  1.
         13    1    4    4    0    0  0.35504079751E+03  0.75514644261E+03  0.75923787859E+03  0.11281588032E+04  0.10566000000E+00 0. -1.
         -4    1    4    4    0  501 -0.39576070621E+03  0.71143061963E+03  0.14865784087E+02  0.81423648571E+03  0.00000000000E+00 0. -1.
<mgrwt>
<rscale>  2 0.17837083E+04</rscale>
<asrwt>0</asrwt>
<pdfrwt beam="2">  1        2 0.18566902E+00 0.17837083E+04</pdfrwt>
<pdfrwt beam="1">  1       -2 0.40596789E+00 0.17837083E+04</pdfrwt>
<totfact> 0.96862049E-02</totfact>
</mgrwt>
</event>
<event>
 8    1  0.1373409E-005  0.1299505E+04  0.7818608E-02  0.8535177E-01
          2   -1    0    0  502    0  0.00000000000E+00  0.00000000000E+00  0.19538303084E+04  0.19538303084E+04  0.00000000000E+00 0.  1.
         -2   -1    0    0    0  501 -0.00000000000E+00 -0.00000000000E+00 -0.86628605512E+03  0.86628605512E+03  0.00000000000E+00 0. -1.
    9000010    2    1    2  502    0  0.24348022799E+02 -0.84614291064E+03  0.61077335747E+03  0.14351203016E+04  0.98487335956E+03 0.  0.
   -9000010    2    1    2    0  501 -0.24348022799E+02  0.84614291064E+03  0.47677089580E+03  0.13849960619E+04  0.98709318356E+03 0.  0.
        -13    1    3    3    0    0 -0.29756486063E+03  0.53645454227E+02  0.26045691195E+01  0.30237307418E+03  0.10566000000E+00 0.  1.
          4    1    3    3  502    0  0.32191288343E+03 -0.89978836487E+03  0.60816878835E+03  0.11327472274E+04  0.00000000000E+00 0.  1.
         13    1    4    4    0    0 -0.36570425348E+03  0.61759829583E+03  0.62151043406E+03  0.94944325098E+03  0.10566000000E+00 0. -1.
         -4    1    4    4    0  501  0.34135623068E+03  0.22854461481E+03 -0.14473953826E+03  0.43555281094E+03  0.00000000000E+00 0. -1.
<mgrwt>
<rscale>  2 0.12995051E+04</rscale>
<asrwt>0</asrwt>
<pdfrwt beam="1">  1        2 0.30058928E+00 0.12995051E+04</pdfrwt>
<pdfrwt beam="2">  1       -2 0.13327478E+00 0.12995051E+04</pdfrwt>
<totfact> 0.41649799E+00</totfact>
</mgrwt>
</event>
<event>
 8    1  0.1373409E-005  0.1393869E+04  0.7818608E-02  0.8473323E-01
         -1   -1    0    0    0  501 -0.00000000000E+00  0.00000000000E+00  0.20643943670E+04  0.20643943670E+04  0.00000000000E+00 0.  1.
          1   -1    0    0  502    0  0.00000000000E+00 -0.00000000000E+00 -0.10979674013E+04  0.10979674013E+04  0.00000000000E+00 0. -1.
    9000010    2    1    2  502    0 -0.90091298193E+03  0.36165414375E+03  0.10808733827E+04  0.17640230162E+04  0.10005258675E+04 0.  0.
   -9000010    2    1    2    0  501  0.90091298193E+03 -0.36165414375E+03 -0.11444641702E+03  0.13983387521E+04  0.99990767695E+03 0.  0.
        -13    1    3    3    0    0 -0.60746740123E+03  0.73077558887E+02  0.47320287638E+01  0.61186548884E+03  0.10566000000E+00 0.  1.
          4    1    3    3  502    0 -0.29344558070E+03  0.28857658486E+03  0.10761413540E+04  0.11521575274E+04  0.00000000000E+00 0.  1.
         13    1    4    4    0    0  0.77195878517E+03  0.12871295816E+03  0.19208478945E+03  0.80584363812E+03  0.10566000000E+00 0. -1.
         -4    1    4    4    0  501  0.12895419676E+03 -0.49036710191E+03 -0.30653120646E+03  0.59249511394E+03  0.00000000000E+00 0. -1.
<mgrwt>
<rscale>  2 0.13938693E+04</rscale>
<asrwt>0</asrwt>
<pdfrwt beam="2">  1        1 0.16891806E+00 0.13938693E+04</pdfrwt>
<pdfrwt beam="1">  1       -1 0.31759913E+00 0.13938693E+04</pdfrwt>
<totfact> 0.19682451E-01</totfact>
</mgrwt>
</event>
<event>
 8    1  0.1373409E-005  0.1274073E+04  0.7818608E-02  0.8552778E-01
         -4   -1    0    0    0  501 -0.00000000000E+00  0.00000000000E+00  0.17012437125E+04  0.17012437125E+04  0.00000000000E+00 0. -1.
          4   -1    0    0  502    0  0.00000000000E+00 -0.00000000000E+00 -0.96130056476E+03  0.96130056476E+03  0.00000000000E+00 0.  1.
    9000010    2    1    2  502    0  0.63193806138E+03  0.52048208909E+03  0.25189122884E+03  0.12833550142E+04  0.95566918065E+03 0.  0.
   -9000010    2    1    2    0  501 -0.63193806138E+03 -0.52048208909E+03  0.48805191893E+03  0.13791892631E+04  0.99685557095E+03 0.  0.
        -13    1    3    3    0    0  0.15277778559E+03 -0.16537703842E+03 -0.22668268904E+03  0.31949283134E+03  0.10566000000E+00 0.  1.
          4    1    3    3  502    0  0.47916027580E+03  0.68585912751E+03  0.47857391788E+03  0.96386218286E+03  0.00000000000E+00 0.  1.
         13    1    4    4    0    0 -0.51415381998E+03 -0.75116304949E+03  0.10433274374E+03  0.91623436417E+03  0.10566000000E+00 0. -1.
         -4    1    4    4    0  501 -0.11778424140E+03  0.23068096040E+03  0.38371917519E+03  0.46295489890E+03  0.00000000000E+00 0. -1.
<mgrwt>
<rscale>  2 0.12740729E+04</rscale>
<asrwt>0</asrwt>
<pdfrwt beam="2">  1        4 0.14789239E+00 0.12740729E+04</pdfrwt>
<pdfrwt beam="1">  1       -4 0.26172980E+00 0.12740729E+04</pdfrwt>
<totfact> 0.19256438E-01</totfact>
</mgrwt>
</event>
<event>
 8    1  0.1373409E-005  0.1623879E+04  0.7818608E-02  0.8341569E-01
          1   -1    0    0  502    0  0.00000000000E+00  0.00000000000E+00  0.10175517934E+04  0.10175517934E+04  0.00000000000E+00 0.  1.
         -1   -1    0    0    0  501 -0.00000000000E+00 -0.00000000000E+00 -0.25934703697E+04  0.25934703697E+04  0.00000000000E+00 0. -1.
    9000010    2    1    2  502    0 -0.37722136681E+03 -0.11944596209E+04 -0.75852920276E+03  0.18149819238E+04  0.10722700625E+04 0.  0.
   -9000010    2    1    2    0  501  0.37722136681E+03  0.11944596209E+04 -0.81738937360E+03  0.17960402393E+04  0.99428638099E+03 0.  0.
        -13    1    3    3    0    0  0.28041807815E+03 -0.49308733729E+03  0.35028551599E+02  0.56832774993E+03  0.10566000000E+00 0.  1.
          4    1    3    3  502    0 -0.65763944496E+03 -0.70137228360E+03 -0.79355775436E+03  0.12466541739E+04  0.00000000000E+00 0.  1.
         13    1    4    4    0    0 -0.39237106112E+02  0.84754651769E+03 -0.41358057860E+02  0.84946168263E+03  0.10566000000E+00 0. -1.
         -4    1    4    4    0  501  0.41645847292E+03  0.34691310320E+03 -0.77603131574E+03  0.94657855662E+03  0.00000000000E+00 0. -1.
<mgrwt>
<rscale>  2 0.16238790E+04</rscale>
<asrwt>0</asrwt>
<pdfrwt beam="1">  1        1 0.15654643E+00 0.16238790E+04</pdfrwt>
<pdfrwt beam="2">  1       -1 0.39899544E+00 0.16238790E+04</pdfrwt>
<totfact> 0.21412422E-01</totfact>
</mgrwt>
</event>
<event>
 8    1  0.1373409E-005  0.1193337E+04  0.7818608E-02  0.8611596E-01
          2   -1    0    0  502    0  0.00000000000E+00  0.00000000000E+00  0.43074785815E+04  0.43074785815E+04  0.00000000000E+00 0.  1.
         -2   -1    0    0    0  501 -0.00000000000E+00 -0.00000000000E+00 -0.33061591708E+03  0.33061591708E+03  0.00000000000E+00 0. -1.
    9000010    2    1    2  502    0  0.31995024498E+03  0.55928816767E+03  0.20060772602E+04  0.23347673657E+04  0.10057938477E+04 0.  0.
   -9000010    2    1    2    0  501 -0.31995024498E+03 -0.55928816767E+03  0.19707854042E+04  0.23033271329E+04  0.10030699666E+04 0.  0.
        -13    1    3    3    0    0  0.30628263362E+03 -0.18873964453E+03  0.28793337485E+03  0.46080076453E+03  0.10566000000E+00 0.  1.
          4    1    3    3  502    0  0.13667611363E+02  0.74802781220E+03  0.17181438854E+04  0.18739666012E+04  0.00000000000E+00 0.  1.
         13    1    4    4    0    0 -0.19335243203E+03 -0.10368963159E+03  0.17799327560E+04  0.17934038390E+04  0.10566000000E+00 0. -1.
         -4    1    4    4    0  501 -0.12659781295E+03 -0.45559853608E+03  0.19085264817E+03  0.50992329387E+03  0.00000000000E+00 0. -1.
<mgrwt>
<rscale>  2 0.11933374E+04</rscale>
<asrwt>0</asrwt>
<pdfrwt beam="1">  1        2 0.66268897E+00 0.11933374E+04</pdfrwt>
<pdfrwt beam="2">  1       -2 0.50863990E-01 0.11933374E+04</pdfrwt>
<totfact> 0.91337839E-01</totfact>
</mgrwt>
</event>
<event>
 8    1  0.1373409E-005  0.1547517E+04  0.7818608E-02  0.8382666E-01
          2   -1    0    0  502    0  0.00000000000E+00  0.00000000000E+00  0.25070993435E+04  0.25070993435E+04  0.00000000000E+00 0.  1.
         -2   -1    0    0    0  501 -0.00000000000E+00 -0.00000000000E+00 -0.10368174607E+04  0.10368174607E+04  0.00000000000E+00 0. -1.
    9000010    2    1    2  502    0  0.10614146080E+04 -0.50288359440E+03  0.23334925770E+03  0.15541439710E+04  0.99066579974E+03 0.  0.
   -9000010    2    1    2    0  501 -0.10614146080E+04  0.50288359440E+03  0.12369326251E+04  0.19897728332E+04  0.10245490370E+04 0.  0.
        -13    1    3    3    0    0  0.42480120105E+03 -0.71780927553E+03 -0.24506763778E+02  0.83445000394E+03  0.10566000000E+00 0.  1.
          4    1    3    3  502    0  0.63661340699E+03  0.21492568113E+03  0.25785602148E+03  0.71969396703E+03  0.00000000000E+00 0.  1.
         13    1    4    4    0    0 -0.54570346487E+03 -0.28281398846E+03  0.56049328029E+03  0.83182254842E+03  0.10566000000E+00 0. -1.
         -4    1    4    4    0  501 -0.51571114316E+03  0.78569758286E+03  0.67643934477E+03  0.11579502848E+04  0.00000000000E+00 0. -1.
<mgrwt>
<rscale>  2 0.15475171E+04</rscale>
<asrwt>0</asrwt>
<pdfrwt beam="1">  1        2 0.38570759E+00 0.15475171E+04</pdfrwt>
<pdfrwt beam="2">  1       -2 0.15951038E+00 0.15475171E+04</pdfrwt>
<totfact> 0.11715457E+00</totfact>
</mgrwt>
</event>
<event>
 8    1  0.1373409E-005  0.1060049E+04  0.7818608E-02  0.8720128E-01
          2   -1    0    0  502    0  0.00000000000E+00  0.00000000000E+00  0.42497320816E+04  0.42497320816E+04  0.00000000000E+00 0. -1.
         -2   -1    0    0    0  501 -0.00000000000E+00 -0.00000000000E+00 -0.26464291307E+03  0.26464291307E+03  0.00000000000E+00 0.  1.
    9000010    2    1    2  502    0 -0.15800101538E+03 -0.30686197310E+03  0.20556123716E+04  0.23121873929E+04  0.10007695670E+04 0.  0.
   -9000010    2    1    2    0  501  0.15800101538E+03  0.30686197310E+03  0.19294767969E+04  0.22021876018E+04  0.10038032338E+04 0.  0.
        -13    1    3    3    0    0  0.13389459322E+03  0.21779506091E+03  0.14002004190E+04  0.14233494565E+04  0.10566000000E+00 0.  1.
          4    1    3    3  502    0 -0.29189560860E+03 -0.52465703400E+03  0.65541195261E+03  0.88883793645E+03  0.00000000000E+00 0.  1.
         13    1    4    4    0    0  0.19678474421E+02  0.44980913438E+03  0.25801011886E+03  0.51892651920E+03  0.10566000000E+00 0. -1.
         -4    1    4    4    0  501  0.13832254096E+03 -0.14294716129E+03  0.16714666781E+04  0.16832610826E+04  0.00000000000E+00 0. -1.
<mgrwt>
<rscale>  2 0.10600494E+04</rscale>
<asrwt>0</asrwt>
<pdfrwt beam="1">  1        2 0.65380489E+00 0.10600494E+04</pdfrwt>
<pdfrwt beam="2">  1       -2 0.40714297E-01 0.10600494E+04</pdfrwt>
<totfact> 0.15975751E+00</totfact>
</mgrwt>
</event>
<event>
 8    1  0.1373409E-005  0.1247710E+04  0.7818608E-02  0.8571476E-01
         -4   -1    0    0    0  501 -0.00000000000E+00  0.00000000000E+00  0.75741858379E+03  0.75741858379E+03  0.00000000000E+00 0. -1.
          4   -1    0    0  502    0  0.00000000000E+00 -0.00000000000E+00 -0.20666613491E+04  0.20666613491E+04  0.00000000000E+00 0.  1.
    9000010    2    1    2  502    0  0.53053997262E+03 -0.52453405718E+03 -0.76189804017E+03  0.14671125886E+04  0.10076319190E+04 0.  0.
   -9000010    2    1    2    0  501 -0.53053997262E+03  0.52453405718E+03 -0.54734472513E+03  0.13569673443E+04  0.99255502907E+03 0.  0.
        -13    1    3    3    0    0 -0.11633380493E+03 -0.18156893489E+03 -0.69985089976E+03  0.73231968794E+03  0.10566000000E+00 0.  1.
          4    1    3    3  502    0  0.64687377755E+03 -0.34296512229E+03 -0.62047140410E+02  0.73479290063E+03  0.00000000000E+00 0.  1.
         13    1    4    4    0    0  0.29350832039E+03  0.97038049550E+02 -0.18605970314E+03  0.36080706963E+03  0.10566000000E+00 0. -1.
         -4    1    4    4    0  501 -0.82404829301E+03  0.42749600763E+03 -0.36128502199E+03  0.99616027469E+03  0.00000000000E+00 0. -1.
<mgrwt>
<rscale>  2 0.12477097E+04</rscale>
<asrwt>0</asrwt>
<pdfrwt beam="2">  1        4 0.31794790E+00 0.12477097E+04</pdfrwt>
<pdfrwt beam="1">  1       -4 0.11652594E+00 0.12477097E+04</pdfrwt>
<totfact> 0.20108871E-01</totfact>
</mgrwt>
</event>
<event>
 8    1  0.1373409E-005  0.1411708E+04  0.7818608E-02  0.8462196E-01
          2   -1    0    0  502    0  0.00000000000E+00  0.00000000000E+00  0.41644486835E+04  0.41644486835E+04  0.00000000000E+00 0. -1.
         -2   -1    0    0    0  501 -0.00000000000E+00 -0.00000000000E+00 -0.48255686970E+03  0.48255686970E+03  0.00000000000E+00 0.  1.
    9000010    2    1    2  502    0 -0.80770490130E+03  0.30916586807E+03  0.18696281467E+04  0.22901734981E+04  0.10007070016E+04 0.  0.
   -9000010    2    1    2    0  501  0.80770490130E+03 -0.30916586807E+03  0.18122636672E+04  0.23568320551E+04  0.12338504752E+04 0.  0.
        -13    1    3    3    0    0 -0.72956185976E+03  0.22522234049E+03  0.19854340801E+04  0.21271892505E+04  0.10566000000E+00 0.  1.
          4    1    3    3  502    0 -0.78143041541E+02  0.83943527587E+02 -0.11580593340E+03  0.16298424763E+03  0.00000000000E+00 0.  1.
         13    1    4    4    0    0  0.48503885265E+03  0.20363596744E+02 -0.13790758873E+01  0.48546810160E+03  0.10566000000E+00 0. -1.
         -4    1    4    4    0  501  0.32266604864E+03 -0.32952946482E+03  0.18136427430E+04  0.18713639535E+04  0.00000000000E+00 0. -1.
<mgrwt>
<rscale>  2 0.14117082E+04</rscale>
<asrwt>0</asrwt>
<pdfrwt beam="1">  1        2 0.64068439E+00 0.14117082E+04</pdfrwt>
<pdfrwt beam="2">  1       -2 0.74239521E-01 0.14117082E+04</pdfrwt>
<totfact> 0.55279926E-01</totfact>
</mgrwt>
</event>
<event>
 8    1  0.1373409E-005  0.1552978E+04  0.7818608E-02  0.8379646E-01
         -1   -1    0    0    0  501 -0.00000000000E+00  0.00000000000E+00  0.69459839189E+03  0.69459839189E+03  0.00000000000E+00 0. -1.
          1   -1    0    0  502    0  0.00000000000E+00 -0.00000000000E+00 -0.35315154708E+04  0.35315154708E+04  0.00000000000E+00 0.  1.
    9000010    2    1    2  502    0  0.11352952532E+04 -0.32740434717E+03 -0.16954763406E+04  0.23015166515E+04  0.10130399583E+04 0.  0.
   -9000010    2    1    2    0  501 -0.11352952532E+04  0.32740434717E+03 -0.11414407382E+04  0.19245972111E+04  0.10025460326E+04 0.  0.
        -13    1    3    3    0    0 -0.15117512031E+03  0.93625297941E+02 -0.83101118102E+02  0.19627893522E+03  0.10566000000E+00 0.  1.
          4    1    3    3  502    0  0.12864703735E+04 -0.42102964511E+03 -0.16123752225E+04  0.21052377163E+04  0.00000000000E+00 0.  1.
         13    1    4    4    0    0 -0.12986424461E+04  0.32911888141E+03 -0.11433027165E+04  0.17612304090E+04  0.10566000000E+00 0. -1.
         -4    1    4    4    0  501  0.16334719290E+03 -0.17145342475E+01  0.18619782236E+01  0.16336680207E+03  0.00000000000E+00 0. -1.
<mgrwt>
<rscale>  2 0.15529778E+04</rscale>
<asrwt>0</asrwt>
<pdfrwt beam="2">  1        1 0.54331008E+00 0.15529778E+04</pdfrwt>
<pdfrwt beam="1">  1       -1 0.10686129E+00 0.15529778E+04</pdfrwt>
<totfact> 0.93676517E-02</totfact>
</mgrwt>
</event>
<event>
 8    1  0.1373409E-005  0.1168909E+04  0.7818608E-02  0.8630349E-01
          2   -1    0    0  502    0  0.00000000000E+00  0.00000000000E+00  0.21998682613E+04  0.21998682613E+04  0.00000000000E+00 0.  1.
         -2   -1    0    0    0  501 -0.00000000000E+00 -0.00000000000E+00 -0.68763538260E+03  0.68763538260E+03  0.00000000000E+00 0. -1.
    9000010    2    1    2  502    0  0.56191381412E+03 -0.19308553386E+03  0.11996160404E+04  0.16684880734E+04  0.99586377028E+03 0.  0.
   -9000010    2    1    2    0  501 -0.56191381412E+03  0.19308553386E+03  0.31261683838E+03  0.12190155705E+04  0.10174676976E+04 0.  0.
        -13    1    3    3    0    0 -0.93683916416E+02  0.29776641361E+03  0.17877430077E+03  0.35972458221E+03  0.10566000000E+00 0.  1.
          4    1    3    3  502    0  0.65559773054E+03 -0.49085194747E+03  0.10208417396E+04  0.13087634912E+04  0.00000000000E+00 0.  1.
         13    1    4    4    0    0  0.40991609944E+02  0.35172112311E+03  0.45793999124E+03  0.57887572696E+03  0.10566000000E+00 0. -1.
         -4    1    4    4    0  501 -0.60290542407E+03 -0.15863558925E+03 -0.14532315286E+03  0.64013984355E+03  0.00000000000E+00 0. -1.
<mgrwt>
<rscale>  2 0.11689092E+04</rscale>
<asrwt>0</asrwt>
<pdfrwt beam="1">  1        2 0.33844127E+00 0.11689092E+04</pdfrwt>
<pdfrwt beam="2">  1       -2 0.10579006E+00 0.11689092E+04</pdfrwt>
<totfact> 0.56920578E+00</totfact>
</mgrwt>
</event>
<event>
 8    1  0.1373409E-005  0.1287394E+04  0.7818608E-02  0.8543506E-01
         -2   -1    0    0    0  501 -0.00000000000E+00  0.00000000000E+00  0.12678579723E+04  0.12678579723E+04  0.00000000000E+00 0.  1.
          2   -1    0    0  502    0  0.00000000000E+00 -0.00000000000E+00 -0.13115259040E+04  0.13115259040E+04  0.00000000000E+00 0. -1.
    9000010    2    1    2  502    0 -0.54095443431E+01  0.80116637114E+03  0.51776836115E+02  0.12925319463E+04  0.10129467775E+04 0.  0.
   -9000010    2    1    2    0  501  0.54095443431E+01 -0.80116637114E+03 -0.95444767804E+02  0.12868519300E+04  0.10024875903E+04 0.  0.
        -13    1    3    3    0    0 -0.51564336732E+02 -0.18189708788E+03 -0.20150608770E+03  0.27631530169E+03  0.10566000000E+00 0.  1.
          4    1    3    3  502    0  0.46154792389E+02  0.98306345902E+03  0.25328292382E+03  0.10162166446E+04  0.00000000000E+00 0.  1.
         13    1    4    4    0    0 -0.12626977410E+03  0.58169199127E+02  0.30085229019E+03  0.33142091553E+03  0.10566000000E+00 0. -1.
         -4    1    4    4    0  501  0.13167931844E+03 -0.85933557026E+03 -0.39629705799E+03  0.95543101446E+03  0.00000000000E+00 0. -1.
<mgrwt>
<rscale>  2 0.12873945E+04</rscale>
<asrwt>0</asrwt>
<pdfrwt beam="2">  1        2 0.20177322E+00 0.12873945E+04</pdfrwt>
<pdfrwt beam="1">  1       -2 0.19505507E+00 0.12873945E+04</pdfrwt>
<totfact> 0.27527154E+00</totfact>
</mgrwt>
</event>
<event>
 8    1  0.1373409E-005  0.1026018E+04  0.7818608E-02  0.8750523E-01
          2   -1    0    0  502    0  0.00000000000E+00  0.00000000000E+00  0.12295544374E+04  0.12295544374E+04  0.00000000000E+00 0. -1.
         -2   -1    0    0    0  501 -0.00000000000E+00 -0.00000000000E+00 -0.85843927930E+03  0.85843927930E+03  0.00000000000E+00 0.  1.
    9000010    2    1    2  502    0 -0.27890258265E+03 -0.30850104588E+03  0.19029589409E+03  0.99469281982E+03  0.88331293015E+03 0.  0.
   -9000010    2    1    2    0  501  0.27890258265E+03  0.30850104588E+03  0.18081926396E+03  0.10933008968E+04  0.99481239382E+03 0.  0.
        -13    1    3    3    0    0 -0.46993396171E+03 -0.32471674470E+03 -0.16188921706E+03  0.59370617516E+03  0.10566000000E+00 0.  1.
          4    1    3    3  502    0  0.19103137907E+03  0.16215698826E+02  0.35218511115E+03  0.40098664466E+03  0.00000000000E+00 0.  1.
         13    1    4    4    0    0  0.30580773665E+02  0.61242799115E+03  0.30066562801E+03  0.68293708282E+03  0.10566000000E+00 0. -1.
         -4    1    4    4    0  501  0.24832180898E+03 -0.30392694527E+03 -0.11984636405E+03  0.41036381402E+03  0.00000000000E+00 0. -1.
<mgrwt>
<rscale>  2 0.10260175E+04</rscale>
<asrwt>0</asrwt>
<pdfrwt beam="1">  1        2 0.18916222E+00 0.10260175E+04</pdfrwt>
<pdfrwt beam="2">  1       -2 0.13206758E+00 0.10260175E+04</pdfrwt>
<totfact> 0.10971614E+01</totfact>
</mgrwt>
</event>
<event>
 8    1  0.1373409E-005  0.1192152E+04  0.7818608E-02  0.8612496E-01
          2   -1    0    0  502    0  0.00000000000E+00  0.00000000000E+00  0.21097827430E+04  0.21097827430E+04  0.00000000000E+00 0.  1.
         -2   -1    0    0    0  501 -0.00000000000E+00 -0.00000000000E+00 -0.70259467977E+03  0.70259467977E+03  0.00000000000E+00 0. -1.
    9000010    2    1    2  502    0 -0.62503202284E+03  0.54772639169E+02  0.39898008932E+03  0.12189200442E+04  0.96587571199E+03 0.  0.
   -9000010    2    1    2    0  501  0.62503202284E+03 -0.54772639169E+02  0.10082079739E+04  0.15934573786E+04  0.10625243654E+04 0.  0.
        -13    1    3    3    0    0 -0.75505234229E+03  0.22281668988E+03  0.23619755902E+02  0.78759711841E+03  0.10566000000E+00 0.  1.
          4    1    3    3  502    0  0.13002031945E+03 -0.16804405071E+03  0.37536033342E+03  0.43132292584E+03  0.00000000000E+00 0.  1.
         13    1    4    4    0    0  0.10272058770E+03 -0.24263802518E+03  0.10043885908E+04  0.10383742981E+04  0.10566000000E+00 0. -1.
         -4    1    4    4    0  501  0.52231143514E+03  0.18786538601E+03  0.38193831322E+01  0.55508308047E+03  0.00000000000E+00 0. -1.
<mgrwt>
<rscale>  2 0.11921518E+04</rscale>
<asrwt>0</asrwt>
<pdfrwt beam="1">  1        2 0.32458196E+00 0.11921518E+04</pdfrwt>
<pdfrwt beam="2">  1       -2 0.10809149E+00 0.11921518E+04</pdfrwt>
<totfact> 0.60293674E+00</totfact>
</mgrwt>
</event>
<event>
 8    1  0.1373409E-005  0.1897612E+04  0.7818608E-02  0.8211402E-01
          2   -1    0    0  502    0  0.00000000000E+00  0.00000000000E+00  0.40642596877E+04  0.40642596877E+04  0.00000000000E+00 0. -1.
         -2   -1    0    0    0  501 -0.00000000000E+00 -0.00000000000E+00 -0.89166208048E+03  0.89166208048E+03  0.00000000000E+00 0.  1.
    9000010    2    1    2  502    0 -0.53958466467E+03  0.15269458385E+04  0.17752482576E+04  0.25914416107E+04  0.97023092163E+03 0.  0.
   -9000010    2    1    2    0  501  0.53958466467E+03 -0.15269458385E+04  0.13973493497E+04  0.23644801575E+04  0.10077033325E+04 0.  0.
        -13    1    3    3    0    0 -0.81687422547E+03  0.10325071303E+04  0.13205873767E+04  0.18647534703E+04  0.10566000000E+00 0.  1.
          4    1    3    3  502    0  0.27728956081E+03  0.49443870821E+03  0.45466088086E+03  0.72668814033E+03  0.00000000000E+00 0.  1.
         13    1    4    4    0    0  0.74824112994E+03 -0.13945224466E+04  0.14063829749E+04  0.21171846226E+04  0.10566000000E+00 0. -1.
         -4    1    4    4    0  501 -0.20865646528E+03 -0.13242339190E+03 -0.90336252844E+01  0.24729553496E+03  0.00000000000E+00 0. -1.
<mgrwt>
<rscale>  2 0.18976121E+04</rscale>
<asrwt>0</asrwt>
<pdfrwt beam="1">  1        2 0.62527071E+00 0.18976121E+04</pdfrwt>
<pdfrwt beam="2">  1       -2 0.13717878E+00 0.18976121E+04</pdfrwt>
<totfact> 0.14321969E-01</totfact>
</mgrwt>
</event>
<event>
 8    1  0.1373409E-005  0.1654840E+04  0.7818608E-02  0.8325567E-01
         -2   -1    0    0    0  501 -0.00000000000E+00  0.00000000000E+00  0.13088112287E+04  0.13088112287E+04  0.00000000000E+00 0.  1.
          2   -1    0    0  502    0  0.00000000000E+00 -0.00000000000E+00 -0.21241413981E+04  0.21241413981E+04  0.00000000000E+00 0. -1.
    9000010    2    1    2  502    0  0.42997125459E+03 -0.12505023511E+04 -0.19888944521E+03  0.16714390995E+04  0.10027563224E+04 0.  0.
   -9000010    2    1    2    0  501 -0.42997125459E+03  0.12505023511E+04 -0.61644072424E+03  0.17615135273E+04  0.98706602133E+03 0.  0.
        -13    1    3    3    0    0  0.29197496989E+03 -0.11392382363E+04 -0.53455299149E+03  0.12918436647E+04  0.10566000000E+00 0.  1.
          4    1    3    3  502    0  0.13799628470E+03 -0.11126411476E+03  0.33566354627E+03  0.37959543480E+03  0.00000000000E+00 0.  1.
         13    1    4    4    0    0  0.10316923554E+03  0.99539094637E+03 -0.15711647241E+03  0.10129820454E+04  0.10566000000E+00 0. -1.
         -4    1    4    4    0  501 -0.53314049013E+03  0.25511140474E+03 -0.45932425183E+03  0.74853148188E+03  0.00000000000E+00 0. -1.
<mgrwt>
<rscale>  2 0.16548404E+04</rscale>
<asrwt>0</asrwt>
<pdfrwt beam="2">  1        2 0.32679098E+00 0.16548404E+04</pdfrwt>
<pdfrwt beam="1">  1       -2 0.20135558E+00 0.16548404E+04</pdfrwt>
<totfact> 0.84130520E-01</totfact>
</mgrwt>
</event>
<event>
 8    1  0.1373409E-005  0.1137437E+04  0.7818608E-02  0.8655224E-01
         -1   -1    0    0    0  501 -0.00000000000E+00  0.00000000000E+00  0.12428642208E+04  0.12428642208E+04  0.00000000000E+00 0. -1.
          1   -1    0    0  502    0  0.00000000000E+00 -0.00000000000E+00 -0.12002074112E+04  0.12002074112E+04  0.00000000000E+00 0.  1.
    9000010    2    1    2  502    0 -0.72993926842E+02  0.53556089029E+03 -0.42361670386E+03  0.12147369120E+04  0.10019885594E+04 0.  0.
   -9000010    2    1    2    0  501  0.72993926842E+02 -0.53556089029E+03  0.46627351348E+03  0.12283347200E+04  0.99962073531E+03 0.  0.
        -13    1    3    3    0    0 -0.19260506068E+03  0.25881048389E+03 -0.72184890092E+03  0.79066138321E+03  0.10566000000E+00 0.  1.
          4    1    3    3  502    0  0.11961113384E+03  0.27675040639E+03  0.29823219706E+03  0.42407552882E+03  0.00000000000E+00 0.  1.
         13    1    4    4    0    0  0.47307443250E+03 -0.38598356491E+03  0.51458166032E+03  0.79848420609E+03  0.10566000000E+00 0. -1.
         -4    1    4    4    0  501 -0.40008050566E+03 -0.14957732538E+03 -0.48308146843E+02  0.42985051393E+03  0.00000000000E+00 0. -1.
<mgrwt>
<rscale>  2 0.11374369E+04</rscale>
<asrwt>0</asrwt>
<pdfrwt beam="2">  1        1 0.18464729E+00 0.11374369E+04</pdfrwt>
<pdfrwt beam="1">  1       -1 0.19120988E+00 0.11374369E+04</pdfrwt>
<totfact> 0.23872551E+00</totfact>
</mgrwt>
</event>
<event>
 8    1  0.1373409E-005  0.1310873E+04  0.7818608E-02  0.8527444E-01
          2   -1    0    0  502    0  0.00000000000E+00  0.00000000000E+00  0.33246006226E+04  0.33246006226E+04  0.00000000000E+00 0. -1.
         -2   -1    0    0    0  501 -0.00000000000E+00 -0.00000000000E+00 -0.51693834594E+03  0.51693834594E+03  0.00000000000E+00 0.  1.
    9000010    2    1    2  502    0  0.29313777322E+03  0.80277029215E+03  0.14248739421E+04  0.19355330729E+04  0.99280039746E+03 0.  0.
   -9000010    2    1    2    0  501 -0.29313777322E+03 -0.80277029215E+03  0.13827883345E+04  0.19060058957E+04  0.99518088816E+03 0.  0.
        -13    1    3    3    0    0 -0.25565215429E+03  0.32068882675E+03  0.99222755615E+02  0.42195321303E+03  0.10566000000E+00 0.  1.
          4    1    3    3  502    0  0.54878992751E+03  0.48208146540E+03  0.13256511865E+04  0.15135798598E+04  0.00000000000E+00 0.  1.
         13    1    4    4    0    0 -0.52083382354E+03 -0.82804001822E+03  0.74886572496E+03  0.12319569914E+04  0.10566000000E+00 0. -1.
         -4    1    4    4    0  501  0.22769605032E+03  0.25269726068E+02  0.63392260959E+03  0.67404890426E+03  0.00000000000E+00 0. -1.
<mgrwt>
<rscale>  2 0.13108726E+04</rscale>
<asrwt>0</asrwt>
<pdfrwt beam="1">  1        2 0.51147701E+00 0.13108726E+04</pdfrwt>
<pdfrwt beam="2">  1       -2 0.79528978E-01 0.13108726E+04</pdfrwt>
<totfact> 0.23256187E+00</totfact>
</mgrwt>
</event>
<event>
 8    1  0.1373409E-005  0.1230349E+04  0.7818608E-02  0.8584053E-01
          4   -1    0    0  502    0  0.00000000000E+00  0.00000000000E+00  0.29663446738E+04  0.29663446738E+04  0.00000000000E+00 0.  1.
         -4   -1    0    0    0  501 -0.00000000000E+00 -0.00000000000E+00 -0.51287489350E+03  0.51287489350E+03  0.00000000000E+00 0. -1.
    9000010    2    1    2  502    0 -0.69079455882E+03  0.83666857432E+02  0.13409081170E+04  0.18142349372E+04  0.10045977124E+04 0.  0.
   -9000010    2    1    2    0  501  0.69079455882E+03 -0.83666857432E+02  0.11125616633E+04  0.16649846301E+04  0.10247844155E+04 0.  0.
        -13    1    3    3    0    0  0.10992608307E+03 -0.28613346551E+03  0.54960126243E+03  0.62929934264E+03  0.10566000000E+00 0.  1.
          4    1    3    3  502    0 -0.80072064189E+03  0.36980032294E+03  0.79130685454E+03  0.11849355946E+04  0.00000000000E+00 0.  1.
         13    1    4    4    0    0  0.12623436174E+03  0.44632163047E+03  0.44029527252E+03  0.63952955372E+03  0.10566000000E+00 0. -1.
         -4    1    4    4    0  501  0.56456019708E+03 -0.52998848790E+03  0.67226639079E+03  0.10254550764E+04  0.00000000000E+00 0. -1.
<mgrwt>
<rscale>  2 0.12303489E+04</rscale>
<asrwt>0</asrwt>
<pdfrwt beam="1">  1        4 0.45636071E+00 0.12303489E+04</pdfrwt>
<pdfrwt beam="2">  1       -4 0.78903831E-01 0.12303489E+04</pdfrwt>
<totfact> 0.12668073E-01</totfact>
</mgrwt>
</event>
<event>
 8    1  0.1373409E-005  0.1526948E+04  0.7818608E-02  0.8394157E-01
          4   -1    0    0  502    0  0.00000000000E+00  0.00000000000E+00  0.24083555314E+04  0.24083555314E+04  0.00000000000E+00 0.  1.
         -4   -1    0    0    0  501 -0.00000000000E+00 -0.00000000000E+00 -0.12139005915E+04  0.12139005915E+04  0.00000000000E+00 0. -1.
    9000010    2    1    2  502    0  0.99093138453E+03 -0.55129751390E+03  0.14133763726E+04  0.20835163438E+04  0.10283645398E+04 0.  0.
   -9000010    2    1    2    0  501 -0.99093138453E+03  0.55129751390E+03 -0.21892143272E+03  0.15387397790E+04  0.10168183495E+04 0.  0.
        -13    1    3    3    0    0  0.65264500453E+03 -0.15705214042E+03  0.10974018442E+03  0.68018658910E+03  0.10566000000E+00 0.  1.
          4    1    3    3  502    0  0.33828638000E+03 -0.39424537348E+03  0.13036361882E+04  0.14033297547E+04  0.00000000000E+00 0.  1.
         13    1    4    4    0    0 -0.26937068186E+03  0.54737373741E+03  0.26998401954E+03  0.66713563435E+03  0.10566000000E+00 0. -1.
         -4    1    4    4    0  501 -0.72156070266E+03  0.39237764856E+01 -0.48890545225E+03  0.87160414461E+03  0.00000000000E+00 0. -1.
<mgrwt>
<rscale>  2 0.15269482E+04</rscale>
<asrwt>0</asrwt>
<pdfrwt beam="1">  1        4 0.37051623E+00 0.15269482E+04</pdfrwt>
<pdfrwt beam="2">  1       -4 0.18675394E+00 0.15269482E+04</pdfrwt>
<totfact> 0.65299007E-02</totfact>
</mgrwt>
</event>
<event>
 8    1  0.1373409E-005  0.1407976E+04  0.7818608E-02  0.8464510E-01
         -2   -1    0    0    0  501 -0.00000000000E+00  0.00000000000E+00  0.79814356615E+03  0.79814356615E+03  0.00000000000E+00 0. -1.
          2   -1    0    0  502    0  0.00000000000E+00 -0.00000000000E+00 -0.26673396720E+04  0.26673396720E+04  0.00000000000E+00 0.  1.
    9000010    2    1    2  502    0 -0.45187924284E+03  0.86823381364E+03 -0.13905813051E+04  0.19805464976E+04  0.10152946654E+04 0.  0.
   -9000010    2    1    2    0  501  0.45187924284E+03 -0.86823381364E+03 -0.47861480071E+03  0.14849367406E+04  0.10089302210E+04 0.  0.
        -13    1    3    3    0    0 -0.18867188000E+03  0.26283010611E+03  0.10955503393E+03  0.34158316645E+03  0.10566000000E+00 0.  1.
          4    1    3    3  502    0 -0.26320736285E+03  0.60540370753E+03 -0.15001363391E+04  0.16389633311E+04  0.00000000000E+00 0.  1.
         13    1    4    4    0    0  0.28801370727E+03 -0.56725657012E+03 -0.79521487908E+03  0.10183803941E+04  0.10566000000E+00 0. -1.
         -4    1    4    4    0  501  0.16386553557E+03 -0.30097724352E+03  0.31660007837E+03  0.46655634654E+03  0.00000000000E+00 0. -1.
<mgrwt>
<rscale>  2 0.14079759E+04</rscale>
<asrwt>0</asrwt>
<pdfrwt beam="2">  1        2 0.41035996E+00 0.14079759E+04</pdfrwt>
<pdfrwt beam="1">  1       -2 0.12279132E+00 0.14079759E+04</pdfrwt>
<totfact> 0.20706210E+00</totfact>
</mgrwt>
</event>
<event>
 8    1  0.1373409E-005  0.1349778E+04  0.7818608E-02  0.8501577E-01
         -1   -1    0    0    0  501 -0.00000000000E+00  0.00000000000E+00  0.28011564506E+04  0.28011564506E+04  0.00000000000E+00 0.  1.
          1   -1    0    0  502    0  0.00000000000E+00 -0.00000000000E+00 -0.81856448447E+03  0.81856448447E+03  0.00000000000E+00 0. -1.
    9000010    2    1    2  502    0  0.84147005850E+03 -0.26281186802E+03  0.18145623476E+04  0.22646049934E+04  0.10289107472E+04 0.  0.
   -9000010    2    1    2    0  501 -0.84147005850E+03  0.26281186802E+03  0.16802961857E+03  0.13551159417E+04  0.10153636419E+04 0.  0.
        -13    1    3    3    0    0  0.31346334744E+02  0.33211618557E+03  0.31129685493E+03  0.45627787200E+03  0.10566000000E+00 0.  1.
          4    1    3    3  502    0  0.81012372375E+03 -0.59492805359E+03  0.15032654926E+04  0.18083271214E+04  0.00000000000E+00 0.  1.
         13    1    4    4    0    0 -0.43325149210E+03 -0.27330004040E+03 -0.24178211796E+03  0.56644361699E+03  0.10566000000E+00 0. -1.
         -4    1    4    4    0  501 -0.40821856639E+03  0.53611190842E+03  0.40981173653E+03  0.78867232467E+03  0.00000000000E+00 0. -1.
<mgrwt>
<rscale>  2 0.13497776E+04</rscale>
<asrwt>0</asrwt>
<pdfrwt beam="2">  1        1 0.12593300E+00 0.13497776E+04</pdfrwt>
<pdfrwt beam="1">  1       -1 0.43094714E+00 0.13497776E+04</pdfrwt>
<totfact> 0.32980101E-01</totfact>
</mgrwt>
</event>
<event>
 8    1  0.1373409E-005  0.1220911E+04  0.7818608E-02  0.8590980E-01
          2   -1    0    0  502    0  0.00000000000E+00  0.00000000000E+00  0.21728137850E+04  0.21728137850E+04  0.00000000000E+00 0.  1.
         -2   -1    0    0    0  501 -0.00000000000E+00 -0.00000000000E+00 -0.68664410895E+03  0.68664410895E+03  0.00000000000E+00 0. -1.
    9000010    2    1    2  502    0  0.68181870887E+03  0.21987944957E+03  0.78355925895E+03  0.14480035358E+04  0.98464481076E+03 0.  0.
   -9000010    2    1    2    0  501 -0.68181870887E+03 -0.21987944957E+03  0.70261041708E+03  0.14114543581E+04  0.99263199763E+03 0.  0.
        -13    1    3    3    0    0  0.44313510952E+03  0.37961303566E+03  0.95086458998E+03  0.11156246061E+04  0.10566000000E+00 0.  1.
          4    1    3    3  502    0  0.23868359935E+03 -0.15973358609E+03 -0.16730533102E+03  0.33237892971E+03  0.00000000000E+00 0.  1.
         13    1    4    4    0    0 -0.19538284093E+03 -0.23738538507E+02  0.84529077292E+03  0.86790234168E+03  0.10566000000E+00 0. -1.
         -4    1    4    4    0  501 -0.48643586794E+03 -0.19614091106E+03 -0.14268035585E+03  0.54355201642E+03  0.00000000000E+00 0. -1.
<mgrwt>
<rscale>  2 0.12209114E+04</rscale>
<asrwt>0</asrwt>
<pdfrwt beam="1">  1        2 0.33427904E+00 0.12209114E+04</pdfrwt>
<pdfrwt beam="2">  1       -2 0.10563756E+00 0.12209114E+04</pdfrwt>
<totfact> 0.58764277E+00</totfact>
</mgrwt>
</event>
<event>
 8    1  0.1373409E-005  0.1284576E+04  0.7818608E-02  0.8545458E-01
         -2   -1    0    0    0  501 -0.00000000000E+00  0.00000000000E+00  0.21693451670E+04  0.21693451670E+04  0.00000000000E+00 0. -1.
          2   -1    0    0  502    0  0.00000000000E+00 -0.00000000000E+00 -0.81971783845E+03  0.81971783845E+03  0.00000000000E+00 0.  1.
    9000010    2    1    2  502    0  0.76988297817E+03 -0.21583746624E+03  0.10753903712E+04  0.16743923713E+04  0.10039022615E+04 0.  0.
   -9000010    2    1    2    0  501 -0.76988297817E+03  0.21583746624E+03  0.27423695736E+03  0.13146706342E+04  0.10068998737E+04 0.  0.
        -13    1    3    3    0    0  0.63443427931E+03 -0.49304245548E+03  0.33174026597E+03  0.86928092864E+03  0.10566000000E+00 0.  1.
          4    1    3    3  502    0  0.13544869886E+03  0.27720498924E+03  0.74365010524E+03  0.80511144267E+03  0.00000000000E+00 0.  1.
         13    1    4    4    0    0 -0.73729001827E+03  0.24018674506E+03  0.60369032951E+03  0.98271474429E+03  0.10566000000E+00 0. -1.
         -4    1    4    4    0  501 -0.32592959901E+02 -0.24349278823E+02 -0.32945337215E+03  0.33195588989E+03  0.00000000000E+00 0. -1.
<mgrwt>
<rscale>  2 0.12845764E+04</rscale>
<asrwt>0</asrwt>
<pdfrwt beam="2">  1        2 0.12611044E+00 0.12845764E+04</pdfrwt>
<pdfrwt beam="1">  1       -2 0.33374541E+00 0.12845764E+04</pdfrwt>
<totfact> 0.50703383E-01</totfact>
</mgrwt>
</event>
<event>
 8    1  0.1373409E-005  0.1218006E+04  0.7818608E-02  0.8593125E-01
          1   -1    0    0  502    0  0.00000000000E+00  0.00000000000E+00  0.22745127022E+04  0.22745127022E+04  0.00000000000E+00 0.  1.
         -1   -1    0    0    0  501 -0.00000000000E+00 -0.00000000000E+00 -0.67017870054E+03  0.67017870054E+03  0.00000000000E+00 0. -1.
    9000010    2    1    2  502    0  0.70901483470E+03  0.20106068042E+01  0.10416802391E+04  0.16011229461E+04  0.98782128426E+03 0.  0.
   -9000010    2    1    2    0  501 -0.70901483470E+03 -0.20106068042E+01  0.56265376262E+03  0.13435684567E+04  0.99292037085E+03 0.  0.
        -13    1    3    3    0    0  0.12179206183E+03  0.16046161136E+03  0.96766505850E+03  0.98841130692E+03  0.10566000000E+00 0.  1.
          4    1    3    3  502    0  0.58722277286E+03 -0.15845100455E+03  0.74015180579E+02  0.61271163917E+03  0.00000000000E+00 0.  1.
         13    1    4    4    0    0  0.37580711384E+02 -0.38096638921E+03  0.17702969800E+03  0.42176678948E+03  0.10566000000E+00 0. -1.
         -4    1    4    4    0  501 -0.74659554608E+03  0.37895578240E+03  0.38562406462E+03  0.92180166721E+03  0.00000000000E+00 0. -1.
<mgrwt>
<rscale>  2 0.12180059E+04</rscale>
<asrwt>0</asrwt>
<pdfrwt beam="1">  1        1 0.34992503E+00 0.12180059E+04</pdfrwt>
<pdfrwt beam="2">  1       -1 0.10310442E+00 0.12180059E+04</pdfrwt>
<totfact> 0.21411346E+00</totfact>
</mgrwt>
</event>
<event>
 8    1  0.1373409E-005  0.1212224E+04  0.7818608E-02  0.8597413E-01
          2   -1    0    0  502    0  0.00000000000E+00  0.00000000000E+00  0.36490279466E+04  0.36490279466E+04  0.00000000000E+00 0.  1.
         -2   -1    0    0    0  501 -0.00000000000E+00 -0.00000000000E+00 -0.45440779096E+03  0.45440779096E+03  0.00000000000E+00 0. -1.
    9000010    2    1    2  502    0 -0.66879385443E+03 -0.21013047402E+03  0.91356456189E+03  0.15235623544E+04  0.99759811713E+03 0.  0.
   -9000010    2    1    2    0  501  0.66879385443E+03  0.21013047402E+03  0.22810555938E+04  0.25798733831E+04  0.98035300543E+03 0.  0.
        -13    1    3    3    0    0 -0.57102901689E+03 -0.41774253352E+03  0.10428228238E+04  0.12601834848E+04  0.10566000000E+00 0.  1.
          4    1    3    3  502    0 -0.97764837534E+02  0.20761205950E+03 -0.12925826188E+03  0.26337886964E+03  0.00000000000E+00 0.  1.
         13    1    4    4    0    0  0.19084093049E+03  0.20135001274E+03  0.30480403148E+02  0.27908986818E+03  0.10566000000E+00 0. -1.
         -4    1    4    4    0  501  0.47795292394E+03  0.87804612821E+01  0.22505751906E+04  0.23007835149E+04  0.00000000000E+00 0. -1.
<mgrwt>
<rscale>  2 0.12122244E+04</rscale>
<asrwt>0</asrwt>
<pdfrwt beam="1">  1        2 0.56138889E+00 0.12122244E+04</pdfrwt>
<pdfrwt beam="2">  1       -2 0.69908893E-01 0.12122244E+04</pdfrwt>
<totfact> 0.17929945E+00</totfact>
</mgrwt>
</event>
<event>
 8    1  0.1373409E-005  0.1123955E+04  0.7818608E-02  0.8666137E-01
         -2   -1    0    0    0  501 -0.00000000000E+00  0.00000000000E+00  0.59575451632E+03  0.59575451632E+03  0.00000000000E+00 0.  1.
          2   -1    0    0  502    0  0.00000000000E+00 -0.00000000000E+00 -0.21453080053E+04  0.21453080053E+04  0.00000000000E+00 0. -1.
    9000010    2    1    2  502    0 -0.43307115397E+03 -0.31159778760E+03 -0.92421298534E+03  0.14574005592E+04  0.99257389750E+03 0.  0.
   -9000010    2    1    2    0  501  0.43307115397E+03  0.31159778760E+03 -0.62534050365E+03  0.12836619624E+04  0.98594801217E+03 0.  0.
        -13    1    3    3    0    0 -0.74968840717E+03 -0.30454050196E+03 -0.63634163258E+03  0.10294213470E+04  0.10566000000E+00 0.  1.
          4    1    3    3  502    0  0.31661725320E+03 -0.70572856441E+01 -0.28787135276E+03  0.42797921216E+03  0.00000000000E+00 0.  1.
         13    1    4    4    0    0 -0.14604184398E+03  0.29785683958E+03  0.10823716489E+03  0.34894442553E+03  0.10566000000E+00 0. -1.
         -4    1    4    4    0  501  0.57911299795E+03  0.13740948017E+02 -0.73357766854E+03  0.93471753692E+03  0.00000000000E+00 0. -1.
<mgrwt>
<rscale>  2 0.11239551E+04</rscale>
<asrwt>0</asrwt>
<pdfrwt beam="2">  1        2 0.33004739E+00 0.11239551E+04</pdfrwt>
<pdfrwt beam="1">  1       -2 0.91654541E-01 0.11239551E+04</pdfrwt>
<totfact> 0.86306170E+00</totfact>
</mgrwt>
</event>
<event>
 8    1  0.1373409E-005  0.1005423E+04  0.7818608E-02  0.8769512E-01
          2   -1    0    0  502    0  0.00000000000E+00  0.00000000000E+00  0.15136439209E+04  0.15136439209E+04  0.00000000000E+00 0. -1.
         -2   -1    0    0    0  501 -0.00000000000E+00 -0.00000000000E+00 -0.68033092280E+03  0.68033092280E+03  0.00000000000E+00 0.  1.
    9000010    2    1    2  502    0 -0.18173686791E+02 -0.14572014362E+03  0.26981749626E+03  0.10450760657E+04  0.99890833351E+03 0.  0.
   -9000010    2    1    2    0  501  0.18173686791E+02  0.14572014362E+03  0.56349550180E+03  0.11488987779E+04  0.99039213357E+03 0.  0.
        -13    1    3    3    0    0  0.18682428237E+03  0.14878483483E+03 -0.29275009077E+03  0.37781326918E+03  0.10566000000E+00 0.  1.
          4    1    3    3  502    0 -0.20499796916E+03 -0.29450497845E+03  0.56256758703E+03  0.66726279656E+03  0.00000000000E+00 0.  1.
         13    1    4    4    0    0  0.36445614778E+03 -0.26365688211E+03  0.15845878141E+03  0.47691973298E+03  0.10566000000E+00 0. -1.
         -4    1    4    4    0  501 -0.34628246099E+03  0.40937702573E+03  0.40503672039E+03  0.67197904495E+03  0.00000000000E+00 0. -1.
<mgrwt>
<rscale>  2 0.10054235E+04</rscale>
<asrwt>0</asrwt>
<pdfrwt beam="1">  1        2 0.23286829E+00 0.10054235E+04</pdfrwt>
<pdfrwt beam="2">  1       -2 0.10466630E+00 0.10054235E+04</pdfrwt>
<totfact> 0.14045024E+01</totfact>
</mgrwt>
</event>
<event>
 8    1  0.1373409E-005  0.1089193E+04  0.7818608E-02  0.8695027E-01
         -2   -1    0    0    0  501 -0.00000000000E+00  0.00000000000E+00  0.13519895065E+04  0.13519895065E+04  0.00000000000E+00 0.  1.
          2   -1    0    0  502    0  0.00000000000E+00 -0.00000000000E+00 -0.88993207465E+03  0.88993207465E+03  0.00000000000E+00 0. -1.
    9000010    2    1    2  502    0 -0.50722009503E+03 -0.31909903921E+03  0.31104732524E+03  0.10528224098E+04  0.80782929293E+03 0.  0.
   -9000010    2    1    2    0  501  0.50722009503E+03  0.31909903921E+03  0.15101010664E+03  0.11890991713E+04  0.10159017498E+04 0.  0.
        -13    1    3    3    0    0 -0.23326119639E+03 -0.37419921251E+02  0.54605904750E+03  0.59497187393E+03  0.10566000000E+00 0.  1.
          4    1    3    3  502    0 -0.27395889865E+03 -0.28167911796E+03 -0.23501172226E+03  0.45785053592E+03  0.00000000000E+00 0.  1.
         13    1    4    4    0    0 -0.22005260796E+03  0.32119103330E+03  0.23849341189E+03  0.45658071446E+03  0.10566000000E+00 0. -1.
         -4    1    4    4    0  501  0.72727270299E+03 -0.20919940895E+01 -0.87483305249E+02  0.73251845687E+03  0.00000000000E+00 0. -1.
<mgrwt>
<rscale>  2 0.10891934E+04</rscale>
<asrwt>0</asrwt>
<pdfrwt beam="2">  1        2 0.13691263E+00 0.10891934E+04</pdfrwt>
<pdfrwt beam="1">  1       -2 0.20799839E+00 0.10891934E+04</pdfrwt>
<totfact> 0.39008612E+00</totfact>
</mgrwt>
</event>
<event>
 8    1  0.1373409E-005  0.1113353E+04  0.7818608E-02  0.8674832E-01
         -2   -1    0    0    0  501 -0.00000000000E+00  0.00000000000E+00  0.42439870586E+03  0.42439870586E+03  0.00000000000E+00 0. -1.
          2   -1    0    0  502    0  0.00000000000E+00 -0.00000000000E+00 -0.35075222866E+04  0.35075222866E+04  0.00000000000E+00 0.  1.
    9000010    2    1    2  502    0 -0.38830862811E+03  0.22702953459E+03 -0.23346807133E+04  0.25825484448E+04  0.10082144792E+04 0.  0.
   -9000010    2    1    2    0  501  0.38830862811E+03 -0.22702953459E+03 -0.74844286736E+03  0.13493725477E+04  0.10287436738E+04 0.  0.
        -13    1    3    3    0    0  0.24993052717E+03 -0.13917505426E+03 -0.11733842344E+04  0.12077522664E+04  0.10566000000E+00 0.  1.
          4    1    3    3  502    0 -0.63823915527E+03  0.36620458885E+03 -0.11612964789E+04  0.13747961784E+04  0.00000000000E+00 0.  1.
         13    1    4    4    0    0  0.20864919853E+03  0.32728720721E+03 -0.65193587666E+03  0.75873038854E+03  0.10566000000E+00 0. -1.
         -4    1    4    4    0  501  0.17965942957E+03 -0.55431674181E+03 -0.96506990706E+02  0.59064215913E+03  0.00000000000E+00 0. -1.
<mgrwt>
<rscale>  2 0.11133529E+04</rscale>
<asrwt>0</asrwt>
<pdfrwt beam="2">  1        2 0.53961882E+00 0.11133529E+04</pdfrwt>
<pdfrwt beam="1">  1       -2 0.65292108E-01 0.11133529E+04</pdfrwt>
<totfact> 0.26942107E+00</totfact>
</mgrwt>
</event>
<event>
 8    1  0.1373409E-005  0.1268944E+04  0.7818608E-02  0.8556378E-01
          2   -1    0    0  502    0  0.00000000000E+00  0.00000000000E+00  0.22156866447E+04  0.22156866447E+04  0.00000000000E+00 0. -1.
         -2   -1    0    0    0  501 -0.00000000000E+00 -0.00000000000E+00 -0.88690792637E+03  0.88690792637E+03  0.00000000000E+00 0.  1.
    9000010    2    1    2  502    0 -0.12294553112E+02  0.72260550933E+03 -0.12898595430E+02  0.12220341353E+04  0.98533810229E+03 0.  0.
   -9000010    2    1    2    0  501  0.12294553112E+02 -0.72260550933E+03  0.13416773138E+04  0.18805604358E+04  0.11018619062E+04 0.  0.
        -13    1    3    3    0    0 -0.22390676382E+02  0.81480740281E+03  0.32058477068E+03  0.87589214657E+03  0.10566000000E+00 0.  1.
          4    1    3    3  502    0  0.10096123270E+02 -0.92201893483E+02 -0.33348336611E+03  0.34614198869E+03  0.00000000000E+00 0.  1.
         13    1    4    4    0    0 -0.15418733522E+02 -0.99310346184E+03  0.80330022238E+03  0.12774128079E+04  0.10566000000E+00 0. -1.
         -4    1    4    4    0  501  0.27713286634E+02  0.27049795251E+03  0.53837709138E+03  0.60314762794E+03  0.00000000000E+00 0. -1.
<mgrwt>
<rscale>  2 0.12689445E+04</rscale>
<asrwt>0</asrwt>
<pdfrwt beam="1">  1        2 0.34087487E+00 0.12689445E+04</pdfrwt>
<pdfrwt beam="2">  1       -2 0.13644737E+00 0.12689445E+04</pdfrwt>
<totfact> 0.28096062E+00</totfact>
</mgrwt>
</event>
<event>
 8    1  0.1373409E-005  0.1204871E+04  0.7818608E-02  0.8602904E-01
         -2   -1    0    0    0  501 -0.00000000000E+00  0.00000000000E+00  0.95202400653E+03  0.95202400653E+03  0.00000000000E+00 0. -1.
          2   -1    0    0  502    0  0.00000000000E+00 -0.00000000000E+00 -0.27588743652E+04  0.27588743652E+04  0.00000000000E+00 0.  1.
    9000010    2    1    2  502    0 -0.63727788259E+03  0.17539670285E+03 -0.21394138885E+04  0.24497027428E+04  0.99351126771E+03 0.  0.
   -9000010    2    1    2    0  501  0.63727788259E+03 -0.17539670285E+03  0.33256352980E+03  0.12611956289E+04  0.10213367760E+04 0.  0.
        -13    1    3    3    0    0 -0.78163493680E+02  0.32634989948E+03 -0.13231710031E+03  0.36072373756E+03  0.10566000000E+00 0.  1.
          4    1    3    3  502    0 -0.55911438891E+03 -0.15095319664E+03 -0.20070967881E+04  0.20889790053E+04  0.00000000000E+00 0.  1.
         13    1    4    4    0    0  0.39862114895E+03 -0.56054402789E+03  0.41113707600E+03  0.80133771534E+03  0.10566000000E+00 0. -1.
         -4    1    4    4    0  501  0.23865673363E+03  0.38514732505E+03 -0.78573546207E+02  0.45985791356E+03  0.00000000000E+00 0. -1.
<mgrwt>
<rscale>  2 0.12048706E+04</rscale>
<asrwt>0</asrwt>
<pdfrwt beam="2">  1        2 0.42444221E+00 0.12048706E+04</pdfrwt>
<pdfrwt beam="1">  1       -2 0.14646523E+00 0.12048706E+04</pdfrwt>
<totfact> 0.11386441E+00</totfact>
</mgrwt>
</event>
<event>
 8    1  0.1373409E-005  0.1519125E+04  0.7818608E-02  0.8398577E-01
          1   -1    0    0  502    0  0.00000000000E+00  0.00000000000E+00  0.84871163210E+03  0.84871163210E+03  0.00000000000E+00 0. -1.
         -1   -1    0    0    0  501 -0.00000000000E+00 -0.00000000000E+00 -0.27763622596E+04  0.27763622596E+04  0.00000000000E+00 0.  1.
    9000010    2    1    2  502    0  0.28784575049E+03 -0.11134365198E+04 -0.12296334016E+04  0.19616543940E+04  0.10067241923E+04 0.  0.
   -9000010    2    1    2    0  501 -0.28784575049E+03  0.11134365198E+04 -0.69801722594E+03  0.16634194977E+04  0.97833548337E+03 0.  0.
        -13    1    3    3    0    0 -0.36718494459E+03 -0.53879762223E+03 -0.44807206825E+03  0.79113605073E+03  0.10566000000E+00 0.  1.
          4    1    3    3  502    0  0.65503069508E+03 -0.57463889758E+03 -0.78156133332E+03  0.11705183432E+04  0.00000000000E+00 0.  1.
         13    1    4    4    0    0  0.70935338527E+02  0.59069696353E+03 -0.82466844885E+03  0.10168740269E+04  0.10566000000E+00 0. -1.
         -4    1    4    4    0  501 -0.35878108901E+03  0.52273955628E+03  0.12665122292E+03  0.64654547079E+03  0.00000000000E+00 0. -1.
<mgrwt>
<rscale>  2 0.15191251E+04</rscale>
<asrwt>0</asrwt>
<pdfrwt beam="1">  1        1 0.13057102E+00 0.15191251E+04</pdfrwt>
<pdfrwt beam="2">  1       -1 0.42713266E+00 0.15191251E+04</pdfrwt>
<totfact> 0.30713533E-01</totfact>
</mgrwt>
</event>
<event>
 8    1  0.1373409E-005  0.1153684E+04  0.7818608E-02  0.8642280E-01
          2   -1    0    0  502    0  0.00000000000E+00  0.00000000000E+00  0.21466046224E+04  0.21466046224E+04  0.00000000000E+00 0.  1.
         -2   -1    0    0    0  501 -0.00000000000E+00 -0.00000000000E+00 -0.63267949473E+03  0.63267949473E+03  0.00000000000E+00 0. -1.
    9000010    2    1    2  502    0  0.40729223319E+03  0.39608097363E+03  0.55804872813E+03  0.12779613488E+04  0.99949973751E+03 0.  0.
   -9000010    2    1    2    0  501 -0.40729223319E+03 -0.39608097363E+03  0.95587639950E+03  0.15013227683E+04  0.10087136672E+04 0.  0.
        -13    1    3    3    0    0  0.16048299986E+03 -0.31590111998E+03  0.25537371749E+02  0.35524706807E+03  0.10566000000E+00 0.  1.
          4    1    3    3  502    0  0.24680923333E+03  0.71198209361E+03  0.53251135639E+03  0.92271428078E+03  0.00000000000E+00 0.  1.
         13    1    4    4    0    0 -0.56889140781E+03 -0.64519575986E+03  0.73108490682E+03  0.11288933318E+04  0.10566000000E+00 0. -1.
         -4    1    4    4    0  501  0.16159917462E+03  0.24911478624E+03  0.22479149269E+03  0.37242943646E+03  0.00000000000E+00 0. -1.
<mgrwt>
<rscale>  2 0.11536839E+04</rscale>
<asrwt>0</asrwt>
<pdfrwt beam="1">  1        2 0.33024686E+00 0.11536839E+04</pdfrwt>
<pdfrwt beam="2">  1       -2 0.97335308E-01 0.11536839E+04</pdfrwt>
<totfact> 0.74585016E+00</totfact>
</mgrwt>
</event>
<event>
 8    1  0.1373409E-005  0.1499607E+04  0.7818608E-02  0.8409725E-01
         -1   -1    0    0    0  501 -0.00000000000E+00  0.00000000000E+00  0.17996487104E+04  0.17996487104E+04  0.00000000000E+00 0. -1.
          1   -1    0    0  502    0  0.00000000000E+00 -0.00000000000E+00 -0.12715086264E+04  0.12715086264E+04  0.00000000000E+00 0.  1.
    9000010    2    1    2  502    0  0.95231639504E+03  0.49880719891E+03  0.46555954346E+03  0.15695028555E+04  0.10444512373E+04 0.  0.
   -9000010    2    1    2    0  501 -0.95231639504E+03 -0.49880719891E+03  0.62580540495E+02  0.15016544812E+04  0.10465823995E+04 0.  0.
        -13    1    3    3    0    0  0.27214859129E+03  0.15145177606E+03 -0.33888176646E+03  0.46026444465E+03  0.10566000000E+00 0.  1.
          4    1    3    3  502    0  0.68016780375E+03  0.34735542286E+03  0.80444130992E+03  0.11092384109E+04  0.00000000000E+00 0.  1.
         13    1    4    4    0    0 -0.10066817737E+04 -0.68572369752E+03  0.23629739871E+03  0.12407504401E+04  0.10566000000E+00 0. -1.
         -4    1    4    4    0  501  0.54365378644E+02  0.18691649861E+03 -0.17371685821E+03  0.26090404113E+03  0.00000000000E+00 0. -1.
<mgrwt>
<rscale>  2 0.14996068E+04</rscale>
<asrwt>0</asrwt>
<pdfrwt beam="2">  1        1 0.19561671E+00 0.14996068E+04</pdfrwt>
<pdfrwt beam="1">  1       -1 0.27686903E+00 0.14996068E+04</pdfrwt>
<totfact> 0.31237921E-01</totfact>
</mgrwt>
</event>
<event>
 8    1  0.1373409E-005  0.1125323E+04  0.7818608E-02  0.8665023E-01
          1   -1    0    0  502    0  0.00000000000E+00  0.00000000000E+00  0.75278401901E+03  0.75278401901E+03  0.00000000000E+00 0.  1.
         -1   -1    0    0    0  501 -0.00000000000E+00 -0.00000000000E+00 -0.17206102029E+04  0.17206102029E+04  0.00000000000E+00 0. -1.
    9000010    2    1    2  502    0 -0.51865442126E+03 -0.98034777822E+01 -0.67221412486E+03  0.13187325570E+04  0.10090020863E+04 0.  0.
   -9000010    2    1    2    0  501  0.51865442126E+03  0.98034777822E+01 -0.29561205906E+03  0.11546616650E+04  0.98831096029E+03 0.  0.
        -13    1    3    3    0    0  0.22270276241E+03 -0.11755613622E+02 -0.51454050304E+03  0.56079109771E+03  0.10566000000E+00 0.  1.
          4    1    3    3  502    0 -0.74135718368E+03  0.19521358395E+01 -0.15767362182E+03  0.75794145925E+03  0.00000000000E+00 0.  1.
         13    1    4    4    0    0  0.58936547887E+03 -0.20601927713E+03  0.16093551777E+03  0.64474480400E+03  0.10566000000E+00 0. -1.
         -4    1    4    4    0  501 -0.70711057608E+02  0.21582275491E+03 -0.45654757683E+03  0.50991686098E+03  0.00000000000E+00 0. -1.
<mgrwt>
<rscale>  2 0.11253230E+04</rscale>
<asrwt>0</asrwt>
<pdfrwt beam="1">  1        1 0.11581293E+00 0.11253230E+04</pdfrwt>
<pdfrwt beam="2">  1       -1 0.26470926E+00 0.11253230E+04</pdfrwt>
<totfact> 0.11470238E+00</totfact>
</mgrwt>
</event>
<event>
 8    1  0.1373409E-005  0.1975456E+04  0.7818608E-02  0.8178459E-01
          2   -1    0    0  502    0  0.00000000000E+00  0.00000000000E+00  0.24327669524E+04  0.24327669524E+04  0.00000000000E+00 0.  1.
         -2   -1    0    0    0  501 -0.00000000000E+00 -0.00000000000E+00 -0.16607025729E+04  0.16607025729E+04  0.00000000000E+00 0. -1.
    9000010    2    1    2  502    0 -0.15735274288E+04  0.64771963878E+03  0.76514483545E+03  0.21251957754E+04  0.10175859497E+04 0.  0.
   -9000010    2    1    2    0  501  0.15735274288E+04 -0.64771963878E+03  0.69195441277E+01  0.19682737499E+04  0.98920390966E+03 0.  0.
        -13    1    3    3    0    0 -0.10905959800E+04  0.89256122257E+03  0.37650858701E+03  0.14587062264E+04  0.10566000000E+00 0.  1.
          4    1    3    3  502    0 -0.48293144875E+03 -0.24484158379E+03  0.38863624844E+03  0.66648954902E+03  0.00000000000E+00 0.  1.
         13    1    4    4    0    0 -0.58351195047E+02 -0.29125998314E+03 -0.19759837205E+02  0.29770405115E+03  0.10566000000E+00 0. -1.
         -4    1    4    4    0  501  0.16318786238E+04 -0.35645965564E+03  0.26679381333E+02  0.16705696987E+04  0.00000000000E+00 0. -1.
<mgrwt>
<rscale>  2 0.19754564E+04</rscale>
<asrwt>0</asrwt>
<pdfrwt beam="1">  1        2 0.37427184E+00 0.19754564E+04</pdfrwt>
<pdfrwt beam="2">  1       -2 0.25549270E+00 0.19754564E+04</pdfrwt>
<totfact> 0.20290776E-01</totfact>
</mgrwt>
</event>
<event>
 8    1  0.1373409E-005  0.1152067E+04  0.7818608E-02  0.8643558E-01
          2   -1    0    0  502    0  0.00000000000E+00  0.00000000000E+00  0.14545410830E+04  0.14545410830E+04  0.00000000000E+00 0. -1.
         -2   -1    0    0    0  501 -0.00000000000E+00 -0.00000000000E+00 -0.95894764472E+03  0.95894764472E+03  0.00000000000E+00 0.  1.
    9000010    2    1    2  502    0  0.58440052408E+03  0.16242754865E+03 -0.15566237518E+02  0.11621633178E+04  0.99119856148E+03 0.  0.
   -9000010    2    1    2    0  501 -0.58440052408E+03 -0.16242754865E+03  0.51115967580E+03  0.12513254100E+04  0.96779356599E+03 0.  0.
        -13    1    3    3    0    0 -0.25599943035E+03  0.10512751642E+03 -0.14088436251E+03  0.31054133028E+03  0.10566000000E+00 0.  1.
          4    1    3    3  502    0  0.84039995444E+03  0.57300032228E+02  0.12531812499E+03  0.85162198748E+03  0.00000000000E+00 0.  1.
         13    1    4    4    0    0 -0.57209636459E+03  0.24875506807E+03  0.55840938268E+03  0.83725407381E+03  0.10566000000E+00 0. -1.
         -4    1    4    4    0  501 -0.12304159489E+02 -0.41118261672E+03 -0.47249706884E+02  0.41407133616E+03  0.00000000000E+00 0. -1.
<mgrwt>
<rscale>  2 0.11520669E+04</rscale>
<asrwt>0</asrwt>
<pdfrwt beam="1">  1        2 0.22377555E+00 0.11520669E+04</pdfrwt>
<pdfrwt beam="2">  1       -2 0.14753041E+00 0.11520669E+04</pdfrwt>
<totfact> 0.58904264E+00</totfact>
</mgrwt>
</event>
<event>
 8    1  0.1373409E-005  0.1272604E+04  0.7818608E-02  0.8553808E-01
          1   -1    0    0  502    0  0.00000000000E+00  0.00000000000E+00  0.14973275286E+04  0.14973275286E+04  0.00000000000E+00 0. -1.
         -1   -1    0    0    0  501 -0.00000000000E+00 -0.00000000000E+00 -0.10902001982E+04  0.10902001982E+04  0.00000000000E+00 0.  1.
    9000010    2    1    2  502    0  0.29052906600E+01  0.82522514625E+03  0.31934325905E+03  0.13191609144E+04  0.97836619838E+03 0.  0.
   -9000010    2    1    2    0  501 -0.29052906600E+01 -0.82522514625E+03  0.87784071321E+02  0.12683668125E+04  0.95918889956E+03 0.  0.
        -13    1    3    3    0    0 -0.34101451137E+03  0.22300317834E+03  0.45684827326E+03  0.61215330633E+03  0.10566000000E+00 0.  1.
          4    1    3    3  502    0  0.34391980203E+03  0.60222196792E+03 -0.13750501420E+03  0.70700760802E+03  0.00000000000E+00 0.  1.
         13    1    4    4    0    0 -0.42976183309E+03 -0.67289162115E+03 -0.33734243755E+02  0.79913476796E+03  0.10566000000E+00 0. -1.
         -4    1    4    4    0  501  0.42685654243E+03 -0.15233352510E+03  0.12151831508E+03  0.46923204450E+03  0.00000000000E+00 0. -1.
<mgrwt>
<rscale>  2 0.12726038E+04</rscale>
<asrwt>0</asrwt>
<pdfrwt beam="1">  1        1 0.23035808E+00 0.12726038E+04</pdfrwt>
<pdfrwt beam="2">  1       -1 0.16772311E+00 0.12726038E+04</pdfrwt>
<totfact> 0.22473553E+00</totfact>
</mgrwt>
</event>
<event>
 8    1  0.1373409E-005  0.1289557E+04  0.7818608E-02  0.8542012E-01
         -1   -1    0    0    0  501 -0.00000000000E+00  0.00000000000E+00  0.30521309217E+04  0.30521309217E+04  0.00000000000E+00 0. -1.
          1   -1    0    0  502    0  0.00000000000E+00 -0.00000000000E+00 -0.54594622259E+03  0.54594622259E+03  0.00000000000E+00 0.  1.
    9000010    2    1    2  502    0 -0.61303565688E+03 -0.35821453012E+03  0.13426982205E+04  0.18969852094E+04  0.11364787754E+04 0.  0.
   -9000010    2    1    2    0  501  0.61303565688E+03  0.35821453012E+03  0.11634864786E+04  0.17010919349E+04  0.10177831886E+04 0.  0.
        -13    1    3    3    0    0 -0.27668972473E+03  0.19317178967E+03  0.11850347736E+04  0.12321444598E+04  0.10566000000E+00 0.  1.
          4    1    3    3  502    0 -0.33634593215E+03 -0.55138631979E+03  0.15766344691E+03  0.66484074952E+03  0.00000000000E+00 0.  1.
         13    1    4    4    0    0  0.73393348943E+03  0.61468123140E+03  0.88837251154E+03  0.13060233970E+04  0.10566000000E+00 0. -1.
         -4    1    4    4    0  501 -0.12089783254E+03 -0.25646670127E+03  0.27511396702E+03  0.39506853788E+03  0.00000000000E+00 0. -1.
<mgrwt>
<rscale>  2 0.12895566E+04</rscale>
<asrwt>0</asrwt>
<pdfrwt beam="2">  1        1 0.83991728E-01 0.12895566E+04</pdfrwt>
<pdfrwt beam="1">  1       -1 0.46955859E+00 0.12895566E+04</pdfrwt>
<totfact> 0.56277387E-01</totfact>
</mgrwt>
</event>
<event>
 8    1  0.1373409E-005  0.1244929E+04  0.7818608E-02  0.8573477E-01
         -1   -1    0    0    0  501 -0.00000000000E+00  0.00000000000E+00  0.59009584240E+03  0.59009584240E+03  0.00000000000E+00 0.  1.
          1   -1    0    0  502    0  0.00000000000E+00 -0.00000000000E+00 -0.26290012346E+04  0.26290012346E+04  0.00000000000E+00 0. -1.
    9000010    2    1    2  502    0 -0.25390943516E+03  0.69257762336E+03 -0.10655615426E+04  0.16351349093E+04  0.99705115454E+03 0.  0.
   -9000010    2    1    2    0  501  0.25390943516E+03 -0.69257762336E+03 -0.97334384963E+03  0.15839621678E+04  0.10086645298E+04 0.  0.
        -13    1    3    3    0    0  0.71899538701E+02  0.23821751822E+03 -0.10465343268E+04  0.10757096439E+04  0.10566000000E+00 0.  1.
          4    1    3    3  502    0 -0.32580897386E+03  0.45436010514E+03 -0.19027215811E+02  0.55942526537E+03  0.00000000000E+00 0.  1.
         13    1    4    4    0    0 -0.24781273110E+03  0.11365616346E+03 -0.36739620544E+03  0.45750284821E+03  0.10566000000E+00 0. -1.
         -4    1    4    4    0  501  0.50172216626E+03 -0.80623378682E+03 -0.60594764419E+03  0.11264593196E+04  0.00000000000E+00 0. -1.
<mgrwt>
<rscale>  2 0.12449287E+04</rscale>
<asrwt>0</asrwt>
<pdfrwt beam="2">  1        1 0.40446173E+00 0.12449287E+04</pdfrwt>
<pdfrwt beam="1">  1       -1 0.90783976E-01 0.12449287E+04</pdfrwt>
<totfact> 0.13564907E+00</totfact>
</mgrwt>
</event>
<event>
 8    1  0.1373409E-005  0.1084628E+04  0.7818608E-02  0.8698904E-01
          1   -1    0    0  502    0  0.00000000000E+00  0.00000000000E+00  0.20776180099E+04  0.20776180099E+04  0.00000000000E+00 0.  1.
         -1   -1    0    0    0  501 -0.00000000000E+00 -0.00000000000E+00 -0.63177250657E+03  0.63177250657E+03  0.00000000000E+00 0. -1.
    9000010    2    1    2  502    0 -0.37000254058E+03 -0.17288612362E+03  0.11606952454E+04  0.15902634353E+04  0.10074387571E+04 0.  0.
   -9000010    2    1    2    0  501  0.37000254058E+03  0.17288612362E+03  0.28515025792E+03  0.11191270811E+04  0.10021692783E+04 0.  0.
        -13    1    3    3    0    0  0.14329261408E+03  0.30458922498E+03  0.61794591078E+03  0.70367927995E+03  0.10566000000E+00 0.  1.
          4    1    3    3  502    0 -0.51329515466E+03 -0.47747534860E+03  0.54274933464E+03  0.88658415538E+03  0.00000000000E+00 0.  1.
         13    1    4    4    0    0 -0.22202752287E+03 -0.20850574144E+03  0.28169167820E+03  0.41487477370E+03  0.10566000000E+00 0. -1.
         -4    1    4    4    0  501  0.59203006345E+03  0.38139186506E+03  0.34585797273E+01  0.70425230744E+03  0.00000000000E+00 0. -1.
<mgrwt>
<rscale>  2 0.10846279E+04</rscale>
<asrwt>0</asrwt>
<pdfrwt beam="1">  1        1 0.31963354E+00 0.10846279E+04</pdfrwt>
<pdfrwt beam="2">  1       -1 0.97195771E-01 0.10846279E+04</pdfrwt>
<totfact> 0.35568105E+00</totfact>
</mgrwt>
</event>
<event>
 8    1  0.1373409E-005  0.1636725E+04  0.7818608E-02  0.8334885E-01
          1   -1    0    0  502    0  0.00000000000E+00  0.00000000000E+00  0.77928340306E+03  0.77928340306E+03  0.00000000000E+00 0.  1.
         -1   -1    0    0    0  501 -0.00000000000E+00 -0.00000000000E+00 -0.36200484761E+04  0.36200484761E+04  0.00000000000E+00 0. -1.
    9000010    2    1    2  502    0 -0.12550154913E+04 -0.11944853769E+03 -0.19364141347E+04  0.25543069807E+04  0.10887849254E+04 0.  0.
   -9000010    2    1    2    0  501  0.12550154913E+04  0.11944853769E+03 -0.90435093832E+03  0.18450248984E+04  0.99846603326E+03 0.  0.
        -13    1    3    3    0    0 -0.19014361976E+03  0.35727145219E+03 -0.92716216434E+03  0.10116457764E+04  0.10566000000E+00 0.  1.
          4    1    3    3  502    0 -0.10648718716E+04 -0.47671998988E+03 -0.10092519703E+04  0.15426612043E+04  0.00000000000E+00 0.  1.
         13    1    4    4    0    0  0.84716535846E+03  0.53611748662E+03 -0.71717791034E+03  0.12326618637E+04  0.10566000000E+00 0. -1.
         -4    1    4    4    0  501  0.40785013289E+03 -0.41666894893E+03 -0.18717302798E+03  0.61236303472E+03  0.00000000000E+00 0. -1.
<mgrwt>
<rscale>  2 0.16367246E+04</rscale>
<asrwt>0</asrwt>
<pdfrwt beam="1">  1        1 0.11988975E+00 0.16367246E+04</pdfrwt>
<pdfrwt beam="2">  1       -1 0.55693054E+00 0.16367246E+04</pdfrwt>
<totfact> 0.15558889E-01</totfact>
</mgrwt>
</event>
<event>
 8    1  0.1373409E-005  0.1263120E+04  0.7818608E-02  0.8560489E-01
          2   -1    0    0  502    0  0.00000000000E+00  0.00000000000E+00  0.20798909914E+04  0.20798909914E+04  0.00000000000E+00 0.  1.
         -2   -1    0    0    0  501 -0.00000000000E+00 -0.00000000000E+00 -0.76719695794E+03  0.76719695794E+03  0.00000000000E+00 0. -1.
    9000010    2    1    2  502    0  0.73883650189E+03 -0.12378686084E+03  0.63853247384E+03  0.14077237597E+04  0.10063597270E+04 0.  0.
   -9000010    2    1    2    0  501 -0.73883650189E+03  0.12378686084E+03  0.67416155958E+03  0.14393641896E+04  0.10276540753E+04 0.  0.
        -13    1    3    3    0    0  0.33584556639E+03  0.27416958395E+03 -0.13039183787E+03  0.45272866905E+03  0.10566000000E+00 0.  1.
          4    1    3    3  502    0  0.40299093550E+03 -0.39795644479E+03  0.76892431172E+03  0.95499509067E+03  0.00000000000E+00 0.  1.
         13    1    4    4    0    0 -0.41366772198E+03  0.49067899475E+03  0.69842208564E+03  0.94851477635E+03  0.10566000000E+00 0. -1.
         -4    1    4    4    0  501 -0.32516877992E+03 -0.36689213390E+03 -0.24260526061E+02  0.49084941324E+03  0.00000000000E+00 0. -1.
<mgrwt>
<rscale>  2 0.12631199E+04</rscale>
<asrwt>0</asrwt>
<pdfrwt beam="1">  1        2 0.31998323E+00 0.12631199E+04</pdfrwt>
<pdfrwt beam="2">  1       -2 0.11803030E+00 0.12631199E+04</pdfrwt>
<totfact> 0.49646056E+00</totfact>
</mgrwt>
</event>
<event>
 8    1  0.1373409E-005  0.1028125E+04  0.7818608E-02  0.8748606E-01
         -2   -1    0    0    0  501 -0.00000000000E+00  0.00000000000E+00  0.11572812461E+04  0.11572812461E+04  0.00000000000E+00 0. -1.
          2   -1    0    0  502    0  0.00000000000E+00 -0.00000000000E+00 -0.93277979037E+03  0.93277979037E+03  0.00000000000E+00 0.  1.
    9000010    2    1    2  502    0 -0.30962803070E+03 -0.98790904075E+02 -0.39278724672E+02  0.10141643010E+04  0.95987355996E+03 0.  0.
   -9000010    2    1    2    0  501  0.30962803070E+03  0.98790904075E+02  0.26378018040E+03  0.10758967355E+04  0.99113300907E+03 0.  0.
        -13    1    3    3    0    0  0.25497724256E+03  0.21451276059E+03  0.11097674225E+03  0.35120502155E+03  0.10566000000E+00 0.  1.
          4    1    3    3  502    0 -0.56460527326E+03 -0.31330366466E+03 -0.15025546692E+03  0.66295927946E+03  0.00000000000E+00 0.  1.
         13    1    4    4    0    0  0.48065959562E+03  0.22596689079E+03 -0.19837527122E+03  0.56696335154E+03  0.10566000000E+00 0. -1.
         -4    1    4    4    0  501 -0.17103156491E+03 -0.12717598672E+03  0.46215545163E+03  0.50893338391E+03  0.00000000000E+00 0. -1.
<mgrwt>
<rscale>  2 0.10281247E+04</rscale>
<asrwt>0</asrwt>
<pdfrwt beam="2">  1        2 0.14350458E+00 0.10281247E+04</pdfrwt>
<pdfrwt beam="1">  1       -2 0.17804327E+00 0.10281247E+04</pdfrwt>
<totfact> 0.65250349E+00</totfact>
</mgrwt>
</event>
<event>
 8    1  0.1373409E-005  0.1153555E+04  0.7818608E-02  0.8642382E-01
          1   -1    0    0  502    0  0.00000000000E+00  0.00000000000E+00  0.23225814484E+04  0.23225814484E+04  0.00000000000E+00 0.  1.
         -1   -1    0    0    0  501 -0.00000000000E+00 -0.00000000000E+00 -0.57957146433E+03  0.57957146433E+03  0.00000000000E+00 0. -1.
    9000010    2    1    2  502    0  0.50938659423E+03  0.28691365793E+03  0.71313765373E+03  0.13525637226E+04  0.98947923725E+03 0.  0.
   -9000010    2    1    2    0  501 -0.50938659423E+03 -0.28691365793E+03  0.10298723304E+04  0.15495891902E+04  0.99939756452E+03 0.  0.
        -13    1    3    3    0    0  0.62917396762E+03  0.33741722533E+03  0.94207583467E+02  0.72012870060E+03  0.10566000000E+00 0.  1.
          4    1    3    3  502    0 -0.11978737339E+03 -0.50503567396E+02  0.61893007026E+03  0.63243502197E+03  0.00000000000E+00 0.  1.
         13    1    4    4    0    0 -0.45506713084E+03 -0.60332167991E+03  0.43067151797E+03  0.86980521416E+03  0.10566000000E+00 0. -1.
         -4    1    4    4    0  501 -0.54319463394E+02  0.31640802198E+03  0.59920081239E+03  0.67978397602E+03  0.00000000000E+00 0. -1.
<mgrwt>
<rscale>  2 0.11535553E+04</rscale>
<asrwt>0</asrwt>
<pdfrwt beam="1">  1        1 0.35732022E+00 0.11535553E+04</pdfrwt>
<pdfrwt beam="2">  1       -1 0.89164842E-01 0.11535553E+04</pdfrwt>
<totfact> 0.26789349E+00</totfact>
</mgrwt>
</event>
<event>
 8    1  0.1373409E-005  0.1357375E+04  0.7818608E-02  0.8496630E-01
          2   -1    0    0  502    0  0.00000000000E+00  0.00000000000E+00  0.96645926460E+03  0.96645926460E+03  0.00000000000E+00 0. -1.
         -2   -1    0    0    0  501 -0.00000000000E+00 -0.00000000000E+00 -0.19066043021E+04  0.19066043021E+04  0.00000000000E+00 0.  1.
    9000010    2    1    2  502    0 -0.80202130782E+03  0.43133472221E+03 -0.48244869369E+03  0.14510271521E+04  0.10214867759E+04 0.  0.
   -9000010    2    1    2    0  501  0.80202130782E+03 -0.43133472221E+03 -0.45769634383E+03  0.14220364146E+04  0.99167222437E+03 0.  0.
        -13    1    3    3    0    0 -0.82680064472E+02 -0.11466901501E+03  0.25069761485E+03  0.28780945315E+03  0.10566000000E+00 0.  1.
          4    1    3    3  502    0 -0.71934124335E+03  0.54600373722E+03 -0.73314630854E+03  0.11632176990E+04  0.00000000000E+00 0.  1.
         13    1    4    4    0    0  0.89492123563E+03 -0.65129233811E+03 -0.39466495137E+03  0.11750855980E+04  0.10566000000E+00 0. -1.
         -4    1    4    4    0  501 -0.92899927816E+02  0.21995761591E+03 -0.63031392462E+02  0.24695081660E+03  0.00000000000E+00 0. -1.
<mgrwt>
<rscale>  2 0.13573754E+04</rscale>
<asrwt>0</asrwt>
<pdfrwt beam="1">  1        2 0.14868604E+00 0.13573754E+04</pdfrwt>
<pdfrwt beam="2">  1       -2 0.29332374E+00 0.13573754E+04</pdfrwt>
<totfact> 0.74118322E-01</totfact>
</mgrwt>
</event>
<event>
 8    1  0.1373409E-005  0.1401641E+04  0.7818608E-02  0.8468454E-01
         -2   -1    0    0    0  501 -0.00000000000E+00  0.00000000000E+00  0.18312532542E+04  0.18312532542E+04  0.00000000000E+00 0. -1.
          2   -1    0    0  502    0  0.00000000000E+00 -0.00000000000E+00 -0.10751821588E+04  0.10751821588E+04  0.00000000000E+00 0.  1.
    9000010    2    1    2  502    0  0.81285645413E+03 -0.53766529906E+03  0.31237453698E+03  0.14434723437E+04  0.10179464460E+04 0.  0.
   -9000010    2    1    2    0  501 -0.81285645413E+03  0.53766529906E+03  0.44369655840E+03  0.14629630692E+04  0.99678218136E+03 0.  0.
        -13    1    3    3    0    0  0.31148746945E+03 -0.59360572215E+03 -0.22431569769E+03  0.70690150685E+03  0.10566000000E+00 0.  1.
          4    1    3    3  502    0  0.50136898468E+03  0.55940423094E+02  0.53669023467E+03  0.73657083687E+03  0.00000000000E+00 0.  1.
         13    1    4    4    0    0 -0.42532980488E+03  0.70056102984E+03  0.59866848234E+03  0.10149360386E+04  0.10566000000E+00 0. -1.
         -4    1    4    4    0  501 -0.38752664925E+03 -0.16289573078E+03 -0.15497192394E+03  0.44802703065E+03  0.00000000000E+00 0. -1.
<mgrwt>
<rscale>  2 0.14016414E+04</rscale>
<asrwt>0</asrwt>
<pdfrwt beam="2">  1        2 0.16541264E+00 0.14016414E+04</pdfrwt>
<pdfrwt beam="1">  1       -2 0.28173127E+00 0.14016414E+04</pdfrwt>
<totfact> 0.76884365E-01</totfact>
</mgrwt>
</event>
<event>
 8    1  0.1373409E-005  0.1192565E+04  0.7818608E-02  0.8612182E-01
         -2   -1    0    0    0  501 -0.00000000000E+00  0.00000000000E+00  0.81300193866E+03  0.81300193866E+03  0.00000000000E+00 0.  1.
          2   -1    0    0  502    0  0.00000000000E+00 -0.00000000000E+00 -0.17500530010E+04  0.17500530010E+04  0.00000000000E+00 0. -1.
    9000010    2    1    2  502    0 -0.52728652419E+03  0.35810042601E+03 -0.44113020202E+03  0.12666887816E+04  0.10018171593E+04 0.  0.
   -9000010    2    1    2    0  501  0.52728652419E+03 -0.35810042601E+03 -0.49592086034E+03  0.12963661581E+04  0.10140812208E+04 0.  0.
        -13    1    3    3    0    0  0.79440490518E+02 -0.58981516827E+02 -0.51713825044E+03  0.52651836824E+03  0.10566000000E+00 0.  1.
          4    1    3    3  502    0 -0.60672701470E+03  0.41708194283E+03  0.76008048422E+02  0.74017041337E+03  0.00000000000E+00 0.  1.
         13    1    4    4    0    0 -0.28423162438E+03 -0.15800461089E+03 -0.28959906247E+03  0.43545459179E+03  0.10566000000E+00 0. -1.
         -4    1    4    4    0  501  0.81151814857E+03 -0.20009581512E+03 -0.20632179787E+03  0.86091156628E+03  0.00000000000E+00 0. -1.
<mgrwt>
<rscale>  2 0.11925655E+04</rscale>
<asrwt>0</asrwt>
<pdfrwt beam="2">  1        2 0.26923892E+00 0.11925655E+04</pdfrwt>
<pdfrwt beam="1">  1       -2 0.12507722E+00 0.11925655E+04</pdfrwt>
<totfact> 0.64808960E+00</totfact>
</mgrwt>
</event>
<event>
 8    1  0.1373409E-005  0.1861814E+04  0.7818608E-02  0.8227098E-01
          1   -1    0    0  502    0  0.00000000000E+00  0.00000000000E+00  0.11154037454E+04  0.11154037454E+04  0.00000000000E+00 0.  1.
         -1   -1    0    0    0  501 -0.00000000000E+00 -0.00000000000E+00 -0.36528722511E+04  0.36528722511E+04  0.00000000000E+00 0. -1.
    9000010    2    1    2  502    0 -0.13194348070E+04  0.85349067302E+03 -0.34759219446E+03  0.18938064016E+04  0.99816221840E+03 0.  0.
   -9000010    2    1    2    0  501  0.13194348070E+04 -0.85349067302E+03 -0.21898763112E+04  0.28744695949E+04  0.99883064356E+03 0.  0.
        -13    1    3    3    0    0 -0.92458799585E+03  0.10663749106E+04 -0.29787741287E+03  0.14424802863E+04  0.10566000000E+00 0.  1.
          4    1    3    3  502    0 -0.39484681117E+03 -0.21288423756E+03 -0.49714781589E+02  0.45132611535E+03  0.00000000000E+00 0.  1.
         13    1    4    4    0    0  0.14783945404E+04 -0.72852733090E+03 -0.20410165612E+04  0.26233854279E+04  0.10566000000E+00 0. -1.
         -4    1    4    4    0  501 -0.15895973343E+03 -0.12496334212E+03 -0.14885975005E+03  0.25108416699E+03  0.00000000000E+00 0. -1.
<mgrwt>
<rscale>  2 0.18618136E+04</rscale>
<asrwt>0</asrwt>
<pdfrwt beam="1">  1        1 0.17160058E+00 0.18618136E+04</pdfrwt>
<pdfrwt beam="2">  1       -1 0.56198034E+00 0.18618136E+04</pdfrwt>
<totfact> 0.72457177E-02</totfact>
</mgrwt>
</event>
<event>
 8    1  0.1373409E-005  0.1474095E+04  0.7818608E-02  0.8424565E-01
         -2   -1    0    0    0  501 -0.00000000000E+00  0.00000000000E+00  0.10976076425E+04  0.10976076425E+04  0.00000000000E+00 0. -1.
          2   -1    0    0  502    0  0.00000000000E+00 -0.00000000000E+00 -0.20768857855E+04  0.20768857855E+04  0.00000000000E+00 0.  1.
    9000010    2    1    2  502    0  0.98322763268E+02  0.10904877183E+04 -0.83302470095E+03  0.16933826146E+04  0.98731134781E+03 0.  0.
   -9000010    2    1    2    0  501 -0.98322763268E+02 -0.10904877183E+04 -0.14625344211E+03  0.14811108134E+04  0.98664499323E+03 0.  0.
        -13    1    3    3    0    0  0.40860232540E+03  0.10406531307E+03 -0.12371952322E+03  0.43942232680E+03  0.10566000000E+00 0.  1.
          4    1    3    3  502    0 -0.31027956213E+03  0.98642240522E+03 -0.70930517773E+03  0.12539602878E+04  0.00000000000E+00 0.  1.
         13    1    4    4    0    0  0.26276479795E+03 -0.83879204262E+03  0.22271753498E+03  0.90676377373E+03  0.10566000000E+00 0. -1.
         -4    1    4    4    0  501 -0.36108756122E+03 -0.25169567567E+03 -0.36897097709E+03  0.57434703965E+03  0.00000000000E+00 0. -1.
<mgrwt>
<rscale>  2 0.14740952E+04</rscale>
<asrwt>0</asrwt>
<pdfrwt beam="2">  1        2 0.31952089E+00 0.14740952E+04</pdfrwt>
<pdfrwt beam="1">  1       -2 0.16886272E+00 0.14740952E+04</pdfrwt>
<totfact> 0.16993133E+00</totfact>
</mgrwt>
</event>
<event>
 8    1  0.1373409E-005  0.1103938E+04  0.7818608E-02  0.8682637E-01
          1   -1    0    0  502    0  0.00000000000E+00  0.00000000000E+00  0.15724105636E+04  0.15724105636E+04  0.00000000000E+00 0.  1.
         -1   -1    0    0    0  501 -0.00000000000E+00 -0.00000000000E+00 -0.78809975370E+03  0.78809975370E+03  0.00000000000E+00 0. -1.
    9000010    2    1    2  502    0  0.30304574709E+03  0.62641298360E+03  0.33528076305E+03  0.12655728349E+04  0.10025125732E+04 0.  0.
   -9000010    2    1    2    0  501 -0.30304574709E+03 -0.62641298360E+03  0.44903004689E+03  0.10949374825E+04  0.71626123496E+03 0.  0.
        -13    1    3    3    0    0  0.52170225138E+03  0.68886555007E+03  0.48728594413E+03  0.99204666608E+03  0.10566000000E+00 0.  1.
          4    1    3    3  502    0 -0.21865650429E+03 -0.62452566468E+02 -0.15200518108E+03  0.27352616877E+03  0.00000000000E+00 0.  1.
         13    1    4    4    0    0 -0.53922660738E+03 -0.43167830637E+03  0.28062026574E+03  0.74555968172E+03  0.10566000000E+00 0. -1.
         -4    1    4    4    0  501  0.23618086029E+03 -0.19473467723E+03  0.16840978115E+03  0.34937780077E+03  0.00000000000E+00 0. -1.
<mgrwt>
<rscale>  2 0.11039384E+04</rscale>
<asrwt>0</asrwt>
<pdfrwt beam="1">  1        1 0.24190932E+00 0.11039384E+04</pdfrwt>
<pdfrwt beam="2">  1       -1 0.12124612E+00 0.11039384E+04</pdfrwt>
<totfact> 0.51270885E+00</totfact>
</mgrwt>
</event>
<event>
 8    1  0.1373409E-005  0.1393765E+04  0.7818608E-02  0.8473389E-01
         -2   -1    0    0    0  501 -0.00000000000E+00  0.00000000000E+00  0.89777507165E+03  0.89777507165E+03  0.00000000000E+00 0. -1.
          2   -1    0    0  502    0  0.00000000000E+00 -0.00000000000E+00 -0.24524267091E+04  0.24524267091E+04  0.00000000000E+00 0.  1.
    9000010    2    1    2  502    0 -0.60648750987E+03 -0.75501965523E+03 -0.20240033546E+03  0.14079077852E+04  0.10016769221E+04 0.  0.
   -9000010    2    1    2    0  501  0.60648750987E+03  0.75501965523E+03 -0.13522513020E+04  0.19422939956E+04  0.10030157537E+04 0.  0.
        -13    1    3    3    0    0  0.98508236135E+02 -0.35100808382E+03 -0.43032217685E+03  0.56399267243E+03  0.10566000000E+00 0.  1.
          4    1    3    3  502    0 -0.70499574600E+03 -0.40401157141E+03  0.22792184139E+03  0.84391511273E+03  0.00000000000E+00 0.  1.
         13    1    4    4    0    0  0.88383520914E+03  0.58910795569E+03 -0.93937029298E+03  0.14179666494E+04  0.10566000000E+00 0. -1.
         -4    1    4    4    0  501 -0.27734769927E+03  0.16591169954E+03 -0.41288100897E+03  0.52432734614E+03  0.00000000000E+00 0. -1.
<mgrwt>
<rscale>  2 0.13937647E+04</rscale>
<asrwt>0</asrwt>
<pdfrwt beam="2">  1        2 0.37729641E+00 0.13937647E+04</pdfrwt>
<pdfrwt beam="1">  1       -2 0.13811924E+00 0.13937647E+04</pdfrwt>
<totfact> 0.19809373E+00</totfact>
</mgrwt>
</event>
<event>
 8    1  0.1373409E-005  0.1351777E+04  0.7818608E-02  0.8500271E-01
          1   -1    0    0  502    0  0.00000000000E+00  0.00000000000E+00  0.12020864001E+04  0.12020864001E+04  0.00000000000E+00 0. -1.
         -1   -1    0    0    0  501 -0.00000000000E+00 -0.00000000000E+00 -0.16227794188E+04  0.16227794188E+04  0.00000000000E+00 0.  1.
    9000010    2    1    2  502    0  0.31931858227E+03  0.85702580025E+03  0.14488600450E+03  0.13597960942E+04  0.99578907615E+03 0.  0.
   -9000010    2    1    2    0  501 -0.31931858227E+03 -0.85702580025E+03 -0.56557902315E+03  0.14650697247E+04  0.99503371175E+03 0.  0.
        -13    1    3    3    0    0  0.50473529521E+03  0.34687133252E+03  0.42841111421E+03  0.74740453136E+03  0.10566000000E+00 0.  1.
          4    1    3    3  502    0 -0.18541671295E+03  0.51015446773E+03 -0.28352510971E+03  0.61239156283E+03  0.00000000000E+00 0.  1.
         13    1    4    4    0    0  0.40373705383E+02  0.16772777273E+03  0.91943061924E+02  0.19548958957E+03  0.10566000000E+00 0. -1.
         -4    1    4    4    0  501 -0.35969228765E+03 -0.10247535730E+04 -0.65752208508E+03  0.12695801351E+04  0.00000000000E+00 0. -1.
<mgrwt>
<rscale>  2 0.13517771E+04</rscale>
<asrwt>0</asrwt>
<pdfrwt beam="1">  1        1 0.18493637E+00 0.13517771E+04</pdfrwt>
<pdfrwt beam="2">  1       -1 0.24965837E+00 0.13517771E+04</pdfrwt>
<totfact> 0.66425900E-01</totfact>
</mgrwt>
</event>
<event>
 8    1  0.1373409E-005  0.1153668E+04  0.7818608E-02  0.8642293E-01
         -2   -1    0    0    0  501 -0.00000000000E+00  0.00000000000E+00  0.74298761285E+03  0.74298761285E+03  0.00000000000E+00 0.  1.
          2   -1    0    0  502    0  0.00000000000E+00 -0.00000000000E+00 -0.18144027722E+04  0.18144027722E+04  0.00000000000E+00 0. -1.
    9000010    2    1    2  502    0 -0.53434408791E+03  0.23457248836E+03 -0.38873105575E+03  0.12111674552E+04  0.98755603099E+03 0.  0.
   -9000010    2    1    2    0  501  0.53434408791E+03 -0.23457248836E+03 -0.68268410362E+03  0.13462229298E+04  0.10028513025E+04 0.  0.
        -13    1    3    3    0    0 -0.43893836761E+03  0.46946433300E+02 -0.70467519574E+03  0.83152751056E+03  0.10566000000E+00 0.  1.
          4    1    3    3  502    0 -0.95405720302E+02  0.18762605506E+03  0.31594413999E+03  0.37963994468E+03  0.00000000000E+00 0.  1.
         13    1    4    4    0    0  0.56021685424E+03 -0.58135313131E+03 -0.53433544649E+03  0.96815740848E+03  0.10566000000E+00 0. -1.
         -4    1    4    4    0  501 -0.25872766330E+02  0.34678064295E+03 -0.14834865713E+03  0.37806552135E+03  0.00000000000E+00 0. -1.
<mgrwt>
<rscale>  2 0.11536679E+04</rscale>
<asrwt>0</asrwt>
<pdfrwt beam="2">  1        2 0.27913889E+00 0.11536679E+04</pdfrwt>
<pdfrwt beam="1">  1       -2 0.11430579E+00 0.11536679E+04</pdfrwt>
<totfact> 0.76122576E+00</totfact>
</mgrwt>
</event>
<event>
 8    1  0.1373409E-005  0.1199032E+04  0.7818608E-02  0.8607291E-01
          2   -1    0    0  502    0  0.00000000000E+00  0.00000000000E+00  0.22705348604E+04  0.22705348604E+04  0.00000000000E+00 0. -1.
         -2   -1    0    0    0  501 -0.00000000000E+00 -0.00000000000E+00 -0.71460673661E+03  0.71460673661E+03  0.00000000000E+00 0.  1.
    9000010    2    1    2  502    0 -0.62772311750E+03 -0.14913965634E+03  0.25896332955E+03  0.11990821998E+04  0.97696323704E+03 0.  0.
   -9000010    2    1    2    0  501  0.62772311750E+03  0.14913965634E+03  0.12969647942E+04  0.17860593971E+04  0.10448021552E+04 0.  0.
        -13    1    3    3    0    0 -0.59686973497E+03 -0.25873650149E+03  0.57183538617E+03  0.86613727420E+03  0.10566000000E+00 0.  1.
          4    1    3    3  502    0 -0.30853382523E+02  0.10959684515E+03 -0.31287205662E+03  0.33294492561E+03  0.00000000000E+00 0.  1.
         13    1    4    4    0    0  0.78933669388E+03  0.25555973724E+03  0.13507582259E+04  0.15852163864E+04  0.10566000000E+00 0. -1.
         -4    1    4    4    0  501 -0.16161357639E+03 -0.10642008090E+03 -0.53793431694E+02  0.20084301079E+03  0.00000000000E+00 0. -1.
<mgrwt>
<rscale>  2 0.11990324E+04</rscale>
<asrwt>0</asrwt>
<pdfrwt beam="1">  1        2 0.34931305E+00 0.11990324E+04</pdfrwt>
<pdfrwt beam="2">  1       -2 0.10993950E+00 0.11990324E+04</pdfrwt>
<totfact> 0.47144005E+00</totfact>
</mgrwt>
</event>
<event>
 8    1  0.1373409E-005  0.1327527E+04  0.7818608E-02  0.8516259E-01
         -2   -1    0    0    0  501 -0.00000000000E+00  0.00000000000E+00  0.12100913470E+04  0.12100913470E+04  0.00000000000E+00 0. -1.
          2   -1    0    0  502    0  0.00000000000E+00 -0.00000000000E+00 -0.14772469913E+04  0.14772469913E+04  0.00000000000E+00 0.  1.
    9000010    2    1    2  502    0 -0.38261014674E+03 -0.78578510933E+03 -0.29383493303E+03  0.13655817541E+04  0.10072863529E+04 0.  0.
   -9000010    2    1    2    0  501  0.38261014674E+03  0.78578510933E+03  0.26679288779E+02  0.13217565842E+04  0.99120125152E+03 0.  0.
        -13    1    3    3    0    0 -0.57370194115E+03 -0.72369866497E+02 -0.23667392555E+03  0.62480866916E+03  0.10566000000E+00 0.  1.
          4    1    3    3  502    0  0.19109179440E+03 -0.71341524284E+03 -0.57161007480E+02  0.74077308494E+03  0.00000000000E+00 0.  1.
         13    1    4    4    0    0  0.36156420046E+03  0.10205436202E+04  0.56528274860E+02  0.10841740675E+04  0.10566000000E+00 0. -1.
         -4    1    4    4    0  501  0.21045946287E+02 -0.23475851082E+03 -0.29848986081E+02  0.23758251668E+03  0.00000000000E+00 0. -1.
<mgrwt>
<rscale>  2 0.13275271E+04</rscale>
<asrwt>0</asrwt>
<pdfrwt beam="2">  1        2 0.22726877E+00 0.13275271E+04</pdfrwt>
<pdfrwt beam="1">  1       -2 0.18616790E+00 0.13275271E+04</pdfrwt>
<totfact> 0.26309344E+00</totfact>
</mgrwt>
</event>
<event>
 8    1  0.1373409E-005  0.1041694E+04  0.7818608E-02  0.8736373E-01
         -2   -1    0    0    0  501 -0.00000000000E+00  0.00000000000E+00  0.51778694149E+03  0.51778694149E+03  0.00000000000E+00 0. -1.
          2   -1    0    0  502    0  0.00000000000E+00 -0.00000000000E+00 -0.21233015728E+04  0.21233015728E+04  0.00000000000E+00 0.  1.
    9000010    2    1    2  502    0 -0.11092689578E+03 -0.24590443703E+03 -0.66270783941E+03  0.12454138791E+04  0.10193626840E+04 0.  0.
   -9000010    2    1    2    0  501  0.11092689578E+03  0.24590443703E+03 -0.94280679186E+03  0.13956746352E+04  0.99310083684E+03 0.  0.
        -13    1    3    3    0    0 -0.22879068772E+03 -0.21081721344E+03 -0.91407993637E+03  0.96557299958E+03  0.10566000000E+00 0.  1.
          4    1    3    3  502    0  0.11786379194E+03 -0.35087223595E+02  0.25137209696E+03  0.27984087950E+03  0.00000000000E+00 0.  1.
         13    1    4    4    0    0 -0.34419285457E+03  0.40817444575E+03 -0.38832860356E+03  0.66020770581E+03  0.10566000000E+00 0. -1.
         -4    1    4    4    0  501  0.45511975035E+03 -0.16227000872E+03 -0.55447818830E+03  0.73546692937E+03  0.00000000000E+00 0. -1.
<mgrwt>
<rscale>  2 0.10416942E+04</rscale>
<asrwt>0</asrwt>
<pdfrwt beam="2">  1        2 0.32666178E+00 0.10416942E+04</pdfrwt>
<pdfrwt beam="1">  1       -2 0.79659529E-01 0.10416942E+04</pdfrwt>
<totfact> 0.12282932E+01</totfact>
</mgrwt>
</event>
<event>
 8    1  0.1373409E-005  0.1327803E+04  0.7818608E-02  0.8516075E-01
         -2   -1    0    0    0  501 -0.00000000000E+00  0.00000000000E+00  0.35655832327E+03  0.35655832327E+03  0.00000000000E+00 0.  1.
          2   -1    0    0  502    0  0.00000000000E+00 -0.00000000000E+00 -0.50756318455E+04  0.50756318455E+04  0.00000000000E+00 0. -1.
    9000010    2    1    2  502    0 -0.63637586182E+03  0.59725773348E+03 -0.19283382109E+04  0.23429310776E+04  0.10045629602E+04 0.  0.
   -9000010    2    1    2    0  501  0.63637586182E+03 -0.59725773348E+03 -0.27907353114E+04  0.30892590912E+04  0.99680846545E+03 0.  0.
        -13    1    3    3    0    0 -0.17028816687E+02  0.57269162905E+03 -0.14527956854E+04  0.15616917101E+04  0.10566000000E+00 0.  1.
          4    1    3    3  502    0 -0.61934704513E+03  0.24566104428E+02 -0.47554252545E+03  0.78123936749E+03  0.00000000000E+00 0.  1.
         13    1    4    4    0    0 -0.22812442442E+03 -0.11328178471E+03 -0.22862968291E+03  0.34226460354E+03  0.10566000000E+00 0. -1.
         -4    1    4    4    0  501  0.86450028624E+03 -0.48397594877E+03 -0.25621056285E+04  0.27469944877E+04  0.00000000000E+00 0. -1.
<mgrwt>
<rscale>  2 0.13278030E+04</rscale>
<asrwt>0</asrwt>
<pdfrwt beam="2">  1        2 0.78086643E+00 0.13278030E+04</pdfrwt>
<pdfrwt beam="1">  1       -2 0.54855127E-01 0.13278030E+04</pdfrwt>
<totfact> 0.16345053E-01</totfact>
</mgrwt>
</event>
<event>
 8    1  0.1373409E-005  0.1075793E+04  0.7818608E-02  0.8706465E-01
         -1   -1    0    0    0  501 -0.00000000000E+00  0.00000000000E+00  0.45998675490E+03  0.45998675490E+03  0.00000000000E+00 0. -1.
          1   -1    0    0  502    0  0.00000000000E+00 -0.00000000000E+00 -0.29957031910E+04  0.29957031910E+04  0.00000000000E+00 0.  1.
    9000010    2    1    2  502    0 -0.25259960580E+03 -0.13884972393E+03 -0.19164660415E+04  0.21787087843E+04  0.99541150862E+03 0.  0.
   -9000010    2    1    2    0  501  0.25259960580E+03  0.13884972393E+03 -0.61925039455E+03  0.12769811616E+04  0.10789457954E+04 0.  0.
        -13    1    3    3    0    0 -0.21516371419E+03  0.41196995051E+03 -0.10882828223E+04  0.11833740645E+04  0.10566000000E+00 0.  1.
          4    1    3    3  502    0 -0.37435891610E+02 -0.55081967443E+03 -0.82818321922E+03  0.99533471974E+03  0.00000000000E+00 0.  1.
         13    1    4    4    0    0 -0.88898223840E+01 -0.21815278907E+03  0.23137900200E+03  0.31812878218E+03  0.10566000000E+00 0. -1.
         -4    1    4    4    0  501  0.26148942819E+03  0.35700251300E+03 -0.85062939655E+03  0.95885237947E+03  0.00000000000E+00 0. -1.
<mgrwt>
<rscale>  2 0.10757934E+04</rscale>
<asrwt>0</asrwt>
<pdfrwt beam="2">  1        1 0.46087742E+00 0.10757934E+04</pdfrwt>
<pdfrwt beam="1">  1       -1 0.70767192E-01 0.10757934E+04</pdfrwt>
<totfact> 0.97169423E-01</totfact>
</mgrwt>
</event>
<event>
 8    1  0.1373409E-005  0.1374284E+04  0.7818608E-02  0.8485738E-01
          2   -1    0    0  502    0  0.00000000000E+00  0.00000000000E+00  0.14452167641E+04  0.14452167641E+04  0.00000000000E+00 0. -1.
         -2   -1    0    0    0  501 -0.00000000000E+00 -0.00000000000E+00 -0.13867030682E+04  0.13867030682E+04  0.00000000000E+00 0.  1.
    9000010    2    1    2  502    0  0.57639032074E+03  0.78067863678E+03 -0.31062834246E+03  0.14026727250E+04  0.96401030629E+03 0.  0.
   -9000010    2    1    2    0  501 -0.57639032074E+03 -0.78067863678E+03  0.36914203845E+03  0.14292471073E+04  0.98224055777E+03 0.  0.
        -13    1    3    3    0    0 -0.17196466735E+03 -0.38925995707E+02  0.11883085164E+03  0.21262140631E+03  0.10566000000E+00 0.  1.
          4    1    3    3  502    0  0.74835498809E+03  0.81960463249E+03 -0.42945919409E+03  0.11900513187E+04  0.00000000000E+00 0.  1.
         13    1    4    4    0    0  0.66450320777E+02 -0.73202421086E+03  0.22431983209E+03  0.76850145651E+03  0.10566000000E+00 0. -1.
         -4    1    4    4    0  501 -0.64284064152E+03 -0.48654425919E+02  0.14482220636E+03  0.66074565076E+03  0.00000000000E+00 0. -1.
<mgrwt>
<rscale>  2 0.13742845E+04</rscale>
<asrwt>0</asrwt>
<pdfrwt beam="1">  1        2 0.22234104E+00 0.13742845E+04</pdfrwt>
<pdfrwt beam="2">  1       -2 0.21333893E+00 0.13742845E+04</pdfrwt>
<totfact> 0.16245923E+00</totfact>
</mgrwt>
</event>
<event>
 8    1  0.1373409E-005  0.1234344E+04  0.7818608E-02  0.8581140E-01
         -2   -1    0    0    0  501 -0.00000000000E+00  0.00000000000E+00  0.11925013245E+04  0.11925013245E+04  0.00000000000E+00 0. -1.
          2   -1    0    0  502    0  0.00000000000E+00 -0.00000000000E+00 -0.14813751642E+04  0.14813751642E+04  0.00000000000E+00 0.  1.
    9000010    2    1    2  502    0 -0.38447036824E+01 -0.72894184165E+03 -0.64151751686E+03  0.14050434435E+04  0.10154956245E+04 0.  0.
   -9000010    2    1    2    0  501  0.38447036824E+01  0.72894184165E+03  0.35264367711E+03  0.12688330453E+04  0.97683608833E+03 0.  0.
        -13    1    3    3    0    0  0.89592551727E+02  0.21015316182E+03  0.51501131817E+02  0.23418700752E+03  0.10566000000E+00 0.  1.
          4    1    3    3  502    0 -0.93437255409E+02 -0.93909500347E+03 -0.69301864868E+03  0.11708564360E+04  0.00000000000E+00 0.  1.
         13    1    4    4    0    0 -0.13795676294E+03  0.45488471118E+03 -0.28938399241E+03  0.55650271799E+03  0.10566000000E+00 0. -1.
         -4    1    4    4    0  501  0.14180146662E+03  0.27405713047E+03  0.64202766952E+03  0.71233032726E+03  0.00000000000E+00 0. -1.
<mgrwt>
<rscale>  2 0.12343437E+04</rscale>
<asrwt>0</asrwt>
<pdfrwt beam="2">  1        2 0.22790387E+00 0.12343437E+04</pdfrwt>
<pdfrwt beam="1">  1       -2 0.18346174E+00 0.12343437E+04</pdfrwt>
<totfact> 0.27834503E+00</totfact>
</mgrwt>
</event>
<event>
 8    1  0.1373409E-005  0.1326130E+04  0.7818608E-02  0.8517190E-01
          2   -1    0    0  502    0  0.00000000000E+00  0.00000000000E+00  0.13949789559E+04  0.13949789559E+04  0.00000000000E+00 0.  1.
         -2   -1    0    0    0  501 -0.00000000000E+00 -0.00000000000E+00 -0.12666474473E+04  0.12666474473E+04  0.00000000000E+00 0. -1.
    9000010    2    1    2  502    0 -0.72174310736E+03  0.51085149324E+03 -0.25458511752E+02  0.13042031005E+04  0.95833983025E+03 0.  0.
   -9000010    2    1    2    0  501  0.72174310736E+03 -0.51085149324E+03  0.15379002033E+03  0.13574233027E+04  0.10183635359E+04 0.  0.
        -13    1    3    3    0    0  0.17335859565E+03  0.25557485067E+03 -0.18476832660E+03  0.35987644082E+03  0.10566000000E+00 0.  1.
          4    1    3    3  502    0 -0.89510170301E+03  0.25527664257E+03  0.15930981485E+03  0.94432665963E+03  0.00000000000E+00 0.  1.
         13    1    4    4    0    0  0.28058858123E+03 -0.27630467324E+02  0.53169365478E+03  0.60182351926E+03  0.10566000000E+00 0. -1.
         -4    1    4    4    0  501  0.44115452613E+03 -0.48322102592E+03 -0.37790363445E+03  0.75559978345E+03  0.00000000000E+00 0. -1.
<mgrwt>
<rscale>  2 0.13261304E+04</rscale>
<asrwt>0</asrwt>
<pdfrwt beam="1">  1        2 0.21461215E+00 0.13261304E+04</pdfrwt>
<pdfrwt beam="2">  1       -2 0.19486884E+00 0.13261304E+04</pdfrwt>
<totfact> 0.24722564E+00</totfact>
</mgrwt>
</event>
<event>
 8    1  0.1373409E-005  0.1109207E+04  0.7818608E-02  0.8678259E-01
          2   -1    0    0  502    0  0.00000000000E+00  0.00000000000E+00  0.22255253699E+04  0.22255253699E+04  0.00000000000E+00 0.  1.
         -2   -1    0    0    0  501 -0.00000000000E+00 -0.00000000000E+00 -0.55370885410E+03  0.55370885410E+03  0.00000000000E+00 0. -1.
    9000010    2    1    2  502    0 -0.22933709189E+02  0.47402447413E+03  0.88943186590E+03  0.14199753813E+04  0.10000079411E+04 0.  0.
   -9000010    2    1    2    0  501  0.22933709189E+02 -0.47402447413E+03  0.78238464989E+03  0.13592588427E+04  0.10051038275E+04 0.  0.
        -13    1    3    3    0    0  0.45932665255E+02  0.59939361568E+03  0.90003593654E+02  0.60785127646E+03  0.10566000000E+00 0.  1.
          4    1    3    3  502    0 -0.68866374445E+02 -0.12536914155E+03  0.79942827225E+03  0.81212410484E+03  0.00000000000E+00 0.  1.
         13    1    4    4    0    0 -0.92648229054E+02  0.24652557393E+03  0.52157250906E+03  0.58429140531E+03  0.10566000000E+00 0. -1.
         -4    1    4    4    0  501  0.11558193824E+03 -0.72055004806E+03  0.26081214083E+03  0.77496743739E+03  0.00000000000E+00 0. -1.
<mgrwt>
<rscale>  2 0.11092066E+04</rscale>
<asrwt>0</asrwt>
<pdfrwt beam="1">  1        2 0.34238851E+00 0.11092066E+04</pdfrwt>
<pdfrwt beam="2">  1       -2 0.85185979E-01 0.11092066E+04</pdfrwt>
<totfact> 0.92434946E+00</totfact>
</mgrwt>
</event>
<event>
 8    1  0.1373409E-005  0.1092565E+04  0.7818608E-02  0.8692176E-01
         -1   -1    0    0    0  501 -0.00000000000E+00  0.00000000000E+00  0.13628388957E+04  0.13628388957E+04  0.00000000000E+00 0. -1.
          1   -1    0    0  502    0  0.00000000000E+00 -0.00000000000E+00 -0.88771933351E+03  0.88771933351E+03  0.00000000000E+00 0.  1.
    9000010    2    1    2  502    0  0.15581606407E+03 -0.41978561398E+03  0.10602410327E+03  0.10884664161E+04  0.98641746785E+03 0.  0.
   -9000010    2    1    2    0  501 -0.15581606407E+03  0.41978561398E+03  0.36909545893E+03  0.11620918132E+04  0.10068402638E+04 0.  0.
        -13    1    3    3    0    0 -0.36629463098E+02 -0.29977192417E+03 -0.41903220205E+03  0.51652001085E+03  0.10566000000E+00 0.  1.
          4    1    3    3  502    0  0.19244552717E+03 -0.12001368981E+03  0.52505630532E+03  0.57194640521E+03  0.00000000000E+00 0.  1.
         13    1    4    4    0    0 -0.23550065762E+03 -0.45265843977E+02  0.59313021317E+03  0.63977575548E+03  0.10566000000E+00 0. -1.
         -4    1    4    4    0  501  0.79684593550E+02  0.46505145796E+03 -0.22403475424E+03  0.52231605768E+03  0.00000000000E+00 0. -1.
<mgrwt>
<rscale>  2 0.10925651E+04</rscale>
<asrwt>0</asrwt>
<pdfrwt beam="2">  1        1 0.13657221E+00 0.10925651E+04</pdfrwt>
<pdfrwt beam="1">  1       -1 0.20966752E+00 0.10925651E+04</pdfrwt>
<totfact> 0.29267929E+00</totfact>
</mgrwt>
</event>
<event>
 8    1  0.1373409E-005  0.8087492E+03  0.7818608E-02  0.8978614E-01
         -2   -1    0    0    0  501 -0.00000000000E+00  0.00000000000E+00  0.44316430867E+03  0.44316430867E+03  0.00000000000E+00 0. -1.
          2   -1    0    0  502    0  0.00000000000E+00 -0.00000000000E+00 -0.26405904180E+04  0.26405904180E+04  0.00000000000E+00 0.  1.
    9000010    2    1    2  502    0 -0.10860544935E+03 -0.41790548348E+02 -0.21676860376E+04  0.23391860189E+04  0.87142806931E+03 0.  0.
   -9000010    2    1    2    0  501  0.10860544935E+03  0.41790548348E+02 -0.29740071727E+02  0.74456870774E+03  0.73481732091E+03 0.  0.
        -13    1    3    3    0    0 -0.16466045867E+03  0.28910471354E+03 -0.18410263912E+04  0.18708481462E+04  0.10566000000E+00 0.  1.
          4    1    3    3  502    0  0.56055009322E+02 -0.33089526188E+03 -0.32665964640E+03  0.46833787269E+03  0.00000000000E+00 0.  1.
         13    1    4    4    0    0 -0.19126136133E+03  0.24210721958E+03  0.14837232927E+03  0.34236117386E+03  0.10566000000E+00 0. -1.
         -4    1    4    4    0  501  0.29986681068E+03 -0.20031667123E+03 -0.17811240100E+03  0.40220753388E+03  0.00000000000E+00 0. -1.
<mgrwt>
<rscale>  2 0.80874919E+03</rscale>
<asrwt>0</asrwt>
<pdfrwt beam="2">  1        2 0.40624467E+00 0.80874919E+03</pdfrwt>
<pdfrwt beam="1">  1       -2 0.68179125E-01 0.80874919E+03</pdfrwt>
<totfact> 0.91418314E+00</totfact>
</mgrwt>
</event>
<event>
 8    1  0.1373409E-005  0.1227925E+04  0.7818608E-02  0.8585826E-01
          2   -1    0    0  502    0  0.00000000000E+00  0.00000000000E+00  0.40712152652E+04  0.40712152652E+04  0.00000000000E+00 0.  1.
         -2   -1    0    0    0  501 -0.00000000000E+00 -0.00000000000E+00 -0.54978970434E+03  0.54978970434E+03  0.00000000000E+00 0. -1.
    9000010    2    1    2  502    0 -0.70497797512E+03 -0.13543722745E+03  0.30750338266E+04  0.33089983613E+04  0.98909045722E+03 0.  0.
   -9000010    2    1    2    0  501  0.70497797512E+03  0.13543722745E+03  0.44639173424E+03  0.13120066082E+04  0.10033735952E+04 0.  0.
        -13    1    3    3    0    0 -0.36300920631E+02 -0.33355285563E+03  0.19973768631E+04  0.20253615995E+04  0.10566000000E+00 0.  1.
          4    1    3    3  502    0 -0.66867705448E+03  0.19811562817E+03  0.10776569635E+04  0.12836367618E+04  0.00000000000E+00 0.  1.
         13    1    4    4    0    0 -0.25295117325E+03 -0.28610004706E+02  0.15214563363E+03  0.29656556344E+03  0.10566000000E+00 0. -1.
         -4    1    4    4    0  501  0.95792914837E+03  0.16404723216E+03  0.29424610061E+03  0.10154410448E+04  0.00000000000E+00 0. -1.
<mgrwt>
<rscale>  2 0.12279248E+04</rscale>
<asrwt>0</asrwt>
<pdfrwt beam="1">  1        2 0.62634079E+00 0.12279248E+04</pdfrwt>
<pdfrwt beam="2">  1       -2 0.84583034E-01 0.12279248E+04</pdfrwt>
<totfact> 0.52191385E-01</totfact>
</mgrwt>
</event>
<event>
 8    1  0.1373409E-005  0.1313459E+04  0.7818608E-02  0.8525696E-01
         -1   -1    0    0    0  501 -0.00000000000E+00  0.00000000000E+00  0.27623180116E+04  0.27623180116E+04  0.00000000000E+00 0. -1.
          1   -1    0    0  502    0  0.00000000000E+00 -0.00000000000E+00 -0.68970817289E+03  0.68970817289E+03  0.00000000000E+00 0.  1.
    9000010    2    1    2  502    0 -0.68054333155E+03  0.21492576818E+03  0.16116960453E+04  0.21291156340E+04  0.11942516186E+04 0.  0.
   -9000010    2    1    2    0  501  0.68054333155E+03 -0.21492576818E+03  0.46091379342E+03  0.13229105505E+04  0.10140603965E+04 0.  0.
        -13    1    3    3    0    0 -0.36976336259E+03  0.34642119599E+03  0.17052486172E+04  0.17789337950E+04  0.10566000000E+00 0.  1.
          4    1    3    3  502    0 -0.31077996896E+03 -0.13149542781E+03 -0.93552571900E+02  0.35018183898E+03  0.00000000000E+00 0.  1.
         13    1    4    4    0    0  0.75437819307E+02 -0.17253159979E+03 -0.29729717428E+03  0.35191424880E+03  0.10566000000E+00 0. -1.
         -4    1    4    4    0  501  0.60510551224E+03 -0.42394168395E+02  0.75821096770E+03  0.97099630175E+03  0.00000000000E+00 0. -1.
<mgrwt>
<rscale>  2 0.13134593E+04</rscale>
<asrwt>0</asrwt>
<pdfrwt beam="2">  1        1 0.10610895E+00 0.13134593E+04</pdfrwt>
<pdfrwt beam="1">  1       -1 0.42497200E+00 0.13134593E+04</pdfrwt>
<totfact> 0.43753164E-01</totfact>
</mgrwt>
</event>
<event>
 8    1  0.1373409E-005  0.1190052E+04  0.7818608E-02  0.8614091E-01
         -2   -1    0    0    0  501 -0.00000000000E+00  0.00000000000E+00  0.72270969578E+03  0.72270969578E+03  0.00000000000E+00 0. -1.
          2   -1    0    0  502    0  0.00000000000E+00 -0.00000000000E+00 -0.22463213807E+04  0.22463213807E+04  0.00000000000E+00 0.  1.
    9000010    2    1    2  502    0 -0.37268011046E+03  0.50667902544E+03 -0.12855514967E+04  0.17440532114E+04  0.99672707100E+03 0.  0.
   -9000010    2    1    2    0  501  0.37268011046E+03 -0.50667902544E+03 -0.23806018822E+03  0.12249778651E+04  0.10238574203E+04 0.  0.
        -13    1    3    3    0    0 -0.58849806061E+03  0.61177002330E+03 -0.12352232679E+04  0.14987891985E+04  0.10566000000E+00 0.  1.
          4    1    3    3  502    0  0.21581795016E+03 -0.10509099786E+03 -0.50328228841E+02  0.24526401297E+03  0.00000000000E+00 0.  1.
         13    1    4    4    0    0 -0.19417116085E+03 -0.86549184520E+02 -0.44204984187E+03  0.49051123831E+03  0.10566000000E+00 0. -1.
         -4    1    4    4    0  501  0.56685127131E+03 -0.42012984092E+03  0.20398965365E+03  0.73446662675E+03  0.00000000000E+00 0. -1.
<mgrwt>
<rscale>  2 0.11900518E+04</rscale>
<asrwt>0</asrwt>
<pdfrwt beam="2">  1        2 0.34558790E+00 0.11900518E+04</pdfrwt>
<pdfrwt beam="1">  1       -2 0.11118611E+00 0.11900518E+04</pdfrwt>
<totfact> 0.47299607E+00</totfact>
</mgrwt>
</event>
<event>
 8    1  0.1373409E-005  0.1518224E+04  0.7818608E-02  0.8399087E-01
         -2   -1    0    0    0  501 -0.00000000000E+00  0.00000000000E+00  0.97128394460E+03  0.97128394460E+03  0.00000000000E+00 0. -1.
          2   -1    0    0  502    0  0.00000000000E+00 -0.00000000000E+00 -0.23734871881E+04  0.23734871881E+04  0.00000000000E+00 0.  1.
    9000010    2    1    2  502    0  0.39234770060E+03  0.10600798316E+04 -0.68632954378E+03  0.16728234795E+04  0.10244921588E+04 0.  0.
   -9000010    2    1    2    0  501 -0.39234770060E+03 -0.10600798316E+04 -0.71587369967E+03  0.16719476531E+04  0.10026105094E+04 0.  0.
        -13    1    3    3    0    0 -0.21315278234E+03  0.12251935691E+03  0.14110574831E+03  0.28347124158E+03  0.10566000000E+00 0.  1.
          4    1    3    3  502    0  0.60550048293E+03  0.93756047465E+03 -0.82743529208E+03  0.13893522379E+04  0.00000000000E+00 0.  1.
         13    1    4    4    0    0 -0.73068098194E+03 -0.64583869229E+03 -0.48969634387E+03  0.10912400443E+04  0.10566000000E+00 0. -1.
         -4    1    4    4    0  501  0.33833328134E+03 -0.41424113928E+03 -0.22617735580E+03  0.58070760888E+03  0.00000000000E+00 0. -1.
<mgrwt>
<rscale>  2 0.15182244E+04</rscale>
<asrwt>0</asrwt>
<pdfrwt beam="2">  1        2 0.36515187E+00 0.15182244E+04</pdfrwt>
<pdfrwt beam="1">  1       -2 0.14942830E+00 0.15182244E+04</pdfrwt>
<totfact> 0.17130313E+00</totfact>
</mgrwt>
</event>
<event>
 8    1  0.1373409E-005  0.1162509E+04  0.7818608E-02  0.8635342E-01
         -2   -1    0    0    0  501 -0.00000000000E+00  0.00000000000E+00  0.14817342900E+04  0.14817342900E+04  0.00000000000E+00 0. -1.
          2   -1    0    0  502    0  0.00000000000E+00 -0.00000000000E+00 -0.97115407652E+03  0.97115407652E+03  0.00000000000E+00 0.  1.
    9000010    2    1    2  502    0  0.28221953089E+03 -0.49260341071E+03 -0.49914288514E+02  0.11488147035E+04  0.99748574072E+03 0.  0.
   -9000010    2    1    2    0  501 -0.28221953089E+03  0.49260341071E+03  0.56049450196E+03  0.13040736630E+04  0.10315755173E+04 0.  0.
        -13    1    3    3    0    0  0.29104688759E+03  0.26235327309E+03  0.43023512576E+01  0.39186228712E+03  0.10566000000E+00 0.  1.
          4    1    3    3  502    0 -0.88273566971E+01 -0.75495668380E+03 -0.54216639771E+02  0.75695241639E+03  0.00000000000E+00 0.  1.
         13    1    4    4    0    0 -0.32556355918E+03  0.38739062486E+02 -0.22374683188E+03  0.39693198658E+03  0.10566000000E+00 0. -1.
         -4    1    4    4    0  501  0.43344028284E+02  0.45386434822E+03  0.78424133384E+03  0.90714167641E+03  0.00000000000E+00 0. -1.
<mgrwt>
<rscale>  2 0.11625087E+04</rscale>
<asrwt>0</asrwt>
<pdfrwt beam="2">  1        2 0.14940832E+00 0.11625087E+04</pdfrwt>
<pdfrwt beam="1">  1       -2 0.22795912E+00 0.11625087E+04</pdfrwt>
<totfact> 0.23672329E+00</totfact>
</mgrwt>
</event>
<event>
 8    1  0.1373409E-005  0.1248249E+04  0.7818608E-02  0.8571089E-01
          2   -1    0    0  502    0  0.00000000000E+00  0.00000000000E+00  0.11992564278E+04  0.11992564278E+04  0.00000000000E+00 0.  1.
         -2   -1    0    0    0  501 -0.00000000000E+00 -0.00000000000E+00 -0.13873364758E+04  0.13873364758E+04  0.00000000000E+00 0. -1.
    9000010    2    1    2  502    0  0.39731989511E+03  0.59958409195E+03  0.23133397785E+03  0.12758510433E+04  0.10280643428E+04 0.  0.
   -9000010    2    1    2    0  501 -0.39731989511E+03 -0.59958409195E+03 -0.41941402583E+03  0.13107418604E+04  0.10123101882E+04 0.  0.
        -13    1    3    3    0    0 -0.34060795590E+03  0.90955604403E+02  0.12158081917E+03  0.37291903726E+03  0.10566000000E+00 0.  1.
          4    1    3    3  502    0  0.73792785101E+03  0.50862848754E+03  0.10975315868E+03  0.90293200601E+03  0.00000000000E+00 0.  1.
         13    1    4    4    0    0  0.32134726151E+02  0.24268017063E+03  0.58047463193E+02  0.25158661528E+03  0.10566000000E+00 0. -1.
         -4    1    4    4    0  501 -0.42945462126E+03 -0.84226426257E+03 -0.47746148902E+03  0.10591552451E+04  0.00000000000E+00 0. -1.
<mgrwt>
<rscale>  2 0.12482489E+04</rscale>
<asrwt>0</asrwt>
<pdfrwt beam="1">  1        2 0.18450099E+00 0.12482489E+04</pdfrwt>
<pdfrwt beam="2">  1       -2 0.21343638E+00 0.12482489E+04</pdfrwt>
<totfact> 0.22568710E+00</totfact>
</mgrwt>
</event>
<event>
 8    1  0.1373409E-005  0.1339754E+04  0.7818608E-02  0.8508154E-01
         -2   -1    0    0    0  501 -0.00000000000E+00  0.00000000000E+00  0.12654872076E+04  0.12654872076E+04  0.00000000000E+00 0.  1.
          2   -1    0    0  502    0  0.00000000000E+00 -0.00000000000E+00 -0.14286215138E+04  0.14286215138E+04  0.00000000000E+00 0. -1.
    9000010    2    1    2  502    0  0.69909738533E+03  0.55836026227E+03  0.32561115676E+02  0.13387738868E+04  0.99536523800E+03 0.  0.
   -9000010    2    1    2    0  501 -0.69909738533E+03 -0.55836026227E+03 -0.19569542185E+03  0.13553348346E+04  0.99906580322E+03 0.  0.
        -13    1    3    3    0    0  0.27648468579E+03 -0.20264118782E+03 -0.24923663616E+03  0.42382324670E+03  0.10566000000E+00 0.  1.
          4    1    3    3  502    0  0.42261269953E+03  0.76100145008E+03  0.28179775183E+03  0.91495064007E+03  0.00000000000E+00 0.  1.
         13    1    4    4    0    0 -0.63481178713E+03  0.12578073877E+03 -0.26695564119E+02  0.64770322188E+03  0.10566000000E+00 0. -1.
         -4    1    4    4    0  501 -0.64285598196E+02 -0.68414100104E+03 -0.16899985773E+03  0.70763161274E+03  0.00000000000E+00 0. -1.
<mgrwt>
<rscale>  2 0.13397544E+04</rscale>
<asrwt>0</asrwt>
<pdfrwt beam="2">  1        2 0.21978793E+00 0.13397544E+04</pdfrwt>
<pdfrwt beam="1">  1       -2 0.19469034E+00 0.13397544E+04</pdfrwt>
<totfact> 0.23732662E+00</totfact>
</mgrwt>
</event>
<event>
 8    1  0.1373409E-005  0.1196409E+04  0.7818608E-02  0.8609271E-01
          2   -1    0    0  502    0  0.00000000000E+00  0.00000000000E+00  0.37682376579E+04  0.37682376579E+04  0.00000000000E+00 0. -1.
         -2   -1    0    0    0  501 -0.00000000000E+00 -0.00000000000E+00 -0.46687328147E+03  0.46687328147E+03  0.00000000000E+00 0.  1.
    9000010    2    1    2  502    0  0.63716306883E+03  0.22308916093E+03  0.72254517167E+03  0.13868950549E+04  0.97245093359E+03 0.  0.
   -9000010    2    1    2    0  501 -0.63716306883E+03 -0.22308916093E+03  0.25788192048E+04  0.28482158845E+04  0.10031349279E+04 0.  0.
        -13    1    3    3    0    0  0.22847101608E+03  0.42301644829E+03 -0.57156330327E+02  0.48415780276E+03  0.10566000000E+00 0.  1.
          4    1    3    3  502    0  0.40869205275E+03 -0.19992728736E+03  0.77970150200E+03  0.90273725215E+03  0.00000000000E+00 0.  1.
         13    1    4    4    0    0 -0.33144098535E+03  0.36270636648E+03  0.15451993039E+04  0.16214345300E+04  0.10566000000E+00 0. -1.
         -4    1    4    4    0  501 -0.30572208348E+03 -0.58579552741E+03  0.10336199009E+04  0.12267813545E+04  0.00000000000E+00 0. -1.
<mgrwt>
<rscale>  2 0.11964092E+04</rscale>
<asrwt>0</asrwt>
<pdfrwt beam="1">  1        2 0.57972885E+00 0.11964092E+04</pdfrwt>
<pdfrwt beam="2">  1       -2 0.71826661E-01 0.11964092E+04</pdfrwt>
<totfact> 0.13524952E+00</totfact>
</mgrwt>
</event>
<event>
 8    1  0.1373409E-005  0.1028523E+04  0.7818608E-02  0.8748244E-01
          1   -1    0    0  502    0  0.00000000000E+00  0.00000000000E+00  0.11842068508E+04  0.11842068508E+04  0.00000000000E+00 0.  1.
         -1   -1    0    0    0  501 -0.00000000000E+00 -0.00000000000E+00 -0.99149656260E+03  0.99149656260E+03  0.00000000000E+00 0. -1.
    9000010    2    1    2  502    0  0.29413997926E+03  0.54951621668E+02  0.43677102132E+03  0.11017829431E+04  0.96623947371E+03 0.  0.
   -9000010    2    1    2    0  501 -0.29413997926E+03 -0.54951621668E+02 -0.24406073310E+03  0.10739204703E+04  0.10020985615E+04 0.  0.
        -13    1    3    3    0    0 -0.33049873069E+03 -0.13660560355E+03  0.17183303276E+03  0.39675824406E+03  0.10566000000E+00 0.  1.
          4    1    3    3  502    0  0.62463870995E+03  0.19155722522E+03  0.26493798856E+03  0.70502469906E+03  0.00000000000E+00 0.  1.
         13    1    4    4    0    0 -0.24457738937E+03 -0.21671422587E+03 -0.59809232546E+03  0.68154060483E+03  0.10566000000E+00 0. -1.
         -4    1    4    4    0  501 -0.49562589883E+02  0.16176260420E+03  0.35403159236E+03  0.39237986547E+03  0.00000000000E+00 0. -1.
<mgrwt>
<rscale>  2 0.10285230E+04</rscale>
<asrwt>0</asrwt>
<pdfrwt beam="1">  1        1 0.18218567E+00 0.10285230E+04</pdfrwt>
<pdfrwt beam="2">  1       -1 0.15253793E+00 0.10285230E+04</pdfrwt>
<totfact> 0.54001928E+00</totfact>
</mgrwt>
</event>
<event>
 8    1  0.1373409E-005  0.1085251E+04  0.7818608E-02  0.8698374E-01
         -1   -1    0    0    0  501 -0.00000000000E+00  0.00000000000E+00  0.10015870411E+04  0.10015870411E+04  0.00000000000E+00 0.  1.
          1   -1    0    0  502    0  0.00000000000E+00 -0.00000000000E+00 -0.11828358547E+04  0.11828358547E+04  0.00000000000E+00 0. -1.
    9000010    2    1    2  502    0 -0.42679570186E+02  0.47726381074E+03 -0.17435744073E+03  0.11007640492E+04  0.97554020116E+03 0.  0.
   -9000010    2    1    2    0  501  0.42679570186E+02 -0.47726381074E+03 -0.68913728155E+01  0.10836588467E+04  0.97193966590E+03 0.  0.
        -13    1    3    3    0    0  0.48927232379E+02 -0.11892686765E+03 -0.42763956634E+03  0.44655692110E+03  0.10566000000E+00 0.  1.
          4    1    3    3  502    0 -0.91606802565E+02  0.59619067839E+03  0.25328212561E+03  0.65420712808E+03  0.00000000000E+00 0.  1.
         13    1    4    4    0    0 -0.14442941448E+03 -0.63500810949E+03  0.27800270941E+03  0.70808239103E+03  0.10566000000E+00 0. -1.
         -4    1    4    4    0  501  0.18710898466E+03  0.15774429875E+03 -0.28489408222E+03  0.37557645562E+03  0.00000000000E+00 0. -1.
<mgrwt>
<rscale>  2 0.10852510E+04</rscale>
<asrwt>0</asrwt>
<pdfrwt beam="2">  1        1 0.18197475E+00 0.10852510E+04</pdfrwt>
<pdfrwt beam="1">  1       -1 0.15409031E+00 0.10852510E+04</pdfrwt>
<totfact> 0.52112948E+00</totfact>
</mgrwt>
</event>
<event>
 8    1  0.1373409E-005  0.1185138E+04  0.7818608E-02  0.8617838E-01
         -2   -1    0    0    0  501 -0.00000000000E+00  0.00000000000E+00  0.87627356538E+03  0.87627356538E+03  0.00000000000E+00 0. -1.
          2   -1    0    0  502    0  0.00000000000E+00 -0.00000000000E+00 -0.23836828597E+04  0.23836828597E+04  0.00000000000E+00 0.  1.
    9000010    2    1    2  502    0 -0.29288925918E+03 -0.52148982967E+03 -0.16896946802E+04  0.20681337141E+04  0.10316846353E+04 0.  0.
   -9000010    2    1    2    0  501  0.29288925918E+03  0.52148982967E+03  0.18228538582E+03  0.11918227110E+04  0.10146317814E+04 0.  0.
        -13    1    3    3    0    0 -0.38365952119E+03  0.23482399982E+01 -0.14220942780E+04  0.14729400155E+04  0.10566000000E+00 0.  1.
          4    1    3    3  502    0  0.90770262010E+02 -0.52383806967E+03 -0.26760040214E+03  0.59519369866E+03  0.00000000000E+00 0.  1.
         13    1    4    4    0    0 -0.25591845768E+03  0.85354839733E+02  0.37764556759E+03  0.46410762925E+03  0.10566000000E+00 0. -1.
         -4    1    4    4    0  501  0.54880771686E+03  0.43613498994E+03 -0.19536018177E+03  0.72771508171E+03  0.00000000000E+00 0. -1.
<mgrwt>
<rscale>  2 0.11851383E+04</rscale>
<asrwt>0</asrwt>
<pdfrwt beam="2">  1        2 0.36672043E+00 0.11851383E+04</pdfrwt>
<pdfrwt beam="1">  1       -2 0.13481132E+00 0.11851383E+04</pdfrwt>
<totfact> 0.23753880E+00</totfact>
</mgrwt>
</event>
<event>
 8    1  0.1373409E-005  0.1346847E+04  0.7818608E-02  0.8503494E-01
         -2   -1    0    0    0  501 -0.00000000000E+00  0.00000000000E+00  0.58523248164E+03  0.58523248164E+03  0.00000000000E+00 0. -1.
          2   -1    0    0  502    0  0.00000000000E+00 -0.00000000000E+00 -0.32162096464E+04  0.32162096464E+04  0.00000000000E+00 0.  1.
    9000010    2    1    2  502    0 -0.71288329825E+03  0.61409512350E+03 -0.96688424152E+03  0.16690739127E+04  0.98266330544E+03 0.  0.
   -9000010    2    1    2    0  501  0.71288329825E+03 -0.61409512350E+03 -0.16640929232E+04  0.21323682153E+04  0.94470817239E+03 0.  0.
        -13    1    3    3    0    0  0.80585871892E+02  0.66005863965E+02 -0.64358653707E+03  0.65196203777E+03  0.10566000000E+00 0.  1.
          4    1    3    3  502    0 -0.79346917014E+03  0.54808925954E+03 -0.32329770444E+03  0.10171118749E+04  0.00000000000E+00 0.  1.
         13    1    4    4    0    0 -0.14680775886E+03 -0.16477072024E+02  0.20271013228E+02  0.14911383942E+03  0.10566000000E+00 0. -1.
         -4    1    4    4    0  501  0.85969105712E+03 -0.59761805148E+03 -0.16843639364E+04  0.19832543759E+04  0.00000000000E+00 0. -1.
<mgrwt>
<rscale>  2 0.13468471E+04</rscale>
<asrwt>0</asrwt>
<pdfrwt beam="2">  1        2 0.49480150E+00 0.13468471E+04</pdfrwt>
<pdfrwt beam="1">  1       -2 0.90035764E-01 0.13468471E+04</pdfrwt>
<totfact> 0.20698344E+00</totfact>
</mgrwt>
</event>
<event>
 8    1  0.1373409E-005  0.1187317E+04  0.7818608E-02  0.8616175E-01
          2   -1    0    0  502    0  0.00000000000E+00  0.00000000000E+00  0.31389268785E+04  0.31389268785E+04  0.00000000000E+00 0.  1.
         -2   -1    0    0    0  501 -0.00000000000E+00 -0.00000000000E+00 -0.47552196549E+03  0.47552196549E+03  0.00000000000E+00 0. -1.
    9000010    2    1    2  502    0  0.58399888265E+03  0.30186914337E+03  0.17489127709E+04  0.21093615172E+04  0.97904568612E+03 0.  0.
   -9000010    2    1    2    0  501 -0.58399888265E+03 -0.30186914337E+03  0.91449214217E+03  0.15050873268E+04  0.99840488208E+03 0.  0.
        -13    1    3    3    0    0 -0.20324520848E+03 -0.13578305601E+03  0.61120431064E+03  0.65826770662E+03  0.10566000000E+00 0.  1.
          4    1    3    3  502    0  0.78724409113E+03  0.43765219938E+03  0.11377084602E+04  0.14510938106E+04  0.00000000000E+00 0.  1.
         13    1    4    4    0    0 -0.68465340814E+03  0.13632835755E+03  0.75436615377E+03  0.10278151660E+04  0.10566000000E+00 0. -1.
         -4    1    4    4    0  501  0.10065452549E+03 -0.43819750092E+03  0.16012598840E+03  0.47727216080E+03  0.00000000000E+00 0. -1.
<mgrwt>
<rscale>  2 0.11873168E+04</rscale>
<asrwt>0</asrwt>
<pdfrwt beam="1">  1        2 0.48291181E+00 0.11873168E+04</pdfrwt>
<pdfrwt beam="2">  1       -2 0.73157227E-01 0.11873168E+04</pdfrwt>
<totfact> 0.37441615E+00</totfact>
</mgrwt>
</event>
<event>
 8    1  0.1373409E-005  0.1062654E+04  0.7818608E-02  0.8717851E-01
         -2   -1    0    0    0  501 -0.00000000000E+00  0.00000000000E+00  0.11304753228E+04  0.11304753228E+04  0.00000000000E+00 0. -1.
          2   -1    0    0  502    0  0.00000000000E+00 -0.00000000000E+00 -0.10113371511E+04  0.10113371511E+04  0.00000000000E+00 0.  1.
    9000010    2    1    2  502    0 -0.12903801917E+03 -0.32063920876E+03 -0.59331654145E+02  0.10605284041E+04  0.10008695909E+04 0.  0.
   -9000010    2    1    2    0  501  0.12903801917E+03  0.32063920876E+03  0.17846982590E+03  0.10812840699E+04  0.10088921887E+04 0.  0.
        -13    1    3    3    0    0 -0.86830747937E+02 -0.85641862768E+02  0.46695336049E+03  0.48261740487E+03  0.10566000000E+00 0.  1.
          4    1    3    3  502    0 -0.42207271229E+02 -0.23499734599E+03 -0.52628501464E+03  0.57791099920E+03  0.00000000000E+00 0.  1.
         13    1    4    4    0    0 -0.36515524087E+03  0.34760379449E+03  0.27907008415E+03  0.57623508303E+03  0.10566000000E+00 0. -1.
         -4    1    4    4    0  501  0.49419326004E+03 -0.26964585724E+02 -0.10060025825E+03  0.50504898684E+03  0.00000000000E+00 0. -1.
<mgrwt>
<rscale>  2 0.10626539E+04</rscale>
<asrwt>0</asrwt>
<pdfrwt beam="2">  1        2 0.15559033E+00 0.10626539E+04</pdfrwt>
<pdfrwt beam="1">  1       -2 0.17391928E+00 0.10626539E+04</pdfrwt>
<totfact> 0.62965068E+00</totfact>
</mgrwt>
</event>
<event>
 8    1  0.1373409E-005  0.1161607E+04  0.7818608E-02  0.8636048E-01
         -1   -1    0    0    0  501 -0.00000000000E+00  0.00000000000E+00  0.24032398440E+04  0.24032398440E+04  0.00000000000E+00 0. -1.
          1   -1    0    0  502    0  0.00000000000E+00 -0.00000000000E+00 -0.56694389731E+03  0.56694389731E+03  0.00000000000E+00 0.  1.
    9000010    2    1    2  502    0 -0.49788315191E+03 -0.35502890953E+03  0.10668382947E+04  0.15797595389E+04  0.99174749513E+03 0.  0.
   -9000010    2    1    2    0  501  0.49788315191E+03  0.35502890953E+03  0.76945765200E+03  0.13904242024E+04  0.98350456273E+03 0.  0.
        -13    1    3    3    0    0  0.15838536404E+03 -0.43791832249E+03  0.64381592963E+03  0.79457997906E+03  0.10566000000E+00 0.  1.
          4    1    3    3  502    0 -0.65626851595E+03  0.82889412961E+02  0.42302236502E+03  0.78517955979E+03  0.00000000000E+00 0.  1.
         13    1    4    4    0    0  0.21649631008E+03 -0.31832277863E+03  0.45437107239E+03  0.59552760328E+03  0.10566000000E+00 0. -1.
         -4    1    4    4    0  501  0.28138684183E+03  0.67335168815E+03  0.31508657960E+03  0.79489659915E+03  0.00000000000E+00 0. -1.
<mgrwt>
<rscale>  2 0.11616070E+04</rscale>
<asrwt>0</asrwt>
<pdfrwt beam="2">  1        1 0.87222139E-01 0.11616070E+04</pdfrwt>
<pdfrwt beam="1">  1       -1 0.36972920E+00 0.11616070E+04</pdfrwt>
<totfact> 0.52621094E-01</totfact>
</mgrwt>
</event>
<event>
 8    1  0.1373409E-005  0.1320091E+04  0.7818608E-02  0.8521232E-01
          1   -1    0    0  502    0  0.00000000000E+00  0.00000000000E+00  0.21864745833E+04  0.21864745833E+04  0.00000000000E+00 0.  1.
         -1   -1    0    0    0  501 -0.00000000000E+00 -0.00000000000E+00 -0.82346250200E+03  0.82346250200E+03  0.00000000000E+00 0. -1.
    9000010    2    1    2  502    0  0.83426781426E+03  0.26434579041E+03  0.40556164262E+03  0.13683759641E+04  0.97061374927E+03 0.  0.
   -9000010    2    1    2    0  501 -0.83426781426E+03 -0.26434579041E+03  0.95745043865E+03  0.16415611212E+04  0.10060467630E+04 0.  0.
        -13    1    3    3    0    0  0.44548002912E+03 -0.65047753696E+00 -0.28786158644E+03  0.53039342339E+03  0.10566000000E+00 0.  1.
          4    1    3    3  502    0  0.38878778514E+03  0.26499626795E+03  0.69342322905E+03  0.83798254069E+03  0.00000000000E+00 0.  1.
         13    1    4    4    0    0 -0.11247029796E+03 -0.41001255401E+03 -0.10590719969E+02  0.42529053232E+03  0.10566000000E+00 0. -1.
         -4    1    4    4    0  501 -0.72179751630E+03  0.14566676360E+03  0.96804115862E+03  0.12162705889E+04  0.00000000000E+00 0. -1.
<mgrwt>
<rscale>  2 0.13200910E+04</rscale>
<asrwt>0</asrwt>
<pdfrwt beam="1">  1        1 0.33638070E+00 0.13200910E+04</pdfrwt>
<pdfrwt beam="2">  1       -1 0.12668654E+00 0.13200910E+04</pdfrwt>
<totfact> 0.15283301E+00</totfact>
</mgrwt>
</event>
<event>
 8    1  0.1373409E-005  0.1128025E+04  0.7818608E-02  0.8662826E-01
         -2   -1    0    0    0  501 -0.00000000000E+00  0.00000000000E+00  0.33997789723E+03  0.33997789723E+03  0.00000000000E+00 0.  1.
          2   -1    0    0  502    0  0.00000000000E+00 -0.00000000000E+00 -0.37643260487E+04  0.37643260487E+04  0.00000000000E+00 0. -1.
    9000010    2    1    2  502    0  0.25093697398E+03 -0.35776124278E+03 -0.17918449581E+04  0.20972154482E+04  0.99831949323E+03 0.  0.
   -9000010    2    1    2    0  501 -0.25093697398E+03  0.35776124278E+03 -0.16325031933E+04  0.20070884977E+04  0.10827627116E+04 0.  0.
        -13    1    3    3    0    0  0.44669533262E+03 -0.32864171104E+03 -0.38165028959E+03  0.67320060095E+03  0.10566000000E+00 0.  1.
          4    1    3    3  502    0 -0.19575835863E+03 -0.29119531744E+02 -0.14101946685E+04  0.14240148472E+04  0.00000000000E+00 0.  1.
         13    1    4    4    0    0  0.16899550998E+03  0.63836965778E+03 -0.86356184063E+03  0.10871128580E+04  0.10566000000E+00 0. -1.
         -4    1    4    4    0  501 -0.41993248396E+03 -0.28060841500E+03 -0.76894135271E+03  0.91997563966E+03  0.00000000000E+00 0. -1.
<mgrwt>
<rscale>  2 0.11280252E+04</rscale>
<asrwt>0</asrwt>
<pdfrwt beam="2">  1        2 0.57912707E+00 0.11280252E+04</pdfrwt>
<pdfrwt beam="1">  1       -2 0.52304293E-01 0.11280252E+04</pdfrwt>
<totfact> 0.26182250E+00</totfact>
</mgrwt>
</event>
<event>
 8    1  0.1373409E-005  0.1417507E+04  0.7818608E-02  0.8458615E-01
          2   -1    0    0  502    0  0.00000000000E+00  0.00000000000E+00  0.23554344481E+04  0.23554344481E+04  0.00000000000E+00 0. -1.
         -2   -1    0    0    0  501 -0.00000000000E+00 -0.00000000000E+00 -0.86943799690E+03  0.86943799690E+03  0.00000000000E+00 0.  1.
    9000010    2    1    2  502    0 -0.33073732242E+03  0.96755569668E+03  0.97124938128E+03  0.17305592242E+04  0.10029749075E+04 0.  0.
   -9000010    2    1    2    0  501  0.33073732242E+03 -0.96755569668E+03  0.51474706997E+03  0.14943132209E+04  0.96044586178E+03 0.  0.
        -13    1    3    3    0    0 -0.37530630798E+03  0.13986611700E+02  0.98039981540E+01  0.37569479589E+03  0.10566000000E+00 0.  1.
          4    1    3    3  502    0  0.44568985562E+02  0.95356908498E+03  0.96144538312E+03  0.13548644283E+04  0.00000000000E+00 0.  1.
         13    1    4    4    0    0  0.27525835989E+03 -0.84954525534E+03  0.78835673434E+03  0.11912181401E+04  0.10566000000E+00 0. -1.
         -4    1    4    4    0  501  0.55478962524E+02 -0.11801044134E+03 -0.27360966437E+03  0.30309508077E+03  0.00000000000E+00 0. -1.
<mgrwt>
<rscale>  2 0.14175066E+04</rscale>
<asrwt>0</asrwt>
<pdfrwt beam="1">  1        2 0.36237453E+00 0.14175066E+04</pdfrwt>
<pdfrwt beam="2">  1       -2 0.13375969E+00 0.14175066E+04</pdfrwt>
<totfact> 0.24512317E+00</totfact>
</mgrwt>
</event>
<event>
 8    1  0.1373409E-005  0.1094715E+04  0.7818608E-02  0.8690363E-01
         -1   -1    0    0    0  501 -0.00000000000E+00  0.00000000000E+00  0.17799601321E+04  0.17799601321E+04  0.00000000000E+00 0. -1.
          1   -1    0    0  502    0  0.00000000000E+00 -0.00000000000E+00 -0.85873503205E+03  0.85873503205E+03  0.00000000000E+00 0.  1.
    9000010    2    1    2  502    0 -0.43161834801E+03 -0.72506209734E+02  0.10763288636E+04  0.15409861680E+04  0.10122267525E+04 0.  0.
   -9000010    2    1    2    0  501  0.43161834801E+03  0.72506209734E+02 -0.15510376364E+03  0.10977089961E+04  0.99466392005E+03 0.  0.
        -13    1    3    3    0    0 -0.58404014325E+03 -0.28014210327E+03  0.11059822514E+04  0.12817094985E+04  0.10566000000E+00 0.  1.
          4    1    3    3  502    0  0.15242179524E+03  0.20763589353E+03 -0.29653387757E+02  0.25927666951E+03  0.00000000000E+00 0.  1.
         13    1    4    4    0    0  0.45447114726E+02  0.11090466299E+03 -0.53880312688E+03  0.55197292072E+03  0.10566000000E+00 0. -1.
         -4    1    4    4    0  501  0.38617123328E+03 -0.38398453253E+02  0.38369936324E+03  0.54573607539E+03  0.00000000000E+00 0. -1.
<mgrwt>
<rscale>  2 0.10947153E+04</rscale>
<asrwt>0</asrwt>
<pdfrwt beam="2">  1        1 0.13211308E+00 0.10947153E+04</pdfrwt>
<pdfrwt beam="1">  1       -1 0.27384002E+00 0.10947153E+04</pdfrwt>
<totfact> 0.75075289E-01</totfact>
</mgrwt>
</event>
<event>
 8    1  0.1373409E-005  0.1849574E+04  0.7818608E-02  0.8232548E-01
          2   -1    0    0  502    0  0.00000000000E+00  0.00000000000E+00  0.27345545674E+04  0.27345545674E+04  0.00000000000E+00 0.  1.
         -2   -1    0    0    0  501 -0.00000000000E+00 -0.00000000000E+00 -0.12576017888E+04  0.12576017888E+04  0.00000000000E+00 0. -1.
    9000010    2    1    2  502    0 -0.58171543180E+03 -0.14449110698E+04  0.88311787341E+03  0.20495942967E+04  0.99738596317E+03 0.  0.
   -9000010    2    1    2    0  501  0.58171543180E+03  0.14449110698E+04  0.59383490521E+03  0.19425620595E+04  0.99736984972E+03 0.  0.
        -13    1    3    3    0    0 -0.39621549655E+03 -0.57159872823E+03  0.92324741374E+03  0.11558968916E+04  0.10566000000E+00 0.  1.
          4    1    3    3  502    0 -0.18549993525E+03 -0.87331234158E+03 -0.40129540332E+02  0.89369740513E+03  0.00000000000E+00 0.  1.
         13    1    4    4    0    0  0.56883479529E+03  0.10683672020E+04  0.85694928307E+03  0.14830184043E+04  0.10566000000E+00 0. -1.
         -4    1    4    4    0  501  0.12880636507E+02  0.37654386786E+03 -0.26311437785E+03  0.45954365522E+03  0.00000000000E+00 0. -1.
<mgrwt>
<rscale>  2 0.18495739E+04</rscale>
<asrwt>0</asrwt>
<pdfrwt beam="1">  1        2 0.42070070E+00 0.18495739E+04</pdfrwt>
<pdfrwt beam="2">  1       -2 0.19347720E+00 0.18495739E+04</pdfrwt>
<totfact> 0.43408289E-01</totfact>
</mgrwt>
</event>
<event>
 8    1  0.1373409E-005  0.1224702E+04  0.7818608E-02  0.8588190E-01
          2   -1    0    0  502    0  0.00000000000E+00  0.00000000000E+00  0.19280453764E+04  0.19280453764E+04  0.00000000000E+00 0. -1.
         -2   -1    0    0    0  501 -0.00000000000E+00 -0.00000000000E+00 -0.78883769203E+03  0.78883769203E+03  0.00000000000E+00 0.  1.
    9000010    2    1    2  502    0 -0.63044052827E+03  0.24291498367E+03  0.40276460735E+03  0.12718761109E+04  0.99949315339E+03 0.  0.
   -9000010    2    1    2    0  501  0.63044052827E+03 -0.24291498367E+03  0.73644307701E+03  0.14450069575E+04  0.10436636204E+04 0.  0.
        -13    1    3    3    0    0  0.17231470579E+03  0.28896342379E+03  0.31869081528E+03  0.46341780827E+03  0.10566000000E+00 0.  1.
          4    1    3    3  502    0 -0.80275523406E+03 -0.46048440117E+02  0.84073792076E+02  0.80845830267E+03  0.00000000000E+00 0.  1.
         13    1    4    4    0    0 -0.63718905084E+02 -0.21008407792E+03  0.71693897954E+03  0.74979792625E+03  0.10566000000E+00 0. -1.
         -4    1    4    4    0  501  0.69415943336E+03 -0.32830905757E+02  0.19504097466E+02  0.69520903123E+03  0.00000000000E+00 0. -1.
<mgrwt>
<rscale>  2 0.12247018E+04</rscale>
<asrwt>0</asrwt>
<pdfrwt beam="1">  1        2 0.29662236E+00 0.12247018E+04</pdfrwt>
<pdfrwt beam="2">  1       -2 0.12135965E+00 0.12247018E+04</pdfrwt>
<totfact> 0.56063471E+00</totfact>
</mgrwt>
</event>
<event>
 8    1  0.1373409E-005  0.1024680E+04  0.7818608E-02  0.8751743E-01
         -2   -1    0    0    0  501 -0.00000000000E+00  0.00000000000E+00  0.42038365441E+03  0.42038365441E+03  0.00000000000E+00 0. -1.
          2   -1    0    0  502    0  0.00000000000E+00 -0.00000000000E+00 -0.26948877494E+04  0.26948877494E+04  0.00000000000E+00 0.  1.
    9000010    2    1    2  502    0 -0.16407432594E+03  0.32507651570E+01 -0.15174139153E+04  0.18111556602E+04  0.97509429445E+03 0.  0.
   -9000010    2    1    2    0  501  0.16407432594E+03 -0.32507651570E+01 -0.75709017967E+03  0.13041157436E+04  0.10490955060E+04 0.  0.
        -13    1    3    3    0    0 -0.46903945079E+03  0.29674233085E+03 -0.72810563860E+03  0.91552818058E+03  0.10566000000E+00 0.  1.
          4    1    3    3  502    0  0.30496512485E+03 -0.29349156569E+03 -0.78930827674E+03  0.89562747961E+03  0.00000000000E+00 0.  1.
         13    1    4    4    0    0  0.29564998333E+03 -0.46555951346E+03 -0.55584795911E+03  0.78302077752E+03  0.10566000000E+00 0. -1.
         -4    1    4    4    0  501 -0.13157565738E+03  0.46230874830E+03 -0.20124222057E+03  0.52109496612E+03  0.00000000000E+00 0. -1.
<mgrwt>
<rscale>  2 0.10246796E+04</rscale>
<asrwt>0</asrwt>
<pdfrwt beam="2">  1        2 0.41459810E+00 0.10246796E+04</pdfrwt>
<pdfrwt beam="1">  1       -2 0.64674411E-01 0.10246796E+04</pdfrwt>
<totfact> 0.91965250E+00</totfact>
</mgrwt>
</event>
<event>
 8    1  0.1373409E-005  0.1296791E+04  0.7818608E-02  0.8537035E-01
         -2   -1    0    0    0  501 -0.00000000000E+00  0.00000000000E+00  0.57345756170E+03  0.57345756170E+03  0.00000000000E+00 0.  1.
          2   -1    0    0  502    0  0.00000000000E+00 -0.00000000000E+00 -0.31540986105E+04  0.31540986105E+04  0.00000000000E+00 0. -1.
    9000010    2    1    2  502    0  0.26656690527E+03 -0.81265081399E+03 -0.81533887704E+03  0.15486449579E+04  0.10010316982E+04 0.  0.
   -9000010    2    1    2    0  501 -0.26656690527E+03  0.81265081399E+03 -0.17653021718E+04  0.21789112143E+04  0.94863220572E+03 0.  0.
        -13    1    3    3    0    0 -0.68131736740E+02  0.21433246260E+03 -0.67261850310E+02  0.23474348926E+03  0.10566000000E+00 0.  1.
          4    1    3    3  502    0  0.33469864201E+03 -0.10269832766E+04 -0.74807702673E+03  0.13139014686E+04  0.00000000000E+00 0.  1.
         13    1    4    4    0    0 -0.32651014625E+03  0.10120239477E+04 -0.13948794770E+04  0.17539926205E+04  0.10566000000E+00 0. -1.
         -4    1    4    4    0  501  0.59943240981E+02 -0.19937313367E+03 -0.37042269472E+03  0.42491859377E+03  0.00000000000E+00 0. -1.
<mgrwt>
<rscale>  2 0.12967912E+04</rscale>
<asrwt>0</asrwt>
<pdfrwt beam="2">  1        2 0.48524592E+00 0.12967912E+04</pdfrwt>
<pdfrwt beam="1">  1       -2 0.88224243E-01 0.12967912E+04</pdfrwt>
<totfact> 0.23932866E+00</totfact>
</mgrwt>
</event>
<event>
 8    1  0.1373409E-005  0.1025504E+04  0.7818608E-02  0.8750990E-01
          2   -1    0    0  502    0  0.00000000000E+00  0.00000000000E+00  0.13754977178E+04  0.13754977178E+04  0.00000000000E+00 0.  1.
         -2   -1    0    0    0  501 -0.00000000000E+00 -0.00000000000E+00 -0.90029134301E+03  0.90029134301E+03  0.00000000000E+00 0. -1.
    9000010    2    1    2  502    0 -0.47111066311E+02  0.15161778331E+03  0.67698074016E+03  0.12192989207E+04  0.10015885037E+04 0.  0.
   -9000010    2    1    2    0  501  0.47111066311E+02 -0.15161778331E+03 -0.20177436542E+03  0.10564901400E+04  0.10248176017E+04 0.  0.
        -13    1    3    3    0    0 -0.47850294737E+02  0.53467818486E+03  0.13138798860E+03  0.55266013678E+03  0.10566000000E+00 0.  1.
          4    1    3    3  502    0  0.73922842603E+00 -0.38306040155E+03  0.54559275156E+03  0.66663878394E+03  0.00000000000E+00 0.  1.
         13    1    4    4    0    0 -0.30345303595E+03  0.29550750670E+03 -0.24035919601E+03  0.48701230561E+03  0.10566000000E+00 0. -1.
         -4    1    4    4    0  501  0.35056410226E+03 -0.44712529001E+03  0.38584830593E+02  0.56947783443E+03  0.00000000000E+00 0. -1.
<mgrwt>
<rscale>  2 0.10255045E+04</rscale>
<asrwt>0</asrwt>
<pdfrwt beam="1">  1        2 0.21161503E+00 0.10255045E+04</pdfrwt>
<pdfrwt beam="2">  1       -2 0.13850636E+00 0.10255045E+04</pdfrwt>
<totfact> 0.79461365E+00</totfact>
</mgrwt>
</event>
<event>
 8    1  0.1373409E-005  0.1127482E+04  0.7818608E-02  0.8663267E-01
         -1   -1    0    0    0  501 -0.00000000000E+00  0.00000000000E+00  0.96432775738E+03  0.96432775738E+03  0.00000000000E+00 0.  1.
          1   -1    0    0  502    0  0.00000000000E+00 -0.00000000000E+00 -0.14947851415E+04  0.14947851415E+04  0.00000000000E+00 0. -1.
    9000010    2    1    2  502    0 -0.39273225496E+03  0.37213554340E+03 -0.68750672134E+03  0.13194230246E+04  0.98766803092E+03 0.  0.
   -9000010    2    1    2    0  501  0.39273225496E+03 -0.37213554340E+03  0.15704933724E+03  0.11396898742E+04  0.99070935615E+03 0.  0.
        -13    1    3    3    0    0 -0.50853492577E+03 -0.17905230846E+03 -0.20169792401E+03  0.57562971049E+03  0.10566000000E+00 0.  1.
          4    1    3    3  502    0  0.11580267081E+03  0.55118785186E+03 -0.48580879733E+03  0.74379331414E+03  0.00000000000E+00 0.  1.
         13    1    4    4    0    0  0.63913527750E+03 -0.53450655258E+03  0.10037674607E+03  0.83920596996E+03  0.10566000000E+00 0. -1.
         -4    1    4    4    0  501 -0.24640302254E+03  0.16237100918E+03  0.56672591163E+02  0.30048390428E+03  0.00000000000E+00 0. -1.
<mgrwt>
<rscale>  2 0.11274824E+04</rscale>
<asrwt>0</asrwt>
<pdfrwt beam="2">  1        1 0.22996694E+00 0.11274824E+04</pdfrwt>
<pdfrwt beam="1">  1       -1 0.14835812E+00 0.11274824E+04</pdfrwt>
<totfact> 0.33813198E+00</totfact>
</mgrwt>
</event>
<event>
 8    1  0.1373409E-005  0.1217841E+04  0.7818608E-02  0.8593247E-01
         -1   -1    0    0    0  501 -0.00000000000E+00  0.00000000000E+00  0.11726768251E+04  0.11726768251E+04  0.00000000000E+00 0.  1.
          1   -1    0    0  502    0  0.00000000000E+00 -0.00000000000E+00 -0.13614612509E+04  0.13614612509E+04  0.00000000000E+00 0. -1.
    9000010    2    1    2  502    0  0.62203510714E+03 -0.47985601469E+03 -0.42541258011E+03  0.12475265465E+04  0.87072220115E+03 0.  0.
   -9000010    2    1    2    0  501 -0.62203510714E+03  0.47985601469E+03  0.23662815429E+03  0.12866115295E+04  0.99105341685E+03 0.  0.
        -13    1    3    3    0    0 -0.10898199281E+03  0.41712658208E+02 -0.32331915757E+03  0.34373290419E+03  0.10566000000E+00 0.  1.
          4    1    3    3  502    0  0.73101709995E+03 -0.52156867290E+03 -0.10209342254E+03  0.90379364232E+03  0.00000000000E+00 0.  1.
         13    1    4    4    0    0  0.15358501599E+02  0.61131936648E+03  0.75526122602E+02  0.61615863036E+03  0.10566000000E+00 0. -1.
         -4    1    4    4    0  501 -0.63739360874E+03 -0.13146335179E+03  0.16110203169E+03  0.67045289913E+03  0.00000000000E+00 0. -1.
<mgrwt>
<rscale>  2 0.12178413E+04</rscale>
<asrwt>0</asrwt>
<pdfrwt beam="2">  1        1 0.20945558E+00 0.12178413E+04</pdfrwt>
<pdfrwt beam="1">  1       -1 0.18041182E+00 0.12178413E+04</pdfrwt>
<totfact> 0.22159610E+00</totfact>
</mgrwt>
</event>
<event>
 8    1  0.1373409E-005  0.1684300E+04  0.7818608E-02  0.8310672E-01
         -1   -1    0    0    0  501 -0.00000000000E+00  0.00000000000E+00  0.13015641120E+04  0.13015641120E+04  0.00000000000E+00 0. -1.
          1   -1    0    0  502    0  0.00000000000E+00 -0.00000000000E+00 -0.21839321671E+04  0.21839321671E+04  0.00000000000E+00 0.  1.
    9000010    2    1    2  502    0 -0.13459746787E+04  0.17419262250E+03 -0.36397061696E+03  0.17251320949E+04  0.10008072888E+04 0.  0.
   -9000010    2    1    2    0  501  0.13459746787E+04 -0.17419262250E+03 -0.51839743812E+03  0.17603641843E+04  0.99405998413E+03 0.  0.
        -13    1    3    3    0    0 -0.36491276003E+01  0.27220863393E+03  0.11640288657E+03  0.29607515884E+03  0.10566000000E+00 0.  1.
          4    1    3    3  502    0 -0.13423255511E+04 -0.98016011425E+02 -0.48037350353E+03  0.14290569360E+04  0.00000000000E+00 0.  1.
         13    1    4    4    0    0  0.14732925970E+04 -0.29716154526E+03 -0.49174209821E+03  0.15813621858E+04  0.10566000000E+00 0. -1.
         -4    1    4    4    0  501 -0.12731791836E+03  0.12296892276E+03 -0.26655339911E+02  0.17900199844E+03  0.00000000000E+00 0. -1.
<mgrwt>
<rscale>  2 0.16843005E+04</rscale>
<asrwt>0</asrwt>
<pdfrwt beam="2">  1        1 0.33598956E+00 0.16843005E+04</pdfrwt>
<pdfrwt beam="1">  1       -1 0.20024063E+00 0.16843005E+04</pdfrwt>
<totfact> 0.33261182E-01</totfact>
</mgrwt>
</event>
<event>
 8    1  0.1373409E-005  0.1520554E+04  0.7818608E-02  0.8397768E-01
         -2   -1    0    0    0  501 -0.00000000000E+00  0.00000000000E+00  0.99923923282E+03  0.99923923282E+03  0.00000000000E+00 0.  1.
          2   -1    0    0  502    0  0.00000000000E+00 -0.00000000000E+00 -0.25973054249E+04  0.25973054249E+04  0.00000000000E+00 0. -1.
    9000010    2    1    2  502    0 -0.11114990754E+04 -0.30311827577E+03 -0.13967969635E+04  0.20706788877E+04  0.10046683108E+04 0.  0.
   -9000010    2    1    2    0  501  0.11114990754E+04  0.30311827577E+03 -0.20126922855E+03  0.15258657700E+04  0.98002355176E+03 0.  0.
        -13    1    3    3    0    0 -0.85044258102E+02  0.20046364800E+03 -0.69691292081E+03  0.73014096609E+03  0.10566000000E+00 0.  1.
          4    1    3    3  502    0 -0.10264548173E+04 -0.50358192377E+03 -0.69988404272E+03  0.13405379216E+04  0.00000000000E+00 0.  1.
         13    1    4    4    0    0  0.12957187354E+04  0.28917774065E+03 -0.18460653433E+03  0.13403694978E+04  0.10566000000E+00 0. -1.
         -4    1    4    4    0  501 -0.18421965996E+03  0.13940535127E+02 -0.16662694216E+02  0.18549627224E+03  0.00000000000E+00 0. -1.
<mgrwt>
<rscale>  2 0.15205538E+04</rscale>
<asrwt>0</asrwt>
<pdfrwt beam="2">  1        2 0.39958545E+00 0.15205538E+04</pdfrwt>
<pdfrwt beam="1">  1       -2 0.15372911E+00 0.15205538E+04</pdfrwt>
<totfact> 0.11727117E+00</totfact>
</mgrwt>
</event>
<event>
 8    1  0.1373409E-005  0.1243828E+04  0.7818608E-02  0.8574270E-01
         -1   -1    0    0    0  501 -0.00000000000E+00  0.00000000000E+00  0.11955950023E+04  0.11955950023E+04  0.00000000000E+00 0.  1.
          1   -1    0    0  502    0  0.00000000000E+00 -0.00000000000E+00 -0.14133014995E+04  0.14133014995E+04  0.00000000000E+00 0. -1.
    9000010    2    1    2  502    0 -0.40434172092E+03  0.59679468959E+03  0.27116563863E+03  0.12532949319E+04  0.98871697368E+03 0.  0.
   -9000010    2    1    2    0  501  0.40434172092E+03 -0.59679468959E+03 -0.48887213587E+03  0.13556015698E+04  0.10387509432E+04 0.  0.
        -13    1    3    3    0    0  0.19066148054E+03  0.57898945504E+03  0.27826830735E+02  0.61020892560E+03  0.10566000000E+00 0.  1.
          4    1    3    3  502    0 -0.59500320146E+03  0.17805234554E+02  0.24333880789E+03  0.64308600634E+03  0.00000000000E+00 0.  1.
         13    1    4    4    0    0  0.68030416817E+03 -0.26319602728E+03 -0.37869988092E+02  0.73042457322E+03  0.10566000000E+00 0. -1.
         -4    1    4    4    0  501 -0.27596244725E+03 -0.33359866231E+03 -0.45100214777E+03  0.62517699661E+03  0.00000000000E+00 0. -1.
<mgrwt>
<rscale>  2 0.12438277E+04</rscale>
<asrwt>0</asrwt>
<pdfrwt beam="2">  1        1 0.21743100E+00 0.12438277E+04</pdfrwt>
<pdfrwt beam="1">  1       -1 0.18393769E+00 0.12438277E+04</pdfrwt>
<totfact> 0.18815549E+00</totfact>
</mgrwt>
</event>
<event>
 8    1  0.1373409E-005  0.1168354E+04  0.7818608E-02  0.8630781E-01
         -1   -1    0    0    0  501 -0.00000000000E+00  0.00000000000E+00  0.74083885996E+03  0.74083885996E+03  0.00000000000E+00 0.  1.
          1   -1    0    0  502    0  0.00000000000E+00 -0.00000000000E+00 -0.20091961844E+04  0.20091961844E+04  0.00000000000E+00 0. -1.
    9000010    2    1    2  502    0 -0.20791841536E+03  0.55171771919E+03 -0.23850814214E+03  0.11930382112E+04  0.10093718494E+04 0.  0.
   -9000010    2    1    2    0  501  0.20791841536E+03 -0.55171771919E+03 -0.10298491823E+04  0.15569968331E+04  0.10079817910E+04 0.  0.
        -13    1    3    3    0    0 -0.61448200556E+03  0.36029968502E+03 -0.21059007557E+03  0.74280023511E+03  0.10566000000E+00 0.  1.
          4    1    3    3  502    0  0.40656359020E+03  0.19141803417E+03 -0.27918066567E+02  0.45023797610E+03  0.00000000000E+00 0.  1.
         13    1    4    4    0    0 -0.21422220466E+03  0.94854671160E+02 -0.66091269588E+03  0.70120907320E+03  0.10566000000E+00 0. -1.
         -4    1    4    4    0  501  0.42214062001E+03 -0.64657239035E+03 -0.36893648640E+03  0.85578775992E+03  0.00000000000E+00 0. -1.
<mgrwt>
<rscale>  2 0.11683541E+04</rscale>
<asrwt>0</asrwt>
<pdfrwt beam="2">  1        1 0.30910710E+00 0.11683541E+04</pdfrwt>
<pdfrwt beam="1">  1       -1 0.11397521E+00 0.11683541E+04</pdfrwt>
<totfact> 0.27807880E+00</totfact>
</mgrwt>
</event>
<event>
 8    1  0.1373409E-005  0.1613429E+04  0.7818608E-02  0.8347054E-01
          1   -1    0    0  502    0  0.00000000000E+00  0.00000000000E+00  0.13770378098E+04  0.13770378098E+04  0.00000000000E+00 0.  1.
         -1   -1    0    0    0  501 -0.00000000000E+00 -0.00000000000E+00 -0.19489472767E+04  0.19489472767E+04  0.00000000000E+00 0. -1.
    9000010    2    1    2  502    0  0.27477852241E+03 -0.12342606551E+04  0.19445927075E+01  0.16153394779E+04  0.10051941337E+04 0.  0.
   -9000010    2    1    2    0  501 -0.27477852241E+03  0.12342606551E+04 -0.57385405959E+03  0.17106456087E+04  0.99904820486E+03 0.  0.
        -13    1    3    3    0    0 -0.14940193984E+03 -0.84431334621E+03  0.36761737130E+03  0.93291398803E+03  0.10566000000E+00 0.  1.
          4    1    3    3  502    0  0.42418046225E+03 -0.38994730887E+03 -0.36567277859E+03  0.68242548989E+03  0.00000000000E+00 0.  1.
         13    1    4    4    0    0  0.90514202318E+02  0.66340147577E+03 -0.75500567209E+03  0.10091223488E+04  0.10566000000E+00 0. -1.
         -4    1    4    4    0  501 -0.36529272473E+03  0.57085917931E+03  0.18115161250E+03  0.70152325981E+03  0.00000000000E+00 0. -1.
<mgrwt>
<rscale>  2 0.16134285E+04</rscale>
<asrwt>0</asrwt>
<pdfrwt beam="1">  1        1 0.21185197E+00 0.16134285E+04</pdfrwt>
<pdfrwt beam="2">  1       -1 0.29983804E+00 0.16134285E+04</pdfrwt>
<totfact> 0.15926097E-01</totfact>
</mgrwt>
</event>
<event>
 8    1  0.1373409E-005  0.1060486E+04  0.7818608E-02  0.8719745E-01
         -2   -1    0    0    0  501 -0.00000000000E+00  0.00000000000E+00  0.12309974578E+04  0.12309974578E+04  0.00000000000E+00 0.  1.
          2   -1    0    0  502    0  0.00000000000E+00 -0.00000000000E+00 -0.11251821874E+04  0.11251821874E+04  0.00000000000E+00 0. -1.
    9000010    2    1    2  502    0  0.30422129470E+03 -0.24111288161E+03 -0.45829632316E+03  0.11433276805E+04  0.97287031376E+03 0.  0.
   -9000010    2    1    2    0  501 -0.30422129470E+03  0.24111288161E+03  0.56411159358E+03  0.12128519647E+04  0.10010504385E+04 0.  0.
        -13    1    3    3    0    0 -0.21937371526E+03  0.24714936709E+03 -0.12097403474E+03  0.35191243918E+03  0.10566000000E+00 0.  1.
          4    1    3    3  502    0  0.52359500996E+03 -0.48826224870E+03 -0.33732228842E+03  0.79141524134E+03  0.00000000000E+00 0.  1.
         13    1    4    4    0    0  0.11764508182E+03 -0.30767246028E+03  0.15759921526E+02  0.32977430825E+03  0.10566000000E+00 0. -1.
         -4    1    4    4    0  501 -0.42186637653E+03  0.54878534188E+03  0.54835167206E+03  0.88307765647E+03  0.00000000000E+00 0. -1.
<mgrwt>
<rscale>  2 0.10604864E+04</rscale>
<asrwt>0</asrwt>
<pdfrwt beam="2">  1        2 0.17310495E+00 0.10604864E+04</pdfrwt>
<pdfrwt beam="1">  1       -2 0.18938422E+00 0.10604864E+04</pdfrwt>
<totfact> 0.40141909E+00</totfact>
</mgrwt>
</event>
<event>
 8    1  0.1373409E-005  0.1517854E+04  0.7818608E-02  0.8399298E-01
          2   -1    0    0  502    0  0.00000000000E+00  0.00000000000E+00  0.15807613269E+04  0.15807613269E+04  0.00000000000E+00 0. -1.
         -2   -1    0    0    0  501 -0.00000000000E+00 -0.00000000000E+00 -0.14608437558E+04  0.14608437558E+04  0.00000000000E+00 0.  1.
    9000010    2    1    2  502    0 -0.51173943376E+03 -0.10044669099E+04  0.13329330581E+03  0.15245376732E+04  0.10176526865E+04 0.  0.
   -9000010    2    1    2    0  501  0.51173943376E+03  0.10044669099E+04 -0.13375734732E+02  0.15170674096E+04  0.10151273781E+04 0.  0.
        -13    1    3    3    0    0 -0.16764077405E+03 -0.11346346164E+04  0.54178260597E+02  0.11482310033E+04  0.10566000000E+00 0.  1.
          4    1    3    3  502    0 -0.34409865971E+03  0.13016770648E+03  0.79115045218E+02  0.37630666989E+03  0.00000000000E+00 0.  1.
         13    1    4    4    0    0  0.41602081811E+03 -0.45741935532E+02 -0.16846810948E+03  0.45116201175E+03  0.10566000000E+00 0. -1.
         -4    1    4    4    0  501  0.95718615647E+02  0.10502088454E+04  0.15509237474E+03  0.10659053978E+04  0.00000000000E+00 0. -1.
<mgrwt>
<rscale>  2 0.15178537E+04</rscale>
<asrwt>0</asrwt>
<pdfrwt beam="1">  1        2 0.24319405E+00 0.15178537E+04</pdfrwt>
<pdfrwt beam="2">  1       -2 0.22474519E+00 0.15178537E+04</pdfrwt>
<totfact> 0.10887903E+00</totfact>
</mgrwt>
</event>
<event>
 8    1  0.1373409E-005  0.1139778E+04  0.7818608E-02  0.8653345E-01
         -2   -1    0    0    0  501 -0.00000000000E+00  0.00000000000E+00  0.84549161243E+03  0.84549161243E+03  0.00000000000E+00 0.  1.
          2   -1    0    0  502    0  0.00000000000E+00 -0.00000000000E+00 -0.16789827571E+04  0.16789827571E+04  0.00000000000E+00 0. -1.
    9000010    2    1    2  502    0  0.33106580788E+03 -0.42864217102E+03 -0.45390980844E+02  0.11292017269E+04  0.98979670592E+03 0.  0.
   -9000010    2    1    2    0  501 -0.33106580788E+03  0.42864217102E+03 -0.78810016385E+03  0.13952726426E+04  0.10160438962E+04 0.  0.
        -13    1    3    3    0    0 -0.73612379556E+02 -0.56668848998E+03 -0.28552255023E+03  0.63880964688E+03  0.10566000000E+00 0.  1.
          4    1    3    3  502    0  0.40467818744E+03  0.13804631896E+03  0.24013156938E+03  0.49039208006E+03  0.00000000000E+00 0.  1.
         13    1    4    4    0    0  0.11629922840E+03  0.13244033730E+01 -0.76751115476E+03  0.77627356545E+03  0.10566000000E+00 0. -1.
         -4    1    4    4    0  501 -0.44736503629E+03  0.42731776764E+03 -0.20589009088E+02  0.61899907717E+03  0.00000000000E+00 0. -1.
<mgrwt>
<rscale>  2 0.11397778E+04</rscale>
<asrwt>0</asrwt>
<pdfrwt beam="2">  1        2 0.25830504E+00 0.11397778E+04</pdfrwt>
<pdfrwt beam="1">  1       -2 0.13007563E+00 0.11397778E+04</pdfrwt>
<totfact> 0.64006895E+00</totfact>
</mgrwt>
</event>
<event>
 8    1  0.1373409E-005  0.1235147E+04  0.7818608E-02  0.8580556E-01
         -1   -1    0    0    0  501 -0.00000000000E+00  0.00000000000E+00  0.16136947688E+04  0.16136947688E+04  0.00000000000E+00 0. -1.
          1   -1    0    0  502    0  0.00000000000E+00 -0.00000000000E+00 -0.11378430431E+04  0.11378430431E+04  0.00000000000E+00 0.  1.
    9000010    2    1    2  502    0  0.57161919289E+03  0.42968228572E+03  0.80284476594E+03  0.14687493697E+04  0.10006446044E+04 0.  0.
   -9000010    2    1    2    0  501 -0.57161919289E+03 -0.42968228572E+03 -0.32699304031E+03  0.12827884422E+04  0.10135316328E+04 0.  0.
        -13    1    3    3    0    0  0.34306807335E+03  0.29510285063E+02 -0.17610350979E+03  0.38675446629E+03  0.10566000000E+00 0.  1.
          4    1    3    3  502    0  0.22855111954E+03  0.40017200065E+03  0.97894827573E+03  0.10819949034E+04  0.00000000000E+00 0.  1.
         13    1    4    4    0    0  0.80595678288E+02 -0.48194056713E+03  0.10361934259E+03  0.49949910203E+03  0.10566000000E+00 0. -1.
         -4    1    4    4    0  501 -0.65221487118E+03  0.52258281410E+02 -0.43061238290E+03  0.78328934020E+03  0.00000000000E+00 0. -1.
<mgrwt>
<rscale>  2 0.12351470E+04</rscale>
<asrwt>0</asrwt>
<pdfrwt beam="2">  1        1 0.17505277E+00 0.12351470E+04</pdfrwt>
<pdfrwt beam="1">  1       -1 0.24826073E+00 0.12351470E+04</pdfrwt>
<totfact> 0.77992746E-01</totfact>
</mgrwt>
</event>
<event>
 8    1  0.1373409E-005  0.1146524E+04  0.7818608E-02  0.8647957E-01
          1   -1    0    0  502    0  0.00000000000E+00  0.00000000000E+00  0.46724154572E+03  0.46724154572E+03  0.00000000000E+00 0.  1.
         -1   -1    0    0    0  501 -0.00000000000E+00 -0.00000000000E+00 -0.28750411180E+04  0.28750411180E+04  0.00000000000E+00 0. -1.
    9000010    2    1    2  502    0 -0.12683619640E+03  0.51423058479E+03 -0.14572728341E+04  0.18596269971E+04  0.10266683692E+04 0.  0.
   -9000010    2    1    2    0  501  0.12683619640E+03 -0.51423058479E+03 -0.95052673818E+03  0.14826556666E+04  0.10070979250E+04 0.  0.
        -13    1    3    3    0    0  0.90675706317E+02 -0.12849554626E+03  0.82053317859E+02  0.17738643482E+03  0.10566000000E+00 0.  1.
          4    1    3    3  502    0 -0.21751190271E+03  0.64272613104E+03 -0.15393261520E+04  0.16822405623E+04  0.00000000000E+00 0.  1.
         13    1    4    4    0    0  0.52521810839E+03 -0.47104581178E+03 -0.76632725944E+03  0.10416312677E+04  0.10566000000E+00 0. -1.
         -4    1    4    4    0  501 -0.39838191200E+03 -0.43184773005E+02 -0.18419947874E+03  0.44102439886E+03  0.00000000000E+00 0. -1.
<mgrwt>
<rscale>  2 0.11465239E+04</rscale>
<asrwt>0</asrwt>
<pdfrwt beam="1">  1        1 0.71883314E-01 0.11465239E+04</pdfrwt>
<pdfrwt beam="2">  1       -1 0.44231402E+00 0.11465239E+04</pdfrwt>
<totfact> 0.76481803E-01</totfact>
</mgrwt>
</event>
<event>
 8    1  0.1373409E-005  0.1506672E+04  0.7818608E-02  0.8405670E-01
          2   -1    0    0  502    0  0.00000000000E+00  0.00000000000E+00  0.21235560086E+04  0.21235560086E+04  0.00000000000E+00 0.  1.
         -2   -1    0    0    0  501 -0.00000000000E+00 -0.00000000000E+00 -0.10760469169E+04  0.10760469169E+04  0.00000000000E+00 0. -1.
    9000010    2    1    2  502    0  0.76962288606E+03  0.85994485227E+03  0.64397605823E+03  0.16191117396E+04  0.93541067239E+03 0.  0.
   -9000010    2    1    2    0  501 -0.76962288606E+03 -0.85994485227E+03  0.40353303351E+03  0.15804911860E+04  0.10016431221E+04 0.  0.
        -13    1    3    3    0    0  0.47842763306E+03  0.59292455495E+03 -0.10816797183E+03  0.76951468422E+03  0.10566000000E+00 0.  1.
          4    1    3    3  502    0  0.29119525300E+03  0.26702029733E+03  0.75214403006E+03  0.84959705538E+03  0.00000000000E+00 0.  1.
         13    1    4    4    0    0  0.12714047324E+03 -0.54996651811E+03  0.25773664317E+03  0.62052885458E+03  0.10566000000E+00 0. -1.
         -4    1    4    4    0  501 -0.89676335930E+03 -0.30997833417E+03  0.14579639034E+03  0.95996233138E+03  0.00000000000E+00 0. -1.
<mgrwt>
<rscale>  2 0.15066716E+04</rscale>
<asrwt>0</asrwt>
<pdfrwt beam="1">  1        2 0.32670092E+00 0.15066716E+04</pdfrwt>
<pdfrwt beam="2">  1       -2 0.16554568E+00 0.15066716E+04</pdfrwt>
<totfact> 0.17030812E+00</totfact>
</mgrwt>
</event>
<event>
 8    1  0.1373409E-005  0.1050315E+04  0.7818608E-02  0.8728701E-01
         -2   -1    0    0    0  501 -0.00000000000E+00  0.00000000000E+00  0.10212287393E+04  0.10212287393E+04  0.00000000000E+00 0.  1.
          2   -1    0    0  502    0  0.00000000000E+00 -0.00000000000E+00 -0.10802886201E+04  0.10802886201E+04  0.00000000000E+00 0. -1.
    9000010    2    1    2  502    0 -0.24822424205E+03 -0.16394602102E+03 -0.23282657428E+02  0.10550747491E+04  0.10120015177E+04 0.  0.
   -9000010    2    1    2    0  501  0.24822424205E+03  0.16394602102E+03 -0.35777223377E+02  0.10464426102E+04  0.10026308167E+04 0.  0.
        -13    1    3    3    0    0 -0.32538701311E+03  0.20896876434E+03 -0.37355388570E+03  0.53766827083E+03  0.10566000000E+00 0.  1.
          4    1    3    3  502    0  0.77162771058E+02 -0.37291478536E+03  0.35027122827E+03  0.51740647825E+03  0.00000000000E+00 0.  1.
         13    1    4    4    0    0  0.61524434658E+03 -0.42379805678E+02 -0.85013205291E+02  0.62253426425E+03  0.10566000000E+00 0. -1.
         -4    1    4    4    0  501 -0.36702010453E+03  0.20632582670E+03  0.49235981915E+02  0.42390834600E+03  0.00000000000E+00 0. -1.
<mgrwt>
<rscale>  2 0.10503147E+04</rscale>
<asrwt>0</asrwt>
<pdfrwt beam="2">  1        2 0.16619825E+00 0.10503147E+04</pdfrwt>
<pdfrwt beam="1">  1       -2 0.15711211E+00 0.10503147E+04</pdfrwt>
<totfact> 0.79694171E+00</totfact>
</mgrwt>
</event>
<event>
 8    1  0.1373409E-005  0.1168636E+04  0.7818608E-02  0.8630562E-01
          2   -1    0    0  502    0  0.00000000000E+00  0.00000000000E+00  0.33362500455E+04  0.33362500455E+04  0.00000000000E+00 0.  1.
         -2   -1    0    0    0  501 -0.00000000000E+00 -0.00000000000E+00 -0.48955001768E+03  0.48955001768E+03  0.00000000000E+00 0. -1.
    9000010    2    1    2  502    0 -0.47188121941E+03  0.37501009679E+03  0.64935979302E+03  0.13371316017E+04  0.10014730758E+04 0.  0.
   -9000010    2    1    2    0  501  0.47188121941E+03 -0.37501009679E+03  0.21973402348E+04  0.24886684614E+04  0.10009306398E+04 0.  0.
        -13    1    3    3    0    0 -0.48157139840E+03  0.69061803337E+03  0.55178098059E+03  0.10066412178E+04  0.10566000000E+00 0.  1.
          4    1    3    3  502    0  0.96901789868E+01 -0.31560793658E+03  0.97578812439E+02  0.33049038388E+03  0.00000000000E+00 0.  1.
         13    1    4    4    0    0  0.43737452019E+03  0.27457470411E+03  0.10350433557E+04  0.11567205792E+04  0.10566000000E+00 0. -1.
         -4    1    4    4    0  501  0.34506699225E+02 -0.64958480090E+03  0.11622968791E+04  0.13319478822E+04  0.00000000000E+00 0. -1.
<mgrwt>
<rscale>  2 0.11686358E+04</rscale>
<asrwt>0</asrwt>
<pdfrwt beam="1">  1        2 0.51326922E+00 0.11686358E+04</pdfrwt>
<pdfrwt beam="2">  1       -2 0.75315389E-01 0.11686358E+04</pdfrwt>
<totfact> 0.26159724E+00</totfact>
</mgrwt>
</event>
<event>
 8    1  0.1373409E-005  0.1306996E+04  0.7818608E-02  0.8530072E-01
         -2   -1    0    0    0  501 -0.00000000000E+00  0.00000000000E+00  0.10379693362E+04  0.10379693362E+04  0.00000000000E+00 0.  1.
          2   -1    0    0  502    0  0.00000000000E+00 -0.00000000000E+00 -0.19226947804E+04  0.19226947804E+04  0.00000000000E+00 0. -1.
    9000010    2    1    2  502    0  0.57558849180E+03 -0.62542823435E+03  0.11916814793E+03  0.13134220623E+04  0.99419006129E+03 0.  0.
   -9000010    2    1    2    0  501 -0.57558849180E+03  0.62542823435E+03 -0.10038935921E+04  0.16472420543E+04  0.99153489755E+03 0.  0.
        -13    1    3    3    0    0 -0.12476104273E+02 -0.70001255114E+03  0.16359850411E+03  0.71898380137E+03  0.10566000000E+00 0.  1.
          4    1    3    3  502    0  0.58806459608E+03  0.74584316789E+02 -0.44430356181E+02  0.59443826090E+03  0.00000000000E+00 0.  1.
         13    1    4    4    0    0 -0.75715930347E+03  0.18685422754E+03 -0.39208948200E+03  0.87289110790E+03  0.10566000000E+00 0. -1.
         -4    1    4    4    0  501  0.18157081167E+03  0.43857400681E+03 -0.61180411012E+03  0.77435094644E+03  0.00000000000E+00 0. -1.
<mgrwt>
<rscale>  2 0.13069959E+04</rscale>
<asrwt>0</asrwt>
<pdfrwt beam="2">  1        2 0.29579920E+00 0.13069959E+04</pdfrwt>
<pdfrwt beam="1">  1       -2 0.15968759E+00 0.13069959E+04</pdfrwt>
<totfact> 0.25151024E+00</totfact>
</mgrwt>
</event>
<event>
 8    1  0.1373409E-005  0.1407504E+04  0.7818608E-02  0.8464803E-01
          1   -1    0    0  502    0  0.00000000000E+00  0.00000000000E+00  0.13420327139E+04  0.13420327139E+04  0.00000000000E+00 0.  1.
         -1   -1    0    0    0  501 -0.00000000000E+00 -0.00000000000E+00 -0.16397974346E+04  0.16397974346E+04  0.00000000000E+00 0. -1.
    9000010    2    1    2  502    0  0.31074152458E+03  0.93591510566E+03  0.32214641873E+03  0.14432119306E+04  0.10032870882E+04 0.  0.
   -9000010    2    1    2    0  501 -0.31074152458E+03 -0.93591510566E+03 -0.61991113937E+03  0.15386182179E+04  0.10052655469E+04 0.  0.
        -13    1    3    3    0    0  0.26509882131E+03  0.25943629062E+03 -0.33440255408E+03  0.49940930437E+03  0.10566000000E+00 0.  1.
          4    1    3    3  502    0  0.45642703279E+02  0.67647881504E+03  0.65654897281E+03  0.94380262622E+03  0.00000000000E+00 0.  1.
         13    1    4    4    0    0 -0.54008840122E+03 -0.11203383328E+03 -0.27687995779E+03  0.61717872867E+03  0.10566000000E+00 0. -1.
         -4    1    4    4    0  501  0.22934687664E+03 -0.82388127238E+03 -0.34303118158E+03  0.92143948925E+03  0.00000000000E+00 0. -1.
<mgrwt>
<rscale>  2 0.14075043E+04</rscale>
<asrwt>0</asrwt>
<pdfrwt beam="1">  1        1 0.20646657E+00 0.14075043E+04</pdfrwt>
<pdfrwt beam="2">  1       -1 0.25227653E+00 0.14075043E+04</pdfrwt>
<totfact> 0.48654798E-01</totfact>
</mgrwt>
</event>
<event>
 8    1  0.1373409E-005  0.1251988E+04  0.7818608E-02  0.8568410E-01
         -1   -1    0    0    0  501 -0.00000000000E+00  0.00000000000E+00  0.33579444309E+04  0.33579444309E+04  0.00000000000E+00 0.  1.
          1   -1    0    0  502    0  0.00000000000E+00 -0.00000000000E+00 -0.18611889333E+04  0.18611889333E+04  0.00000000000E+00 0. -1.
    9000010    2    1    2  502    0  0.59109315525E+03  0.47644948467E+03 -0.15108505188E+04  0.19600753128E+04  0.99137818811E+03 0.  0.
   -9000010    2    1    2    0  501 -0.59109315525E+03 -0.47644948467E+03  0.30076060164E+04  0.32590580514E+04  0.99968505196E+03 0.  0.
        -13    1    3    3    0    0  0.51127729640E+03 -0.89110347514E+02 -0.12053726052E+04  0.13123521845E+04  0.10566000000E+00 0.  1.
          4    1    3    3  502    0  0.79815858852E+02  0.56555983218E+03 -0.30547791368E+03  0.64772312823E+03  0.00000000000E+00 0.  1.
         13    1    4    4    0    0 -0.97146174948E+01  0.29096271478E+03  0.76513975242E+03  0.81865287337E+03  0.10566000000E+00 0. -1.
         -4    1    4    4    0  501 -0.58137853776E+03 -0.76741219944E+03  0.22424662640E+04  0.24404051781E+04  0.00000000000E+00 0. -1.
<mgrwt>
<rscale>  2 0.12519880E+04</rscale>
<asrwt>0</asrwt>
<pdfrwt beam="2">  1        1 0.28633676E+00 0.12519880E+04</pdfrwt>
<pdfrwt beam="1">  1       -1 0.51660684E+00 0.12519880E+04</pdfrwt>
<totfact> 0.37165301E-02</totfact>
</mgrwt>
</event>
<event>
 8    1  0.1373409E-005  0.1177825E+04  0.7818608E-02  0.8623451E-01
          1   -1    0    0  502    0  0.00000000000E+00  0.00000000000E+00  0.18924978996E+04  0.18924978996E+04  0.00000000000E+00 0. -1.
         -1   -1    0    0    0  501 -0.00000000000E+00 -0.00000000000E+00 -0.76095146223E+03  0.76095146223E+03  0.00000000000E+00 0.  1.
    9000010    2    1    2  502    0  0.58346780336E+03 -0.32375632946E+03  0.30444112006E+03  0.12000026188E+04  0.94977315772E+03 0.  0.
   -9000010    2    1    2    0  501 -0.58346780336E+03  0.32375632946E+03  0.82710531731E+03  0.14534467430E+04  0.99153990865E+03 0.  0.
        -13    1    3    3    0    0  0.19366277191E+03  0.33915006294E+03  0.77145532379E+02  0.39809481125E+03  0.10566000000E+00 0.  1.
          4    1    3    3  502    0  0.38980503146E+03 -0.66290639240E+03  0.22729558768E+03  0.80190780755E+03  0.00000000000E+00 0.  1.
         13    1    4    4    0    0 -0.58730884839E+03  0.28517596718E+02  0.96306904768E+03  0.11283824434E+04  0.10566000000E+00 0. -1.
         -4    1    4    4    0  501  0.38410450305E+01  0.29523873274E+03 -0.13596373037E+03  0.32506429966E+03  0.00000000000E+00 0. -1.
<mgrwt>
<rscale>  2 0.11778246E+04</rscale>
<asrwt>0</asrwt>
<pdfrwt beam="1">  1        1 0.29115352E+00 0.11778246E+04</pdfrwt>
<pdfrwt beam="2">  1       -1 0.11706946E+00 0.11778246E+04</pdfrwt>
<totfact> 0.31925149E+00</totfact>
</mgrwt>
</event>
<event>
 8    1  0.1373409E-005  0.1171065E+04  0.7818608E-02  0.8628676E-01
          1   -1    0    0  502    0  0.00000000000E+00  0.00000000000E+00  0.12716819218E+04  0.12716819218E+04  0.00000000000E+00 0.  1.
         -1   -1    0    0    0  501 -0.00000000000E+00 -0.00000000000E+00 -0.12765060943E+04  0.12765060943E+04  0.00000000000E+00 0. -1.
    9000010    2    1    2  502    0 -0.47414228460E+03 -0.32382954480E+03  0.49944955114E+03  0.12787096632E+04  0.10276050159E+04 0.  0.
   -9000010    2    1    2    0  501  0.47414228460E+03  0.32382954480E+03 -0.50427372363E+03  0.12694783529E+04  0.10137094357E+04 0.  0.
        -13    1    3    3    0    0  0.23124324827E+03 -0.40445188301E+03  0.22700315055E+03  0.51825206904E+03  0.10566000000E+00 0.  1.
          4    1    3    3  502    0 -0.70538553287E+03  0.80622338211E+02  0.27244640059E+03  0.76045759421E+03  0.00000000000E+00 0.  1.
         13    1    4    4    0    0 -0.30468044574E+03  0.22229500983E+03 -0.20256035879E+03  0.42810741120E+03  0.10566000000E+00 0. -1.
         -4    1    4    4    0  501  0.77882273033E+03  0.10153453496E+03 -0.30171336484E+03  0.84137094174E+03  0.00000000000E+00 0. -1.
<mgrwt>
<rscale>  2 0.11710647E+04</rscale>
<asrwt>0</asrwt>
<pdfrwt beam="1">  1        1 0.19564337E+00 0.11710647E+04</pdfrwt>
<pdfrwt beam="2">  1       -1 0.19638555E+00 0.11710647E+04</pdfrwt>
<totfact> 0.18861064E+00</totfact>
</mgrwt>
</event>
<event>
 8    1  0.1373409E-005  0.1030497E+04  0.7818608E-02  0.8746453E-01
          2   -1    0    0  502    0  0.00000000000E+00  0.00000000000E+00  0.28249613870E+04  0.28249613870E+04  0.00000000000E+00 0.  1.
         -2   -1    0    0    0  501 -0.00000000000E+00 -0.00000000000E+00 -0.40342808432E+03  0.40342808432E+03  0.00000000000E+00 0. -1.
    9000010    2    1    2  502    0  0.31107104794E+03  0.60930311995E+02  0.16107089098E+04  0.19021513210E+04  0.96089476838E+03 0.  0.
   -9000010    2    1    2    0  501 -0.31107104794E+03 -0.60930311995E+02  0.81082439287E+03  0.13262381504E+04  0.10004967444E+04 0.  0.
        -13    1    3    3    0    0  0.64050477115E+03  0.15646166330E+03  0.93137060428E+03  0.11411300660E+04  0.10566000000E+00 0.  1.
          4    1    3    3  502    0 -0.32943372321E+03 -0.95531351308E+02  0.67933830555E+03  0.76102125493E+03  0.00000000000E+00 0.  1.
         13    1    4    4    0    0  0.15319065353E+03 -0.41763584998E+03  0.22698415370E+03  0.49940854689E+03  0.10566000000E+00 0. -1.
         -4    1    4    4    0  501 -0.46426170148E+03  0.35670553798E+03  0.58384023917E+03  0.82682960346E+03  0.00000000000E+00 0. -1.
<mgrwt>
<rscale>  2 0.10304970E+04</rscale>
<asrwt>0</asrwt>
<pdfrwt beam="1">  1        2 0.43460943E+00 0.10304970E+04</pdfrwt>
<pdfrwt beam="2">  1       -2 0.62065861E-01 0.10304970E+04</pdfrwt>
<totfact> 0.83885207E+00</totfact>
</mgrwt>
</event>
<event>
 8    1  0.1373409E-005  0.1674445E+04  0.7818608E-02  0.8315620E-01
         -2   -1    0    0    0  501 -0.00000000000E+00  0.00000000000E+00  0.78401059715E+03  0.78401059715E+03  0.00000000000E+00 0. -1.
          2   -1    0    0  502    0  0.00000000000E+00 -0.00000000000E+00 -0.35762549521E+04  0.35762549521E+04  0.00000000000E+00 0.  1.
    9000010    2    1    2  502    0 -0.99063020797E+03  0.90596996258E+03 -0.13878816570E+04  0.21761008386E+04  0.10035285666E+04 0.  0.
   -9000010    2    1    2    0  501  0.99063020797E+03 -0.90596996258E+03 -0.14043626980E+04  0.21841647107E+04  0.99810375903E+03 0.  0.
        -13    1    3    3    0    0 -0.10801147242E+04  0.53296442137E+03 -0.13193385931E+04  0.17864359004E+04  0.10566000000E+00 0.  1.
          4    1    3    3  502    0  0.89484516258E+02  0.37300554121E+03 -0.68543063874E+02  0.38966493816E+03  0.00000000000E+00 0.  1.
         13    1    4    4    0    0 -0.14587568558E+03 -0.17105514380E+02  0.29749822293E+02  0.14985785717E+03  0.10566000000E+00 0. -1.
         -4    1    4    4    0  501  0.11365058936E+04 -0.88886444820E+03 -0.14341125203E+04  0.20343068535E+04  0.00000000000E+00 0. -1.
<mgrwt>
<rscale>  2 0.16744446E+04</rscale>
<asrwt>0</asrwt>
<pdfrwt beam="2">  1        2 0.55019308E+00 0.16744446E+04</pdfrwt>
<pdfrwt beam="1">  1       -2 0.12061701E+00 0.16744446E+04</pdfrwt>
<totfact> 0.53847885E-01</totfact>
</mgrwt>
</event>
<event>
 8    1  0.1373409E-005  0.1604008E+04  0.7818608E-02  0.8352035E-01
         -2   -1    0    0    0  501 -0.00000000000E+00  0.00000000000E+00  0.35485907693E+04  0.35485907693E+04  0.00000000000E+00 0.  1.
          2   -1    0    0  502    0  0.00000000000E+00 -0.00000000000E+00 -0.91892088994E+03  0.91892088994E+03  0.00000000000E+00 0. -1.
    9000010    2    1    2  502    0  0.10785738228E+04 -0.56983708083E+03  0.23229866701E+04  0.28080044409E+04  0.10002929975E+04 0.  0.
   -9000010    2    1    2    0  501 -0.10785738228E+04  0.56983708083E+03  0.30668320930E+03  0.16595072183E+04  0.10825312129E+04 0.  0.
        -13    1    3    3    0    0  0.58369177809E+03 -0.81490512454E+02  0.28492235879E+03  0.65461252442E+03  0.10566000000E+00 0.  1.
          4    1    3    3  502    0  0.49488204473E+03 -0.48834656837E+03  0.20380643113E+04  0.21533919165E+04  0.00000000000E+00 0.  1.
         13    1    4    4    0    0 -0.10538130272E+04  0.28885183508E+03 -0.16979268719E+03  0.11057969283E+04  0.10566000000E+00 0. -1.
         -4    1    4    4    0  501 -0.24760795615E+02  0.28098524575E+03  0.47647589649E+03  0.55371029001E+03  0.00000000000E+00 0. -1.
<mgrwt>
<rscale>  2 0.16040077E+04</rscale>
<asrwt>0</asrwt>
<pdfrwt beam="2">  1        2 0.14137245E+00 0.16040077E+04</pdfrwt>
<pdfrwt beam="1">  1       -2 0.54593703E+00 0.16040077E+04</pdfrwt>
<totfact> 0.14378543E-01</totfact>
</mgrwt>
</event>
<event>
 8    1  0.1373409E-005  0.1102058E+04  0.7818608E-02  0.8684206E-01
         -1   -1    0    0    0  501 -0.00000000000E+00  0.00000000000E+00  0.13088508080E+04  0.13088508080E+04  0.00000000000E+00 0.  1.
          1   -1    0    0  502    0  0.00000000000E+00 -0.00000000000E+00 -0.15007473558E+04  0.15007473558E+04  0.00000000000E+00 0. -1.
    9000010    2    1    2  502    0 -0.19629493502E+03  0.37480856517E+03 -0.96387109008E+03  0.14645252223E+04  0.10182207454E+04 0.  0.
   -9000010    2    1    2    0  501  0.19629493502E+03 -0.37480856517E+03  0.77197454222E+03  0.13450729415E+04  0.10169873953E+04 0.  0.
        -13    1    3    3    0    0  0.30768747997E+02  0.22388446468E+03 -0.11252363650E+04  0.11477054751E+04  0.10566000000E+00 0.  1.
          4    1    3    3  502    0 -0.22706368302E+03  0.15092410049E+03  0.16136527490E+03  0.31681974717E+03  0.00000000000E+00 0.  1.
         13    1    4    4    0    0 -0.36357452085E+03 -0.21278244095E+03  0.60785977104E+03  0.73956494766E+03  0.10566000000E+00 0. -1.
         -4    1    4    4    0  501  0.55986945586E+03 -0.16202612422E+03  0.16411477118E+03  0.60550799389E+03  0.00000000000E+00 0. -1.
<mgrwt>
<rscale>  2 0.11020576E+04</rscale>
<asrwt>0</asrwt>
<pdfrwt beam="2">  1        1 0.23088421E+00 0.11020576E+04</pdfrwt>
<pdfrwt beam="1">  1       -1 0.20136166E+00 0.11020576E+04</pdfrwt>
<totfact> 0.11583847E+00</totfact>
</mgrwt>
</event>
<event>
 8    1  0.1373409E-005  0.1799362E+04  0.7818608E-02  0.8255367E-01
          2   -1    0    0  502    0  0.00000000000E+00  0.00000000000E+00  0.10893617899E+04  0.10893617899E+04  0.00000000000E+00 0.  1.
         -2   -1    0    0    0  501 -0.00000000000E+00 -0.00000000000E+00 -0.30344393608E+04  0.30344393608E+04  0.00000000000E+00 0. -1.
    9000010    2    1    2  502    0  0.60073560461E+03  0.13853781599E+04 -0.69984702865E+03  0.19657920665E+04  0.10461341561E+04 0.  0.
   -9000010    2    1    2    0  501 -0.60073560461E+03 -0.13853781599E+04 -0.12452305423E+04  0.21580090842E+04  0.90898195342E+03 0.  0.
        -13    1    3    3    0    0  0.41080485782E+03  0.93613259911E+03 -0.96912202892E+03  0.14086526869E+04  0.10566000000E+00 0.  1.
          4    1    3    3  502    0  0.18993074678E+03  0.44924556079E+03  0.26927500027E+03  0.55713937953E+03  0.00000000000E+00 0.  1.
         13    1    4    4    0    0 -0.23843285140E+03 -0.90928129167E+03 -0.12446407582E+04  0.15597350160E+04  0.10566000000E+00 0. -1.
         -4    1    4    4    0  501 -0.36230275320E+03 -0.47609686823E+03 -0.58978412543E+00  0.59827406826E+03  0.00000000000E+00 0. -1.
<mgrwt>
<rscale>  2 0.17993620E+04</rscale>
<asrwt>0</asrwt>
<pdfrwt beam="1">  1        2 0.16759413E+00 0.17993620E+04</pdfrwt>
<pdfrwt beam="2">  1       -2 0.46683681E+00 0.17993620E+04</pdfrwt>
<totfact> 0.94124259E-02</totfact>
</mgrwt>
</event>
<event>
 8    1  0.1373409E-005  0.1467924E+04  0.7818608E-02  0.8428202E-01
         -2   -1    0    0    0  501 -0.00000000000E+00  0.00000000000E+00  0.96558352521E+03  0.96558352521E+03  0.00000000000E+00 0.  1.
          2   -1    0    0  502    0  0.00000000000E+00 -0.00000000000E+00 -0.22336148165E+04  0.22336148165E+04  0.00000000000E+00 0. -1.
    9000010    2    1    2  502    0  0.37922801651E+03 -0.99014577439E+03 -0.58252191300E+03  0.15669704258E+04  0.99592268435E+03 0.  0.
   -9000010    2    1    2    0  501 -0.37922801651E+03  0.99014577439E+03 -0.68550937828E+03  0.16322279159E+04  0.10344284986E+04 0.  0.
        -13    1    3    3    0    0 -0.25209579690E+03 -0.63436977585E+03 -0.84877036425E+02  0.68788184000E+03  0.10566000000E+00 0.  1.
          4    1    3    3  502    0  0.63132381342E+03 -0.35577599854E+03 -0.49764487658E+03  0.87908858581E+03  0.00000000000E+00 0.  1.
         13    1    4    4    0    0  0.92199529483E+02 -0.18911927766E+03 -0.77873458997E+02  0.22434603005E+03  0.10566000000E+00 0. -1.
         -4    1    4    4    0  501 -0.47142754599E+03  0.11792650520E+04 -0.60763591929E+03  0.14078818858E+04  0.00000000000E+00 0. -1.
<mgrwt>
<rscale>  2 0.14679238E+04</rscale>
<asrwt>0</asrwt>
<pdfrwt beam="2">  1        2 0.34363305E+00 0.14679238E+04</pdfrwt>
<pdfrwt beam="1">  1       -2 0.14855131E+00 0.14679238E+04</pdfrwt>
<totfact> 0.20939263E+00</totfact>
</mgrwt>
</event>
<event>
 8    1  0.1373409E-005  0.1191188E+04  0.7818608E-02  0.8613228E-01
         -2   -1    0    0    0  501 -0.00000000000E+00  0.00000000000E+00  0.62677866310E+03  0.62677866310E+03  0.00000000000E+00 0.  1.
          2   -1    0    0  502    0  0.00000000000E+00 -0.00000000000E+00 -0.22684856913E+04  0.22684856913E+04  0.00000000000E+00 0. -1.
    9000010    2    1    2  502    0  0.19461994938E+03 -0.59801069041E+03 -0.81093409333E+03  0.14008181162E+04  0.95351118520E+03 0.  0.
   -9000010    2    1    2    0  501 -0.19461994938E+03  0.59801069041E+03 -0.83077293488E+03  0.14944462382E+04  0.10713039621E+04 0.  0.
        -13    1    3    3    0    0 -0.11813882144E+03  0.15171439208E+03  0.68018795235E+02  0.20396226505E+03  0.10566000000E+00 0.  1.
          4    1    3    3  502    0  0.31275877082E+03 -0.74972508249E+03 -0.87895288856E+03  0.11968558511E+04  0.00000000000E+00 0.  1.
         13    1    4    4    0    0  0.92290287257E+02  0.83399218646E+03 -0.72309036173E+03  0.11076642752E+04  0.10566000000E+00 0. -1.
         -4    1    4    4    0  501 -0.28691023664E+03 -0.23598149605E+03 -0.10768257315E+03  0.38678196303E+03  0.00000000000E+00 0. -1.
<mgrwt>
<rscale>  2 0.11911881E+04</rscale>
<asrwt>0</asrwt>
<pdfrwt beam="2">  1        2 0.34899781E+00 0.11911881E+04</pdfrwt>
<pdfrwt beam="1">  1       -2 0.96427484E-01 0.11911881E+04</pdfrwt>
<totfact> 0.65129997E+00</totfact>
</mgrwt>
</event>
<event>
 8    1  0.1373409E-005  0.1083417E+04  0.7818608E-02  0.8699936E-01
          2   -1    0    0  502    0  0.00000000000E+00  0.00000000000E+00  0.70127898310E+03  0.70127898310E+03  0.00000000000E+00 0.  1.
         -2   -1    0    0    0  501 -0.00000000000E+00 -0.00000000000E+00 -0.18196602765E+04  0.18196602765E+04  0.00000000000E+00 0. -1.
    9000010    2    1    2  502    0 -0.49689978918E+03 -0.11646546452E+03 -0.18742133680E+03  0.10639804794E+04  0.91457864508E+03 0.  0.
   -9000010    2    1    2    0  501  0.49689978918E+03  0.11646546452E+03 -0.93095995656E+03  0.14569587802E+04  0.99778196094E+03 0.  0.
        -13    1    3    3    0    0  0.30891853123E+02 -0.41183773633E+03  0.46277506676E+02  0.41557941051E+03  0.10566000000E+00 0.  1.
          4    1    3    3  502    0 -0.52779164230E+03  0.29537227181E+03 -0.23369884347E+03  0.64840106884E+03  0.00000000000E+00 0.  1.
         13    1    4    4    0    0 -0.26645664938E+03  0.21033930883E+03 -0.19015537372E+03  0.38910261906E+03  0.10566000000E+00 0. -1.
         -4    1    4    4    0  501  0.76335643856E+03 -0.93873844314E+02 -0.74080458285E+03  0.10678561612E+04  0.00000000000E+00 0. -1.
<mgrwt>
<rscale>  2 0.10834168E+04</rscale>
<asrwt>0</asrwt>
<pdfrwt beam="1">  1        2 0.10788907E+00 0.10834168E+04</pdfrwt>
<pdfrwt beam="2">  1       -2 0.27994773E+00 0.10834168E+04</pdfrwt>
<totfact> 0.14398781E+00</totfact>
</mgrwt>
</event>
<event>
 8    1  0.1373409E-005  0.2082925E+04  0.7818608E-02  0.8135439E-01
          1   -1    0    0  502    0  0.00000000000E+00  0.00000000000E+00  0.28947083439E+04  0.28947083439E+04  0.00000000000E+00 0.  1.
         -1   -1    0    0    0  501 -0.00000000000E+00 -0.00000000000E+00 -0.15422311107E+04  0.15422311107E+04  0.00000000000E+00 0. -1.
    9000010    2    1    2  502    0  0.12126623169E+04  0.14196758635E+04  0.10584112614E+04  0.23710160988E+04  0.10076971224E+04 0.  0.
   -9000010    2    1    2    0  501 -0.12126623169E+04 -0.14196758635E+04  0.29406597184E+03  0.20659233558E+04  0.83398744836E+03 0.  0.
        -13    1    3    3    0    0 -0.17146372255E+03  0.60668406519E+02  0.93612587496E+02  0.20455755034E+03  0.10566000000E+00 0.  1.
          4    1    3    3  502    0  0.13841260394E+04  0.13590074570E+04  0.96479867387E+03  0.21664585485E+04  0.00000000000E+00 0.  1.
         13    1    4    4    0    0 -0.43003913736E+03 -0.11591959329E+03  0.31438627952E+03  0.54516947427E+03  0.10566000000E+00 0. -1.
         -4    1    4    4    0  501 -0.78262317952E+03 -0.13037562702E+04 -0.20320307682E+02  0.15207538815E+04  0.00000000000E+00 0. -1.
<mgrwt>
<rscale>  2 0.20829249E+04</rscale>
<asrwt>0</asrwt>
<pdfrwt beam="1">  1        1 0.44533974E+00 0.20829249E+04</pdfrwt>
<pdfrwt beam="2">  1       -1 0.23726632E+00 0.20829249E+04</pdfrwt>
<totfact> 0.31833838E-02</totfact>
</mgrwt>
</event>
<event>
 8    1  0.1373409E-005  0.1124808E+04  0.7818608E-02  0.8665442E-01
         -2   -1    0    0    0  501 -0.00000000000E+00  0.00000000000E+00  0.14745367651E+04  0.14745367651E+04  0.00000000000E+00 0. -1.
          2   -1    0    0  502    0  0.00000000000E+00 -0.00000000000E+00 -0.89610301526E+03  0.89610301526E+03  0.00000000000E+00 0.  1.
    9000010    2    1    2  502    0  0.47468460039E+03  0.23988285199E+03  0.53516591751E+03  0.12520045946E+04  0.99912146068E+03 0.  0.
   -9000010    2    1    2    0  501 -0.47468460039E+03 -0.23988285199E+03  0.43267832284E+02  0.11186351857E+04  0.98315986534E+03 0.  0.
        -13    1    3    3    0    0  0.32119650714E+03  0.57685896762E+03  0.79751630844E+02  0.66505172619E+03  0.10566000000E+00 0.  1.
          4    1    3    3  502    0  0.15348809325E+03 -0.33697611563E+03  0.45541428667E+03  0.58695286845E+03  0.00000000000E+00 0.  1.
         13    1    4    4    0    0 -0.50747285061E+03  0.73399929496E+02  0.39442181017E+03  0.64690402632E+03  0.10566000000E+00 0. -1.
         -4    1    4    4    0  501  0.32788250223E+02 -0.31328278149E+03 -0.35115397789E+03  0.47173115937E+03  0.00000000000E+00 0. -1.
<mgrwt>
<rscale>  2 0.11248084E+04</rscale>
<asrwt>0</asrwt>
<pdfrwt beam="2">  1        2 0.13786200E+00 0.11248084E+04</pdfrwt>
<pdfrwt beam="1">  1       -2 0.22685181E+00 0.11248084E+04</pdfrwt>
<totfact> 0.27042343E+00</totfact>
</mgrwt>
</event>
<event>
 8    1  0.1373409E-005  0.1515356E+04  0.7818608E-02  0.8400716E-01
          2   -1    0    0  502    0  0.00000000000E+00  0.00000000000E+00  0.16861481991E+04  0.16861481991E+04  0.00000000000E+00 0.  1.
         -2   -1    0    0    0  501 -0.00000000000E+00 -0.00000000000E+00 -0.13621449839E+04  0.13621449839E+04  0.00000000000E+00 0. -1.
    9000010    2    1    2  502    0 -0.27922104634E+03  0.11075020643E+04  0.14000979870E+03  0.15204428289E+04  0.99378993618E+03 0.  0.
   -9000010    2    1    2    0  501  0.27922104634E+03 -0.11075020643E+04  0.18399341655E+03  0.15278503541E+04  0.99797189946E+03 0.  0.
        -13    1    3    3    0    0  0.41953715862E+00  0.53523367862E+03 -0.41369604006E+03  0.67647593562E+03  0.10566000000E+00 0.  1.
          4    1    3    3  502    0 -0.27964058350E+03  0.57226838564E+03  0.55370583875E+03  0.84396689332E+03  0.00000000000E+00 0.  1.
         13    1    4    4    0    0  0.37871224436E+03 -0.26682565701E+02 -0.12437753973E+03  0.39950557805E+03  0.10566000000E+00 0. -1.
         -4    1    4    4    0  501 -0.99491198013E+02 -0.10808194986E+04  0.30837095628E+03  0.11283447760E+04  0.00000000000E+00 0. -1.
<mgrwt>
<rscale>  2 0.15153563E+04</rscale>
<asrwt>0</asrwt>
<pdfrwt beam="1">  1        2 0.25940742E+00 0.15153563E+04</pdfrwt>
<pdfrwt beam="2">  1       -2 0.20956077E+00 0.15153563E+04</pdfrwt>
<totfact> 0.12691721E+00</totfact>
</mgrwt>
</event>
<event>
 8    1  0.1373409E-005  0.1257550E+04  0.7818608E-02  0.8564441E-01
         -2   -1    0    0    0  501 -0.00000000000E+00  0.00000000000E+00  0.42127803324E+04  0.42127803324E+04  0.00000000000E+00 0.  1.
          2   -1    0    0  502    0  0.00000000000E+00 -0.00000000000E+00 -0.78710176651E+03  0.78710176651E+03  0.00000000000E+00 0. -1.
    9000010    2    1    2  502    0  0.60119953806E+02  0.76562855774E+03 -0.89381540766E+02  0.12696142679E+04  0.10070401343E+04 0.  0.
   -9000010    2    1    2    0  501 -0.60119953806E+02 -0.76562855774E+03  0.35150601067E+04  0.37302678311E+04  0.98460603323E+03 0.  0.
        -13    1    3    3    0    0 -0.27257445073E+03  0.15049726213E+03  0.33037435425E+03  0.45397520000E+03  0.10566000000E+00 0.  1.
          4    1    3    3  502    0  0.33269440454E+03  0.61513129561E+03 -0.41975589502E+03  0.81563906788E+03  0.00000000000E+00 0.  1.
         13    1    4    4    0    0  0.42049454813E+03 -0.44481523889E+03  0.12383676522E+04  0.13813872429E+04  0.10566000000E+00 0. -1.
         -4    1    4    4    0  501 -0.48061450194E+03 -0.32081331884E+03  0.22766924545E+04  0.23488805882E+04  0.00000000000E+00 0. -1.
<mgrwt>
<rscale>  2 0.12575505E+04</rscale>
<asrwt>0</asrwt>
<pdfrwt beam="2">  1        2 0.12109258E+00 0.12575505E+04</pdfrwt>
<pdfrwt beam="1">  1       -2 0.64812004E+00 0.12575505E+04</pdfrwt>
<totfact> 0.17857560E-01</totfact>
</mgrwt>
</event>
<event>
 8    1  0.1373409E-005  0.1245946E+04  0.7818608E-02  0.8572745E-01
         -1   -1    0    0    0  501 -0.00000000000E+00  0.00000000000E+00  0.78528235328E+03  0.78528235328E+03  0.00000000000E+00 0.  1.
          1   -1    0    0  502    0  0.00000000000E+00 -0.00000000000E+00 -0.23867235295E+04  0.23867235295E+04  0.00000000000E+00 0. -1.
    9000010    2    1    2  502    0  0.74070485304E+03  0.13163994999E+03 -0.14322815961E+03  0.12537002412E+04  0.99261132036E+03 0.  0.
   -9000010    2    1    2    0  501 -0.74070485304E+03 -0.13163994999E+03 -0.14582130166E+04  0.19183056416E+04  0.99374975574E+03 0.  0.
        -13    1    3    3    0    0  0.45828121428E+03  0.33274957963E+02 -0.57027142561E+03  0.73235128471E+03  0.10566000000E+00 0.  1.
          4    1    3    3  502    0  0.28242363876E+03  0.98364992027E+02  0.42704326600E+03  0.52134895648E+03  0.00000000000E+00 0.  1.
         13    1    4    4    0    0 -0.61083977103E+03  0.33597899231E+03 -0.11455126704E+04  0.13409721840E+04  0.10566000000E+00 0. -1.
         -4    1    4    4    0  501 -0.12986508200E+03 -0.46761894230E+03 -0.31270034627E+03  0.57733345761E+03  0.00000000000E+00 0. -1.
<mgrwt>
<rscale>  2 0.12459455E+04</rscale>
<asrwt>0</asrwt>
<pdfrwt beam="2">  1        1 0.36718823E+00 0.12459455E+04</pdfrwt>
<pdfrwt beam="1">  1       -1 0.12081267E+00 0.12459455E+04</pdfrwt>
<totfact> 0.11818659E+00</totfact>
</mgrwt>
</event>
<event>
 8    1  0.1373409E-005  0.1347980E+04  0.7818608E-02  0.8502752E-01
         -2   -1    0    0    0  501 -0.00000000000E+00  0.00000000000E+00  0.10654529203E+04  0.10654529203E+04  0.00000000000E+00 0.  1.
          2   -1    0    0  502    0  0.00000000000E+00 -0.00000000000E+00 -0.20771826723E+04  0.20771826723E+04  0.00000000000E+00 0. -1.
    9000010    2    1    2  502    0 -0.42499034841E+03  0.79634193866E+03 -0.11728107118E+04  0.17922988601E+04  0.10109762404E+04 0.  0.
   -9000010    2    1    2    0  501  0.42499034841E+03 -0.79634193866E+03  0.16108095970E+03  0.13503367325E+04  0.99130466364E+03 0.  0.
        -13    1    3    3    0    0 -0.48662909433E+03  0.24567255766E+03 -0.59052150738E+02  0.54831564697E+03  0.10566000000E+00 0.  1.
          4    1    3    3  502    0  0.61638745928E+02  0.55066938100E+03 -0.11137585610E+04  0.12439832131E+04  0.00000000000E+00 0.  1.
         13    1    4    4    0    0  0.14731989951E+03 -0.83428906917E+03 -0.22189404538E+03  0.87577301983E+03  0.10566000000E+00 0. -1.
         -4    1    4    4    0  501  0.27767044889E+03  0.37947130507E+02  0.38297500508E+03  0.47456371271E+03  0.00000000000E+00 0. -1.
<mgrwt>
<rscale>  2 0.13479798E+04</rscale>
<asrwt>0</asrwt>
<pdfrwt beam="2">  1        2 0.31956656E+00 0.13479798E+04</pdfrwt>
<pdfrwt beam="1">  1       -2 0.16391583E+00 0.13479798E+04</pdfrwt>
<totfact> 0.18957847E+00</totfact>
</mgrwt>
</event>
<event>
 8    1  0.1373409E-005  0.1428224E+04  0.7818608E-02  0.8452043E-01
         -2   -1    0    0    0  501 -0.00000000000E+00  0.00000000000E+00  0.69422825385E+03  0.69422825385E+03  0.00000000000E+00 0. -1.
          2   -1    0    0  502    0  0.00000000000E+00 -0.00000000000E+00 -0.31961532576E+04  0.31961532576E+04  0.00000000000E+00 0.  1.
    9000010    2    1    2  502    0 -0.36944101831E+02 -0.10261837700E+04 -0.17979013354E+04  0.22918897027E+04  0.98279763971E+03 0.  0.
   -9000010    2    1    2    0  501  0.36944101831E+02  0.10261837700E+04 -0.70402366832E+03  0.15984918088E+04  0.10025511163E+04 0.  0.
        -13    1    3    3    0    0 -0.30842779354E+03 -0.10901092470E+04 -0.13293256641E+04  0.17465888488E+04  0.10566000000E+00 0.  1.
          4    1    3    3  502    0  0.27148369171E+03  0.63925476988E+02 -0.46857567133E+03  0.54530085388E+03  0.00000000000E+00 0.  1.
         13    1    4    4    0    0 -0.17539757156E+03  0.39303462239E+03 -0.81486790408E+03  0.92154773874E+03  0.10566000000E+00 0. -1.
         -4    1    4    4    0  501  0.21234167339E+03  0.63314914763E+03  0.11084423576E+03  0.67694407007E+03  0.00000000000E+00 0. -1.
<mgrwt>
<rscale>  2 0.14282240E+04</rscale>
<asrwt>0</asrwt>
<pdfrwt beam="2">  1        2 0.49171588E+00 0.14282240E+04</pdfrwt>
<pdfrwt beam="1">  1       -2 0.10680435E+00 0.14282240E+04</pdfrwt>
<totfact> 0.14034790E+00</totfact>
</mgrwt>
</event>
<event>
 8    1  0.1373409E-005  0.1218499E+04  0.7818608E-02  0.8592761E-01
          1   -1    0    0  502    0  0.00000000000E+00  0.00000000000E+00  0.15905762861E+04  0.15905762861E+04  0.00000000000E+00 0.  1.
         -1   -1    0    0    0  501 -0.00000000000E+00 -0.00000000000E+00 -0.11579566442E+04  0.11579566442E+04  0.00000000000E+00 0. -1.
    9000010    2    1    2  502    0  0.21671567581E+03  0.66415231278E+03 -0.38825030080E+03  0.12823879583E+04  0.10028542270E+04 0.  0.
   -9000010    2    1    2    0  501 -0.21671567581E+03 -0.66415231278E+03  0.82086994269E+03  0.14661449721E+04  0.99382575818E+03 0.  0.
        -13    1    3    3    0    0  0.11079130102E+03  0.42127078434E+03 -0.72991720662E+03  0.85001348566E+03  0.10566000000E+00 0.  1.
          4    1    3    3  502    0  0.10592437478E+03  0.24288152843E+03  0.34166690581E+03  0.43237447260E+03  0.00000000000E+00 0.  1.
         13    1    4    4    0    0 -0.84047032852E+02 -0.71914453934E+03  0.99767528260E+02  0.73088052584E+03  0.10566000000E+00 0. -1.
         -4    1    4    4    0  501 -0.13266864296E+03  0.54992226559E+02  0.72110241443E+03  0.73526444624E+03  0.00000000000E+00 0. -1.
<mgrwt>
<rscale>  2 0.12184990E+04</rscale>
<asrwt>0</asrwt>
<pdfrwt beam="1">  1        1 0.24470404E+00 0.12184990E+04</pdfrwt>
<pdfrwt beam="2">  1       -1 0.17814718E+00 0.12184990E+04</pdfrwt>
<totfact> 0.15643147E+00</totfact>
</mgrwt>
</event>
<event>
 8    1  0.1373409E-005  0.1560597E+04  0.7818608E-02  0.8375454E-01
          2   -1    0    0  502    0  0.00000000000E+00  0.00000000000E+00  0.49278418619E+04  0.49278418619E+04  0.00000000000E+00 0.  1.
         -2   -1    0    0    0  501 -0.00000000000E+00 -0.00000000000E+00 -0.66751657672E+03  0.66751657672E+03  0.00000000000E+00 0. -1.
    9000010    2    1    2  502    0 -0.87648312184E+03 -0.81357698532E+03  0.35655088262E+04  0.38960699527E+04  0.10180263811E+04 0.  0.
   -9000010    2    1    2    0  501  0.87648312184E+03  0.81357698532E+03  0.69481645904E+03  0.16992884860E+04  0.98725947601E+03 0.  0.
        -13    1    3    3    0    0 -0.10202021021E+04 -0.59924899493E+03  0.21210125096E+04  0.24287045444E+04  0.10566000000E+00 0.  1.
          4    1    3    3  502    0  0.14371898023E+03 -0.21432799039E+03  0.14444963165E+04  0.14673654082E+04  0.00000000000E+00 0.  1.
         13    1    4    4    0    0  0.38405688454E+03  0.58271845883E+03 -0.13138183088E+03  0.71015610218E+03  0.10566000000E+00 0. -1.
         -4    1    4    4    0  501  0.49242623730E+03  0.23085852649E+03  0.82619828992E+03  0.98913238381E+03  0.00000000000E+00 0. -1.
<mgrwt>
<rscale>  2 0.15605974E+04</rscale>
<asrwt>0</asrwt>
<pdfrwt beam="1">  1        2 0.75812949E+00 0.15605974E+04</pdfrwt>
<pdfrwt beam="2">  1       -2 0.10269486E+00 0.15605974E+04</pdfrwt>
<totfact> 0.54215119E-02</totfact>
</mgrwt>
</event>
<event>
 8    1  0.1373409E-005  0.1898085E+04  0.7818608E-02  0.8211197E-01
         -2   -1    0    0    0  501 -0.00000000000E+00  0.00000000000E+00  0.40342109424E+04  0.40342109424E+04  0.00000000000E+00 0. -1.
          2   -1    0    0  502    0  0.00000000000E+00 -0.00000000000E+00 -0.89473615861E+03  0.89473615861E+03  0.00000000000E+00 0.  1.
    9000010    2    1    2  502    0  0.16151279233E+04 -0.25268708254E+02  0.14664865950E+04  0.24022284274E+04  0.10054062701E+04 0.  0.
   -9000010    2    1    2    0  501 -0.16151279233E+04  0.25268708254E+02  0.16729881888E+04  0.25267186735E+04  0.98799851175E+03 0.  0.
        -13    1    3    3    0    0  0.46691277324E+03 -0.25508270750E+03  0.10173236647E+04  0.11480514690E+04  0.10566000000E+00 0.  1.
          4    1    3    3  502    0  0.11482151501E+04  0.22981399925E+03  0.44916293026E+03  0.12541769584E+04  0.00000000000E+00 0.  1.
         13    1    4    4    0    0 -0.98628511175E+03  0.23164059999E+03  0.39476884319E+03  0.10873169455E+04  0.10566000000E+00 0. -1.
         -4    1    4    4    0  501 -0.62884281157E+03 -0.20637189174E+03  0.12782193456E+04  0.14394017281E+04  0.00000000000E+00 0. -1.
<mgrwt>
<rscale>  2 0.18980849E+04</rscale>
<asrwt>0</asrwt>
<pdfrwt beam="2">  1        2 0.13765172E+00 0.18980849E+04</pdfrwt>
<pdfrwt beam="1">  1       -2 0.62064783E+00 0.18980849E+04</pdfrwt>
<totfact> 0.16924107E-01</totfact>
</mgrwt>
</event>
<event>
 8    1  0.1373409E-005  0.1413547E+04  0.7818608E-02  0.8461058E-01
          1   -1    0    0  502    0  0.00000000000E+00  0.00000000000E+00  0.27186479647E+04  0.27186479647E+04  0.00000000000E+00 0.  1.
         -1   -1    0    0    0  501 -0.00000000000E+00 -0.00000000000E+00 -0.11939480132E+04  0.11939480132E+04  0.00000000000E+00 0. -1.
    9000010    2    1    2  502    0  0.84180085718E+03 -0.52782185920E+03 -0.45133351593E+03  0.14817150518E+04  0.10022738916E+04 0.  0.
   -9000010    2    1    2    0  501 -0.84180085718E+03  0.52782185920E+03  0.19760334674E+04  0.24308809261E+04  0.10085877327E+04 0.  0.
        -13    1    3    3    0    0  0.79333116531E+03  0.52925927986E+02 -0.41731194514E+03  0.89795588000E+03  0.10566000000E+00 0.  1.
          4    1    3    3  502    0  0.48469691873E+02 -0.58074778719E+03 -0.34021570794E+02  0.58375917178E+03  0.00000000000E+00 0.  1.
         13    1    4    4    0    0 -0.97293775585E+03  0.40706192000E+03  0.10513702768E+04  0.14891899655E+04  0.10566000000E+00 0. -1.
         -4    1    4    4    0  501  0.13113689867E+03  0.12075993920E+03  0.92466319063E+03  0.94169096057E+03  0.00000000000E+00 0. -1.
<mgrwt>
<rscale>  2 0.14135472E+04</rscale>
<asrwt>0</asrwt>
<pdfrwt beam="1">  1        1 0.41825353E+00 0.14135472E+04</pdfrwt>
<pdfrwt beam="2">  1       -1 0.18368431E+00 0.14135472E+04</pdfrwt>
<totfact> 0.16138690E-01</totfact>
</mgrwt>
</event>
<event>
 8    1  0.1373409E-005  0.1020550E+04  0.7818608E-02  0.8755519E-01
         -1   -1    0    0    0  501 -0.00000000000E+00  0.00000000000E+00  0.73846911777E+03  0.73846911777E+03  0.00000000000E+00 0. -1.
          1   -1    0    0  502    0  0.00000000000E+00 -0.00000000000E+00 -0.17238185906E+04  0.17238185906E+04  0.00000000000E+00 0.  1.
    9000010    2    1    2  502    0 -0.34919795505E+03 -0.13623851401E+03  0.42202944978E+01  0.10813819015E+04  0.10143317315E+04 0.  0.
   -9000010    2    1    2    0  501  0.34919795505E+03  0.13623851401E+03 -0.98956976736E+03  0.13809058069E+04  0.88721608333E+03 0.  0.
        -13    1    3    3    0    0 -0.16986812937E+03 -0.55784599505E+03  0.14720164715E+03  0.60142802700E+03  0.10566000000E+00 0.  1.
          4    1    3    3  502    0 -0.17932982568E+03  0.42160748105E+03 -0.14298135265E+03  0.47995387451E+03  0.00000000000E+00 0.  1.
         13    1    4    4    0    0 -0.16073315672E+03  0.36895328932E+03 -0.42674761095E+03  0.58657924612E+03  0.10566000000E+00 0. -1.
         -4    1    4    4    0  501  0.50993111176E+03 -0.23271477531E+03 -0.56282215641E+03  0.79432656077E+03  0.00000000000E+00 0. -1.
<mgrwt>
<rscale>  2 0.10205499E+04</rscale>
<asrwt>0</asrwt>
<pdfrwt beam="2">  1        1 0.26520286E+00 0.10205499E+04</pdfrwt>
<pdfrwt beam="1">  1       -1 0.11361064E+00 0.10205499E+04</pdfrwt>
<totfact> 0.46797578E+00</totfact>
</mgrwt>
</event>
<event>
 8    1  0.1373409E-005  0.1288027E+04  0.7818608E-02  0.8543069E-01
         -2   -1    0    0    0  501 -0.00000000000E+00  0.00000000000E+00  0.14460394112E+04  0.14460394112E+04  0.00000000000E+00 0. -1.
          2   -1    0    0  502    0  0.00000000000E+00 -0.00000000000E+00 -0.11523384116E+04  0.11523384116E+04  0.00000000000E+00 0.  1.
    9000010    2    1    2  502    0  0.53903748600E+03  0.60261782290E+03  0.23321704851E+03  0.13121142120E+04  0.10067491554E+04 0.  0.
   -9000010    2    1    2    0  501 -0.53903748600E+03 -0.60261782290E+03  0.60483951139E+02  0.12862636108E+04  0.99855200987E+03 0.  0.
        -13    1    3    3    0    0  0.84215246241E+02 -0.23482935826E+03  0.25788997110E+03  0.35880953661E+03  0.10566000000E+00 0.  1.
          4    1    3    3  502    0  0.45482223976E+03  0.83744718116E+03 -0.24672922592E+02  0.95330467539E+03  0.00000000000E+00 0.  1.
         13    1    4    4    0    0  0.14263008201E+02 -0.71750189807E+03  0.70283266590E+02  0.72107708039E+03  0.10566000000E+00 0. -1.
         -4    1    4    4    0  501 -0.55330049420E+03  0.11488407517E+03 -0.97993154519E+01  0.56518653044E+03  0.00000000000E+00 0. -1.
<mgrwt>
<rscale>  2 0.12880273E+04</rscale>
<asrwt>0</asrwt>
<pdfrwt beam="2">  1        2 0.17728283E+00 0.12880273E+04</pdfrwt>
<pdfrwt beam="1">  1       -2 0.22246760E+00 0.12880273E+04</pdfrwt>
<totfact> 0.20182823E+00</totfact>
</mgrwt>
</event>
<event>
 8    1  0.1373409E-005  0.1198040E+04  0.7818608E-02  0.8608039E-01
          1   -1    0    0  502    0  0.00000000000E+00  0.00000000000E+00  0.15265047933E+04  0.15265047933E+04  0.00000000000E+00 0. -1.
         -1   -1    0    0    0  501 -0.00000000000E+00 -0.00000000000E+00 -0.11509840857E+04  0.11509840857E+04  0.00000000000E+00 0.  1.
    9000010    2    1    2  502    0 -0.13224970170E+03 -0.60114141462E+03  0.76291190275E+03  0.14392391592E+04  0.10538091867E+04 0.  0.
   -9000010    2    1    2    0  501  0.13224970170E+03  0.60114141462E+03 -0.38739119518E+03  0.12382497198E+04  0.10021623853E+04 0.  0.
        -13    1    3    3    0    0  0.34679000520E+03 -0.52642287096E+03  0.71320742884E+03  0.95186616417E+03  0.10566000000E+00 0.  1.
          4    1    3    3  502    0 -0.47903970690E+03 -0.74718543664E+02  0.49704473916E+02  0.48737299503E+03  0.00000000000E+00 0.  1.
         13    1    4    4    0    0 -0.31990815032E+03  0.68487715416E+02 -0.42760628476E+03  0.53840406549E+03  0.10566000000E+00 0. -1.
         -4    1    4    4    0  501  0.45215785202E+03  0.53265369921E+03  0.40215089583E+02  0.69984565431E+03  0.00000000000E+00 0. -1.
<mgrwt>
<rscale>  2 0.11980405E+04</rscale>
<asrwt>0</asrwt>
<pdfrwt beam="1">  1        1 0.23484689E+00 0.11980405E+04</pdfrwt>
<pdfrwt beam="2">  1       -1 0.17707447E+00 0.11980405E+04</pdfrwt>
<totfact> 0.17886587E+00</totfact>
</mgrwt>
</event>
<event>
 8    1  0.1373409E-005  0.1275053E+04  0.7818608E-02  0.8552092E-01
          2   -1    0    0  502    0  0.00000000000E+00  0.00000000000E+00  0.15346907790E+04  0.15346907790E+04  0.00000000000E+00 0.  1.
         -2   -1    0    0    0  501 -0.00000000000E+00 -0.00000000000E+00 -0.11679759534E+04  0.11679759534E+04  0.00000000000E+00 0. -1.
    9000010    2    1    2  502    0 -0.68369321184E+03  0.41288285180E+03 -0.22867318298E+03  0.12961173094E+04  0.99484672086E+03 0.  0.
   -9000010    2    1    2    0  501  0.68369321184E+03 -0.41288285180E+03  0.59538800856E+03  0.14065494230E+04  0.99296814717E+03 0.  0.
        -13    1    3    3    0    0 -0.33153491506E+02 -0.11737607927E+03  0.28647338991E+03  0.31135721009E+03  0.10566000000E+00 0.  1.
          4    1    3    3  502    0 -0.65053972034E+03  0.53025893107E+03 -0.51514657289E+03  0.98476009935E+03  0.00000000000E+00 0.  1.
         13    1    4    4    0    0  0.62049223339E+03 -0.18702256828E+03  0.84443390433E+03  0.10644513529E+04  0.10566000000E+00 0. -1.
         -4    1    4    4    0  501  0.63200978453E+02 -0.22586028352E+03 -0.24904589577E+03  0.34209807007E+03  0.00000000000E+00 0. -1.
<mgrwt>
<rscale>  2 0.12750531E+04</rscale>
<asrwt>0</asrwt>
<pdfrwt beam="1">  1        2 0.23610627E+00 0.12750531E+04</pdfrwt>
<pdfrwt beam="2">  1       -2 0.17968861E+00 0.12750531E+04</pdfrwt>
<totfact> 0.27848466E+00</totfact>
</mgrwt>
</event>
<event>
 8    1  0.1373409E-005  0.1137501E+04  0.7818608E-02  0.8655172E-01
          2   -1    0    0  502    0  0.00000000000E+00  0.00000000000E+00  0.16360452618E+04  0.16360452618E+04  0.00000000000E+00 0. -1.
         -2   -1    0    0    0  501 -0.00000000000E+00 -0.00000000000E+00 -0.79302503216E+03  0.79302503216E+03  0.00000000000E+00 0.  1.
    9000010    2    1    2  502    0  0.33702535709E+03  0.42678899352E+03  0.37129670122E+03  0.12181306837E+04  0.10248151960E+04 0.  0.
   -9000010    2    1    2    0  501 -0.33702535709E+03 -0.42678899352E+03  0.47172352838E+03  0.12109396102E+04  0.97371285086E+03 0.  0.
        -13    1    3    3    0    0  0.81216780548E+02  0.74199237543E+03  0.30714838952E+03  0.80714868208E+03  0.10566000000E+00 0.  1.
          4    1    3    3  502    0  0.25580857654E+03 -0.31520338191E+03  0.64148311703E+02  0.41098200167E+03  0.00000000000E+00 0.  1.
         13    1    4    4    0    0 -0.40641023357E+03  0.10875580216E+03 -0.91617830082E+02  0.43057048250E+03  0.10566000000E+00 0. -1.
         -4    1    4    4    0  501  0.69384876478E+02 -0.53554479567E+03  0.56334135847E+03  0.78036912767E+03  0.00000000000E+00 0. -1.
<mgrwt>
<rscale>  2 0.11375013E+04</rscale>
<asrwt>0</asrwt>
<pdfrwt beam="1">  1        2 0.25169927E+00 0.11375013E+04</pdfrwt>
<pdfrwt beam="2">  1       -2 0.12200385E+00 0.11375013E+04</pdfrwt>
<totfact> 0.80419800E+00</totfact>
</mgrwt>
</event>
<event>
 8    1  0.1373409E-005  0.1572867E+04  0.7818608E-02  0.8368756E-01
         -2   -1    0    0    0  501 -0.00000000000E+00  0.00000000000E+00  0.10939104469E+04  0.10939104469E+04  0.00000000000E+00 0.  1.
          2   -1    0    0  502    0  0.00000000000E+00 -0.00000000000E+00 -0.24569877285E+04  0.24569877285E+04  0.00000000000E+00 0. -1.
    9000010    2    1    2  502    0  0.45871747694E+03  0.10960783750E+04 -0.17311575198E+03  0.15620890813E+04  0.99917151001E+03 0.  0.
   -9000010    2    1    2    0  501 -0.45871747694E+03 -0.10960783750E+04 -0.11899615296E+04  0.19888090941E+04  0.10618585797E+04 0.  0.
        -13    1    3    3    0    0  0.40872780370E+03  0.62764858345E+03 -0.57389193631E+03  0.94358525187E+03  0.10566000000E+00 0.  1.
          4    1    3    3  502    0  0.49989673240E+02  0.46842979154E+03  0.40077618433E+03  0.61850382939E+03  0.00000000000E+00 0.  1.
         13    1    4    4    0    0 -0.69953721679E+03 -0.11366724547E+04 -0.90034090997E+03  0.16099659475E+04  0.10566000000E+00 0. -1.
         -4    1    4    4    0  501  0.24081973986E+03  0.40594079675E+02 -0.28962061966E+03  0.37884314662E+03  0.00000000000E+00 0. -1.
<mgrwt>
<rscale>  2 0.15728668E+04</rscale>
<asrwt>0</asrwt>
<pdfrwt beam="2">  1        2 0.37799811E+00 0.15728668E+04</pdfrwt>
<pdfrwt beam="1">  1       -2 0.16829392E+00 0.15728668E+04</pdfrwt>
<totfact> 0.10488365E+00</totfact>
</mgrwt>
</event>
<event>
 8    1  0.1373409E-005  0.1205047E+04  0.7818608E-02  0.8602772E-01
         -2   -1    0    0    0  501 -0.00000000000E+00  0.00000000000E+00  0.80053419253E+03  0.80053419253E+03  0.00000000000E+00 0. -1.
          2   -1    0    0  502    0  0.00000000000E+00 -0.00000000000E+00 -0.18491979983E+04  0.18491979983E+04  0.00000000000E+00 0.  1.
    9000010    2    1    2  502    0 -0.36481399695E+03 -0.59361362464E+03 -0.70624089609E+03  0.13948085798E+04  0.98043275309E+03 0.  0.
   -9000010    2    1    2    0  501  0.36481399695E+03  0.59361362464E+03 -0.34242290971E+03  0.12549236110E+04  0.98595812927E+03 0.  0.
        -13    1    3    3    0    0 -0.62828820587E+03 -0.62729300913E+03 -0.35909630053E+03  0.95770180806E+03  0.10566000000E+00 0.  1.
          4    1    3    3  502    0  0.26347420892E+03  0.33679384486E+02 -0.34714459556E+03  0.43710677178E+03  0.00000000000E+00 0.  1.
         13    1    4    4    0    0  0.34571234525E+03 -0.17271259205E+03  0.56843380438E+02  0.39061214289E+03  0.10566000000E+00 0. -1.
         -4    1    4    4    0  501  0.19101651699E+02  0.76632621669E+03 -0.39926629015E+03  0.86431146813E+03  0.00000000000E+00 0. -1.
<mgrwt>
<rscale>  2 0.12050465E+04</rscale>
<asrwt>0</asrwt>
<pdfrwt beam="2">  1        2 0.28449200E+00 0.12050465E+04</pdfrwt>
<pdfrwt beam="1">  1       -2 0.12315911E+00 0.12050465E+04</pdfrwt>
<totfact> 0.59631863E+00</totfact>
</mgrwt>
</event>
<event>
 8    1  0.1373409E-005  0.1688529E+04  0.7818608E-02  0.8308560E-01
          2   -1    0    0  502    0  0.00000000000E+00  0.00000000000E+00  0.89704856061E+03  0.89704856061E+03  0.00000000000E+00 0.  1.
         -2   -1    0    0    0  501 -0.00000000000E+00 -0.00000000000E+00 -0.32085602418E+04  0.32085602418E+04  0.00000000000E+00 0. -1.
    9000010    2    1    2  502    0 -0.85841424958E+03  0.10783102854E+04 -0.95746794478E+03  0.19422769146E+04  0.97778660864E+03 0.  0.
   -9000010    2    1    2    0  501  0.85841424958E+03 -0.10783102854E+04 -0.13540437364E+04  0.21633318879E+04  0.97310961427E+03 0.  0.
        -13    1    3    3    0    0 -0.71615622083E+03  0.12269559974E+04 -0.62674149452E+03  0.15527735393E+04  0.10566000000E+00 0.  1.
          4    1    3    3  502    0 -0.14225802875E+03 -0.14864571200E+03 -0.33072645026E+03  0.38950337527E+03  0.00000000000E+00 0.  1.
         13    1    4    4    0    0 -0.26460325342E+02 -0.10411984617E+03  0.13729278498E+03  0.17432845767E+03  0.10566000000E+00 0. -1.
         -4    1    4    4    0  501  0.88487457493E+03 -0.97419043923E+03 -0.14913365214E+04  0.19890034302E+04  0.00000000000E+00 0. -1.
<mgrwt>
<rscale>  2 0.16885286E+04</rscale>
<asrwt>0</asrwt>
<pdfrwt beam="1">  1        2 0.13800747E+00 0.16885286E+04</pdfrwt>
<pdfrwt beam="2">  1       -2 0.49362465E+00 0.16885286E+04</pdfrwt>
<totfact> 0.11092620E-01</totfact>
</mgrwt>
</event>
<event>
 8    1  0.1373409E-005  0.1130451E+04  0.7818608E-02  0.8660859E-01
         -1   -1    0    0    0  501 -0.00000000000E+00  0.00000000000E+00  0.88268862696E+03  0.88268862696E+03  0.00000000000E+00 0.  1.
          1   -1    0    0  502    0  0.00000000000E+00 -0.00000000000E+00 -0.14905665079E+04  0.14905665079E+04  0.00000000000E+00 0. -1.
    9000010    2    1    2  502    0 -0.50843925915E+03  0.18560789496E+03 -0.10185225919E+03  0.11311043625E+04  0.98795871637E+03 0.  0.
   -9000010    2    1    2    0  501  0.50843925915E+03 -0.18560789496E+03 -0.50602562176E+03  0.12421507724E+04  0.99695327899E+03 0.  0.
        -13    1    3    3    0    0 -0.50218794572E+03 -0.23211565297E+03 -0.34084510176E+03  0.64980443500E+03  0.10566000000E+00 0.  1.
          4    1    3    3  502    0 -0.62513134290E+01  0.41772354793E+03  0.23899284257E+03  0.48129992751E+03  0.00000000000E+00 0.  1.
         13    1    4    4    0    0  0.38520652619E+03 -0.25713024415E+03  0.21254949621E+03  0.50958544895E+03  0.10566000000E+00 0. -1.
         -4    1    4    4    0  501  0.12323273296E+03  0.71522349187E+02 -0.71857511797E+03  0.73256532342E+03  0.00000000000E+00 0. -1.
<mgrwt>
<rscale>  2 0.11304507E+04</rscale>
<asrwt>0</asrwt>
<pdfrwt beam="2">  1        1 0.22931792E+00 0.11304507E+04</pdfrwt>
<pdfrwt beam="1">  1       -1 0.13579825E+00 0.11304507E+04</pdfrwt>
<totfact> 0.43762077E+00</totfact>
</mgrwt>
</event>
<event>
 8    1  0.1373409E-005  0.1152275E+04  0.7818608E-02  0.8643393E-01
          2   -1    0    0  502    0  0.00000000000E+00  0.00000000000E+00  0.28226001631E+04  0.28226001631E+04  0.00000000000E+00 0. -1.
         -2   -1    0    0    0  501 -0.00000000000E+00 -0.00000000000E+00 -0.49120000896E+03  0.49120000896E+03  0.00000000000E+00 0.  1.
    9000010    2    1    2  502    0 -0.36892306468E+03  0.42790807648E+03  0.82640809495E+03  0.14194081939E+04  0.10062602705E+04 0.  0.
   -9000010    2    1    2    0  501  0.36892306468E+03 -0.42790807648E+03  0.15049920592E+04  0.18943919781E+04  0.10022526224E+04 0.  0.
        -13    1    3    3    0    0 -0.64083999653E+03  0.52562197376E+03  0.44445080860E+03  0.94047375981E+03  0.10566000000E+00 0.  1.
          4    1    3    3  502    0  0.27191693186E+03 -0.97713897287E+02  0.38195728636E+03  0.47893443409E+03  0.00000000000E+00 0.  1.
         13    1    4    4    0    0  0.14092449063E+03 -0.43817129339E+03  0.15865969603E+04  0.16520120217E+04  0.10566000000E+00 0. -1.
         -4    1    4    4    0  501  0.22799857405E+03  0.10263216910E+02 -0.81604901105E+02  0.24237995642E+03  0.00000000000E+00 0. -1.
<mgrwt>
<rscale>  2 0.11522753E+04</rscale>
<asrwt>0</asrwt>
<pdfrwt beam="1">  1        2 0.43424617E+00 0.11522753E+04</pdfrwt>
<pdfrwt beam="2">  1       -2 0.75569234E-01 0.11522753E+04</pdfrwt>
<totfact> 0.54978647E+00</totfact>
</mgrwt>
</event>
<event>
 8    1  0.1373409E-005  0.1210644E+04  0.7818608E-02  0.8598590E-01
          2   -1    0    0  502    0  0.00000000000E+00  0.00000000000E+00  0.17190843105E+04  0.17190843105E+04  0.00000000000E+00 0.  1.
         -2   -1    0    0    0  501 -0.00000000000E+00 -0.00000000000E+00 -0.85703106750E+03  0.85703106750E+03  0.00000000000E+00 0. -1.
    9000010    2    1    2  502    0  0.30075249470E+03 -0.59679539372E+03  0.33645226484E+03  0.12512688420E+04  0.10029241165E+04 0.  0.
   -9000010    2    1    2    0  501 -0.30075249470E+03  0.59679539372E+03  0.52560097814E+03  0.13248465360E+04  0.10160438724E+04 0.  0.
        -13    1    3    3    0    0 -0.34261101919E+03 -0.43262913090E+02  0.21497542412E+02  0.34600021042E+03  0.10566000000E+00 0.  1.
          4    1    3    3  502    0  0.64336351389E+03 -0.55353248063E+03  0.31495472243E+03  0.90526863156E+03  0.00000000000E+00 0.  1.
         13    1    4    4    0    0 -0.56888110016E+03  0.51249985252E+03  0.66222228934E+03  0.10123340242E+04  0.10566000000E+00 0. -1.
         -4    1    4    4    0  501  0.26812860546E+03  0.84295541201E+02 -0.13662131120E+03  0.31251251176E+03  0.00000000000E+00 0. -1.
<mgrwt>
<rscale>  2 0.12106436E+04</rscale>
<asrwt>0</asrwt>
<pdfrwt beam="1">  1        2 0.26447451E+00 0.12106436E+04</pdfrwt>
<pdfrwt beam="2">  1       -2 0.13185093E+00 0.12106436E+04</pdfrwt>
<totfact> 0.58150278E+00</totfact>
</mgrwt>
</event>
<event>
 8    1  0.1373409E-005  0.1008205E+04  0.7818608E-02  0.8766920E-01
          2   -1    0    0  502    0  0.00000000000E+00  0.00000000000E+00  0.15816469500E+04  0.15816469500E+04  0.00000000000E+00 0. -1.
         -2   -1    0    0    0  501 -0.00000000000E+00 -0.00000000000E+00 -0.76299892025E+03  0.76299892025E+03  0.00000000000E+00 0.  1.
    9000010    2    1    2  502    0 -0.14282835766E+03  0.14501384766E+03 -0.64543854698E+02  0.98328022897E+03  0.95981516124E+03 0.  0.
   -9000010    2    1    2    0  501  0.14282835766E+03 -0.14501384766E+03  0.88319188446E+03  0.13613656413E+04  0.10158048773E+04 0.  0.
        -13    1    3    3    0    0  0.14776885449E+03 -0.10346925011E+03  0.36565209719E+03  0.40772906129E+03  0.10566000000E+00 0.  1.
          4    1    3    3  502    0 -0.29059721215E+03  0.24848309777E+03 -0.43019595189E+03  0.57555116768E+03  0.00000000000E+00 0.  1.
         13    1    4    4    0    0  0.27076141722E+03 -0.28215813610E+03  0.10436703960E+04  0.11145280910E+04  0.10566000000E+00 0. -1.
         -4    1    4    4    0  501 -0.12793305956E+03  0.13714428844E+03 -0.16047851157E+03  0.24683755034E+03  0.00000000000E+00 0. -1.
<mgrwt>
<rscale>  2 0.10082052E+04</rscale>
<asrwt>0</asrwt>
<pdfrwt beam="1">  1        2 0.24333030E+00 0.10082052E+04</pdfrwt>
<pdfrwt beam="2">  1       -2 0.11738445E+00 0.10082052E+04</pdfrwt>
<totfact> 0.96608521E+00</totfact>
</mgrwt>
</event>
<event>
 8    1  0.1373409E-005  0.1449521E+04  0.7818608E-02  0.8439156E-01
          1   -1    0    0  502    0  0.00000000000E+00  0.00000000000E+00  0.19640634030E+04  0.19640634030E+04  0.00000000000E+00 0.  1.
         -1   -1    0    0    0  501 -0.00000000000E+00 -0.00000000000E+00 -0.10758745094E+04  0.10758745094E+04  0.00000000000E+00 0. -1.
    9000010    2    1    2  502    0 -0.10227113214E+04 -0.15604126321E+03  0.33140355734E+03  0.14920555613E+04  0.10227972220E+04 0.  0.
   -9000010    2    1    2    0  501  0.10227113214E+04  0.15604126321E+03  0.55678533634E+03  0.15478823511E+04  0.10077909204E+04 0.  0.
        -13    1    3    3    0    0 -0.97325197455E+03 -0.13959304570E+03 -0.16151414835E+03  0.99638971073E+03  0.10566000000E+00 0.  1.
          4    1    3    3  502    0 -0.49459346885E+02 -0.16448217512E+02  0.49291770568E+03  0.49566585058E+03  0.00000000000E+00 0.  1.
         13    1    4    4    0    0 -0.17510517716E+03  0.17004674657E+03  0.62110473307E+02  0.25186393379E+03  0.10566000000E+00 0. -1.
         -4    1    4    4    0  501  0.11978164986E+04 -0.14005483364E+02  0.49467486303E+03  0.12960184173E+04  0.00000000000E+00 0. -1.
<mgrwt>
<rscale>  2 0.14495208E+04</rscale>
<asrwt>0</asrwt>
<pdfrwt beam="1">  1        1 0.30216360E+00 0.14495208E+04</pdfrwt>
<pdfrwt beam="2">  1       -1 0.16551916E+00 0.14495208E+04</pdfrwt>
<totfact> 0.10273950E+00</totfact>
</mgrwt>
</event>
<event>
 8    1  0.1373409E-005  0.1415447E+04  0.7818608E-02  0.8459885E-01
          2   -1    0    0  502    0  0.00000000000E+00  0.00000000000E+00  0.35640110095E+04  0.35640110095E+04  0.00000000000E+00 0.  1.
         -2   -1    0    0    0  501 -0.00000000000E+00 -0.00000000000E+00 -0.56226126956E+03  0.56226126956E+03  0.00000000000E+00 0. -1.
    9000010    2    1    2  502    0  0.87333095338E+03  0.55219648810E+03  0.15374071315E+04  0.20990543283E+04  0.98730971293E+03 0.  0.
   -9000010    2    1    2    0  501 -0.87333095338E+03 -0.55219648810E+03  0.14643426084E+04  0.20272179508E+04  0.94746262703E+03 0.  0.
        -13    1    3    3    0    0  0.51164638332E+03  0.81714306022E+03  0.11919772434E+04  0.15330735671E+04  0.10566000000E+00 0.  1.
          4    1    3    3  502    0  0.36168457006E+03 -0.26494657212E+03  0.34542988818E+03  0.56598076111E+03  0.00000000000E+00 0.  1.
         13    1    4    4    0    0 -0.34191162059E+03 -0.52050312448E+03  0.13442199953E+04  0.14814703729E+04  0.10566000000E+00 0. -1.
         -4    1    4    4    0  501 -0.53141933279E+03 -0.31693363628E+02  0.12012261306E+03  0.54574757785E+03  0.00000000000E+00 0. -1.
<mgrwt>
<rscale>  2 0.14154470E+04</rscale>
<asrwt>0</asrwt>
<pdfrwt beam="1">  1        2 0.54830937E+00 0.14154470E+04</pdfrwt>
<pdfrwt beam="2">  1       -2 0.86501736E-01 0.14154470E+04</pdfrwt>
<totfact> 0.12808517E+00</totfact>
</mgrwt>
</event>
<event>
 8    1  0.1373409E-005  0.1172462E+04  0.7818608E-02  0.8627592E-01
         -2   -1    0    0    0  501 -0.00000000000E+00  0.00000000000E+00  0.11780119201E+04  0.11780119201E+04  0.00000000000E+00 0.  1.
          2   -1    0    0  502    0  0.00000000000E+00 -0.00000000000E+00 -0.17872721986E+04  0.17872721986E+04  0.00000000000E+00 0. -1.
    9000010    2    1    2  502    0 -0.47064903689E+03  0.39426578880E+03  0.56857253649E+03  0.13045174499E+04  0.10007672155E+04 0.  0.
   -9000010    2    1    2    0  501  0.47064903689E+03 -0.39426578880E+03 -0.11778328149E+04  0.16607666688E+04  0.99694521416E+03 0.  0.
        -13    1    3    3    0    0 -0.14595902075E+03 -0.42938515102E+02  0.72270188546E+03  0.73854301041E+03  0.10566000000E+00 0.  1.
          4    1    3    3  502    0 -0.32469001613E+03  0.43720430391E+03 -0.15412934897E+03  0.56597443948E+03  0.00000000000E+00 0.  1.
         13    1    4    4    0    0  0.29199331669E+03 -0.61911006621E+03 -0.11905493431E+04  0.13733044530E+04  0.10566000000E+00 0. -1.
         -4    1    4    4    0  501  0.17865572020E+03  0.22484427740E+03  0.12716528129E+02  0.28746221582E+03  0.00000000000E+00 0. -1.
<mgrwt>
<rscale>  2 0.11724624E+04</rscale>
<asrwt>0</asrwt>
<pdfrwt beam="2">  1        2 0.27496495E+00 0.11724624E+04</pdfrwt>
<pdfrwt beam="1">  1       -2 0.18123260E+00 0.11724624E+04</pdfrwt>
<totfact> 0.19920525E+00</totfact>
</mgrwt>
</event>
<event>
 8    1  0.1373409E-005  0.1166040E+04  0.7818608E-02  0.8632584E-01
         -1   -1    0    0    0  501 -0.00000000000E+00  0.00000000000E+00  0.10064447557E+04  0.10064447557E+04  0.00000000000E+00 0. -1.
          1   -1    0    0  502    0  0.00000000000E+00 -0.00000000000E+00 -0.16113037103E+04  0.16113037103E+04  0.00000000000E+00 0.  1.
    9000010    2    1    2  502    0 -0.54241977563E+03  0.17798424120E+03 -0.82820765781E+03  0.14289080398E+04  0.10148658328E+04 0.  0.
   -9000010    2    1    2    0  501  0.54241977563E+03 -0.17798424120E+03  0.22334870324E+03  0.11888404263E+04  0.10186065545E+04 0.  0.
        -13    1    3    3    0    0 -0.36899823454E+03 -0.40185547609E+03 -0.50195526982E+03  0.74135458778E+03  0.10566000000E+00 0.  1.
          4    1    3    3  502    0 -0.17342154108E+03  0.57983971729E+03 -0.32625238799E+03  0.68755345198E+03  0.00000000000E+00 0.  1.
         13    1    4    4    0    0  0.23045313532E+03  0.42799774691E+03  0.94580708523E+02  0.49521332830E+03  0.10566000000E+00 0. -1.
         -4    1    4    4    0  501  0.31196664031E+03 -0.60598198811E+03  0.12876799472E+03  0.69362709797E+03  0.00000000000E+00 0. -1.
<mgrwt>
<rscale>  2 0.11660396E+04</rscale>
<asrwt>0</asrwt>
<pdfrwt beam="2">  1        1 0.24789288E+00 0.11660396E+04</pdfrwt>
<pdfrwt beam="1">  1       -1 0.15483766E+00 0.11660396E+04</pdfrwt>
<totfact> 0.24238623E+00</totfact>
</mgrwt>
</event>
<event>
 8    1  0.1373409E-005  0.1228080E+04  0.7818608E-02  0.8585712E-01
         -4   -1    0    0    0  501 -0.00000000000E+00  0.00000000000E+00  0.12952882627E+04  0.12952882627E+04  0.00000000000E+00 0. -1.
          4   -1    0    0  502    0  0.00000000000E+00 -0.00000000000E+00 -0.11703286663E+04  0.11703286663E+04  0.00000000000E+00 0.  1.
    9000010    2    1    2  502    0 -0.30095039401E+03  0.64647795438E+03 -0.25660472264E+02  0.12260305171E+04  0.99698920945E+03 0.  0.
   -9000010    2    1    2    0  501  0.30095039401E+03 -0.64647795438E+03  0.15062006871E+03  0.12395864120E+04  0.10026879787E+04 0.  0.
        -13    1    3    3    0    0 -0.54813350240E+03  0.21878119361E+03  0.27140846086E+03  0.64959842281E+03  0.10566000000E+00 0.  1.
          4    1    3    3  502    0  0.24718310838E+03  0.42769676078E+03 -0.29706893312E+03  0.57643209425E+03  0.00000000000E+00 0.  1.
         13    1    4    4    0    0 -0.10180697113E+03 -0.67563273197E+03 -0.19231065663E+03  0.70980817669E+03  0.10566000000E+00 0. -1.
         -4    1    4    4    0  501  0.40275736514E+03  0.29154777586E+02  0.34293072533E+03  0.52977823531E+03  0.00000000000E+00 0. -1.
<mgrwt>
<rscale>  2 0.12280796E+04</rscale>
<asrwt>0</asrwt>
<pdfrwt beam="2">  1        4 0.18005056E+00 0.12280796E+04</pdfrwt>
<pdfrwt beam="1">  1       -4 0.19927512E+00 0.12280796E+04</pdfrwt>
<totfact> 0.20934060E-01</totfact>
</mgrwt>
</event>
<event>
 8    1  0.1373409E-005  0.1313881E+04  0.7818608E-02  0.8525411E-01
          1   -1    0    0  502    0  0.00000000000E+00  0.00000000000E+00  0.15668956244E+04  0.15668956244E+04  0.00000000000E+00 0. -1.
         -1   -1    0    0    0  501 -0.00000000000E+00 -0.00000000000E+00 -0.15866363063E+04  0.15866363063E+04  0.00000000000E+00 0.  1.
    9000010    2    1    2  502    0 -0.64798791803E+03  0.55560868366E+03 -0.88156721476E+03  0.15843943129E+04  0.10022750287E+04 0.  0.
   -9000010    2    1    2    0  501  0.64798791803E+03 -0.55560868366E+03  0.86182653293E+03  0.15691376178E+04  0.99541877599E+03 0.  0.
        -13    1    3    3    0    0 -0.76112410771E+03  0.14199761553E+02 -0.46589038772E+03  0.89250512889E+03  0.10566000000E+00 0.  1.
          4    1    3    3  502    0  0.11313618969E+03  0.54140892211E+03 -0.41567682704E+03  0.69188918397E+03  0.00000000000E+00 0.  1.
         13    1    4    4    0    0  0.34039680470E+03 -0.32247679314E+03 -0.14505506685E+03  0.49081794012E+03  0.10566000000E+00 0. -1.
         -4    1    4    4    0  501  0.30759111333E+03 -0.23313189052E+03  0.10068815998E+04  0.10783196777E+04  0.00000000000E+00 0. -1.
<mgrwt>
<rscale>  2 0.13138808E+04</rscale>
<asrwt>0</asrwt>
<pdfrwt beam="1">  1        1 0.24106087E+00 0.13138808E+04</pdfrwt>
<pdfrwt beam="2">  1       -1 0.24409789E+00 0.13138808E+04</pdfrwt>
<totfact> 0.40138348E-01</totfact>
</mgrwt>
</event>
<event>
 8    1  0.1373409E-005  0.1040127E+04  0.7818608E-02  0.8737776E-01
          2   -1    0    0  502    0  0.00000000000E+00  0.00000000000E+00  0.68757105858E+03  0.68757105858E+03  0.00000000000E+00 0.  1.
         -2   -1    0    0    0  501 -0.00000000000E+00 -0.00000000000E+00 -0.16298807185E+04  0.16298807185E+04  0.00000000000E+00 0. -1.
    9000010    2    1    2  502    0  0.22093405557E+03  0.27675564477E+03 -0.25167842208E+03  0.10609712616E+04  0.96794237742E+03 0.  0.
   -9000010    2    1    2    0  501 -0.22093405557E+03 -0.27675564477E+03 -0.69063123788E+03  0.12564805155E+04  0.98811246086E+03 0.  0.
        -13    1    3    3    0    0  0.57559321376E+03  0.27994747420E+03 -0.29292827882E+03  0.70390704197E+03  0.10566000000E+00 0.  1.
          4    1    3    3  502    0 -0.35465915819E+03 -0.31918294337E+01  0.41249856745E+02  0.35706421964E+03  0.00000000000E+00 0.  1.
         13    1    4    4    0    0 -0.22734224984E+03  0.29060937151E+03 -0.56585412535E+03  0.67552143394E+03  0.10566000000E+00 0. -1.
         -4    1    4    4    0  501  0.64081942711E+01 -0.56736501628E+03 -0.12477711253E+03  0.58095908157E+03  0.00000000000E+00 0. -1.
<mgrwt>
<rscale>  2 0.10401274E+04</rscale>
<asrwt>0</asrwt>
<pdfrwt beam="1">  1        2 0.10578016E+00 0.10401274E+04</pdfrwt>
<pdfrwt beam="2">  1       -2 0.25075088E+00 0.10401274E+04</pdfrwt>
<totfact> 0.24757578E+00</totfact>
</mgrwt>
</event>
<event>
 8    1  0.1373409E-005  0.1100786E+04  0.7818608E-02  0.8685269E-01
         -2   -1    0    0    0  501 -0.00000000000E+00  0.00000000000E+00  0.66235404311E+03  0.66235404311E+03  0.00000000000E+00 0. -1.
          2   -1    0    0  502    0  0.00000000000E+00 -0.00000000000E+00 -0.19298427376E+04  0.19298427376E+04  0.00000000000E+00 0.  1.
    9000010    2    1    2  502    0  0.24641948770E+03  0.48422149335E+03 -0.36182312025E+03  0.11949406788E+04  0.10008867253E+04 0.  0.
   -9000010    2    1    2    0  501 -0.24641948770E+03 -0.48422149335E+03 -0.90566557420E+03  0.13972561019E+04  0.91482318698E+03 0.  0.
        -13    1    3    3    0    0 -0.36817615989E+03  0.22501902650E+03  0.93662986058E+01  0.43159585924E+03  0.10566000000E+00 0.  1.
          4    1    3    3  502    0  0.61459564758E+03  0.25920246684E+03 -0.37118941886E+03  0.76334481954E+03  0.00000000000E+00 0.  1.
         13    1    4    4    0    0  0.96819823985E+02 -0.27906184512E+03  0.10251783268E+03  0.31266517059E+03  0.10566000000E+00 0. -1.
         -4    1    4    4    0  501 -0.34323931168E+03 -0.20515964822E+03 -0.10081834069E+04  0.10845909313E+04  0.00000000000E+00 0. -1.
<mgrwt>
<rscale>  2 0.11007861E+04</rscale>
<asrwt>0</asrwt>
<pdfrwt beam="2">  1        2 0.29689888E+00 0.11007861E+04</pdfrwt>
<pdfrwt beam="1">  1       -2 0.10190062E+00 0.11007861E+04</pdfrwt>
<totfact> 0.88218819E+00</totfact>
</mgrwt>
</event>
<event>
 8    1  0.1373409E-005  0.2376451E+04  0.7818608E-02  0.8030332E-01
          1   -1    0    0  502    0  0.00000000000E+00  0.00000000000E+00  0.14759524226E+04  0.14759524226E+04  0.00000000000E+00 0.  1.
         -1   -1    0    0    0  501 -0.00000000000E+00 -0.00000000000E+00 -0.40573683016E+04  0.40573683016E+04  0.00000000000E+00 0. -1.
    9000010    2    1    2  502    0 -0.21145876011E+04 -0.41719880562E+03 -0.62929428886E+03  0.24559884148E+04  0.99515437274E+03 0.  0.
   -9000010    2    1    2    0  501  0.21145876011E+04  0.41719880562E+03 -0.19521215902E+04  0.30773323094E+04  0.10068067707E+04 0.  0.
        -13    1    3    3    0    0 -0.71985712819E+03  0.20940100443E+03  0.10982312139E+03  0.75769663772E+03  0.10566000000E+00 0.  1.
          4    1    3    3  502    0 -0.13947304729E+04 -0.62659981005E+03 -0.73911741025E+03  0.16982917771E+04  0.00000000000E+00 0.  1.
         13    1    4    4    0    0  0.25123532908E+03  0.23586130274E+03  0.35996184510E+02  0.34647580171E+03  0.10566000000E+00 0. -1.
         -4    1    4    4    0  501  0.18633522720E+04  0.18133750289E+03 -0.19881177747E+04  0.27308565077E+04  0.00000000000E+00 0. -1.
<mgrwt>
<rscale>  2 0.23764510E+04</rscale>
<asrwt>0</asrwt>
<pdfrwt beam="1">  1        1 0.22706961E+00 0.23764510E+04</pdfrwt>
<pdfrwt beam="2">  1       -1 0.62421050E+00 0.23764510E+04</pdfrwt>
<totfact> 0.13643775E-02</totfact>
</mgrwt>
</event>
<event>
 8    1  0.1373409E-005  0.1447605E+04  0.7818608E-02  0.8440306E-01
          2   -1    0    0  502    0  0.00000000000E+00  0.00000000000E+00  0.15143108419E+04  0.15143108419E+04  0.00000000000E+00 0. -1.
         -2   -1    0    0    0  501 -0.00000000000E+00 -0.00000000000E+00 -0.13908483477E+04  0.13908483477E+04  0.00000000000E+00 0.  1.
    9000010    2    1    2  502    0 -0.10488766637E+04  0.45911441694E+02  0.16494390843E+03  0.14602243501E+04  0.10013982941E+04 0.  0.
   -9000010    2    1    2    0  501  0.10488766637E+04 -0.45911441694E+02 -0.41481414288E+02  0.14449348396E+04  0.99190012947E+03 0.  0.
        -13    1    3    3    0    0 -0.10799959902E+04 -0.28424930714E+03  0.91155346889E+02  0.11204902123E+04  0.10566000000E+00 0.  1.
          4    1    3    3  502    0  0.31119326516E+02  0.33016074883E+03  0.73788561543E+02  0.33973413777E+03  0.00000000000E+00 0.  1.
         13    1    4    4    0    0  0.99755500052E+03  0.36940365038E+02  0.33740198553E+03  0.10537175526E+04  0.10566000000E+00 0. -1.
         -4    1    4    4    0  501  0.51321663139E+02 -0.82851806733E+02 -0.37888339981E+03  0.39121728699E+03  0.00000000000E+00 0. -1.
<mgrwt>
<rscale>  2 0.14476052E+04</rscale>
<asrwt>0</asrwt>
<pdfrwt beam="1">  1        2 0.23297090E+00 0.14476052E+04</pdfrwt>
<pdfrwt beam="2">  1       -2 0.21397667E+00 0.14476052E+04</pdfrwt>
<totfact> 0.14595945E+00</totfact>
</mgrwt>
</event>
<event>
 8    1  0.1373409E-005  0.1146703E+04  0.7818608E-02  0.8647814E-01
         -1   -1    0    0    0  501 -0.00000000000E+00  0.00000000000E+00  0.44028658889E+04  0.44028658889E+04  0.00000000000E+00 0.  1.
          1   -1    0    0  502    0  0.00000000000E+00 -0.00000000000E+00 -0.30176494107E+03  0.30176494107E+03  0.00000000000E+00 0. -1.
    9000010    2    1    2  502    0 -0.22844415800E+03 -0.51377284871E+03  0.17954856262E+04  0.21252911980E+04  0.98840516443E+03 0.  0.
   -9000010    2    1    2    0  501  0.22844415800E+03  0.51377284871E+03  0.23056153216E+04  0.25793396320E+04  0.10104363673E+04 0.  0.
        -13    1    3    3    0    0  0.35299348750E+03 -0.33280867428E+03  0.10916036510E+04  0.11945562180E+04  0.10566000000E+00 0.  1.
          4    1    3    3  502    0 -0.58143764550E+03 -0.18096417443E+03  0.70388197519E+03  0.93073498002E+03  0.00000000000E+00 0.  1.
         13    1    4    4    0    0  0.59350608047E+03  0.52111304697E+03  0.16345344215E+04  0.18153542523E+04  0.10566000000E+00 0. -1.
         -4    1    4    4    0  501 -0.36506192248E+03 -0.73401982562E+01  0.67108090015E+03  0.76398537964E+03  0.00000000000E+00 0. -1.
<mgrwt>
<rscale>  2 0.11467032E+04</rscale>
<asrwt>0</asrwt>
<pdfrwt beam="2">  1        1 0.46425379E-01 0.11467032E+04</pdfrwt>
<pdfrwt beam="1">  1       -1 0.67736394E+00 0.11467032E+04</pdfrwt>
<totfact> 0.13855060E-01</totfact>
</mgrwt>
</event>
<event>
 8    1  0.1373409E-005  0.1061235E+04  0.7818608E-02  0.8719091E-01
          2   -1    0    0  502    0  0.00000000000E+00  0.00000000000E+00  0.26921429651E+04  0.26921429651E+04  0.00000000000E+00 0.  1.
         -2   -1    0    0    0  501 -0.00000000000E+00 -0.00000000000E+00 -0.43020953703E+03  0.43020953703E+03  0.00000000000E+00 0. -1.
    9000010    2    1    2  502    0 -0.16529175313E+03  0.21069694143E+03  0.87842175760E+03  0.13825849357E+04  0.10335384634E+04 0.  0.
   -9000010    2    1    2    0  501  0.16529175313E+03 -0.21069694143E+03  0.13835116704E+04  0.17397675664E+04  0.10202803919E+04 0.  0.
        -13    1    3    3    0    0 -0.58554962121E+03  0.21537879103E+03  0.37959694076E+03  0.73030831237E+03  0.10566000000E+00 0.  1.
          4    1    3    3  502    0  0.42025786807E+03 -0.46818495987E+01  0.49882481685E+03  0.65227662329E+03  0.00000000000E+00 0.  1.
         13    1    4    4    0    0  0.48879220212E+03  0.13203617869E+03  0.10395869770E+04  0.11563271437E+04  0.10566000000E+00 0. -1.
         -4    1    4    4    0  501 -0.32350044899E+03 -0.34273312012E+03  0.34392469345E+03  0.58344042274E+03  0.00000000000E+00 0. -1.
<mgrwt>
<rscale>  2 0.10612347E+04</rscale>
<asrwt>0</asrwt>
<pdfrwt beam="1">  1        2 0.41417583E+00 0.10612347E+04</pdfrwt>
<pdfrwt beam="2">  1       -2 0.66186084E-01 0.10612347E+04</pdfrwt>
<totfact> 0.87609149E+00</totfact>
</mgrwt>
</event>
<event>
 8    1  0.1373409E-005  0.1078408E+04  0.7818608E-02  0.8704219E-01
         -1   -1    0    0    0  501 -0.00000000000E+00  0.00000000000E+00  0.13079556219E+04  0.13079556219E+04  0.00000000000E+00 0.  1.
          1   -1    0    0  502    0  0.00000000000E+00 -0.00000000000E+00 -0.90173666937E+03  0.90173666937E+03  0.00000000000E+00 0. -1.
    9000010    2    1    2  502    0  0.36775340926E+03  0.16645082455E+03  0.33149339051E+03  0.11190322823E+04  0.98964485240E+03 0.  0.
   -9000010    2    1    2    0  501 -0.36775340926E+03 -0.16645082455E+03  0.74725562062E+02  0.10906600090E+04  0.10104488600E+04 0.  0.
        -13    1    3    3    0    0  0.24984410590E+03 -0.25667006516E+03  0.52784184198E+03  0.63790173296E+03  0.10566000000E+00 0.  1.
          4    1    3    3  502    0  0.11790930336E+03  0.42312088971E+03 -0.19634845147E+03  0.48113054935E+03  0.00000000000E+00 0.  1.
         13    1    4    4    0    0  0.14155413016E+03 -0.40645125773E+03 -0.18762522777E+03  0.46951404019E+03  0.10566000000E+00 0. -1.
         -4    1    4    4    0  501 -0.50930753942E+03  0.24000043318E+03  0.26235078983E+03  0.62114596881E+03  0.00000000000E+00 0. -1.
<mgrwt>
<rscale>  2 0.10784082E+04</rscale>
<asrwt>0</asrwt>
<pdfrwt beam="2">  1        1 0.13872872E+00 0.10784082E+04</pdfrwt>
<pdfrwt beam="1">  1       -1 0.20122394E+00 0.10784082E+04</pdfrwt>
<totfact> 0.34019730E+00</totfact>
</mgrwt>
</event>
<event>
 8    1  0.1373409E-005  0.1653192E+04  0.7818608E-02  0.8326409E-01
          2   -1    0    0  502    0  0.00000000000E+00  0.00000000000E+00  0.18796805259E+04  0.18796805259E+04  0.00000000000E+00 0.  1.
         -2   -1    0    0    0  501 -0.00000000000E+00 -0.00000000000E+00 -0.23816139745E+04  0.23816139745E+04  0.00000000000E+00 0. -1.
    9000010    2    1    2  502    0 -0.39745811055E+03 -0.12656459827E+04 -0.15802089045E+04  0.22833129493E+04  0.97807215460E+03 0.  0.
   -9000010    2    1    2    0  501  0.39745811055E+03  0.12656459827E+04  0.10782754559E+04  0.19779815511E+04  0.99493736206E+03 0.  0.
        -13    1    3    3    0    0 -0.61181045154E+03 -0.85654634732E+03 -0.62982056096E+03  0.12266448646E+04  0.10566000000E+00 0.  1.
          4    1    3    3  502    0  0.21435234099E+03 -0.40909963539E+03 -0.95038834351E+03  0.10566680847E+04  0.00000000000E+00 0.  1.
         13    1    4    4    0    0 -0.64669947160E+02  0.34032840832E+03 -0.14544483328E+03  0.37571244092E+03  0.10566000000E+00 0. -1.
         -4    1    4    4    0  501  0.46212805771E+03  0.92531757440E+03  0.12237202892E+04  0.16022691102E+04  0.00000000000E+00 0. -1.
<mgrwt>
<rscale>  2 0.16531923E+04</rscale>
<asrwt>0</asrwt>
<pdfrwt beam="1">  1        2 0.28918162E+00 0.16531923E+04</pdfrwt>
<pdfrwt beam="2">  1       -2 0.36640215E+00 0.16531923E+04</pdfrwt>
<totfact> 0.68216771E-02</totfact>
</mgrwt>
</event>
<event>
 8    1  0.1373409E-005  0.1076979E+04  0.7818608E-02  0.8705446E-01
          2   -1    0    0  502    0  0.00000000000E+00  0.00000000000E+00  0.15492230888E+04  0.15492230888E+04  0.00000000000E+00 0. -1.
         -2   -1    0    0    0  501 -0.00000000000E+00 -0.00000000000E+00 -0.11486126946E+04  0.11486126946E+04  0.00000000000E+00 0.  1.
    9000010    2    1    2  502    0 -0.16443295536E+03  0.36575661375E+03 -0.59546151736E+03  0.12319743812E+04  0.10011844785E+04 0.  0.
   -9000010    2    1    2    0  501  0.16443295536E+03 -0.36575661375E+03  0.99607191156E+03  0.14658614021E+04  0.99788491309E+03 0.  0.
        -13    1    3    3    0    0 -0.32632269165E+03 -0.19073374061E+03  0.30138813899E+02  0.37917570882E+03  0.10566000000E+00 0.  1.
          4    1    3    3  502    0  0.16188973629E+03  0.55649035436E+03 -0.62560033126E+03  0.85279867242E+03  0.00000000000E+00 0.  1.
         13    1    4    4    0    0 -0.32713774491E+03 -0.60290486492E+02  0.22690065446E+02  0.33342000111E+03  0.10566000000E+00 0. -1.
         -4    1    4    4    0  501  0.49157070027E+03 -0.30546612726E+03  0.97338184611E+03  0.11324414010E+04  0.00000000000E+00 0. -1.
<mgrwt>
<rscale>  2 0.10769790E+04</rscale>
<asrwt>0</asrwt>
<pdfrwt beam="1">  1        2 0.23834201E+00 0.10769790E+04</pdfrwt>
<pdfrwt beam="2">  1       -2 0.17670965E+00 0.10769790E+04</pdfrwt>
<totfact> 0.29614843E+00</totfact>
</mgrwt>
</event>
<event>
 8    1  0.1373409E-005  0.1139352E+04  0.7818608E-02  0.8653686E-01
         -4   -1    0    0    0  501 -0.00000000000E+00  0.00000000000E+00  0.26011833316E+04  0.26011833316E+04  0.00000000000E+00 0. -1.
          4   -1    0    0  502    0  0.00000000000E+00 -0.00000000000E+00 -0.60754317771E+03  0.60754317771E+03  0.00000000000E+00 0.  1.
    9000010    2    1    2  502    0 -0.34061421916E+03 -0.51566140122E+03  0.29366335292E+03  0.11405894270E+04  0.91256854487E+03 0.  0.
   -9000010    2    1    2    0  501  0.34061421916E+03  0.51566140122E+03  0.16999768009E+04  0.20681370823E+04  0.10026690084E+04 0.  0.
        -13    1    3    3    0    0 -0.21835357085E+03 -0.54919300009E+03  0.57961488879E+03  0.82779506143E+03  0.10566000000E+00 0.  1.
          4    1    3    3  502    0 -0.12226064831E+03  0.33531598878E+02 -0.28595153587E+03  0.31279436554E+03  0.00000000000E+00 0.  1.
         13    1    4    4    0    0  0.59238245881E+02 -0.24667519304E+03  0.98211930408E+02  0.27203568714E+03  0.10566000000E+00 0. -1.
         -4    1    4    4    0  501  0.28137597328E+03  0.76233659426E+03  0.16017648705E+04  0.17961013952E+04  0.00000000000E+00 0. -1.
<mgrwt>
<rscale>  2 0.11393523E+04</rscale>
<asrwt>0</asrwt>
<pdfrwt beam="2">  1        4 0.93468182E-01 0.11393523E+04</pdfrwt>
<pdfrwt beam="1">  1       -4 0.40018205E+00 0.11393523E+04</pdfrwt>
<totfact> 0.15873854E-01</totfact>
</mgrwt>
</event>
<event>
 8    1  0.1373409E-005  0.1215487E+04  0.7818608E-02  0.8594990E-01
          2   -1    0    0  502    0  0.00000000000E+00  0.00000000000E+00  0.11978771398E+04  0.11978771398E+04  0.00000000000E+00 0.  1.
         -2   -1    0    0    0  501 -0.00000000000E+00 -0.00000000000E+00 -0.12362127643E+04  0.12362127643E+04  0.00000000000E+00 0. -1.
    9000010    2    1    2  502    0 -0.49864832415E+03  0.48297581393E+03 -0.77588014845E+02  0.12157117592E+04  0.99499718266E+03 0.  0.
   -9000010    2    1    2    0  501  0.49864832415E+03 -0.48297581393E+03  0.39252390329E+02  0.12183781448E+04  0.10004942607E+04 0.  0.
        -13    1    3    3    0    0 -0.30928653468E+03  0.49025575640E+03 -0.49181780191E+03  0.76019315220E+03  0.10566000000E+00 0.  1.
          4    1    3    3  502    0 -0.18936178948E+03 -0.72799424730E+01  0.41422978706E+03  0.45551860705E+03  0.00000000000E+00 0.  1.
         13    1    4    4    0    0  0.48883269392E+01  0.29493511082E+03 -0.15396195465E+02  0.29537716454E+03  0.10566000000E+00 0. -1.
         -4    1    4    4    0  501  0.49375999721E+03 -0.77791092475E+03  0.54648585793E+02  0.92300098029E+03  0.00000000000E+00 0. -1.
<mgrwt>
<rscale>  2 0.12154874E+04</rscale>
<asrwt>0</asrwt>
<pdfrwt beam="1">  1        2 0.18428879E+00 0.12154874E+04</pdfrwt>
<pdfrwt beam="2">  1       -2 0.19018658E+00 0.12154874E+04</pdfrwt>
<totfact> 0.35302860E+00</totfact>
</mgrwt>
</event>
<event>
 8    1  0.1373409E-005  0.1233540E+04  0.7818608E-02  0.8581725E-01
          2   -1    0    0  502    0  0.00000000000E+00  0.00000000000E+00  0.22932698961E+04  0.22932698961E+04  0.00000000000E+00 0. -1.
         -2   -1    0    0    0  501 -0.00000000000E+00 -0.00000000000E+00 -0.67538997405E+03  0.67538997405E+03  0.00000000000E+00 0.  1.
    9000010    2    1    2  502    0  0.71374891981E+03 -0.14971533256E+03  0.60947837417E+03  0.13721251575E+04  0.98965213979E+03 0.  0.
   -9000010    2    1    2    0  501 -0.71374891981E+03  0.14971533256E+03  0.10084015479E+04  0.15965347127E+04  0.10000985980E+04 0.  0.
        -13    1    3    3    0    0  0.80097955715E+03  0.66627427658E+02  0.75040120334E+03  0.10995951265E+04  0.10566000000E+00 0.  1.
          4    1    3    3  502    0 -0.87230637344E+02 -0.21634276022E+03 -0.14092282916E+03  0.27253003095E+03  0.00000000000E+00 0.  1.
         13    1    4    4    0    0 -0.10949906107E+03  0.24042231610E+03  0.94616292535E+03  0.98235290346E+03  0.10566000000E+00 0. -1.
         -4    1    4    4    0  501 -0.60424985874E+03 -0.90706983537E+02  0.62238622516E+02  0.61418180923E+03  0.00000000000E+00 0. -1.
<mgrwt>
<rscale>  2 0.12335400E+04</rscale>
<asrwt>0</asrwt>
<pdfrwt beam="1">  1        2 0.35281075E+00 0.12335400E+04</pdfrwt>
<pdfrwt beam="2">  1       -2 0.10390615E+00 0.12335400E+04</pdfrwt>
<totfact> 0.52480784E+00</totfact>
</mgrwt>
</event>
<event>
 8    1  0.1373409E-005  0.1101872E+04  0.7818608E-02  0.8684361E-01
         -2   -1    0    0    0  501 -0.00000000000E+00  0.00000000000E+00  0.11747350301E+04  0.11747350301E+04  0.00000000000E+00 0.  1.
          2   -1    0    0  502    0  0.00000000000E+00 -0.00000000000E+00 -0.10869469254E+04  0.10869469254E+04  0.00000000000E+00 0. -1.
    9000010    2    1    2  502    0 -0.34277722513E+03  0.32107626562E+03 -0.20641692683E+03  0.11281633314E+04  0.10047678141E+04 0.  0.
   -9000010    2    1    2    0  501  0.34277722513E+03 -0.32107626562E+03  0.29420503153E+03  0.11335186242E+04  0.98879809686E+03 0.  0.
        -13    1    3    3    0    0 -0.66087728756E+03  0.11241738398E+02 -0.75851915725E+02  0.66531097254E+03  0.10566000000E+00 0.  1.
          4    1    3    3  502    0  0.31810006243E+03  0.30983452722E+03 -0.13056501110E+03  0.46285235886E+03  0.00000000000E+00 0.  1.
         13    1    4    4    0    0 -0.19752627395E+03 -0.87783171157E+02 -0.25101744636E+03  0.33125863549E+03  0.10566000000E+00 0. -1.
         -4    1    4    4    0  501  0.54030349908E+03 -0.23329309447E+03  0.54522247789E+03  0.80225998868E+03  0.00000000000E+00 0. -1.
<mgrwt>
<rscale>  2 0.11018720E+04</rscale>
<asrwt>0</asrwt>
<pdfrwt beam="2">  1        2 0.16722260E+00 0.11018720E+04</pdfrwt>
<pdfrwt beam="1">  1       -2 0.18072847E+00 0.11018720E+04</pdfrwt>
<totfact> 0.49631883E+00</totfact>
</mgrwt>
</event>
<event>
 8    1  0.1373409E-005  0.1175597E+04  0.7818608E-02  0.8625168E-01
         -2   -1    0    0    0  501 -0.00000000000E+00  0.00000000000E+00  0.61242822152E+03  0.61242822152E+03  0.00000000000E+00 0. -1.
          2   -1    0    0  502    0  0.00000000000E+00 -0.00000000000E+00 -0.24714574858E+04  0.24714574858E+04  0.00000000000E+00 0.  1.
    9000010    2    1    2  502    0  0.44621704750E+03 -0.41356283892E+03 -0.47369220255E+03  0.12658670845E+04  0.10039378953E+04 0.  0.
   -9000010    2    1    2    0  501 -0.44621704750E+03  0.41356283892E+03 -0.13853370617E+04  0.18180186228E+04  0.10079132221E+04 0.  0.
        -13    1    3    3    0    0 -0.22087730121E+03 -0.42544512884E+03 -0.33386768638E+03  0.58417290507E+03  0.10566000000E+00 0.  1.
          4    1    3    3  502    0  0.66709434871E+03  0.11882289928E+02 -0.13982451617E+03  0.68169417939E+03  0.00000000000E+00 0.  1.
         13    1    4    4    0    0 -0.11176508886E+03 -0.24181017229E+03 -0.89504816628E+03  0.93384946626E+03  0.10566000000E+00 0. -1.
         -4    1    4    4    0  501 -0.33445195864E+03  0.65537301120E+03 -0.49028889540E+03  0.88416915656E+03  0.00000000000E+00 0. -1.
<mgrwt>
<rscale>  2 0.11755970E+04</rscale>
<asrwt>0</asrwt>
<pdfrwt beam="2">  1        2 0.38022423E+00 0.11755970E+04</pdfrwt>
<pdfrwt beam="1">  1       -2 0.94219725E-01 0.11755970E+04</pdfrwt>
<totfact> 0.53273444E+00</totfact>
</mgrwt>
</event>
<event>
 8    1  0.1373409E-005  0.1483251E+04  0.7818608E-02  0.8419204E-01
         -2   -1    0    0    0  501 -0.00000000000E+00  0.00000000000E+00  0.11602508754E+04  0.11602508754E+04  0.00000000000E+00 0. -1.
          2   -1    0    0  502    0  0.00000000000E+00 -0.00000000000E+00 -0.19727695074E+04  0.19727695074E+04  0.00000000000E+00 0.  1.
    9000010    2    1    2  502    0 -0.94765061119E+03 -0.52200583715E+03 -0.71384156840E+03  0.16424435391E+04  0.10087215767E+04 0.  0.
   -9000010    2    1    2    0  501  0.94765061119E+03  0.52200583715E+03 -0.98677063520E+02  0.14905768437E+04  0.10205637605E+04 0.  0.
        -13    1    3    3    0    0 -0.93177222430E+03 -0.48923458737E+03 -0.13335672679E+03  0.10608176032E+04  0.10566000000E+00 0.  1.
          4    1    3    3  502    0 -0.15878386892E+02 -0.32771249778E+02 -0.58048484161E+03  0.58162593590E+03  0.00000000000E+00 0.  1.
         13    1    4    4    0    0  0.10390679080E+04  0.19796488541E+03  0.15495153634E+03  0.10690473344E+04  0.10566000000E+00 0. -1.
         -4    1    4    4    0  501 -0.91417296856E+02  0.32404095173E+03 -0.25362859986E+03  0.42152950932E+03  0.00000000000E+00 0. -1.
<mgrwt>
<rscale>  2 0.14832511E+04</rscale>
<asrwt>0</asrwt>
<pdfrwt beam="2">  1        2 0.30350300E+00 0.14832511E+04</pdfrwt>
<pdfrwt beam="1">  1       -2 0.17850014E+00 0.14832511E+04</pdfrwt>
<totfact> 0.16069477E+00</totfact>
</mgrwt>
</event>
<event>
 8    1  0.1373409E-005  0.1391271E+04  0.7818608E-02  0.8474958E-01
         -1   -1    0    0    0  501 -0.00000000000E+00  0.00000000000E+00  0.18655151930E+04  0.18655151930E+04  0.00000000000E+00 0. -1.
          1   -1    0    0  502    0  0.00000000000E+00 -0.00000000000E+00 -0.10415998776E+04  0.10415998776E+04  0.00000000000E+00 0.  1.
    9000010    2    1    2  502    0  0.69291225420E+03  0.71826789310E+03  0.32175377311E+03  0.14280364774E+04  0.96939493092E+03 0.  0.
   -9000010    2    1    2    0  501 -0.69291225420E+03 -0.71826789310E+03  0.50216154232E+03  0.14790785931E+04  0.96926317986E+03 0.  0.
        -13    1    3    3    0    0 -0.11856614146E+03  0.37522185309E+03  0.37744941849E+03  0.54526823089E+03  0.10566000000E+00 0.  1.
          4    1    3    3  502    0  0.81147839566E+03  0.34304604001E+03 -0.55695645376E+02  0.88276824654E+03  0.00000000000E+00 0.  1.
         13    1    4    4    0    0 -0.17555983279E+03 -0.42125769115E+03  0.71284528571E+03  0.84642052773E+03  0.10566000000E+00 0. -1.
         -4    1    4    4    0  501 -0.51735242140E+03 -0.29701020195E+03 -0.21068374340E+03  0.63265806541E+03  0.00000000000E+00 0. -1.
<mgrwt>
<rscale>  2 0.13912710E+04</rscale>
<asrwt>0</asrwt>
<pdfrwt beam="2">  1        1 0.16024614E+00 0.13912710E+04</pdfrwt>
<pdfrwt beam="1">  1       -1 0.28700234E+00 0.13912710E+04</pdfrwt>
<totfact> 0.38337925E-01</totfact>
</mgrwt>
</event>
<event>
 8    1  0.1373409E-005  0.1403248E+04  0.7818608E-02  0.8467452E-01
         -4   -1    0    0    0  501 -0.00000000000E+00  0.00000000000E+00  0.76436125886E+03  0.76436125886E+03  0.00000000000E+00 0. -1.
          4   -1    0    0  502    0  0.00000000000E+00 -0.00000000000E+00 -0.26031367935E+04  0.26031367935E+04  0.00000000000E+00 0.  1.
    9000010    2    1    2  502    0 -0.94851324657E+03 -0.30070693374E+03 -0.10945923655E+04  0.17844245751E+04  0.99796622116E+03 0.  0.
   -9000010    2    1    2    0  501  0.94851324657E+03  0.30070693374E+03 -0.74418316910E+03  0.15830734773E+04  0.98092354767E+03 0.  0.
        -13    1    3    3    0    0 -0.18979881211E+03 -0.55235981944E+03 -0.29711043248E+03  0.65528587613E+03  0.10566000000E+00 0.  1.
          4    1    3    3  502    0 -0.75871443445E+03  0.25165288570E+03 -0.79748193307E+03  0.11291386990E+04  0.00000000000E+00 0.  1.
         13    1    4    4    0    0  0.21965931182E+03  0.33282833184E+03  0.15262781524E+03  0.42698966368E+03  0.10566000000E+00 0. -1.
         -4    1    4    4    0  501  0.72885393475E+03 -0.32121398096E+02 -0.89681098435E+03  0.11560838136E+04  0.00000000000E+00 0. -1.
<mgrwt>
<rscale>  2 0.14032475E+04</rscale>
<asrwt>0</asrwt>
<pdfrwt beam="2">  1        4 0.40048258E+00 0.14032475E+04</pdfrwt>
<pdfrwt beam="1">  1       -4 0.11759404E+00 0.14032475E+04</pdfrwt>
<totfact> 0.10162793E-01</totfact>
</mgrwt>
</event>
<event>
 8    1  0.1373409E-005  0.1238278E+04  0.7818608E-02  0.8578282E-01
          2   -1    0    0  502    0  0.00000000000E+00  0.00000000000E+00  0.23591817053E+04  0.23591817053E+04  0.00000000000E+00 0. -1.
         -2   -1    0    0    0  501 -0.00000000000E+00 -0.00000000000E+00 -0.67884011166E+03  0.67884011166E+03  0.00000000000E+00 0.  1.
    9000010    2    1    2  502    0  0.16568919640E+03  0.75472586190E+03  0.49799186205E+03  0.12841608527E+04  0.89666558126E+03 0.  0.
   -9000010    2    1    2    0  501 -0.16568919640E+03 -0.75472586190E+03  0.11823497316E+04  0.17538609643E+04  0.10397179222E+04 0.  0.
        -13    1    3    3    0    0  0.32916876092E+03  0.47916448630E+03  0.69651345813E+03  0.90723849489E+03  0.10566000000E+00 0.  1.
          4    1    3    3  502    0 -0.16347956452E+03  0.27556137561E+03 -0.19852159608E+03  0.37692235785E+03  0.00000000000E+00 0.  1.
         13    1    4    4    0    0 -0.20654668075E+03 -0.97115322712E+03  0.67451452786E+03  0.12003207827E+04  0.10566000000E+00 0. -1.
         -4    1    4    4    0  501  0.40857484346E+02  0.21642736522E+03  0.50783520377E+03  0.55354018159E+03  0.00000000000E+00 0. -1.
<mgrwt>
<rscale>  2 0.12382781E+04</rscale>
<asrwt>0</asrwt>
<pdfrwt beam="1">  1        2 0.36295103E+00 0.12382781E+04</pdfrwt>
<pdfrwt beam="2">  1       -2 0.10443694E+00 0.12382781E+04</pdfrwt>
<totfact> 0.47670264E+00</totfact>
</mgrwt>
</event>
<event>
 8    1  0.1373409E-005  0.1095371E+04  0.7818608E-02  0.8689811E-01
         -2   -1    0    0    0  501 -0.00000000000E+00  0.00000000000E+00  0.19253640165E+04  0.19253640165E+04  0.00000000000E+00 0.  1.
          2   -1    0    0  502    0  0.00000000000E+00 -0.00000000000E+00 -0.67073947451E+03  0.67073947451E+03  0.00000000000E+00 0. -1.
    9000010    2    1    2  502    0 -0.30282807080E+03  0.30810065135E+03  0.28576240643E+03  0.11393390472E+04  0.10147918307E+04 0.  0.
   -9000010    2    1    2    0  501  0.30282807080E+03 -0.30810065135E+03  0.96886213554E+03  0.14567644438E+04  0.99841772580E+03 0.  0.
        -13    1    3    3    0    0 -0.63794859910E+03  0.38809307867E+03  0.11749751607E+03  0.75591026600E+03  0.10566000000E+00 0.  1.
          4    1    3    3  502    0  0.33512052830E+03 -0.79992427325E+02  0.16826489036E+03  0.38342878119E+03  0.00000000000E+00 0.  1.
         13    1    4    4    0    0  0.56131558456E+03  0.12849686592E+03  0.58199116030E+03  0.81871872572E+03  0.10566000000E+00 0. -1.
         -4    1    4    4    0  501 -0.25848751377E+03 -0.43659751727E+03  0.38687097524E+03  0.63804571807E+03  0.00000000000E+00 0. -1.
<mgrwt>
<rscale>  2 0.10953711E+04</rscale>
<asrwt>0</asrwt>
<pdfrwt beam="2">  1        2 0.10319069E+00 0.10953711E+04</pdfrwt>
<pdfrwt beam="1">  1       -2 0.29620985E+00 0.10953711E+04</pdfrwt>
<totfact> 0.11615796E+00</totfact>
</mgrwt>
</event>
<event>
 8    1  0.1373409E-005  0.1116937E+04  0.7818608E-02  0.8671881E-01
         -2   -1    0    0    0  501 -0.00000000000E+00  0.00000000000E+00  0.97972908334E+03  0.97972908334E+03  0.00000000000E+00 0.  1.
          2   -1    0    0  502    0  0.00000000000E+00 -0.00000000000E+00 -0.18607859842E+04  0.18607859842E+04  0.00000000000E+00 0. -1.
    9000010    2    1    2  502    0  0.13062056643E+02  0.51470984478E+03  0.36198788785E+03  0.11572878122E+04  0.97117609509E+03 0.  0.
   -9000010    2    1    2    0  501 -0.13062056643E+02 -0.51470984478E+03 -0.12430447888E+04  0.16832272554E+04  0.10114330452E+04 0.  0.
        -13    1    3    3    0    0 -0.35443711769E+03  0.41905116780E+02 -0.13247334071E+03  0.38069792010E+03  0.10566000000E+00 0.  1.
          4    1    3    3  502    0  0.36749917433E+03  0.47280472800E+03  0.49446122856E+03  0.77658989209E+03  0.00000000000E+00 0.  1.
         13    1    4    4    0    0  0.54652805453E+02  0.30561895108E+03 -0.30442248545E+03  0.43481367644E+03  0.10566000000E+00 0. -1.
         -4    1    4    4    0  501 -0.67714862097E+02 -0.82032879586E+03 -0.93862230331E+03  0.12484135790E+04  0.00000000000E+00 0. -1.
<mgrwt>
<rscale>  2 0.11169372E+04</rscale>
<asrwt>0</asrwt>
<pdfrwt beam="2">  1        2 0.28627477E+00 0.11169372E+04</pdfrwt>
<pdfrwt beam="1">  1       -2 0.15072755E+00 0.11169372E+04</pdfrwt>
<totfact> 0.33306162E+00</totfact>
</mgrwt>
</event>
<event>
 8    1  0.1373409E-005  0.1000099E+04  0.7818608E-02  0.8774498E-01
          2   -1    0    0  502    0  0.00000000000E+00  0.00000000000E+00  0.29166928761E+04  0.29166928761E+04  0.00000000000E+00 0. -1.
         -2   -1    0    0    0  501 -0.00000000000E+00 -0.00000000000E+00 -0.46314116490E+03  0.46314116490E+03  0.00000000000E+00 0.  1.
    9000010    2    1    2  502    0 -0.49350554866E+03 -0.15027017507E+03  0.27448058206E+03  0.92272473202E+03  0.71410957778E+03 0.  0.
   -9000010    2    1    2    0  501  0.49350554866E+03  0.15027017507E+03  0.21790711291E+04  0.24571093089E+04  0.10113883123E+04 0.  0.
        -13    1    3    3    0    0  0.11039183031E+03 -0.72726512201E+02  0.28458002170E+03  0.31378543894E+03  0.10566000000E+00 0.  1.
          4    1    3    3  502    0 -0.60389737897E+03 -0.77543662865E+02 -0.10099439641E+02  0.60893929308E+03  0.00000000000E+00 0.  1.
         13    1    4    4    0    0  0.75361620750E+03  0.31295223899E+03  0.17356117023E+04  0.19178697778E+04  0.10566000000E+00 0. -1.
         -4    1    4    4    0  501 -0.26011065884E+03 -0.16268206392E+03  0.44345942676E+03  0.53923953115E+03  0.00000000000E+00 0. -1.
<mgrwt>
<rscale>  2 0.10000990E+04</rscale>
<asrwt>0</asrwt>
<pdfrwt beam="1">  1        2 0.44872197E+00 0.10000990E+04</pdfrwt>
<pdfrwt beam="2">  1       -2 0.71252488E-01 0.10000990E+04</pdfrwt>
<totfact> 0.55763545E+00</totfact>
</mgrwt>
</event>
<event>
 8    1  0.1373409E-005  0.1411006E+04  0.7818608E-02  0.8462631E-01
         -1   -1    0    0    0  501 -0.00000000000E+00  0.00000000000E+00  0.12509257432E+04  0.12509257432E+04  0.00000000000E+00 0.  1.
          1   -1    0    0  502    0  0.00000000000E+00 -0.00000000000E+00 -0.15968393986E+04  0.15968393986E+04  0.00000000000E+00 0. -1.
    9000010    2    1    2  502    0  0.95598359416E+03 -0.50201867880E+03 -0.13540660482E+03  0.14860333762E+04  0.10119450877E+04 0.  0.
   -9000010    2    1    2    0  501 -0.95598359416E+03  0.50201867880E+03 -0.21050705061E+03  0.13617317655E+04  0.80254146107E+03 0.  0.
        -13    1    3    3    0    0 -0.18653849583E+03 -0.24144810290E+03  0.94244520650E+01  0.30525829764E+03  0.10566000000E+00 0.  1.
          4    1    3    3  502    0  0.11425220900E+04 -0.26057057590E+03 -0.14483105688E+03  0.11807750786E+04  0.00000000000E+00 0.  1.
         13    1    4    4    0    0 -0.53915198541E+03  0.14584682163E+02  0.22719740107E+03  0.58524887573E+03  0.10566000000E+00 0. -1.
         -4    1    4    4    0  501 -0.41683160875E+03  0.48743399663E+03 -0.43770445168E+03  0.77648288980E+03  0.00000000000E+00 0. -1.
<mgrwt>
<rscale>  2 0.14110055E+04</rscale>
<asrwt>0</asrwt>
<pdfrwt beam="2">  1        1 0.24566760E+00 0.14110055E+04</pdfrwt>
<pdfrwt beam="1">  1       -1 0.19245011E+00 0.14110055E+04</pdfrwt>
<totfact> 0.11316794E+00</totfact>
</mgrwt>
</event>
<event>
 8    1  0.1373409E-005  0.1474112E+04  0.7818608E-02  0.8424556E-01
          2   -1    0    0  502    0  0.00000000000E+00  0.00000000000E+00  0.14192984965E+04  0.14192984965E+04  0.00000000000E+00 0. -1.
         -2   -1    0    0    0  501 -0.00000000000E+00 -0.00000000000E+00 -0.17553293246E+04  0.17553293246E+04  0.00000000000E+00 0.  1.
    9000010    2    1    2  502    0  0.11059351555E+04 -0.10362349764E+03  0.40146142832E+03  0.14990743667E+04  0.92315886021E+03 0.  0.
   -9000010    2    1    2    0  501 -0.11059351555E+04  0.10362349764E+03 -0.73749225645E+03  0.16755534544E+04  0.10147680291E+04 0.  0.
        -13    1    3    3    0    0  0.10164998829E+04  0.21294748669E+03  0.50414186136E+03  0.11544599047E+04  0.10566000000E+00 0.  1.
          4    1    3    3  502    0  0.89435272548E+02 -0.31657098433E+03 -0.10268043304E+03  0.34461446201E+03  0.00000000000E+00 0.  1.
         13    1    4    4    0    0 -0.34862916249E+03  0.18783366932E+03  0.21909733755E+03  0.45257865036E+03  0.10566000000E+00 0. -1.
         -4    1    4    4    0  501 -0.75730599298E+03 -0.84210171681E+02 -0.95658959400E+03  0.12229748041E+04  0.00000000000E+00 0. -1.
<mgrwt>
<rscale>  2 0.14741121E+04</rscale>
<asrwt>0</asrwt>
<pdfrwt beam="1">  1        2 0.21835362E+00 0.14741121E+04</pdfrwt>
<pdfrwt beam="2">  1       -2 0.27005066E+00 0.14741121E+04</pdfrwt>
<totfact> 0.59365101E-01</totfact>
</mgrwt>
</event>
<event>
 8    1  0.1373409E-005  0.1506917E+04  0.7818608E-02  0.8405529E-01
         -2   -1    0    0    0  501 -0.00000000000E+00  0.00000000000E+00  0.14207283299E+04  0.14207283299E+04  0.00000000000E+00 0.  1.
          2   -1    0    0  502    0  0.00000000000E+00 -0.00000000000E+00 -0.16420729284E+04  0.16420729284E+04  0.00000000000E+00 0. -1.
    9000010    2    1    2  502    0 -0.40228012395E+03 -0.10154072681E+04  0.13987673621E+03  0.14953831522E+04  0.10117924948E+04 0.  0.
   -9000010    2    1    2    0  501  0.40228012395E+03  0.10154072681E+04 -0.36122133475E+03  0.15674181061E+04  0.10646301932E+04 0.  0.
        -13    1    3    3    0    0  0.69827814465E+02 -0.25792580449E+03  0.47252866763E+03  0.54284896351E+03  0.10566000000E+00 0.  1.
          4    1    3    3  502    0 -0.47210793841E+03 -0.75748146361E+03 -0.33265193141E+03  0.95253418873E+03  0.00000000000E+00 0.  1.
         13    1    4    4    0    0  0.74449676186E+03  0.47168897879E+03 -0.24243330195E+03  0.91407868271E+03  0.10566000000E+00 0. -1.
         -4    1    4    4    0  501 -0.34221663791E+03  0.54371828932E+03 -0.11878803281E+03  0.65333942338E+03  0.00000000000E+00 0. -1.
<mgrwt>
<rscale>  2 0.15069172E+04</rscale>
<asrwt>0</asrwt>
<pdfrwt beam="2">  1        2 0.25262660E+00 0.15069172E+04</pdfrwt>
<pdfrwt beam="1">  1       -2 0.21857359E+00 0.15069172E+04</pdfrwt>
<totfact> 0.11322590E+00</totfact>
</mgrwt>
</event>
<event>
 8    1  0.1373409E-005  0.1246140E+04  0.7818608E-02  0.8572605E-01
          4   -1    0    0  502    0  0.00000000000E+00  0.00000000000E+00  0.23217305638E+04  0.23217305638E+04  0.00000000000E+00 0.  1.
         -4   -1    0    0    0  501 -0.00000000000E+00 -0.00000000000E+00 -0.82985613039E+03  0.82985613039E+03  0.00000000000E+00 0. -1.
    9000010    2    1    2  502    0 -0.39881717144E+03  0.63083483280E+03  0.14265097465E+04  0.18770261388E+04  0.96503333953E+03 0.  0.
   -9000010    2    1    2    0  501  0.39881717144E+03 -0.63083483280E+03  0.65364686999E+02  0.12745605555E+04  0.10311277053E+04 0.  0.
        -13    1    3    3    0    0 -0.22902162953E+03  0.12838059591E+03  0.13073283491E+04  0.13334316284E+04  0.10566000000E+00 0.  1.
          4    1    3    3  502    0 -0.16979554191E+03  0.50245423689E+03  0.11918139740E+03  0.54359451037E+03  0.00000000000E+00 0.  1.
         13    1    4    4    0    0 -0.74618725646E+02  0.13557234358E+03  0.30532599470E+03  0.34230364995E+03  0.10566000000E+00 0. -1.
         -4    1    4    4    0  501  0.47343589709E+03 -0.76640717638E+03 -0.23996130770E+03  0.93225690550E+03  0.00000000000E+00 0. -1.
<mgrwt>
<rscale>  2 0.12461396E+04</rscale>
<asrwt>0</asrwt>
<pdfrwt beam="1">  1        4 0.35718931E+00 0.12461396E+04</pdfrwt>
<pdfrwt beam="2">  1       -4 0.12767017E+00 0.12461396E+04</pdfrwt>
<totfact> 0.13048740E-01</totfact>
</mgrwt>
</event>
<event>
 8    1  0.1373409E-005  0.1291152E+04  0.7818608E-02  0.8540912E-01
         -1   -1    0    0    0  501 -0.00000000000E+00  0.00000000000E+00  0.11868384720E+04  0.11868384720E+04  0.00000000000E+00 0.  1.
          1   -1    0    0  502    0  0.00000000000E+00 -0.00000000000E+00 -0.16245337697E+04  0.16245337697E+04  0.00000000000E+00 0. -1.
    9000010    2    1    2  502    0  0.66173894888E+03  0.48972922346E+03  0.29911763641E+03  0.13198652534E+04  0.98733974801E+03 0.  0.
   -9000010    2    1    2    0  501 -0.66173894888E+03 -0.48972922346E+03 -0.73681293407E+03  0.14915069883E+04  0.10019813610E+04 0.  0.
        -13    1    3    3    0    0  0.81920296426E+03  0.40074499904E+03 -0.63982037007E+02  0.91421209964E+03  0.10566000000E+00 0.  1.
          4    1    3    3  502    0 -0.15746401538E+03  0.88984224417E+02  0.36309967341E+03  0.40565315378E+03  0.00000000000E+00 0.  1.
         13    1    4    4    0    0 -0.27501935942E+03  0.29349323007E+03 -0.36151804216E+03  0.54080424381E+03  0.10566000000E+00 0. -1.
         -4    1    4    4    0  501 -0.38671958946E+03 -0.78322245353E+03 -0.37529489192E+03  0.95070274454E+03  0.00000000000E+00 0. -1.
<mgrwt>
<rscale>  2 0.12911517E+04</rscale>
<asrwt>0</asrwt>
<pdfrwt beam="2">  1        1 0.24992827E+00 0.12911517E+04</pdfrwt>
<pdfrwt beam="1">  1       -1 0.18259053E+00 0.12911517E+04</pdfrwt>
<totfact> 0.13373754E+00</totfact>
</mgrwt>
</event>
<event>
 8    1  0.1373409E-005  0.1529078E+04  0.7818608E-02  0.8392958E-01
          1   -1    0    0  502    0  0.00000000000E+00  0.00000000000E+00  0.90204586773E+03  0.90204586773E+03  0.00000000000E+00 0. -1.
         -1   -1    0    0    0  501 -0.00000000000E+00 -0.00000000000E+00 -0.27033726943E+04  0.27033726943E+04  0.00000000000E+00 0.  1.
    9000010    2    1    2  502    0  0.70304575041E+03  0.92357398278E+03 -0.12655499695E+04  0.19834406102E+04  0.99255110712E+03 0.  0.
   -9000010    2    1    2    0  501 -0.70304575041E+03 -0.92357398278E+03 -0.53577685708E+03  0.16219779518E+04  0.99824516362E+03 0.  0.
        -13    1    3    3    0    0  0.97470044088E+02  0.88981196399E+03 -0.92783268723E+03  0.12892397944E+04  0.10566000000E+00 0.  1.
          4    1    3    3  502    0  0.60557570633E+03  0.33762018786E+02 -0.33771728226E+03  0.69420081586E+03  0.00000000000E+00 0.  1.
         13    1    4    4    0    0 -0.35950268469E+02 -0.85153543478E+03 -0.37993956465E+03  0.93314473821E+03  0.10566000000E+00 0. -1.
         -4    1    4    4    0  501 -0.66709548195E+03 -0.72038547995E+02 -0.15583729242E+03  0.68883321359E+03  0.00000000000E+00 0. -1.
<mgrwt>
<rscale>  2 0.15290785E+04</rscale>
<asrwt>0</asrwt>
<pdfrwt beam="1">  1        1 0.13877629E+00 0.15290785E+04</pdfrwt>
<pdfrwt beam="2">  1       -1 0.41590349E+00 0.15290785E+04</pdfrwt>
<totfact> 0.27430668E-01</totfact>
</mgrwt>
</event>
<event>
 8    1  0.1373409E-005  0.1443341E+04  0.7818608E-02  0.8442872E-01
         -1   -1    0    0    0  501 -0.00000000000E+00  0.00000000000E+00  0.71741392977E+03  0.71741392977E+03  0.00000000000E+00 0. -1.
          1   -1    0    0  502    0  0.00000000000E+00 -0.00000000000E+00 -0.29142593484E+04  0.29142593484E+04  0.00000000000E+00 0.  1.
    9000010    2    1    2  502    0  0.41601908058E+03  0.92714556153E+03 -0.97393175870E+03  0.17172895080E+04  0.98380354553E+03 0.  0.
   -9000010    2    1    2    0  501 -0.41601908058E+03 -0.92714556153E+03 -0.12229136599E+04  0.19143837701E+04  0.10661503796E+04 0.  0.
        -13    1    3    3    0    0 -0.48988678647E+01  0.44083402454E+03  0.11228472988E+03  0.45493571834E+03  0.10566000000E+00 0.  1.
          4    1    3    3  502    0  0.42091794845E+03  0.48631153699E+03 -0.10862164886E+04  0.12623537897E+04  0.00000000000E+00 0.  1.
         13    1    4    4    0    0 -0.75673020814E+03 -0.70048142078E+03 -0.10451733539E+04  0.14682309694E+04  0.10566000000E+00 0. -1.
         -4    1    4    4    0  501  0.34071112755E+03 -0.22666414075E+03 -0.17774030601E+03  0.44615280064E+03  0.00000000000E+00 0. -1.
<mgrwt>
<rscale>  2 0.14433415E+04</rscale>
<asrwt>0</asrwt>
<pdfrwt beam="2">  1        1 0.44834759E+00 0.14433415E+04</pdfrwt>
<pdfrwt beam="1">  1       -1 0.11037137E+00 0.14433415E+04</pdfrwt>
<totfact> 0.44988174E-01</totfact>
</mgrwt>
</event>
<event>
 8    1  0.1373409E-005  0.1059637E+04  0.7818608E-02  0.8720489E-01
          1   -1    0    0  502    0  0.00000000000E+00  0.00000000000E+00  0.11959740287E+04  0.11959740287E+04  0.00000000000E+00 0.  1.
         -1   -1    0    0    0  501 -0.00000000000E+00 -0.00000000000E+00 -0.96677467878E+03  0.96677467878E+03  0.00000000000E+00 0. -1.
    9000010    2    1    2  502    0 -0.24009315529E+03 -0.19479827704E+03  0.29867805076E+03  0.11036077992E+04  0.10164401135E+04 0.  0.
   -9000010    2    1    2    0  501  0.24009315529E+03  0.19479827704E+03 -0.69478700882E+02  0.10591409083E+04  0.10106241051E+04 0.  0.
        -13    1    3    3    0    0 -0.14526723384E+03  0.78841005158E+02 -0.35338405497E+03  0.39012661380E+03  0.10566000000E+00 0.  1.
          4    1    3    3  502    0 -0.94825921445E+02 -0.27363928220E+03  0.65206210572E+03  0.71348118536E+03  0.00000000000E+00 0.  1.
         13    1    4    4    0    0 -0.31273950467E+02  0.56404598783E+03 -0.17013477826E+03  0.58997609299E+03  0.10566000000E+00 0. -1.
         -4    1    4    4    0  501  0.27136710575E+03 -0.36924771078E+03  0.10065607738E+03  0.46916481530E+03  0.00000000000E+00 0. -1.
<mgrwt>
<rscale>  2 0.10596374E+04</rscale>
<asrwt>0</asrwt>
<pdfrwt beam="1">  1        1 0.18399601E+00 0.10596374E+04</pdfrwt>
<pdfrwt beam="2">  1       -1 0.14873457E+00 0.10596374E+04</pdfrwt>
<totfact> 0.56796895E+00</totfact>
</mgrwt>
</event>
<event>
 8    1  0.1373409E-005  0.1539637E+04  0.7818608E-02  0.8387047E-01
          2   -1    0    0  502    0  0.00000000000E+00  0.00000000000E+00  0.31286159246E+04  0.31286159246E+04  0.00000000000E+00 0.  1.
         -2   -1    0    0    0  501 -0.00000000000E+00 -0.00000000000E+00 -0.75937866991E+03  0.75937866991E+03  0.00000000000E+00 0. -1.
    9000010    2    1    2  502    0  0.11741308347E+04 -0.22729261150E+02  0.12691305170E+04  0.19884582534E+04  0.98192368326E+03 0.  0.
   -9000010    2    1    2    0  501 -0.11741308347E+04  0.22729261150E+02  0.11001067376E+04  0.18995363411E+04  0.10094075691E+04 0.  0.
        -13    1    3    3    0    0  0.33991806142E+03  0.43874036688E+03  0.63555782956E+03  0.84378383719E+03  0.10566000000E+00 0.  1.
          4    1    3    3  502    0  0.83421277332E+03 -0.46146962803E+03  0.63357268746E+03  0.11446744162E+04  0.00000000000E+00 0.  1.
         13    1    4    4    0    0 -0.23854063141E+03  0.13655083855E+03 -0.16603786453E+03  0.32111734298E+03  0.10566000000E+00 0. -1.
         -4    1    4    4    0  501 -0.93559020334E+03 -0.11382157740E+03  0.12661446022E+04  0.15784189981E+04  0.00000000000E+00 0. -1.
<mgrwt>
<rscale>  2 0.15396366E+04</rscale>
<asrwt>0</asrwt>
<pdfrwt beam="1">  1        2 0.48132552E+00 0.15396366E+04</pdfrwt>
<pdfrwt beam="2">  1       -2 0.11682749E+00 0.15396366E+04</pdfrwt>
<totfact> 0.12189034E+00</totfact>
</mgrwt>
</event>
<event>
 8    1  0.1373409E-005  0.1551249E+04  0.7818608E-02  0.8380601E-01
          1   -1    0    0  502    0  0.00000000000E+00  0.00000000000E+00  0.22451339073E+04  0.22451339073E+04  0.00000000000E+00 0. -1.
         -1   -1    0    0    0  501 -0.00000000000E+00 -0.00000000000E+00 -0.11872213256E+04  0.11872213256E+04  0.00000000000E+00 0.  1.
    9000010    2    1    2  502    0  0.10209470194E+04 -0.58015770014E+03  0.10670260421E+04  0.18911793376E+04  0.10291253272E+04 0.  0.
   -9000010    2    1    2    0  501 -0.10209470194E+04  0.58015770014E+03 -0.91134603921E+01  0.15411758953E+04  0.99811037042E+03 0.  0.
        -13    1    3    3    0    0  0.76213856555E+03 -0.21325070324E+03  0.11868035454E+04  0.14264759802E+04  0.10566000000E+00 0.  1.
          4    1    3    3  502    0  0.25880845383E+03 -0.36690699690E+03 -0.11977750327E+03  0.46470335747E+03  0.00000000000E+00 0.  1.
         13    1    4    4    0    0 -0.19688349773E+03  0.22973394536E+02 -0.42037153398E+03  0.46476136487E+03  0.10566000000E+00 0. -1.
         -4    1    4    4    0  501 -0.82406352165E+03  0.55718430561E+03  0.41125807358E+03  0.10764145304E+04  0.00000000000E+00 0. -1.
<mgrwt>
<rscale>  2 0.15512485E+04</rscale>
<asrwt>0</asrwt>
<pdfrwt beam="1">  1        1 0.34540522E+00 0.15512485E+04</pdfrwt>
<pdfrwt beam="2">  1       -1 0.18264943E+00 0.15512485E+04</pdfrwt>
<totfact> 0.43122473E-01</totfact>
</mgrwt>
</event>
<event>
 8    1  0.1373409E-005  0.1591740E+04  0.7818608E-02  0.8358575E-01
          2   -1    0    0  502    0  0.00000000000E+00  0.00000000000E+00  0.21825695449E+04  0.21825695449E+04  0.00000000000E+00 0.  1.
         -2   -1    0    0    0  501 -0.00000000000E+00 -0.00000000000E+00 -0.12107746275E+04  0.12107746275E+04  0.00000000000E+00 0. -1.
    9000010    2    1    2  502    0  0.12127517836E+04 -0.25325556951E+02  0.14329533077E+03  0.16045146706E+04  0.10404448586E+04 0.  0.
   -9000010    2    1    2    0  501 -0.12127517836E+04  0.25325556951E+02  0.82849958656E+03  0.17888295018E+04  0.10208286581E+04 0.  0.
        -13    1    3    3    0    0  0.32668543834E+03 -0.48577981755E+03 -0.49532517081E+02  0.58750224525E+03  0.10566000000E+00 0.  1.
          4    1    3    3  502    0  0.88606634526E+03  0.46045426060E+03  0.19282784786E+03  0.10170124253E+04  0.00000000000E+00 0.  1.
         13    1    4    4    0    0 -0.16222793919E+03 -0.40426142178E+03  0.12365468230E+03  0.45280867153E+03  0.10566000000E+00 0. -1.
         -4    1    4    4    0  501 -0.10505238444E+04  0.42958697873E+03  0.70484490426E+03  0.13360208303E+04  0.00000000000E+00 0. -1.
<mgrwt>
<rscale>  2 0.15917399E+04</rscale>
<asrwt>0</asrwt>
<pdfrwt beam="1">  1        2 0.33577993E+00 0.15917399E+04</pdfrwt>
<pdfrwt beam="2">  1       -2 0.18627302E+00 0.15917399E+04</pdfrwt>
<totfact> 0.10498965E+00</totfact>
</mgrwt>
</event>
<event>
 8    1  0.1373409E-005  0.1313526E+04  0.7818608E-02  0.8525651E-01
         -1   -1    0    0    0  501 -0.00000000000E+00  0.00000000000E+00  0.15098518093E+04  0.15098518093E+04  0.00000000000E+00 0. -1.
          1   -1    0    0  502    0  0.00000000000E+00 -0.00000000000E+00 -0.11514869459E+04  0.11514869459E+04  0.00000000000E+00 0.  1.
    9000010    2    1    2  502    0  0.72661354396E+03 -0.37596887882E+03  0.29212685407E+03  0.13307876615E+04  0.10081358346E+04 0.  0.
   -9000010    2    1    2    0  501 -0.72661354396E+03  0.37596887882E+03  0.66238009379E+02  0.13305510937E+04  0.10472148294E+04 0.  0.
        -13    1    3    3    0    0  0.17010445142E+03  0.19879759386E+03  0.44505535950E+03  0.51626571831E+03  0.10566000000E+00 0.  1.
          4    1    3    3  502    0  0.55650909254E+03 -0.57476647268E+03 -0.15292850544E+03  0.81452194321E+03  0.00000000000E+00 0.  1.
         13    1    4    4    0    0  0.89607808658E+02 -0.44411387261E+02 -0.31943109419E+03  0.33472102682E+03  0.10566000000E+00 0. -1.
         -4    1    4    4    0  501 -0.81622135261E+03  0.42038026608E+03  0.38566910357E+03  0.99583006684E+03  0.00000000000E+00 0. -1.
<mgrwt>
<rscale>  2 0.13135261E+04</rscale>
<asrwt>0</asrwt>
<pdfrwt beam="2">  1        1 0.17715184E+00 0.13135261E+04</pdfrwt>
<pdfrwt beam="1">  1       -1 0.23228489E+00 0.13135261E+04</pdfrwt>
<totfact> 0.10730738E+00</totfact>
</mgrwt>
</event>
<event>
 8    1  0.1373409E-005  0.1350829E+04  0.7818608E-02  0.8500890E-01
         -2   -1    0    0    0  501 -0.00000000000E+00  0.00000000000E+00  0.52557512721E+03  0.52557512721E+03  0.00000000000E+00 0. -1.
          2   -1    0    0  502    0  0.00000000000E+00 -0.00000000000E+00 -0.36958268245E+04  0.36958268245E+04  0.00000000000E+00 0.  1.
    9000010    2    1    2  502    0  0.26655626852E+03  0.86206055937E+03 -0.21070379620E+04  0.25040274615E+04  0.10081388309E+04 0.  0.
   -9000010    2    1    2    0  501 -0.26655626852E+03 -0.86206055937E+03 -0.10632137353E+04  0.17173744902E+04  0.10023727053E+04 0.  0.
        -13    1    3    3    0    0 -0.15938863931E+03  0.89274793960E+03 -0.12260563072E+04  0.15249976071E+04  0.10566000000E+00 0.  1.
          4    1    3    3  502    0  0.42594490783E+03 -0.30687380228E+02 -0.88098165476E+03  0.97902985441E+03  0.00000000000E+00 0.  1.
         13    1    4    4    0    0  0.27212072071E+03 -0.70703060917E+03 -0.42772611686E+03  0.86999517880E+03  0.10566000000E+00 0. -1.
         -4    1    4    4    0  501 -0.53867698923E+03 -0.15502995021E+03 -0.63548761843E+03  0.84737931139E+03  0.00000000000E+00 0. -1.
<mgrwt>
<rscale>  2 0.13508290E+04</rscale>
<asrwt>0</asrwt>
<pdfrwt beam="2">  1        2 0.56858874E+00 0.13508290E+04</pdfrwt>
<pdfrwt beam="1">  1       -2 0.80857713E-01 0.13508290E+04</pdfrwt>
<totfact> 0.11786562E+00</totfact>
</mgrwt>
</event>
<event>
 8    1  0.1373409E-005  0.1333138E+04  0.7818608E-02  0.8512529E-01
          2   -1    0    0  502    0  0.00000000000E+00  0.00000000000E+00  0.39369054557E+03  0.39369054557E+03  0.00000000000E+00 0.  1.
         -2   -1    0    0    0  501 -0.00000000000E+00 -0.00000000000E+00 -0.46619233875E+04  0.46619233875E+04  0.00000000000E+00 0. -1.
    9000010    2    1    2  502    0  0.71280341440E+03 -0.48953168788E+03 -0.26005811803E+04  0.29274790807E+04  0.10292625087E+04 0.  0.
   -9000010    2    1    2    0  501 -0.71280341440E+03  0.48953168788E+03 -0.16676516617E+04  0.21281348524E+04  0.10000829486E+04 0.  0.
        -13    1    3    3    0    0  0.45687348987E+03  0.18021183554E+03 -0.17367929641E+04  0.18048987514E+04  0.10566000000E+00 0.  1.
          4    1    3    3  502    0  0.25592992453E+03 -0.66974352343E+03 -0.86378821619E+03  0.11225803294E+04  0.00000000000E+00 0.  1.
         13    1    4    4    0    0 -0.83652485065E+03  0.52632483384E+03 -0.17240741678E+04  0.19872653078E+04  0.10566000000E+00 0. -1.
         -4    1    4    4    0  501  0.12372143625E+03 -0.36793145953E+02  0.56422506136E+02  0.14086954453E+03  0.00000000000E+00 0. -1.
<mgrwt>
<rscale>  2 0.13331380E+04</rscale>
<asrwt>0</asrwt>
<pdfrwt beam="1">  1        2 0.60567778E-01 0.13331380E+04</pdfrwt>
<pdfrwt beam="2">  1       -2 0.71721896E+00 0.13331380E+04</pdfrwt>
<totfact> 0.79316920E-02</totfact>
</mgrwt>
</event>
<event>
 8    1  0.1373409E-005  0.1305214E+04  0.7818608E-02  0.8531284E-01
          1   -1    0    0  502    0  0.00000000000E+00  0.00000000000E+00  0.19074752957E+04  0.19074752957E+04  0.00000000000E+00 0.  1.
         -1   -1    0    0    0  501 -0.00000000000E+00 -0.00000000000E+00 -0.15033701963E+04  0.15033701963E+04  0.00000000000E+00 0. -1.
    9000010    2    1    2  502    0  0.79733944220E+03  0.27470177234E+03  0.12883583292E+04  0.18319816468E+04  0.99251111826E+03 0.  0.
   -9000010    2    1    2    0  501 -0.79733944220E+03 -0.27470177234E+03 -0.88425322984E+03  0.15788638453E+04  0.99984799724E+03 0.  0.
        -13    1    3    3    0    0  0.64494443978E+03 -0.27815002472E+03  0.88983029908E+03  0.11336307772E+04  0.10566000000E+00 0.  1.
          4    1    3    3  502    0  0.15239500243E+03  0.55285179706E+03  0.39852803017E+03  0.69835086963E+03  0.00000000000E+00 0.  1.
         13    1    4    4    0    0 -0.11235240361E+03 -0.49369177324E+03 -0.64707457217E+03  0.82162043711E+03  0.10566000000E+00 0. -1.
         -4    1    4    4    0  501 -0.68498703860E+03  0.21899000090E+03 -0.23717865767E+03  0.75724340816E+03  0.00000000000E+00 0. -1.
<mgrwt>
<rscale>  2 0.13052137E+04</rscale>
<asrwt>0</asrwt>
<pdfrwt beam="1">  1        1 0.29345774E+00 0.13052137E+04</pdfrwt>
<pdfrwt beam="2">  1       -1 0.23128772E+00 0.13052137E+04</pdfrwt>
<totfact> 0.29612725E-01</totfact>
</mgrwt>
</event>
<event>
 8    1  0.1373409E-005  0.1449778E+04  0.7818608E-02  0.8439002E-01
         -2   -1    0    0    0  501 -0.00000000000E+00  0.00000000000E+00  0.57029096989E+03  0.57029096989E+03  0.00000000000E+00 0. -1.
          2   -1    0    0  502    0  0.00000000000E+00 -0.00000000000E+00 -0.37128351268E+04  0.37128351268E+04  0.00000000000E+00 0.  1.
    9000010    2    1    2  502    0 -0.93163866305E+03  0.47904723692E+03 -0.17559084042E+04  0.22777712836E+04  0.10037882461E+04 0.  0.
   -9000010    2    1    2    0  501  0.93163866305E+03 -0.47904723692E+03 -0.13866357527E+04  0.20053548130E+04  0.10006259850E+04 0.  0.
        -13    1    3    3    0    0 -0.81714877414E+03  0.62931848481E+03 -0.80521554355E+03  0.13084899530E+04  0.10566000000E+00 0.  1.
          4    1    3    3  502    0 -0.11448988892E+03 -0.15027124789E+03 -0.95069286066E+03  0.96928133064E+03  0.00000000000E+00 0.  1.
         13    1    4    4    0    0  0.29390392099E+03  0.24629784280E+03 -0.76793034014E+03  0.85834676012E+03  0.10566000000E+00 0. -1.
         -4    1    4    4    0  501  0.63773474206E+03 -0.72534507972E+03 -0.61870541252E+03  0.11470080529E+04  0.00000000000E+00 0. -1.
<mgrwt>
<rscale>  2 0.14497779E+04</rscale>
<asrwt>0</asrwt>
<pdfrwt beam="2">  1        2 0.57120537E+00 0.14497779E+04</pdfrwt>
<pdfrwt beam="1">  1       -2 0.87737077E-01 0.14497779E+04</pdfrwt>
<totfact> 0.93742935E-01</totfact>
</mgrwt>
</event>
<event>
 8    1  0.1373409E-005  0.1303716E+04  0.7818608E-02  0.8532303E-01
          1   -1    0    0  502    0  0.00000000000E+00  0.00000000000E+00  0.14471030260E+04  0.14471030260E+04  0.00000000000E+00 0.  1.
         -1   -1    0    0    0  501 -0.00000000000E+00 -0.00000000000E+00 -0.11961846229E+04  0.11961846229E+04  0.00000000000E+00 0. -1.
    9000010    2    1    2  502    0 -0.16183841427E+02 -0.84108251966E+03 -0.50821489202E+02  0.13165587454E+04  0.10114654639E+04 0.  0.
   -9000010    2    1    2    0  501  0.16183841427E+02  0.84108251966E+03  0.30173989231E+03  0.13267289035E+04  0.98055132404E+03 0.  0.
        -13    1    3    3    0    0  0.32234297698E+03  0.54369392737E+02 -0.13895699394E+03  0.35520428348E+03  0.10566000000E+00 0.  1.
          4    1    3    3  502    0 -0.33852681840E+03 -0.89545191240E+03  0.88135504739E+02  0.96135446189E+03  0.00000000000E+00 0.  1.
         13    1    4    4    0    0 -0.19069826439E+03 -0.16788625638E+03  0.11950021337E+03  0.28077025356E+03  0.10566000000E+00 0. -1.
         -4    1    4    4    0  501  0.20688210582E+03  0.10089687760E+04  0.18223967894E+03  0.10459586499E+04  0.00000000000E+00 0. -1.
<mgrwt>
<rscale>  2 0.13037156E+04</rscale>
<asrwt>0</asrwt>
<pdfrwt beam="1">  1        1 0.22263124E+00 0.13037156E+04</pdfrwt>
<pdfrwt beam="2">  1       -1 0.18402840E+00 0.13037156E+04</pdfrwt>
<totfact> 0.17588561E+00</totfact>
</mgrwt>
</event>
<event>
 8    1  0.1373409E-005  0.1288903E+04  0.7818608E-02  0.8542464E-01
          4   -1    0    0  502    0  0.00000000000E+00  0.00000000000E+00  0.76662692836E+03  0.76662692836E+03  0.00000000000E+00 0. -1.
         -4   -1    0    0    0  501 -0.00000000000E+00 -0.00000000000E+00 -0.26023629384E+04  0.26023629384E+04  0.00000000000E+00 0.  1.
    9000010    2    1    2  502    0 -0.46663886883E+03 -0.67313598815E+03 -0.16110410397E+04  0.20676654192E+04  0.10044516722E+04 0.  0.
   -9000010    2    1    2    0  501  0.46663886883E+03  0.67313598815E+03 -0.22469497040E+03  0.13013244476E+04  0.98594806952E+03 0.  0.
        -13    1    3    3    0    0 -0.30415333658E+03 -0.92344919615E+03 -0.13900560315E+04  0.16963264580E+04  0.10566000000E+00 0.  1.
          4    1    3    3  502    0 -0.16248553224E+03  0.25031320800E+03 -0.22098500812E+03  0.37133896120E+03  0.00000000000E+00 0.  1.
         13    1    4    4    0    0 -0.56961193585E+02  0.33712526486E+03  0.32455973947E+03  0.47142025565E+03  0.10566000000E+00 0. -1.
         -4    1    4    4    0  501  0.52360006241E+03  0.33601072329E+03 -0.54925470987E+03  0.82990419196E+03  0.00000000000E+00 0. -1.
<mgrwt>
<rscale>  2 0.12889027E+04</rscale>
<asrwt>0</asrwt>
<pdfrwt beam="1">  1        4 0.11794261E+00 0.12889027E+04</pdfrwt>
<pdfrwt beam="2">  1       -4 0.40036352E+00 0.12889027E+04</pdfrwt>
<totfact> 0.10202033E-01</totfact>
</mgrwt>
</event>
<event>
 8    1  0.1373409E-005  0.1490872E+04  0.7818608E-02  0.8414772E-01
          4   -1    0    0  502    0  0.00000000000E+00  0.00000000000E+00  0.84657345572E+03  0.84657345572E+03  0.00000000000E+00 0. -1.
         -4   -1    0    0    0  501 -0.00000000000E+00 -0.00000000000E+00 -0.26391359533E+04  0.26391359533E+04  0.00000000000E+00 0.  1.
    9000010    2    1    2  502    0  0.65984867214E+03  0.97461677216E+03 -0.10201622588E+04  0.18047623561E+04  0.91167867433E+03 0.  0.
   -9000010    2    1    2    0  501 -0.65984867214E+03 -0.97461677216E+03 -0.77240023880E+03  0.16809470529E+04  0.91853292967E+03 0.  0.
        -13    1    3    3    0    0  0.51974383268E+03  0.11471064633E+04 -0.80016253642E+03  0.14920613210E+04  0.10566000000E+00 0.  1.
          4    1    3    3  502    0  0.14010483946E+03 -0.17248969109E+03 -0.21999972233E+03  0.31270103517E+03  0.00000000000E+00 0.  1.
         13    1    4    4    0    0 -0.80173268506E+03 -0.41418830611E+03 -0.57518500177E+03  0.10701238473E+04  0.10566000000E+00 0. -1.
         -4    1    4    4    0  501  0.14188401292E+03 -0.56042846605E+03 -0.19721523703E+03  0.61082320552E+03  0.00000000000E+00 0. -1.
<mgrwt>
<rscale>  2 0.14908721E+04</rscale>
<asrwt>0</asrwt>
<pdfrwt beam="1">  1        4 0.13024207E+00 0.14908721E+04</pdfrwt>
<pdfrwt beam="2">  1       -4 0.40602090E+00 0.14908721E+04</pdfrwt>
<totfact> 0.80951930E-02</totfact>
</mgrwt>
</event>
<event>
 8    1  0.1373409E-005  0.1110539E+04  0.7818608E-02  0.8677157E-01
          2   -1    0    0  502    0  0.00000000000E+00  0.00000000000E+00  0.29547434673E+04  0.29547434673E+04  0.00000000000E+00 0.  1.
         -2   -1    0    0    0  501 -0.00000000000E+00 -0.00000000000E+00 -0.46945272056E+03  0.46945272056E+03  0.00000000000E+00 0. -1.
    9000010    2    1    2  502    0  0.13792904932E+03  0.45638238478E+03  0.18140931994E+04  0.21277175995E+04  0.10044594284E+04 0.  0.
   -9000010    2    1    2    0  501 -0.13792904932E+03 -0.45638238478E+03  0.67119754735E+03  0.12964785884E+04  0.10015194850E+04 0.  0.
        -13    1    3    3    0    0  0.16442156942E+03 -0.28415642366E+03  0.85393400470E+03  0.91486754295E+03  0.10566000000E+00 0.  1.
          4    1    3    3  502    0 -0.26492520105E+02  0.74053880844E+03  0.96015919472E+03  0.12128500565E+04  0.00000000000E+00 0.  1.
         13    1    4    4    0    0  0.23821507242E+03  0.20636462458E+03  0.34575870257E+03  0.46784812768E+03  0.10566000000E+00 0. -1.
         -4    1    4    4    0  501 -0.37614412174E+03 -0.66274700936E+03  0.32543884478E+03  0.82863046071E+03  0.00000000000E+00 0. -1.
<mgrwt>
<rscale>  2 0.11105385E+04</rscale>
<asrwt>0</asrwt>
<pdfrwt beam="1">  1        2 0.45457591E+00 0.11105385E+04</pdfrwt>
<pdfrwt beam="2">  1       -2 0.72223497E-01 0.11105385E+04</pdfrwt>
<totfact> 0.50605233E+00</totfact>
</mgrwt>
</event>
<event>
 8    1  0.1373409E-005  0.1214116E+04  0.7818608E-02  0.8596007E-01
         -1   -1    0    0    0  501 -0.00000000000E+00  0.00000000000E+00  0.83193839689E+03  0.83193839689E+03  0.00000000000E+00 0.  1.
          1   -1    0    0  502    0  0.00000000000E+00 -0.00000000000E+00 -0.19020795781E+04  0.19020795781E+04  0.00000000000E+00 0. -1.
    9000010    2    1    2  502    0  0.49890497033E+03  0.38993540759E+03 -0.18851533784E+03  0.12531335359E+04  0.10648238514E+04 0.  0.
   -9000010    2    1    2    0  501 -0.49890497033E+03 -0.38993540759E+03 -0.88162584340E+03  0.14808844392E+04  0.10073722266E+04 0.  0.
        -13    1    3    3    0    0  0.24851165489E+03  0.48740084352E+03  0.35127713016E+03  0.65016402409E+03  0.10566000000E+00 0.  1.
          4    1    3    3  502    0  0.25039331544E+03 -0.97465435935E+02 -0.53979246801E+03  0.60296951178E+03  0.00000000000E+00 0.  1.
         13    1    4    4    0    0 -0.48132802583E+03 -0.35906405062E+03 -0.19644902826E+01  0.60050606265E+03  0.10566000000E+00 0. -1.
         -4    1    4    4    0  501 -0.17576944502E+02 -0.30871356967E+02 -0.87966135312E+03  0.88037837651E+03  0.00000000000E+00 0. -1.
<mgrwt>
<rscale>  2 0.12141164E+04</rscale>
<asrwt>0</asrwt>
<pdfrwt beam="2">  1        1 0.29262763E+00 0.12141164E+04</pdfrwt>
<pdfrwt beam="1">  1       -1 0.12799052E+00 0.12141164E+04</pdfrwt>
<totfact> 0.25013866E+00</totfact>
</mgrwt>
</event>
<event>
 8    1  0.1373409E-005  0.1271904E+04  0.7818608E-02  0.8554299E-01
         -2   -1    0    0    0  501 -0.00000000000E+00  0.00000000000E+00  0.11256670500E+04  0.11256670500E+04  0.00000000000E+00 0. -1.
          2   -1    0    0  502    0  0.00000000000E+00 -0.00000000000E+00 -0.16808177520E+04  0.16808177520E+04  0.00000000000E+00 0.  1.
    9000010    2    1    2  502    0  0.10746788622E+00 -0.77366394343E+03 -0.81158029668E+03  0.15074738609E+04  0.10076005928E+04 0.  0.
   -9000010    2    1    2    0  501 -0.10746788622E+00  0.77366394343E+03  0.25642959469E+03  0.12990109411E+04  0.10114926491E+04 0.  0.
        -13    1    3    3    0    0 -0.29621152633E+03  0.11995170211E+03 -0.12913511834E+03  0.34468183753E+03  0.10566000000E+00 0.  1.
          4    1    3    3  502    0  0.29631899422E+03 -0.89361564554E+03 -0.68244517834E+03  0.11627920234E+04  0.00000000000E+00 0.  1.
         13    1    4    4    0    0 -0.39280365719E+03  0.61863618046E+03 -0.10870942690E+03  0.74082601705E+03  0.10566000000E+00 0. -1.
         -4    1    4    4    0  501  0.39269618930E+03  0.15502776297E+03  0.36513902159E+03  0.55818492408E+03  0.00000000000E+00 0. -1.
<mgrwt>
<rscale>  2 0.12719038E+04</rscale>
<asrwt>0</asrwt>
<pdfrwt beam="2">  1        2 0.25858734E+00 0.12719038E+04</pdfrwt>
<pdfrwt beam="1">  1       -2 0.17317955E+00 0.12719038E+04</pdfrwt>
<totfact> 0.26276834E+00</totfact>
</mgrwt>
</event>
<event>
 8    1  0.1373409E-005  0.1029704E+04  0.7818608E-02  0.8747172E-01
          1   -1    0    0  502    0  0.00000000000E+00  0.00000000000E+00  0.12661967412E+04  0.12661967412E+04  0.00000000000E+00 0. -1.
         -1   -1    0    0    0  501 -0.00000000000E+00 -0.00000000000E+00 -0.83866284548E+03  0.83866284548E+03  0.00000000000E+00 0.  1.
    9000010    2    1    2  502    0  0.29737211562E+03  0.24015495190E+02  0.19354538513E+03  0.10783844916E+04  0.10180601045E+04 0.  0.
   -9000010    2    1    2    0  501 -0.29737211562E+03 -0.24015495190E+02  0.23398851058E+03  0.10264750951E+04  0.95388341981E+03 0.  0.
        -13    1    3    3    0    0  0.72869434367E+02  0.31695381390E+03 -0.31318022310E+03  0.45149921142E+03  0.10566000000E+00 0.  1.
          4    1    3    3  502    0  0.22450268125E+03 -0.29293831871E+03  0.50672560823E+03  0.62688528017E+03  0.00000000000E+00 0.  1.
         13    1    4    4    0    0 -0.17192134204E+03  0.59647968018E+02  0.60192902083E+03  0.62883494274E+03  0.10566000000E+00 0. -1.
         -4    1    4    4    0  501 -0.12545077358E+03 -0.83663463207E+02 -0.36794051025E+03  0.39764015234E+03  0.00000000000E+00 0. -1.
<mgrwt>
<rscale>  2 0.10297041E+04</rscale>
<asrwt>0</asrwt>
<pdfrwt beam="1">  1        1 0.19479950E+00 0.10297041E+04</pdfrwt>
<pdfrwt beam="2">  1       -1 0.12902505E+00 0.10297041E+04</pdfrwt>
<totfact> 0.74798911E+00</totfact>
</mgrwt>
</event>
<event>
 8    1  0.1373409E-005  0.1451445E+04  0.7818608E-02  0.8438003E-01
          2   -1    0    0  502    0  0.00000000000E+00  0.00000000000E+00  0.27120831876E+04  0.27120831876E+04  0.00000000000E+00 0.  1.
         -2   -1    0    0    0  501 -0.00000000000E+00 -0.00000000000E+00 -0.10610987079E+04  0.10610987079E+04  0.00000000000E+00 0. -1.
    9000010    2    1    2  502    0 -0.64671669843E+03 -0.77718555917E+03  0.18185338112E+04  0.23543067671E+04  0.11015603705E+04 0.  0.
   -9000010    2    1    2    0  501  0.64671669843E+03  0.77718555917E+03 -0.16754933150E+03  0.14188751283E+04  0.98126141772E+03 0.  0.
        -13    1    3    3    0    0 -0.66213503618E+03  0.92543289476E+01  0.11260425554E+04  0.13063231976E+04  0.10566000000E+00 0.  1.
          4    1    3    3  502    0  0.15418337756E+02 -0.78643988812E+03  0.69249125578E+03  0.10479835696E+04  0.00000000000E+00 0.  1.
         13    1    4    4    0    0  0.41027529981E+03  0.66179439875E+03  0.33809008931E+03  0.84888312947E+03  0.10566000000E+00 0. -1.
         -4    1    4    4    0  501  0.23644139862E+03  0.11539116042E+03 -0.50563942081E+03  0.56999199886E+03  0.00000000000E+00 0. -1.
<mgrwt>
<rscale>  2 0.14514450E+04</rscale>
<asrwt>0</asrwt>
<pdfrwt beam="1">  1        2 0.41724356E+00 0.14514450E+04</pdfrwt>
<pdfrwt beam="2">  1       -2 0.16324596E+00 0.14514450E+04</pdfrwt>
<totfact> 0.83730177E-01</totfact>
</mgrwt>
</event>
<event>
 8    1  0.1373409E-005  0.1116462E+04  0.7818608E-02  0.8672271E-01
         -2   -1    0    0    0  501 -0.00000000000E+00  0.00000000000E+00  0.55236233014E+03  0.55236233014E+03  0.00000000000E+00 0. -1.
          2   -1    0    0  502    0  0.00000000000E+00 -0.00000000000E+00 -0.22604662068E+04  0.22604662068E+04  0.00000000000E+00 0.  1.
    9000010    2    1    2  502    0 -0.22217513449E+02 -0.51012683475E+03 -0.91735824180E+03  0.14516465021E+04  0.10025010812E+04 0.  0.
   -9000010    2    1    2    0  501  0.22217513449E+02  0.51012683475E+03 -0.79074563483E+03  0.13611820348E+04  0.98326744450E+03 0.  0.
        -13    1    3    3    0    0  0.19692651506E+02 -0.41442463961E+03  0.10175810493E+03  0.42718884059E+03  0.10566000000E+00 0.  1.
          4    1    3    3  502    0 -0.41910164955E+02 -0.95702195144E+02 -0.10191163467E+04  0.10244576615E+04  0.00000000000E+00 0.  1.
         13    1    4    4    0    0 -0.19204583313E+03  0.24187903095E+03  0.16179461867E+03  0.34866112119E+03  0.10566000000E+00 0. -1.
         -4    1    4    4    0  501  0.21426334658E+03  0.26824780381E+03 -0.95254025351E+03  0.10125209136E+04  0.00000000000E+00 0. -1.
<mgrwt>
<rscale>  2 0.11164624E+04</rscale>
<asrwt>0</asrwt>
<pdfrwt beam="2">  1        2 0.34776403E+00 0.11164624E+04</pdfrwt>
<pdfrwt beam="1">  1       -2 0.84978821E-01 0.11164624E+04</pdfrwt>
<totfact> 0.88857286E+00</totfact>
</mgrwt>
</event>
<event>
 8    1  0.1373409E-005  0.1262105E+04  0.7818608E-02  0.8561208E-01
          2   -1    0    0  502    0  0.00000000000E+00  0.00000000000E+00  0.17871977222E+04  0.17871977222E+04  0.00000000000E+00 0. -1.
         -2   -1    0    0    0  501 -0.00000000000E+00 -0.00000000000E+00 -0.89143526576E+03  0.89143526576E+03  0.00000000000E+00 0.  1.
    9000010    2    1    2  502    0  0.59041155052E+03 -0.48506937861E+03  0.46575472398E+03  0.13476904496E+04  0.10077023291E+04 0.  0.
   -9000010    2    1    2    0  501 -0.59041155052E+03  0.48506937861E+03  0.43000773247E+03  0.13309425384E+04  0.10013107856E+04 0.  0.
        -13    1    3    3    0    0  0.16651322019E+03  0.30902089547E+03  0.44467260012E+02  0.35383317356E+03  0.10566000000E+00 0.  1.
          4    1    3    3  502    0  0.42389833033E+03 -0.79409027408E+03  0.42128746397E+03  0.99385727604E+03  0.00000000000E+00 0.  1.
         13    1    4    4    0    0  0.13943104921E+03  0.36356945770E+03 -0.12174558624E+03  0.40797765502E+03  0.10566000000E+00 0. -1.
         -4    1    4    4    0  501 -0.72984259973E+03  0.12149992091E+03  0.55175331871E+03  0.92296488333E+03  0.00000000000E+00 0. -1.
<mgrwt>
<rscale>  2 0.12621049E+04</rscale>
<asrwt>0</asrwt>
<pdfrwt beam="1">  1        2 0.27495350E+00 0.12621049E+04</pdfrwt>
<pdfrwt beam="2">  1       -2 0.13714389E+00 0.12621049E+04</pdfrwt>
<totfact> 0.47483875E+00</totfact>
</mgrwt>
</event>
<event>
 8    1  0.1373409E-005  0.1378694E+04  0.7818608E-02  0.8482925E-01
         -2   -1    0    0    0  501 -0.00000000000E+00  0.00000000000E+00  0.56184771665E+03  0.56184771665E+03  0.00000000000E+00 0. -1.
          2   -1    0    0  502    0  0.00000000000E+00 -0.00000000000E+00 -0.39572350493E+04  0.39572350493E+04  0.00000000000E+00 0.  1.
    9000010    2    1    2  502    0 -0.47987373853E+03  0.65958080953E+03 -0.94568117174E+03  0.17501324746E+04  0.12261016070E+04 0.  0.
   -9000010    2    1    2    0  501  0.47987373853E+03 -0.65958080953E+03 -0.24497061609E+04  0.27689502914E+04  0.10003498349E+04 0.  0.
        -13    1    3    3    0    0 -0.61408113917E+03 -0.16562751446E+03 -0.43250858982E+03  0.76915005718E+03  0.10566000000E+00 0.  1.
          4    1    3    3  502    0  0.13420740064E+03  0.82520832399E+03 -0.51317258191E+03  0.98098241738E+03  0.00000000000E+00 0.  1.
         13    1    4    4    0    0  0.17939666240E+03  0.81357789844E+02 -0.15615281865E+04  0.15739035996E+04  0.10566000000E+00 0. -1.
         -4    1    4    4    0  501  0.30047707613E+03 -0.74093859937E+03 -0.88817797439E+03  0.11950466918E+04  0.00000000000E+00 0. -1.
<mgrwt>
<rscale>  2 0.13786938E+04</rscale>
<asrwt>0</asrwt>
<pdfrwt beam="2">  1        2 0.60880540E+00 0.13786938E+04</pdfrwt>
<pdfrwt beam="1">  1       -2 0.86438109E-01 0.13786938E+04</pdfrwt>
<totfact> 0.61301080E-01</totfact>
</mgrwt>
</event>
<event>
 8    1  0.1373409E-005  0.2595511E+04  0.7818608E-02  0.7961563E-01
          2   -1    0    0  502    0  0.00000000000E+00  0.00000000000E+00  0.18813108404E+04  0.18813108404E+04  0.00000000000E+00 0. -1.
         -2   -1    0    0    0  501 -0.00000000000E+00 -0.00000000000E+00 -0.36151340954E+04  0.36151340954E+04  0.00000000000E+00 0.  1.
    9000010    2    1    2  502    0  0.68788969762E+03  0.22957214876E+04 -0.11345941305E+04  0.28327135148E+04  0.99671090643E+03 0.  0.
   -9000010    2    1    2    0  501 -0.68788969762E+03 -0.22957214876E+04 -0.59922912444E+03  0.26637314211E+04  0.99642368263E+03 0.  0.
        -13    1    3    3    0    0 -0.49966099751E+02  0.13932941381E+04 -0.84974074728E+03  0.16327352863E+04  0.10566000000E+00 0.  1.
          4    1    3    3  502    0  0.73785579738E+03  0.90242734950E+03 -0.28485338326E+03  0.11999782285E+04  0.00000000000E+00 0.  1.
         13    1    4    4    0    0 -0.81952210452E+03 -0.22582385820E+04 -0.69003635239E+03  0.24994815766E+04  0.10566000000E+00 0. -1.
         -4    1    4    4    0  501  0.13163240689E+03 -0.37482905579E+02  0.90807227944E+02  0.16424984445E+03  0.00000000000E+00 0. -1.
<mgrwt>
<rscale>  2 0.25955107E+04</rscale>
<asrwt>0</asrwt>
<pdfrwt beam="1">  1        2 0.28943244E+00 0.25955107E+04</pdfrwt>
<pdfrwt beam="2">  1       -2 0.55617447E+00 0.25955107E+04</pdfrwt>
<totfact> 0.42844173E-02</totfact>
</mgrwt>
</event>
<event>
 8    1  0.1373409E-005  0.1095380E+04  0.7818608E-02  0.8689803E-01
          2   -1    0    0  502    0  0.00000000000E+00  0.00000000000E+00  0.30794205748E+04  0.30794205748E+04  0.00000000000E+00 0. -1.
         -2   -1    0    0    0  501 -0.00000000000E+00 -0.00000000000E+00 -0.38990141376E+03  0.38990141376E+03  0.00000000000E+00 0.  1.
    9000010    2    1    2  502    0  0.34320735687E+03  0.25534624924E+03  0.13893820324E+04  0.17690022529E+04  0.10079650500E+04 0.  0.
   -9000010    2    1    2    0  501 -0.34320735687E+03 -0.25534624924E+03  0.13001371287E+04  0.17003197357E+04  0.10088298436E+04 0.  0.
        -13    1    3    3    0    0  0.62986371519E+01  0.64272247678E+02  0.13800599181E+04  0.13815701152E+04  0.10566000000E+00 0.  1.
          4    1    3    3  502    0  0.33690871972E+03  0.19107400157E+03  0.93221143118E+01  0.38743213769E+03  0.00000000000E+00 0.  1.
         13    1    4    4    0    0 -0.58747221021E+03 -0.30357903193E+03  0.12917786653E+04  0.14511981111E+04  0.10566000000E+00 0. -1.
         -4    1    4    4    0  501  0.24426485334E+03  0.48232782691E+02  0.83584633450E+01  0.24912162453E+03  0.00000000000E+00 0. -1.
<mgrwt>
<rscale>  2 0.10953804E+04</rscale>
<asrwt>0</asrwt>
<pdfrwt beam="1">  1        2 0.47375700E+00 0.10953804E+04</pdfrwt>
<pdfrwt beam="2">  1       -2 0.59984835E-01 0.10953804E+04</pdfrwt>
<totfact> 0.62268951E+00</totfact>
</mgrwt>
</event>
<event>
 8    1  0.1373409E-005  0.1359339E+04  0.7818608E-02  0.8495356E-01
          2   -1    0    0  502    0  0.00000000000E+00  0.00000000000E+00  0.20913868747E+04  0.20913868747E+04  0.00000000000E+00 0. -1.
         -2   -1    0    0    0  501 -0.00000000000E+00 -0.00000000000E+00 -0.88488891164E+03  0.88488891164E+03  0.00000000000E+00 0.  1.
    9000010    2    1    2  502    0  0.32808456181E+03  0.85014062259E+03  0.64921809159E+03  0.14893120601E+04  0.98294848489E+03 0.  0.
   -9000010    2    1    2    0  501 -0.32808456181E+03 -0.85014062259E+03  0.55727987152E+03  0.14869637263E+04  0.10344668725E+04 0.  0.
        -13    1    3    3    0    0  0.36852348977E+03  0.95901979552E+03  0.22801335564E+03  0.10523871114E+04  0.10566000000E+00 0.  1.
          4    1    3    3  502    0 -0.40438927954E+02 -0.10887917293E+03  0.42120473595E+03  0.43692494868E+03  0.00000000000E+00 0.  1.
         13    1    4    4    0    0 -0.21231661191E+02 -0.63462238438E+02 -0.28591936735E+03  0.29364627520E+03  0.10566000000E+00 0. -1.
         -4    1    4    4    0  501 -0.30685290062E+03 -0.78667838416E+03  0.84319923887E+03  0.11933174511E+04  0.00000000000E+00 0. -1.
<mgrwt>
<rscale>  2 0.13593391E+04</rscale>
<asrwt>0</asrwt>
<pdfrwt beam="1">  1        2 0.32175183E+00 0.13593391E+04</pdfrwt>
<pdfrwt beam="2">  1       -2 0.13613676E+00 0.13593391E+04</pdfrwt>
<totfact> 0.32768630E+00</totfact>
</mgrwt>
</event>
<event>
 8    1  0.1373409E-005  0.1343372E+04  0.7818608E-02  0.8505773E-01
          2   -1    0    0  502    0  0.00000000000E+00  0.00000000000E+00  0.62710187699E+03  0.62710187699E+03  0.00000000000E+00 0. -1.
         -2   -1    0    0    0  501 -0.00000000000E+00 -0.00000000000E+00 -0.29583919683E+04  0.29583919683E+04  0.00000000000E+00 0.  1.
    9000010    2    1    2  502    0 -0.80779009736E+03 -0.38448677729E+03 -0.87070714162E+03  0.16018875805E+04  0.10037718719E+04 0.  0.
   -9000010    2    1    2    0  501  0.80779009736E+03  0.38448677729E+03 -0.14605829497E+04  0.19836062647E+04  0.10005180345E+04 0.  0.
        -13    1    3    3    0    0 -0.94569573231E+03 -0.10738127853E+03 -0.38661141205E+03  0.10272972073E+04  0.10566000000E+00 0.  1.
          4    1    3    3  502    0  0.13790563494E+03 -0.27710549876E+03 -0.48409572957E+03  0.57459037320E+03  0.00000000000E+00 0.  1.
         13    1    4    4    0    0  0.70308242022E+03 -0.11566161223E+03 -0.42719281049E+03  0.83078048043E+03  0.10566000000E+00 0. -1.
         -4    1    4    4    0  501  0.10470767714E+03  0.50014838952E+03 -0.10333901392E+04  0.11528257843E+04  0.00000000000E+00 0. -1.
<mgrwt>
<rscale>  2 0.13433723E+04</rscale>
<asrwt>0</asrwt>
<pdfrwt beam="1">  1        2 0.96477214E-01 0.13433723E+04</pdfrwt>
<pdfrwt beam="2">  1       -2 0.45513721E+00 0.13433723E+04</pdfrwt>
<totfact> 0.19980995E-01</totfact>
</mgrwt>
</event>
<event>
 8    1  0.1373409E-005  0.1128819E+04  0.7818608E-02  0.8662182E-01
         -4   -1    0    0    0  501 -0.00000000000E+00  0.00000000000E+00  0.55114344141E+03  0.55114344141E+03  0.00000000000E+00 0. -1.
          4   -1    0    0  502    0  0.00000000000E+00 -0.00000000000E+00 -0.24162576944E+04  0.24162576944E+04  0.00000000000E+00 0.  1.
    9000010    2    1    2  502    0 -0.29594020403E+03  0.37490584474E+03 -0.60822728861E+03  0.12630362345E+04  0.99859155731E+03 0.  0.
   -9000010    2    1    2    0  501  0.29594020403E+03 -0.37490584474E+03 -0.12568869644E+04  0.17043649013E+04  0.10473585245E+04 0.  0.
        -13    1    3    3    0    0 -0.41176956501E+03  0.12940132947E+03  0.15057899853E+03  0.45713556490E+03  0.10566000000E+00 0.  1.
          4    1    3    3  502    0  0.11582936098E+03  0.24550451527E+03 -0.75880628715E+03  0.80590066962E+03  0.00000000000E+00 0.  1.
         13    1    4    4    0    0 -0.35876621768E+03 -0.33321697639E+03 -0.45603323621E+03  0.66911364954E+03  0.10566000000E+00 0. -1.
         -4    1    4    4    0  501  0.65470642170E+03 -0.41688868351E+02 -0.80085372818E+03  0.10352512518E+04  0.00000000000E+00 0. -1.
<mgrwt>
<rscale>  2 0.11288185E+04</rscale>
<asrwt>0</asrwt>
<pdfrwt beam="2">  1        4 0.37173196E+00 0.11288185E+04</pdfrwt>
<pdfrwt beam="1">  1       -4 0.84791297E-01 0.11288185E+04</pdfrwt>
<totfact> 0.24866920E-01</totfact>
</mgrwt>
</event>
<event>
 8    1  0.1373409E-005  0.1392499E+04  0.7818608E-02  0.8474185E-01
         -1   -1    0    0    0  501 -0.00000000000E+00  0.00000000000E+00  0.13911376798E+04  0.13911376798E+04  0.00000000000E+00 0.  1.
          1   -1    0    0  502    0  0.00000000000E+00 -0.00000000000E+00 -0.15066715620E+04  0.15066715620E+04  0.00000000000E+00 0. -1.
    9000010    2    1    2  502    0  0.95627016609E+03  0.21001527149E+03  0.33748918655E+03  0.14512816097E+04  0.10167400429E+04 0.  0.
   -9000010    2    1    2    0  501 -0.95627016609E+03 -0.21001527149E+03 -0.45302306882E+03  0.14465276321E+04  0.96366656303E+03 0.  0.
        -13    1    3    3    0    0  0.14918652492E+03  0.47691006236E+03  0.33429008280E+03  0.60120686741E+03  0.10566000000E+00 0.  1.
          4    1    3    3  502    0  0.80708364116E+03 -0.26689479087E+03  0.31991037507E+01  0.85007474229E+03  0.00000000000E+00 0.  1.
         13    1    4    4    0    0 -0.11468201124E+04 -0.94128960019E+02 -0.37449111713E+03  0.12100827407E+04  0.10566000000E+00 0. -1.
         -4    1    4    4    0  501  0.19054994632E+03 -0.11588631147E+03 -0.78531951693E+02  0.23644489139E+03  0.00000000000E+00 0. -1.
<mgrwt>
<rscale>  2 0.13924991E+04</rscale>
<asrwt>0</asrwt>
<pdfrwt beam="2">  1        1 0.23179563E+00 0.13924991E+04</pdfrwt>
<pdfrwt beam="1">  1       -1 0.21402118E+00 0.13924991E+04</pdfrwt>
<totfact> 0.84528664E-01</totfact>
</mgrwt>
</event>
<event>
 8    1  0.1373409E-005  0.1147759E+04  0.7818608E-02  0.8646975E-01
          1   -1    0    0  502    0  0.00000000000E+00  0.00000000000E+00  0.11153156247E+04  0.11153156247E+04  0.00000000000E+00 0.  1.
         -1   -1    0    0    0  501 -0.00000000000E+00 -0.00000000000E+00 -0.12636228625E+04  0.12636228625E+04  0.00000000000E+00 0. -1.
    9000010    2    1    2  502    0 -0.54726660953E+03 -0.20806429891E+03  0.22989504545E+03  0.11676779255E+04  0.98378275614E+03 0.  0.
   -9000010    2    1    2    0  501  0.54726660953E+03  0.20806429891E+03 -0.37820228327E+03  0.12112605618E+04  0.99061783096E+03 0.  0.
        -13    1    3    3    0    0 -0.65609830640E+03 -0.22593562039E+03  0.51358943751E+03  0.86329949248E+03  0.10566000000E+00 0.  1.
          4    1    3    3  502    0  0.10883169687E+03  0.17871321481E+02 -0.28369439206E+03  0.30437843298E+03  0.00000000000E+00 0.  1.
         13    1    4    4    0    0  0.40278875246E+03  0.10342546375E+03  0.29820542562E+03  0.51172462584E+03  0.10566000000E+00 0. -1.
         -4    1    4    4    0  501  0.14447785707E+03  0.10463883516E+03 -0.67640770889E+03  0.69953593592E+03  0.00000000000E+00 0. -1.
<mgrwt>
<rscale>  2 0.11477588E+04</rscale>
<asrwt>0</asrwt>
<pdfrwt beam="1">  1        1 0.17158702E+00 0.11477588E+04</pdfrwt>
<pdfrwt beam="2">  1       -1 0.19440352E+00 0.11477588E+04</pdfrwt>
<totfact> 0.25998854E+00</totfact>
</mgrwt>
</event>
<event>
 8    1  0.1373409E-005  0.1293237E+04  0.7818608E-02  0.8539476E-01
         -2   -1    0    0    0  501 -0.00000000000E+00  0.00000000000E+00  0.74819508975E+03  0.74819508975E+03  0.00000000000E+00 0.  1.
          2   -1    0    0  502    0  0.00000000000E+00 -0.00000000000E+00 -0.25361217760E+04  0.25361217760E+04  0.00000000000E+00 0. -1.
    9000010    2    1    2  502    0 -0.62686484200E+03 -0.54448714969E+03 -0.14635977774E+04  0.19576332223E+04  0.10003917196E+04 0.  0.
   -9000010    2    1    2    0  501  0.62686484200E+03  0.54448714969E+03 -0.32432890886E+03  0.13266836435E+04  0.98258560058E+03 0.  0.
        -13    1    3    3    0    0 -0.41947707802E+03  0.24071147263E+03 -0.47036446428E+03  0.67464492325E+03  0.10566000000E+00 0.  1.
          4    1    3    3  502    0 -0.20738776399E+03 -0.78519862232E+03 -0.99323331315E+03  0.12829882990E+04  0.00000000000E+00 0.  1.
         13    1    4    4    0    0 -0.48400643804E+02  0.59609448325E+03 -0.65333006273E+02  0.60161421871E+03  0.10566000000E+00 0. -1.
         -4    1    4    4    0  501  0.67526548581E+03 -0.51607333557E+02 -0.25899590258E+03  0.72506942478E+03  0.00000000000E+00 0. -1.
<mgrwt>
<rscale>  2 0.12932369E+04</rscale>
<asrwt>0</asrwt>
<pdfrwt beam="2">  1        2 0.39017258E+00 0.12932369E+04</pdfrwt>
<pdfrwt beam="1">  1       -2 0.11510694E+00 0.12932369E+04</pdfrwt>
<totfact> 0.29562520E+00</totfact>
</mgrwt>
</event>
<event>
 8    1  0.1373409E-005  0.1459930E+04  0.7818608E-02  0.8432940E-01
         -2   -1    0    0    0  501 -0.00000000000E+00  0.00000000000E+00  0.81398417776E+03  0.81398417776E+03  0.00000000000E+00 0.  1.
          2   -1    0    0  502    0  0.00000000000E+00 -0.00000000000E+00 -0.26925364267E+04  0.26925364267E+04  0.00000000000E+00 0. -1.
    9000010    2    1    2  502    0  0.21786441661E+03 -0.10368781044E+04 -0.64614617551E+03  0.15930484797E+04  0.99885808356E+03 0.  0.
   -9000010    2    1    2    0  501 -0.21786441661E+03  0.10368781044E+04 -0.12324060734E+04  0.19134721248E+04  0.10099355104E+04 0.  0.
        -13    1    3    3    0    0  0.59915558271E+03 -0.47858558715E+03 -0.44990847636E+03  0.88907211450E+03  0.10566000000E+00 0.  1.
          4    1    3    3  502    0 -0.38129116611E+03 -0.55829251723E+03 -0.19623769915E+03  0.70397636517E+03  0.00000000000E+00 0.  1.
         13    1    4    4    0    0  0.33486173668E+03  0.78843923194E+03 -0.75896159771E+03  0.11444612371E+04  0.10566000000E+00 0. -1.
         -4    1    4    4    0  501 -0.55272615329E+03  0.24843887244E+03 -0.47344447572E+03  0.76901088774E+03  0.00000000000E+00 0. -1.
<mgrwt>
<rscale>  2 0.14599300E+04</rscale>
<asrwt>0</asrwt>
<pdfrwt beam="2">  1        2 0.41423637E+00 0.14599300E+04</pdfrwt>
<pdfrwt beam="1">  1       -2 0.12522833E+00 0.14599300E+04</pdfrwt>
<totfact> 0.18877052E+00</totfact>
</mgrwt>
</event>
<event>
 8    1  0.1373409E-005  0.1714807E+04  0.7818608E-02  0.8295575E-01
         -1   -1    0    0    0  501 -0.00000000000E+00  0.00000000000E+00  0.16380400547E+04  0.16380400547E+04  0.00000000000E+00 0.  1.
          1   -1    0    0  502    0  0.00000000000E+00 -0.00000000000E+00 -0.18202410122E+04  0.18202410122E+04  0.00000000000E+00 0. -1.
    9000010    2    1    2  502    0 -0.12729759556E+04  0.26538993251E+03  0.96763459182E+02  0.16334665091E+04  0.98384453516E+03 0.  0.
   -9000010    2    1    2    0  501  0.12729759556E+04 -0.26538993251E+03 -0.27896441673E+03  0.18248145578E+04  0.12494908662E+04 0.  0.
        -13    1    3    3    0    0 -0.14988875498E+03 -0.32177061570E+03  0.89727778601E+02  0.36613392824E+03  0.10566000000E+00 0.  1.
          4    1    3    3  502    0 -0.11230872006E+04  0.58716054821E+03  0.70356805815E+01  0.12673325808E+04  0.00000000000E+00 0.  1.
         13    1    4    4    0    0  0.30429523267E+03 -0.23843951121E+03 -0.67507300123E+03  0.77792837543E+03  0.10566000000E+00 0. -1.
         -4    1    4    4    0  501  0.96868072294E+03 -0.26950421294E+02  0.39610858450E+03  0.10468861824E+04  0.00000000000E+00 0. -1.
<mgrwt>
<rscale>  2 0.17148073E+04</rscale>
<asrwt>0</asrwt>
<pdfrwt beam="2">  1        1 0.28003708E+00 0.17148073E+04</pdfrwt>
<pdfrwt beam="1">  1       -1 0.25200616E+00 0.17148073E+04</pdfrwt>
<totfact> 0.20693729E-01</totfact>
</mgrwt>
</event>
<event>
 8    1  0.1373409E-005  0.1308115E+04  0.7818608E-02  0.8529312E-01
          1   -1    0    0  502    0  0.00000000000E+00  0.00000000000E+00  0.96857563594E+03  0.96857563594E+03  0.00000000000E+00 0.  1.
         -1   -1    0    0    0  501 -0.00000000000E+00 -0.00000000000E+00 -0.18666153401E+04  0.18666153401E+04  0.00000000000E+00 0. -1.
    9000010    2    1    2  502    0 -0.83108769207E+03  0.16256470822E+03 -0.11566658812E+03  0.12951107479E+04  0.97303599808E+03 0.  0.
   -9000010    2    1    2    0  501  0.83108769207E+03 -0.16256470822E+03 -0.78237311602E+03  0.15400802281E+04  0.10210804963E+04 0.  0.
        -13    1    3    3    0    0 -0.91385754308E+03  0.23375094070E+03 -0.37395303123E+03  0.10146999517E+04  0.10566000000E+00 0.  1.
          4    1    3    3  502    0  0.82769851013E+02 -0.71186232480E+02  0.25828644311E+03  0.28041079620E+03  0.00000000000E+00 0.  1.
         13    1    4    4    0    0  0.10110218711E+04 -0.32560479489E+03 -0.73765942415E+03  0.12931841105E+04  0.10566000000E+00 0. -1.
         -4    1    4    4    0  501 -0.17993417905E+03  0.16304008668E+03 -0.44713691871E+02  0.24689611762E+03  0.00000000000E+00 0. -1.
<mgrwt>
<rscale>  2 0.13081154E+04</rscale>
<asrwt>0</asrwt>
<pdfrwt beam="1">  1        1 0.14901164E+00 0.13081154E+04</pdfrwt>
<pdfrwt beam="2">  1       -1 0.28717159E+00 0.13081154E+04</pdfrwt>
<totfact> 0.44170775E-01</totfact>
</mgrwt>
</event>
<event>
 8    1  0.1373409E-005  0.1449384E+04  0.7818608E-02  0.8439238E-01
          2   -1    0    0  502    0  0.00000000000E+00  0.00000000000E+00  0.70047307131E+03  0.70047307131E+03  0.00000000000E+00 0.  1.
         -2   -1    0    0    0  501 -0.00000000000E+00 -0.00000000000E+00 -0.36358845039E+04  0.36358845039E+04  0.00000000000E+00 0. -1.
    9000010    2    1    2  502    0  0.93136747664E+03 -0.49813799966E+03 -0.23769113554E+04  0.27850576991E+04  0.99561636807E+03 0.  0.
   -9000010    2    1    2    0  501 -0.93136747664E+03  0.49813799966E+03 -0.55850007714E+03  0.15512998761E+04  0.98945546954E+03 0.  0.
        -13    1    3    3    0    0  0.91596889307E+03  0.18941963126E+02 -0.13006441344E+04  0.15909220554E+04  0.10566000000E+00 0.  1.
          4    1    3    3  502    0  0.15398583570E+02 -0.51707996278E+03 -0.10762672210E+04  0.11941356436E+04  0.00000000000E+00 0.  1.
         13    1    4    4    0    0 -0.45164777087E+03  0.75012971768E+03 -0.49467805270E+03  0.10056772292E+04  0.10566000000E+00 0. -1.
         -4    1    4    4    0  501 -0.47971970577E+03 -0.25199171802E+03 -0.63822024436E+02  0.54562264694E+03  0.00000000000E+00 0. -1.
<mgrwt>
<rscale>  2 0.14493843E+04</rscale>
<asrwt>0</asrwt>
<pdfrwt beam="1">  1        2 0.10776509E+00 0.14493843E+04</pdfrwt>
<pdfrwt beam="2">  1       -2 0.55936684E+00 0.14493843E+04</pdfrwt>
<totfact> 0.23527131E-01</totfact>
</mgrwt>
</event>
<event>
 8    1  0.1373409E-005  0.1136627E+04  0.7818608E-02  0.8655875E-01
          2   -1    0    0  502    0  0.00000000000E+00  0.00000000000E+00  0.22193506217E+04  0.22193506217E+04  0.00000000000E+00 0.  1.
         -2   -1    0    0    0  501 -0.00000000000E+00 -0.00000000000E+00 -0.82553835250E+03  0.82553835250E+03  0.00000000000E+00 0. -1.
    9000010    2    1    2  502    0  0.43427172825E+02  0.55456914689E+03 -0.13148534249E+03  0.11403105982E+04  0.98670512665E+03 0.  0.
   -9000010    2    1    2    0  501 -0.43427172825E+02 -0.55456914689E+03  0.15252976117E+04  0.19045783761E+04  0.99571739379E+03 0.  0.
        -13    1    3    3    0    0 -0.32437252205E+03  0.12187892306E+03  0.27463344915E+03  0.44214878435E+03  0.10566000000E+00 0.  1.
          4    1    3    3  502    0  0.36779969487E+03  0.43269022382E+03 -0.40611879163E+03  0.69816181381E+03  0.00000000000E+00 0.  1.
         13    1    4    4    0    0 -0.17746383439E+03 -0.27535408678E+03 -0.20336878044E+02  0.32821774082E+03  0.10566000000E+00 0. -1.
         -4    1    4    4    0  501  0.13403666156E+03 -0.27921506011E+03  0.15456344898E+04  0.15763606352E+04  0.00000000000E+00 0. -1.
<mgrwt>
<rscale>  2 0.11366275E+04</rscale>
<asrwt>0</asrwt>
<pdfrwt beam="1">  1        2 0.34143855E+00 0.11366275E+04</pdfrwt>
<pdfrwt beam="2">  1       -2 0.12700590E+00 0.11366275E+04</pdfrwt>
<totfact> 0.34736063E+00</totfact>
</mgrwt>
</event>
<event>
 8    1  0.1373409E-005  0.1285568E+04  0.7818608E-02  0.8544771E-01
          2   -1    0    0  502    0  0.00000000000E+00  0.00000000000E+00  0.57285948872E+03  0.57285948872E+03  0.00000000000E+00 0. -1.
         -2   -1    0    0    0  501 -0.00000000000E+00 -0.00000000000E+00 -0.43522984626E+04  0.43522984626E+04  0.00000000000E+00 0.  1.
    9000010    2    1    2  502    0 -0.29724735236E+03  0.75705056904E+03 -0.46405922364E+03  0.13708039071E+04  0.10011347743E+04 0.  0.
   -9000010    2    1    2    0  501  0.29724735236E+03 -0.75705056904E+03 -0.33153797502E+04  0.35543540442E+04  0.99005466031E+03 0.  0.
        -13    1    3    3    0    0  0.86953579439E+02  0.78988219543E+03 -0.37137825658E+02  0.79552123598E+03  0.10566000000E+00 0.  1.
          4    1    3    3  502    0 -0.38420093180E+03 -0.32831626385E+02 -0.42692139798E+03  0.57528267116E+03  0.00000000000E+00 0.  1.
         13    1    4    4    0    0  0.54693478641E+03 -0.51212499347E+03 -0.12330298267E+04  0.14428347910E+04  0.10566000000E+00 0. -1.
         -4    1    4    4    0  501 -0.24968743405E+03 -0.24492557558E+03 -0.20823499235E+04  0.21115192531E+04  0.00000000000E+00 0. -1.
<mgrwt>
<rscale>  2 0.12855677E+04</rscale>
<asrwt>0</asrwt>
<pdfrwt beam="1">  1        2 0.88132230E-01 0.12855677E+04</pdfrwt>
<pdfrwt beam="2">  1       -2 0.66958437E+00 0.12855677E+04</pdfrwt>
<totfact> 0.18105245E-01</totfact>
</mgrwt>
</event>
<event>
 8    1  0.1373409E-005  0.1075351E+04  0.7818608E-02  0.8706846E-01
          2   -1    0    0  502    0  0.00000000000E+00  0.00000000000E+00  0.11047337858E+04  0.11047337858E+04  0.00000000000E+00 0. -1.
         -2   -1    0    0    0  501 -0.00000000000E+00 -0.00000000000E+00 -0.10843691906E+04  0.10843691906E+04  0.00000000000E+00 0.  1.
    9000010    2    1    2  502    0  0.32667470218E+03  0.25670987058E+03 -0.19365914424E+03  0.10947451655E+04  0.99415632299E+03 0.  0.
   -9000010    2    1    2    0  501 -0.32667470218E+03 -0.25670987058E+03  0.21402373942E+03  0.10943578108E+04  0.98954360107E+03 0.  0.
        -13    1    3    3    0    0  0.42087183119E+03  0.37839370579E+03  0.25475839191E+03  0.62065831524E+03  0.10566000000E+00 0.  1.
          4    1    3    3  502    0 -0.94197129011E+02 -0.12168383521E+03 -0.44841753615E+03  0.47408685026E+03  0.00000000000E+00 0.  1.
         13    1    4    4    0    0 -0.94186621317E+02 -0.59602980500E+02  0.59562895870E+03  0.60596823557E+03  0.10566000000E+00 0. -1.
         -4    1    4    4    0  501 -0.23248808086E+03 -0.19710689008E+03 -0.38160521927E+03  0.48838957527E+03  0.00000000000E+00 0. -1.
<mgrwt>
<rscale>  2 0.10753506E+04</rscale>
<asrwt>0</asrwt>
<pdfrwt beam="1">  1        2 0.16995904E+00 0.10753506E+04</pdfrwt>
<pdfrwt beam="2">  1       -2 0.16682603E+00 0.10753506E+04</pdfrwt>
<totfact> 0.63489661E+00</totfact>
</mgrwt>
</event>
<event>
 8    1  0.1373409E-005  0.1404474E+04  0.7818608E-02  0.8466688E-01
          1   -1    0    0  502    0  0.00000000000E+00  0.00000000000E+00  0.15342886433E+04  0.15342886433E+04  0.00000000000E+00 0.  1.
         -1   -1    0    0    0  501 -0.00000000000E+00 -0.00000000000E+00 -0.15193989124E+04  0.15193989124E+04  0.00000000000E+00 0. -1.
    9000010    2    1    2  502    0  0.43721456307E+03  0.89821032058E+03  0.60632938407E+03  0.15320440911E+04  0.99074992848E+03 0.  0.
   -9000010    2    1    2    0  501 -0.43721456307E+03 -0.89821032058E+03 -0.59143965317E+03  0.15216434646E+04  0.98369691264E+03 0.  0.
        -13    1    3    3    0    0  0.41360973909E+03  0.16639489765E+02  0.49169284468E+03  0.64273770199E+03  0.10566000000E+00 0.  1.
          4    1    3    3  502    0  0.23604823982E+02  0.88157083082E+03  0.11463653939E+03  0.88930638906E+03  0.00000000000E+00 0.  1.
         13    1    4    4    0    0 -0.39844168585E+03 -0.64575121541E+03  0.11774650060E+03  0.76786369806E+03  0.10566000000E+00 0. -1.
         -4    1    4    4    0  501 -0.38772877218E+02 -0.25245910517E+03 -0.70918615377E+03  0.75377976657E+03  0.00000000000E+00 0. -1.
<mgrwt>
<rscale>  2 0.14044745E+04</rscale>
<asrwt>0</asrwt>
<pdfrwt beam="1">  1        1 0.23604441E+00 0.14044745E+04</pdfrwt>
<pdfrwt beam="2">  1       -1 0.23375368E+00 0.14044745E+04</pdfrwt>
<totfact> 0.52715140E-01</totfact>
</mgrwt>
</event>
<event>
 8    1  0.1373409E-005  0.1073815E+04  0.7818608E-02  0.8708168E-01
          1   -1    0    0  502    0  0.00000000000E+00  0.00000000000E+00  0.54217150837E+03  0.54217150837E+03  0.00000000000E+00 0.  1.
         -1   -1    0    0    0  501 -0.00000000000E+00 -0.00000000000E+00 -0.21495191523E+04  0.21495191523E+04  0.00000000000E+00 0. -1.
    9000010    2    1    2  502    0 -0.15903169137E+03 -0.38436404898E+03 -0.66532081886E+03  0.12633047604E+04  0.99008096877E+03 0.  0.
   -9000010    2    1    2    0  501  0.15903169137E+03  0.38436404898E+03 -0.94202682504E+03  0.14283859002E+04  0.98987117335E+03 0.  0.
        -13    1    3    3    0    0  0.40061933116E+03 -0.30706641539E+03 -0.25846108129E+03  0.56708709531E+03  0.10566000000E+00 0.  1.
          4    1    3    3  502    0 -0.55965102253E+03 -0.77297633589E+02 -0.40685973757E+03  0.69621766513E+03  0.00000000000E+00 0.  1.
         13    1    4    4    0    0  0.39017673528E+03  0.10466796465E+03  0.15650246780E+02  0.40427491755E+03  0.10566000000E+00 0. -1.
         -4    1    4    4    0  501 -0.23114504391E+03  0.27969608433E+03 -0.95767707182E+03  0.10241109827E+04  0.00000000000E+00 0. -1.
<mgrwt>
<rscale>  2 0.10738154E+04</rscale>
<asrwt>0</asrwt>
<pdfrwt beam="1">  1        1 0.83411002E-01 0.10738154E+04</pdfrwt>
<pdfrwt beam="2">  1       -1 0.33069525E+00 0.10738154E+04</pdfrwt>
<totfact> 0.54680937E-01</totfact>
</mgrwt>
</event>
<event>
 8    1  0.1373409E-005  0.1021283E+04  0.7818608E-02  0.8754848E-01
         -1   -1    0    0    0  501 -0.00000000000E+00  0.00000000000E+00  0.10998282153E+04  0.10998282153E+04  0.00000000000E+00 0.  1.
          1   -1    0    0  502    0  0.00000000000E+00 -0.00000000000E+00 -0.13890021347E+04  0.13890021347E+04  0.00000000000E+00 0. -1.
    9000010    2    1    2  502    0  0.14086342975E+02 -0.26023359079E+03 -0.84647347987E+03  0.13352865616E+04  0.99927618940E+03 0.  0.
   -9000010    2    1    2    0  501 -0.14086342975E+02  0.26023359079E+03  0.55729956046E+03  0.11535437884E+04  0.97578713093E+03 0.  0.
        -13    1    3    3    0    0 -0.24134267814E+03 -0.57572183932E+03 -0.55800036471E+03  0.83729704571E+03  0.10566000000E+00 0.  1.
          4    1    3    3  502    0  0.25542902112E+03  0.31548824854E+03 -0.28847311516E+03  0.49798951592E+03  0.00000000000E+00 0.  1.
         13    1    4    4    0    0 -0.13029323933E+03  0.58107783726E+03  0.55240550473E+03  0.81226820324E+03  0.10566000000E+00 0. -1.
         -4    1    4    4    0  501  0.11620689636E+03 -0.32084424648E+03  0.48940557249E+01  0.34127558518E+03  0.00000000000E+00 0. -1.
<mgrwt>
<rscale>  2 0.10212829E+04</rscale>
<asrwt>0</asrwt>
<pdfrwt beam="2">  1        1 0.21369264E+00 0.10212829E+04</pdfrwt>
<pdfrwt beam="1">  1       -1 0.16920434E+00 0.10212829E+04</pdfrwt>
<totfact> 0.27175589E+00</totfact>
</mgrwt>
</event>
<event>
 8    1  0.1373409E-005  0.1162291E+04  0.7818608E-02  0.8635512E-01
          1   -1    0    0  502    0  0.00000000000E+00  0.00000000000E+00  0.21515629320E+04  0.21515629320E+04  0.00000000000E+00 0.  1.
         -1   -1    0    0    0  501 -0.00000000000E+00 -0.00000000000E+00 -0.65084616444E+03  0.65084616444E+03  0.00000000000E+00 0. -1.
    9000010    2    1    2  502    0  0.56333660308E+03  0.10162397217E+03  0.45558369406E+03  0.11778201737E+04  0.92305379001E+03 0.  0.
   -9000010    2    1    2    0  501 -0.56333660308E+03 -0.10162397217E+03  0.10451330735E+04  0.16245889227E+04  0.11042239204E+04 0.  0.
        -13    1    3    3    0    0 -0.17899554696E+03 -0.19734841287E+03  0.21441898830E+03  0.34199607542E+03  0.10566000000E+00 0.  1.
          4    1    3    3  502    0  0.74233215004E+03  0.29897238504E+03  0.24116470576E+03  0.83582409830E+03  0.00000000000E+00 0.  1.
         13    1    4    4    0    0 -0.18888725374E+03  0.35658707535E+03 -0.22260259819E+02  0.40413892075E+03  0.10566000000E+00 0. -1.
         -4    1    4    4    0  501 -0.37444934934E+03 -0.45821104752E+03  0.10673933333E+04  0.12204500020E+04  0.00000000000E+00 0. -1.
<mgrwt>
<rscale>  2 0.11622909E+04</rscale>
<asrwt>0</asrwt>
<pdfrwt beam="1">  1        1 0.33100968E+00 0.11622909E+04</pdfrwt>
<pdfrwt beam="2">  1       -1 0.10013018E+00 0.11622909E+04</pdfrwt>
<totfact> 0.28933361E+00</totfact>
</mgrwt>
</event>
<event>
 8    1  0.1373409E-005  0.1192237E+04  0.7818608E-02  0.8612431E-01
          1   -1    0    0  502    0  0.00000000000E+00  0.00000000000E+00  0.26107103041E+04  0.26107103041E+04  0.00000000000E+00 0. -1.
         -1   -1    0    0    0  501 -0.00000000000E+00 -0.00000000000E+00 -0.70526886226E+03  0.70526886226E+03  0.00000000000E+00 0.  1.
    9000010    2    1    2  502    0  0.60384210011E+03  0.25387847637E+03  0.16374847620E+03  0.12077751454E+04  0.10014128398E+04 0.  0.
   -9000010    2    1    2    0  501 -0.60384210011E+03 -0.25387847637E+03  0.17416929657E+04  0.21082040210E+04  0.99093402645E+03 0.  0.
        -13    1    3    3    0    0  0.16792613294E+03 -0.20499270000E+03  0.44282747534E+03  0.51605947066E+03  0.10566000000E+00 0.  1.
          4    1    3    3  502    0  0.43591596717E+03  0.45887117636E+03 -0.27907899914E+03  0.69171567475E+03  0.00000000000E+00 0.  1.
         13    1    4    4    0    0 -0.24746156756E+02  0.21832236511E+03  0.11046593507E+04  0.11262989477E+04  0.10566000000E+00 0. -1.
         -4    1    4    4    0  501 -0.57909594335E+03 -0.47220084147E+03  0.63703361498E+03  0.98190507326E+03  0.00000000000E+00 0. -1.
<mgrwt>
<rscale>  2 0.11922375E+04</rscale>
<asrwt>0</asrwt>
<pdfrwt beam="1">  1        1 0.40164773E+00 0.11922375E+04</pdfrwt>
<pdfrwt beam="2">  1       -1 0.10850290E+00 0.11922375E+04</pdfrwt>
<totfact> 0.96692734E-01</totfact>
</mgrwt>
</event>
<event>
 8    1  0.1373409E-005  0.1007076E+04  0.7818608E-02  0.8767971E-01
         -2   -1    0    0    0  501 -0.00000000000E+00  0.00000000000E+00  0.15979006749E+04  0.15979006749E+04  0.00000000000E+00 0.  1.
          2   -1    0    0  502    0  0.00000000000E+00 -0.00000000000E+00 -0.74676625127E+03  0.74676625127E+03  0.00000000000E+00 0. -1.
    9000010    2    1    2  502    0 -0.16744716897E+03 -0.23072509124E+03 -0.38747731428E+02  0.97568711583E+03  0.93230431683E+03 0.  0.
   -9000010    2    1    2    0  501  0.16744716897E+03  0.23072509124E+03  0.88988215500E+03  0.13689798103E+04  0.10004713135E+04 0.  0.
        -13    1    3    3    0    0 -0.21458596826E+03 -0.48718433343E+03  0.24871040830E+03  0.58758198651E+03  0.10566000000E+00 0.  1.
          4    1    3    3  502    0  0.47138799289E+02  0.25645924219E+03 -0.28745813973E+03  0.38810512931E+03  0.00000000000E+00 0.  1.
         13    1    4    4    0    0 -0.36900463713E+03  0.17230445611E+03  0.67460307988E+03  0.78799909542E+03  0.10566000000E+00 0. -1.
         -4    1    4    4    0  501  0.53645180610E+03  0.58420635126E+02  0.21527907512E+03  0.58098071488E+03  0.00000000000E+00 0. -1.
<mgrwt>
<rscale>  2 0.10070762E+04</rscale>
<asrwt>0</asrwt>
<pdfrwt beam="2">  1        2 0.11488712E+00 0.10070762E+04</pdfrwt>
<pdfrwt beam="1">  1       -2 0.24583087E+00 0.10070762E+04</pdfrwt>
<totfact> 0.24480283E+00</totfact>
</mgrwt>
</event>
<event>
 8    1  0.1373409E-005  0.1501696E+04  0.7818608E-02  0.8408523E-01
         -2   -1    0    0    0  501 -0.00000000000E+00  0.00000000000E+00  0.12071701749E+04  0.12071701749E+04  0.00000000000E+00 0.  1.
          2   -1    0    0  502    0  0.00000000000E+00 -0.00000000000E+00 -0.18696343175E+04  0.18696343175E+04  0.00000000000E+00 0. -1.
    9000010    2    1    2  502    0  0.10954463815E+04 -0.22024386067E+03 -0.28772707893E+03  0.15321944610E+04  0.10081283953E+04 0.  0.
   -9000010    2    1    2    0  501 -0.10954463815E+04  0.22024386067E+03 -0.37473706369E+03  0.15446100315E+04  0.99843985776E+03 0.  0.
        -13    1    3    3    0    0  0.91115621822E+03 -0.36061298095E+03  0.19282942745E+03  0.99871446134E+03  0.10566000000E+00 0.  1.
          4    1    3    3  502    0  0.18429016326E+03  0.14036912029E+03 -0.48055650638E+03  0.53347999965E+03  0.00000000000E+00 0.  1.
         13    1    4    4    0    0  0.19224220427E+03  0.56708080913E+02 -0.50003891043E+02  0.20657509973E+03  0.10566000000E+00 0. -1.
         -4    1    4    4    0  501 -0.12876885858E+04  0.16353577975E+03 -0.32473317265E+03  0.13380349317E+04  0.00000000000E+00 0. -1.
<mgrwt>
<rscale>  2 0.15016963E+04</rscale>
<asrwt>0</asrwt>
<pdfrwt beam="2">  1        2 0.28763605E+00 0.15016963E+04</pdfrwt>
<pdfrwt beam="1">  1       -2 0.18571849E+00 0.15016963E+04</pdfrwt>
<totfact> 0.15906724E+00</totfact>
</mgrwt>
</event>
<event>
 8    1  0.1373409E-005  0.1208077E+04  0.7818608E-02  0.8600505E-01
          2   -1    0    0  502    0  0.00000000000E+00  0.00000000000E+00  0.13313765417E+04  0.13313765417E+04  0.00000000000E+00 0. -1.
         -2   -1    0    0    0  501 -0.00000000000E+00 -0.00000000000E+00 -0.11260439864E+04  0.11260439864E+04  0.00000000000E+00 0.  1.
    9000010    2    1    2  502    0 -0.69297192164E+03 -0.60447104475E+02  0.30264274637E+03  0.12445985481E+04  0.98669599029E+03 0.  0.
   -9000010    2    1    2    0  501  0.69297192164E+03  0.60447104475E+02 -0.97310191053E+02  0.12128219800E+04  0.98873856261E+03 0.  0.
        -13    1    3    3    0    0  0.22328490487E+02  0.83048270078E+02  0.48502937460E+03  0.49259423671E+03  0.10566000000E+00 0.  1.
          4    1    3    3  502    0 -0.71530041213E+03 -0.14349537455E+03 -0.18238662823E+03  0.75200431134E+03  0.00000000000E+00 0.  1.
         13    1    4    4    0    0  0.78124066255E+03 -0.29022431691E+03  0.16981995758E+02  0.83357994595E+03  0.10566000000E+00 0. -1.
         -4    1    4    4    0  501 -0.88268740905E+02  0.35067142139E+03 -0.11429218681E+03  0.37924203402E+03  0.00000000000E+00 0. -1.
<mgrwt>
<rscale>  2 0.12080766E+04</rscale>
<asrwt>0</asrwt>
<pdfrwt beam="1">  1        2 0.20482716E+00 0.12080766E+04</pdfrwt>
<pdfrwt beam="2">  1       -2 0.17323754E+00 0.12080766E+04</pdfrwt>
<totfact> 0.41105315E+00</totfact>
</mgrwt>
</event>
<event>
 8    1  0.1373409E-005  0.2167078E+04  0.7818608E-02  0.8103565E-01
          4   -1    0    0  502    0  0.00000000000E+00  0.00000000000E+00  0.28531347278E+04  0.28531347278E+04  0.00000000000E+00 0.  1.
         -4   -1    0    0    0  501 -0.00000000000E+00 -0.00000000000E+00 -0.18011436683E+04  0.18011436683E+04  0.00000000000E+00 0. -1.
    9000010    2    1    2  502    0 -0.10445903974E+04 -0.16078689569E+04  0.12093423121E+04  0.24829890376E+04  0.10130715929E+04 0.  0.
   -9000010    2    1    2    0  501  0.10445903974E+04  0.16078689569E+04 -0.15735125258E+03  0.21712893585E+04  0.10066411380E+04 0.  0.
        -13    1    3    3    0    0 -0.42804470373E+03  0.15831023634E+02  0.29600758901E+03  0.52066629776E+03  0.10566000000E+00 0.  1.
          4    1    3    3  502    0 -0.61654569366E+03 -0.16236999805E+04  0.91333472305E+03  0.19623227399E+04  0.00000000000E+00 0.  1.
         13    1    4    4    0    0  0.41539704543E+03  0.60934924750E+03 -0.55814338410E+03  0.92487040127E+03  0.10566000000E+00 0. -1.
         -4    1    4    4    0  501  0.62919335196E+03  0.99851970940E+03  0.40079213152E+03  0.12464189572E+04  0.00000000000E+00 0. -1.
<mgrwt>
<rscale>  2 0.21670781E+04</rscale>
<asrwt>0</asrwt>
<pdfrwt beam="1">  1        4 0.43894380E+00 0.21670781E+04</pdfrwt>
<pdfrwt beam="2">  1       -4 0.27709903E+00 0.21670781E+04</pdfrwt>
<totfact> 0.18933652E-02</totfact>
</mgrwt>
</event>
<event>
 8    1  0.1373409E-005  0.1246268E+04  0.7818608E-02  0.8572513E-01
         -2   -1    0    0    0  501 -0.00000000000E+00  0.00000000000E+00  0.54265852277E+03  0.54265852277E+03  0.00000000000E+00 0. -1.
          2   -1    0    0  502    0  0.00000000000E+00 -0.00000000000E+00 -0.29602007483E+04  0.29602007483E+04  0.00000000000E+00 0.  1.
    9000010    2    1    2  502    0  0.55373208175E+03  0.47831522676E+03 -0.87568137177E+03  0.15100201156E+04  0.98890758424E+03 0.  0.
   -9000010    2    1    2    0  501 -0.55373208175E+03 -0.47831522676E+03 -0.15418608538E+04  0.19928391555E+04  0.10289160960E+04 0.  0.
        -13    1    3    3    0    0 -0.34113011355E+01 -0.25408739897E+03 -0.22451254380E+02  0.25510020243E+03  0.10566000000E+00 0.  1.
          4    1    3    3  502    0  0.55714338289E+03  0.73240262573E+03 -0.85323011739E+03  0.12549199132E+04  0.00000000000E+00 0.  1.
         13    1    4    4    0    0 -0.81518475761E+03 -0.48147852959E+03 -0.14142313303E+04  0.17018807333E+04  0.10566000000E+00 0. -1.
         -4    1    4    4    0  501  0.26145267585E+03  0.31633028357E+01 -0.12762952349E+03  0.29095842222E+03  0.00000000000E+00 0. -1.
<mgrwt>
<rscale>  2 0.12462678E+04</rscale>
<asrwt>0</asrwt>
<pdfrwt beam="2">  1        2 0.45541550E+00 0.12462678E+04</pdfrwt>
<pdfrwt beam="1">  1       -2 0.83485926E-01 0.12462678E+04</pdfrwt>
<totfact> 0.36085050E+00</totfact>
</mgrwt>
</event>
<event>
 8    1  0.1373409E-005  0.1147714E+04  0.7818608E-02  0.8647010E-01
         -1   -1    0    0    0  501 -0.00000000000E+00  0.00000000000E+00  0.11298115034E+04  0.11298115034E+04  0.00000000000E+00 0. -1.
          1   -1    0    0  502    0  0.00000000000E+00 -0.00000000000E+00 -0.13964364875E+04  0.13964364875E+04  0.00000000000E+00 0.  1.
    9000010    2    1    2  502    0 -0.37160093954E+03 -0.45853332962E+03  0.37836028096E+03  0.12215995308E+04  0.10004043376E+04 0.  0.
   -9000010    2    1    2    0  501  0.37160093954E+03  0.45853332962E+03 -0.64498526509E+03  0.13046484601E+04  0.96838088566E+03 0.  0.
        -13    1    3    3    0    0  0.60106809324E+02  0.25946563603E+03  0.26580527430E+03  0.37628141041E+03  0.10566000000E+00 0.  1.
          4    1    3    3  502    0 -0.43170774886E+03 -0.71799896565E+03  0.11255500667E+03  0.84531812037E+03  0.00000000000E+00 0.  1.
         13    1    4    4    0    0  0.66324921312E+03  0.12699401785E+03 -0.49871600013E+03  0.83949071420E+03  0.10566000000E+00 0. -1.
         -4    1    4    4    0  501 -0.29164827358E+03  0.33153931177E+03 -0.14626926496E+03  0.46515774594E+03  0.00000000000E+00 0. -1.
<mgrwt>
<rscale>  2 0.11477143E+04</rscale>
<asrwt>0</asrwt>
<pdfrwt beam="2">  1        1 0.21483638E+00 0.11477143E+04</pdfrwt>
<pdfrwt beam="1">  1       -1 0.17381715E+00 0.11477143E+04</pdfrwt>
<totfact> 0.24026601E+00</totfact>
</mgrwt>
</event>
<event>
 8    1  0.1373409E-005  0.1142171E+04  0.7818608E-02  0.8651429E-01
          4   -1    0    0  502    0  0.00000000000E+00  0.00000000000E+00  0.16674497684E+04  0.16674497684E+04  0.00000000000E+00 0.  1.
         -4   -1    0    0    0  501 -0.00000000000E+00 -0.00000000000E+00 -0.12546290348E+04  0.12546290348E+04  0.00000000000E+00 0. -1.
    9000010    2    1    2  502    0  0.22028278783E+03 -0.50082906719E+03  0.11032139933E+04  0.15906881940E+04  0.10069029518E+04 0.  0.
   -9000010    2    1    2    0  501 -0.22028278783E+03  0.50082906719E+03 -0.69039325973E+03  0.13313906092E+04  0.99830047580E+03 0.  0.
        -13    1    3    3    0    0  0.99027978833E+02  0.78582090262E+02 -0.15509516493E+03  0.20009049666E+03  0.10566000000E+00 0.  1.
          4    1    3    3  502    0  0.12125480900E+03 -0.57941115746E+03  0.12583091583E+04  0.13905976974E+04  0.00000000000E+00 0.  1.
         13    1    4    4    0    0  0.23666513158E+03  0.98815878944E+02  0.14744432676E+03  0.29582900990E+03  0.10566000000E+00 0. -1.
         -4    1    4    4    0  501 -0.45694791941E+03  0.40201318825E+03 -0.83783758649E+03  0.10355615993E+04  0.00000000000E+00 0. -1.
<mgrwt>
<rscale>  2 0.11421709E+04</rscale>
<asrwt>0</asrwt>
<pdfrwt beam="1">  1        4 0.25653073E+00 0.11421709E+04</pdfrwt>
<pdfrwt beam="2">  1       -4 0.19301985E+00 0.11421709E+04</pdfrwt>
<totfact> 0.13713261E-01</totfact>
</mgrwt>
</event>
<event>
 8    1  0.1373409E-005  0.1283565E+04  0.7818608E-02  0.8546159E-01
          2   -1    0    0  502    0  0.00000000000E+00  0.00000000000E+00  0.34984121874E+04  0.34984121874E+04  0.00000000000E+00 0.  1.
         -2   -1    0    0    0  501 -0.00000000000E+00 -0.00000000000E+00 -0.47874256418E+03  0.47874256418E+03  0.00000000000E+00 0. -1.
    9000010    2    1    2  502    0  0.51702933165E+03 -0.59677631850E+03  0.17692565659E+04  0.21886990005E+04  0.10181715056E+04 0.  0.
   -9000010    2    1    2    0  501 -0.51702933165E+03  0.59677631850E+03  0.12504130574E+04  0.17884557511E+04  0.10057732625E+04 0.  0.
        -13    1    3    3    0    0  0.50245835339E+03 -0.12289109545E+03  0.16060347522E+04  0.16872801352E+04  0.10566000000E+00 0.  1.
          4    1    3    3  502    0  0.14570978265E+02 -0.47388522305E+03  0.16322181371E+03  0.50141886532E+03  0.00000000000E+00 0.  1.
         13    1    4    4    0    0 -0.60117644618E+03  0.62861527982E+03  0.44314642620E+03  0.97619109588E+03  0.10566000000E+00 0. -1.
         -4    1    4    4    0  501  0.84147114526E+02 -0.31838961316E+02  0.80726663116E+03  0.81226465523E+03  0.00000000000E+00 0. -1.
<mgrwt>
<rscale>  2 0.12835654E+04</rscale>
<asrwt>0</asrwt>
<pdfrwt beam="1">  1        2 0.53821724E+00 0.12835654E+04</pdfrwt>
<pdfrwt beam="2">  1       -2 0.73652704E-01 0.12835654E+04</pdfrwt>
<totfact> 0.20765914E+00</totfact>
</mgrwt>
</event>
<event>
 8    1  0.1373409E-005  0.2016356E+04  0.7818608E-02  0.8161765E-01
         -2   -1    0    0    0  501 -0.00000000000E+00  0.00000000000E+00  0.18366888987E+04  0.18366888987E+04  0.00000000000E+00 0.  1.
          2   -1    0    0  502    0  0.00000000000E+00 -0.00000000000E+00 -0.22792779165E+04  0.22792779165E+04  0.00000000000E+00 0. -1.
    9000010    2    1    2  502    0  0.16383502427E+04 -0.62673109175E+03  0.12774095355E+03  0.20232272797E+04  0.10000737446E+04 0.  0.
   -9000010    2    1    2    0  501 -0.16383502427E+04  0.62673109175E+03 -0.57032997130E+03  0.20927395355E+04  0.98858439600E+03 0.  0.
        -13    1    3    3    0    0  0.85725031521E+03 -0.67946890950E+03 -0.29574872712E+03  0.11331475732E+04  0.10566000000E+00 0.  1.
          4    1    3    3  502    0  0.78109992752E+03  0.52737817748E+02  0.42348968068E+03  0.89007970645E+03  0.00000000000E+00 0.  1.
         13    1    4    4    0    0  0.11116953355E+02  0.25988745242E+03  0.94683387684E+02  0.27682129550E+03  0.10566000000E+00 0. -1.
         -4    1    4    4    0  501 -0.16494671961E+04  0.36684363933E+03 -0.66501335899E+03  0.18159182400E+04  0.00000000000E+00 0. -1.
<mgrwt>
<rscale>  2 0.20163558E+04</rscale>
<asrwt>0</asrwt>
<pdfrwt beam="2">  1        2 0.35065814E+00 0.20163558E+04</pdfrwt>
<pdfrwt beam="1">  1       -2 0.28256752E+00 0.20163558E+04</pdfrwt>
<totfact> 0.15307975E-01</totfact>
</mgrwt>
</event>
<event>
 8    1  0.1373409E-005  0.1264741E+04  0.7818608E-02  0.8559342E-01
          2   -1    0    0  502    0  0.00000000000E+00  0.00000000000E+00  0.14159985120E+04  0.14159985120E+04  0.00000000000E+00 0.  1.
         -2   -1    0    0    0  501 -0.00000000000E+00 -0.00000000000E+00 -0.14442776151E+04  0.14442776151E+04  0.00000000000E+00 0. -1.
    9000010    2    1    2  502    0 -0.67483353098E+03  0.40943407320E+03 -0.68147869924E+03  0.14281998207E+04  0.97586113539E+03 0.  0.
   -9000010    2    1    2    0  501  0.67483353098E+03 -0.40943407320E+03  0.65319959610E+03  0.14320763064E+04  0.10005679788E+04 0.  0.
        -13    1    3    3    0    0 -0.27297083383E+03  0.37770497661E+03 -0.86710496263E+03  0.98440091064E+03  0.10566000000E+00 0.  1.
          4    1    3    3  502    0 -0.40186269715E+03  0.31729096592E+02  0.18562626339E+03  0.44379891009E+03  0.00000000000E+00 0.  1.
         13    1    4    4    0    0  0.51051593092E+03  0.26030691878E+03  0.20029528347E+03  0.60704564856E+03  0.10566000000E+00 0. -1.
         -4    1    4    4    0  501  0.16431760006E+03 -0.66974099198E+03  0.45290431263E+03  0.82503065787E+03  0.00000000000E+00 0. -1.
<mgrwt>
<rscale>  2 0.12647414E+04</rscale>
<asrwt>0</asrwt>
<pdfrwt beam="1">  1        2 0.21784593E+00 0.12647414E+04</pdfrwt>
<pdfrwt beam="2">  1       -2 0.22219656E+00 0.12647414E+04</pdfrwt>
<totfact> 0.14438673E+00</totfact>
</mgrwt>
</event>
<event>
 8    1  0.1373409E-005  0.1239755E+04  0.7818608E-02  0.8577213E-01
          2   -1    0    0  502    0  0.00000000000E+00  0.00000000000E+00  0.11218908628E+04  0.11218908628E+04  0.00000000000E+00 0.  1.
         -2   -1    0    0    0  501 -0.00000000000E+00 -0.00000000000E+00 -0.14667978906E+04  0.14667978906E+04  0.00000000000E+00 0. -1.
    9000010    2    1    2  502    0  0.19680513294E+03 -0.72792252059E+03  0.15955833113E+03  0.12535679332E+04  0.98862037498E+03 0.  0.
   -9000010    2    1    2    0  501 -0.19680513294E+03  0.72792252059E+03 -0.50446535887E+03  0.13351208202E+04  0.97951970372E+03 0.  0.
        -13    1    3    3    0    0  0.42607172486E+03 -0.82203193241E+03 -0.52524754116E+02  0.92737935797E+03  0.10566000000E+00 0.  1.
          4    1    3    3  502    0 -0.22926659193E+03  0.94109411827E+02  0.21208308525E+03  0.32618857524E+03  0.00000000000E+00 0.  1.
         13    1    4    4    0    0  0.11611909251E+03 -0.58044580265E+01  0.22559699144E+03  0.25379391066E+03  0.10566000000E+00 0. -1.
         -4    1    4    4    0  501 -0.31292422545E+03  0.73372697861E+03 -0.73006235031E+03  0.10813269096E+04  0.00000000000E+00 0. -1.
<mgrwt>
<rscale>  2 0.12397548E+04</rscale>
<asrwt>0</asrwt>
<pdfrwt beam="1">  1        2 0.17259859E+00 0.12397548E+04</pdfrwt>
<pdfrwt beam="2">  1       -2 0.22566121E+00 0.12397548E+04</pdfrwt>
<totfact> 0.19910350E+00</totfact>
</mgrwt>
</event>
<event>
 8    1  0.1373409E-005  0.1032091E+04  0.7818608E-02  0.8745010E-01
          2   -1    0    0  502    0  0.00000000000E+00  0.00000000000E+00  0.14996113786E+04  0.14996113786E+04  0.00000000000E+00 0. -1.
         -2   -1    0    0    0  501 -0.00000000000E+00 -0.00000000000E+00 -0.76555053123E+03  0.76555053123E+03  0.00000000000E+00 0.  1.
    9000010    2    1    2  502    0  0.21715932949E+03 -0.17098398656E+02  0.67055649754E+03  0.12291160116E+04  0.10067917480E+04 0.  0.
   -9000010    2    1    2    0  501 -0.21715932949E+03  0.17098398656E+02  0.63504349807E+02  0.10360458982E+04  0.10108945401E+04 0.  0.
        -13    1    3    3    0    0  0.30001423443E+03 -0.23663240398E+03 -0.12314328285E+03  0.40145698991E+03  0.10566000000E+00 0.  1.
          4    1    3    3  502    0 -0.82854904936E+02  0.21953400532E+03  0.79369978038E+03  0.82765902167E+03  0.00000000000E+00 0.  1.
         13    1    4    4    0    0  0.84116442017E+02 -0.45662591123E+03  0.94312212328E+02  0.47379067444E+03  0.10566000000E+00 0. -1.
         -4    1    4    4    0  501 -0.30127577151E+03  0.47372430989E+03 -0.30807862521E+02  0.56225522379E+03  0.00000000000E+00 0. -1.
<mgrwt>
<rscale>  2 0.10320907E+04</rscale>
<asrwt>0</asrwt>
<pdfrwt beam="1">  1        2 0.23070944E+00 0.10320907E+04</pdfrwt>
<pdfrwt beam="2">  1       -2 0.11777701E+00 0.10320907E+04</pdfrwt>
<totfact> 0.10585781E+01</totfact>
</mgrwt>
</event>
<event>
 8    1  0.1373409E-005  0.1869058E+04  0.7818608E-02  0.8223893E-01
         -2   -1    0    0    0  501 -0.00000000000E+00  0.00000000000E+00  0.14479625103E+04  0.14479625103E+04  0.00000000000E+00 0. -1.
          2   -1    0    0  502    0  0.00000000000E+00 -0.00000000000E+00 -0.24616123651E+04  0.24616123651E+04  0.00000000000E+00 0.  1.
    9000010    2    1    2  502    0 -0.17914966627E+03 -0.14999119443E+04 -0.79137970583E+03  0.20878589832E+04  0.12045924005E+04 0.  0.
   -9000010    2    1    2    0  501  0.17914966627E+03  0.14999119443E+04 -0.22227014897E+03  0.18217158923E+04  0.99368723924E+03 0.  0.
        -13    1    3    3    0    0  0.34364905938E+03 -0.15948860542E+02 -0.46728781026E+02  0.34717809882E+03  0.10566000000E+00 0.  1.
          4    1    3    3  502    0 -0.52279872565E+03 -0.14839630837E+04 -0.74465092480E+03  0.17406808844E+04  0.00000000000E+00 0.  1.
         13    1    4    4    0    0  0.83012476011E+02  0.15937765901E+04 -0.35271554389E+03  0.16344488846E+04  0.10566000000E+00 0. -1.
         -4    1    4    4    0  501  0.96137190259E+02 -0.93864645835E+02  0.13044539492E+03  0.18726700763E+03  0.00000000000E+00 0. -1.
<mgrwt>
<rscale>  2 0.18690575E+04</rscale>
<asrwt>0</asrwt>
<pdfrwt beam="2">  1        2 0.37870959E+00 0.18690575E+04</pdfrwt>
<pdfrwt beam="1">  1       -2 0.22276347E+00 0.18690575E+04</pdfrwt>
<totfact> 0.35715395E-01</totfact>
</mgrwt>
</event>
<event>
 8    1  0.1373409E-005  0.1151004E+04  0.7818608E-02  0.8644400E-01
          1   -1    0    0  502    0  0.00000000000E+00  0.00000000000E+00  0.18454971624E+04  0.18454971624E+04  0.00000000000E+00 0. -1.
         -1   -1    0    0    0  501 -0.00000000000E+00 -0.00000000000E+00 -0.84050059769E+03  0.84050059769E+03  0.00000000000E+00 0.  1.
    9000010    2    1    2  502    0 -0.57608777517E+03 -0.15057353494E+03 -0.10741947189E+02  0.11504253416E+04  0.98428327373E+03 0.  0.
   -9000010    2    1    2    0  501  0.57608777517E+03  0.15057353494E+03  0.10157385119E+04  0.15355724185E+04  0.98575271437E+03 0.  0.
        -13    1    3    3    0    0 -0.44341572183E+03  0.38991113289E+03  0.38519421112E+02  0.59171948665E+03  0.10566000000E+00 0.  1.
          4    1    3    3  502    0 -0.13267205334E+03 -0.54048466783E+03 -0.49261368301E+02  0.55870585491E+03  0.00000000000E+00 0.  1.
         13    1    4    4    0    0  0.35803529570E+03  0.38476353933E+03  0.10873146018E+04  0.12076776509E+04  0.10566000000E+00 0. -1.
         -4    1    4    4    0  501  0.21805247947E+03 -0.23419000439E+03 -0.71576089911E+02  0.32789476758E+03  0.00000000000E+00 0. -1.
<mgrwt>
<rscale>  2 0.11510038E+04</rscale>
<asrwt>0</asrwt>
<pdfrwt beam="1">  1        1 0.28392264E+00 0.11510038E+04</pdfrwt>
<pdfrwt beam="2">  1       -1 0.12930778E+00 0.11510038E+04</pdfrwt>
<totfact> 0.27085521E+00</totfact>
</mgrwt>
</event>
<event>
 8    1  0.1373409E-005  0.1036444E+04  0.7818608E-02  0.8741083E-01
         -2   -1    0    0    0  501 -0.00000000000E+00  0.00000000000E+00  0.88368031230E+03  0.88368031230E+03  0.00000000000E+00 0.  1.
          2   -1    0    0  502    0  0.00000000000E+00 -0.00000000000E+00 -0.12548033875E+04  0.12548033875E+04  0.00000000000E+00 0. -1.
    9000010    2    1    2  502    0  0.75090251598E+02 -0.28824731855E+03 -0.36276647753E+03  0.10605751128E+04  0.95104941514E+03 0.  0.
   -9000010    2    1    2    0  501 -0.75090251598E+02  0.28824731855E+03 -0.83565976191E+01  0.10779085870E+04  0.10359015526E+04 0.  0.
        -13    1    3    3    0    0 -0.39053917760E+03 -0.12879510357E+02 -0.34189867443E+03  0.51921233206E+03  0.10566000000E+00 0.  1.
          4    1    3    3  502    0  0.46562942919E+03 -0.27536780819E+03 -0.20867803109E+02  0.54136278070E+03  0.00000000000E+00 0.  1.
         13    1    4    4    0    0 -0.50677697272E+03  0.18971838925E+03  0.21463778963E+03  0.58213860823E+03  0.10566000000E+00 0. -1.
         -4    1    4    4    0  501  0.43168672112E+03  0.98528929302E+02 -0.22299438725E+03  0.49576997877E+03  0.00000000000E+00 0. -1.
<mgrwt>
<rscale>  2 0.10364439E+04</rscale>
<asrwt>0</asrwt>
<pdfrwt beam="2">  1        2 0.19304668E+00 0.10364439E+04</pdfrwt>
<pdfrwt beam="1">  1       -2 0.13595082E+00 0.10364439E+04</pdfrwt>
<totfact> 0.97716202E+00</totfact>
</mgrwt>
</event>
<event>
 8    1  0.1373409E-005  0.1257013E+04  0.7818608E-02  0.8564824E-01
          1   -1    0    0  502    0  0.00000000000E+00  0.00000000000E+00  0.30330994264E+04  0.30330994264E+04  0.00000000000E+00 0.  1.
         -1   -1    0    0    0  501 -0.00000000000E+00 -0.00000000000E+00 -0.54248930272E+03  0.54248930272E+03  0.00000000000E+00 0. -1.
    9000010    2    1    2  502    0  0.92492346456E+02 -0.75963450121E+03  0.88710124018E+03  0.15368463096E+04  0.99466002205E+03 0.  0.
   -9000010    2    1    2    0  501 -0.92492346456E+02  0.75963450121E+03  0.16035088835E+04  0.20387424195E+04  0.99981523494E+03 0.  0.
        -13    1    3    3    0    0  0.22993108167E+03 -0.20833852796E+03 -0.15732015556E+03  0.34788343890E+03  0.10566000000E+00 0.  1.
          4    1    3    3  502    0 -0.13743873522E+03 -0.55129597325E+03  0.10444213957E+04  0.11889628707E+04  0.00000000000E+00 0.  1.
         13    1    4    4    0    0 -0.45835134917E+03  0.76582549772E+03  0.11074567010E+04  0.14223343517E+04  0.10566000000E+00 0. -1.
         -4    1    4    4    0  501  0.36585900271E+03 -0.61909965058E+01  0.49605218244E+03  0.61640806776E+03  0.00000000000E+00 0. -1.
<mgrwt>
<rscale>  2 0.12570126E+04</rscale>
<asrwt>0</asrwt>
<pdfrwt beam="1">  1        1 0.46663067E+00 0.12570126E+04</pdfrwt>
<pdfrwt beam="2">  1       -1 0.83459895E-01 0.12570126E+04</pdfrwt>
<totfact> 0.62550040E-01</totfact>
</mgrwt>
</event>
<event>
 8    1  0.1373409E-005  0.1278794E+04  0.7818608E-02  0.8549479E-01
          2   -1    0    0  502    0  0.00000000000E+00  0.00000000000E+00  0.21798856370E+04  0.21798856370E+04  0.00000000000E+00 0.  1.
         -2   -1    0    0    0  501 -0.00000000000E+00 -0.00000000000E+00 -0.77531249010E+03  0.77531249010E+03  0.00000000000E+00 0. -1.
    9000010    2    1    2  502    0 -0.76525830988E+03 -0.21644295363E+03  0.97309754425E+03  0.16144860314E+04  0.10134981411E+04 0.  0.
   -9000010    2    1    2    0  501  0.76525830988E+03  0.21644295363E+03  0.43147560264E+03  0.13407120957E+04  0.98937853967E+03 0.  0.
        -13    1    3    3    0    0  0.16833647782E+03 -0.11040461658E+03  0.54684579476E+03  0.58272350522E+03  0.10566000000E+00 0.  1.
          4    1    3    3  502    0 -0.93359478770E+03 -0.10603833704E+03  0.42625174950E+03  0.10317625262E+04  0.00000000000E+00 0.  1.
         13    1    4    4    0    0  0.19137073612E+03  0.43678913715E+03 -0.14452219790E+03  0.49829126606E+03  0.10566000000E+00 0. -1.
         -4    1    4    4    0  501  0.57388757376E+03 -0.22034618353E+03  0.57599780054E+03  0.84242082960E+03  0.00000000000E+00 0. -1.
<mgrwt>
<rscale>  2 0.12787938E+04</rscale>
<asrwt>0</asrwt>
<pdfrwt beam="1">  1        2 0.33536702E+00 0.12787938E+04</pdfrwt>
<pdfrwt beam="2">  1       -2 0.11927885E+00 0.12787938E+04</pdfrwt>
<totfact> 0.42496302E+00</totfact>
</mgrwt>
</event>
<event>
 8    1  0.1373409E-005  0.1259912E+04  0.7818608E-02  0.8562763E-01
          4   -1    0    0  502    0  0.00000000000E+00  0.00000000000E+00  0.10052457851E+04  0.10052457851E+04  0.00000000000E+00 0.  1.
         -4   -1    0    0    0  501 -0.00000000000E+00 -0.00000000000E+00 -0.16488951229E+04  0.16488951229E+04  0.00000000000E+00 0. -1.
    9000010    2    1    2  502    0  0.57594375980E+03  0.52088482767E+03 -0.59699414420E+03  0.14027748781E+04  0.10041629012E+04 0.  0.
   -9000010    2    1    2    0  501 -0.57594375980E+03 -0.52088482767E+03 -0.46655193549E+02  0.12513660299E+04  0.98015713819E+03 0.  0.
        -13    1    3    3    0    0  0.53896562734E+03 -0.16065767616E+03 -0.40718220321E+03  0.69432859234E+03  0.10566000000E+00 0.  1.
          4    1    3    3  502    0  0.36978132459E+02  0.68154250384E+03 -0.18981194099E+03  0.70844628572E+03  0.00000000000E+00 0.  1.
         13    1    4    4    0    0  0.31201310343E+02 -0.60496305881E+03 -0.16337754562E+03  0.62741219136E+03  0.10566000000E+00 0. -1.
         -4    1    4    4    0  501 -0.60714507015E+03  0.84078231136E+02  0.11672235207E+03  0.62395383854E+03  0.00000000000E+00 0. -1.
<mgrwt>
<rscale>  2 0.12599123E+04</rscale>
<asrwt>0</asrwt>
<pdfrwt beam="1">  1        4 0.15465320E+00 0.12599123E+04</pdfrwt>
<pdfrwt beam="2">  1       -4 0.25367617E+00 0.12599123E+04</pdfrwt>
<totfact> 0.18849973E-01</totfact>
</mgrwt>
</event>
<event>
 8    1  0.1373409E-005  0.1260747E+04  0.7818608E-02  0.8562171E-01
         -2   -1    0    0    0  501 -0.00000000000E+00  0.00000000000E+00  0.85618135702E+03  0.85618135702E+03  0.00000000000E+00 0.  1.
          2   -1    0    0  502    0  0.00000000000E+00 -0.00000000000E+00 -0.21005716271E+04  0.21005716271E+04  0.00000000000E+00 0. -1.
    9000010    2    1    2  502    0  0.37151183687E+03  0.66460768081E+03 -0.11845421216E+03  0.12667945588E+04  0.10054912428E+04 0.  0.
   -9000010    2    1    2    0  501 -0.37151183687E+03 -0.66460768081E+03 -0.11259360580E+04  0.16899584254E+04  0.10042425298E+04 0.  0.
        -13    1    3    3    0    0  0.29267898931E+01  0.83616641046E+03 -0.18077687495E+03  0.85548998928E+03  0.10566000000E+00 0.  1.
          4    1    3    3  502    0  0.36858504697E+03 -0.17155872965E+03  0.62322662784E+02  0.41130456947E+03  0.00000000000E+00 0.  1.
         13    1    4    4    0    0 -0.41381592779E+02 -0.62824845808E+02 -0.98673357482E+03  0.98959716871E+03  0.10566000000E+00 0. -1.
         -4    1    4    4    0  501 -0.33013024409E+03 -0.60178283500E+03 -0.13920248314E+03  0.70036125669E+03  0.00000000000E+00 0. -1.
<mgrwt>
<rscale>  2 0.12607465E+04</rscale>
<asrwt>0</asrwt>
<pdfrwt beam="2">  1        2 0.32316487E+00 0.12607465E+04</pdfrwt>
<pdfrwt beam="1">  1       -2 0.13172021E+00 0.12607465E+04</pdfrwt>
<totfact> 0.35940411E+00</totfact>
</mgrwt>
</event>
<event>
 8    1  0.1373409E-005  0.9146221E+03  0.7818608E-02  0.8859232E-01
         -2   -1    0    0    0  501 -0.00000000000E+00  0.00000000000E+00  0.17858240803E+04  0.17858240803E+04  0.00000000000E+00 0.  1.
          2   -1    0    0  502    0  0.00000000000E+00 -0.00000000000E+00 -0.51641657021E+03  0.51641657021E+03  0.00000000000E+00 0. -1.
    9000010    2    1    2  502    0 -0.33982870395E+03 -0.78514757673E+02  0.87738273720E+03  0.11896411814E+04  0.72373859763E+03 0.  0.
   -9000010    2    1    2    0  501  0.33982870395E+03  0.78514757673E+02  0.39202477285E+03  0.11125994691E+04  0.98109430785E+03 0.  0.
        -13    1    3    3    0    0 -0.10610911452E+03  0.19077741604E+03 -0.24651517977E+02  0.21968813158E+03  0.10566000000E+00 0.  1.
          4    1    3    3  502    0 -0.23371958943E+03 -0.26929217371E+03  0.90203425518E+03  0.96995304981E+03  0.00000000000E+00 0.  1.
         13    1    4    4    0    0 -0.19920658285E+03  0.35747204693E+03  0.27883422428E+03  0.49519497451E+03  0.10566000000E+00 0. -1.
         -4    1    4    4    0  501  0.53903528680E+03 -0.27895728926E+03  0.11319054858E+03  0.61740449458E+03  0.00000000000E+00 0. -1.
<mgrwt>
<rscale>  2 0.91462210E+03</rscale>
<asrwt>0</asrwt>
<pdfrwt beam="2">  1        2 0.79448704E-01 0.91462210E+03</pdfrwt>
<pdfrwt beam="1">  1       -2 0.27474216E+00 0.91462210E+03</pdfrwt>
<totfact> 0.23117125E+00</totfact>
</mgrwt>
</event>
<event>
 8    1  0.1373409E-005  0.1196175E+04  0.7818608E-02  0.8609448E-01
         -2   -1    0    0    0  501 -0.00000000000E+00  0.00000000000E+00  0.49814278028E+03  0.49814278028E+03  0.00000000000E+00 0. -1.
          2   -1    0    0  502    0  0.00000000000E+00 -0.00000000000E+00 -0.28734119738E+04  0.28734119738E+04  0.00000000000E+00 0.  1.
    9000010    2    1    2  502    0 -0.93911730405E+02  0.65094488473E+03 -0.11483185255E+04  0.16510191399E+04  0.98725888611E+03 0.  0.
   -9000010    2    1    2    0  501  0.93911730405E+02 -0.65094488473E+03 -0.12269506680E+04  0.17205356142E+04  0.10110816989E+04 0.  0.
        -13    1    3    3    0    0 -0.37923537490E+03  0.44685318826E+03 -0.11603978645E+04  0.13000078678E+04  0.10566000000E+00 0.  1.
          4    1    3    3  502    0  0.28532364449E+03  0.20409169647E+03  0.12079338965E+02  0.35101127205E+03  0.00000000000E+00 0.  1.
         13    1    4    4    0    0  0.67692465983E+02 -0.90419277508E+03 -0.11283161917E+04  0.14474958667E+04  0.10566000000E+00 0. -1.
         -4    1    4    4    0  501  0.26219264423E+02  0.25324789035E+03 -0.98634476329E+02  0.27303974750E+03  0.00000000000E+00 0. -1.
<mgrwt>
<rscale>  2 0.11961747E+04</rscale>
<asrwt>0</asrwt>
<pdfrwt beam="2">  1        2 0.44206338E+00 0.11961747E+04</pdfrwt>
<pdfrwt beam="1">  1       -2 0.76637352E-01 0.11961747E+04</pdfrwt>
<totfact> 0.49464837E+00</totfact>
</mgrwt>
</event>
<event>
 8    1  0.1373409E-005  0.1178550E+04  0.7818608E-02  0.8622892E-01
         -1   -1    0    0    0  501 -0.00000000000E+00  0.00000000000E+00  0.32765018668E+04  0.32765018668E+04  0.00000000000E+00 0.  1.
          1   -1    0    0  502    0  0.00000000000E+00 -0.00000000000E+00 -0.55372524601E+03  0.55372524601E+03  0.00000000000E+00 0. -1.
    9000010    2    1    2  502    0  0.58766626923E+03  0.15558457012E+03  0.22947970693E+04  0.25829830310E+04  0.10179143120E+04 0.  0.
   -9000010    2    1    2    0  501 -0.58766626923E+03 -0.15558457012E+03  0.42797955145E+03  0.12472440818E+04  0.10014455056E+04 0.  0.
        -13    1    3    3    0    0  0.14830956817E+03  0.54409987643E+03  0.81401869900E+03  0.99028625005E+03  0.10566000000E+00 0.  1.
          4    1    3    3  502    0  0.43935670106E+03 -0.38851530630E+03  0.14807783703E+04  0.15926967809E+04  0.00000000000E+00 0.  1.
         13    1    4    4    0    0  0.22079694245E+03 -0.16823882424E+03 -0.84241849915E+02  0.29009014498E+03  0.10566000000E+00 0. -1.
         -4    1    4    4    0  501 -0.80846321168E+03  0.12654254112E+02  0.51222140137E+03  0.95715393684E+03  0.00000000000E+00 0. -1.
<mgrwt>
<rscale>  2 0.11785500E+04</rscale>
<asrwt>0</asrwt>
<pdfrwt beam="2">  1        1 0.85188501E-01 0.11785500E+04</pdfrwt>
<pdfrwt beam="1">  1       -1 0.50407720E+00 0.11785500E+04</pdfrwt>
<totfact> 0.48755435E-01</totfact>
</mgrwt>
</event>
<event>
 8    1  0.1373409E-005  0.1339315E+04  0.7818608E-02  0.8508444E-01
          2   -1    0    0  502    0  0.00000000000E+00  0.00000000000E+00  0.26891606115E+04  0.26891606115E+04  0.00000000000E+00 0.  1.
         -2   -1    0    0    0  501 -0.00000000000E+00 -0.00000000000E+00 -0.67516648911E+03  0.67516648911E+03  0.00000000000E+00 0. -1.
    9000010    2    1    2  502    0 -0.83510147021E+03 -0.32023459972E+03  0.11905724588E+04  0.17909681228E+04  0.99506752169E+03 0.  0.
   -9000010    2    1    2    0  501  0.83510147021E+03  0.32023459972E+03  0.82342166354E+03  0.15733589778E+04  0.99874449819E+03 0.  0.
        -13    1    3    3    0    0 -0.69330798258E+03 -0.19855421683E+03  0.15367537318E+03  0.73737091563E+03  0.10566000000E+00 0.  1.
          4    1    3    3  502    0 -0.14179348763E+03 -0.12168038289E+03  0.10368970856E+04  0.10535972072E+04  0.00000000000E+00 0.  1.
         13    1    4    4    0    0  0.18612396816E+03  0.59912507045E+03  0.30772143403E+03  0.69877426519E+03  0.10566000000E+00 0. -1.
         -4    1    4    4    0  501  0.64897750205E+03 -0.27889047073E+03  0.51570022951E+03  0.87458471262E+03  0.00000000000E+00 0. -1.
<mgrwt>
<rscale>  2 0.13393155E+04</rscale>
<asrwt>0</asrwt>
<pdfrwt beam="1">  1        2 0.41371701E+00 0.13393155E+04</pdfrwt>
<pdfrwt beam="2">  1       -2 0.10387177E+00 0.13393155E+04</pdfrwt>
<totfact> 0.31090875E+00</totfact>
</mgrwt>
</event>
<event>
 8    1  0.1373409E-005  0.1428909E+04  0.7818608E-02  0.8451625E-01
          1   -1    0    0  502    0  0.00000000000E+00  0.00000000000E+00  0.17840643038E+04  0.17840643038E+04  0.00000000000E+00 0. -1.
         -1   -1    0    0    0  501 -0.00000000000E+00 -0.00000000000E+00 -0.11552448307E+04  0.11552448307E+04  0.00000000000E+00 0.  1.
    9000010    2    1    2  502    0 -0.24145479782E+03  0.98754879439E+03  0.17219979604E+03  0.14384181987E+04  0.10029162995E+04 0.  0.
   -9000010    2    1    2    0  501  0.24145479782E+03 -0.98754879439E+03  0.45661967706E+03  0.15008909358E+04  0.10052954944E+04 0.  0.
        -13    1    3    3    0    0  0.31333393685E+03  0.30944322746E+02  0.99435805021E+02  0.33018661023E+03  0.10566000000E+00 0.  1.
          4    1    3    3  502    0 -0.55478873467E+03  0.95660447165E+03  0.72763991021E+02  0.11082315885E+04  0.00000000000E+00 0.  1.
         13    1    4    4    0    0  0.52410003867E+03 -0.10180067528E+04  0.38101770955E+03  0.12067282650E+04  0.10566000000E+00 0. -1.
         -4    1    4    4    0  501 -0.28264524085E+03  0.30457958444E+02  0.75601967519E+02  0.29416267081E+03  0.00000000000E+00 0. -1.
<mgrwt>
<rscale>  2 0.14289093E+04</rscale>
<asrwt>0</asrwt>
<pdfrwt beam="1">  1        1 0.27447143E+00 0.14289093E+04</pdfrwt>
<pdfrwt beam="2">  1       -1 0.17772997E+00 0.14289093E+04</pdfrwt>
<totfact> 0.11011447E+00</totfact>
</mgrwt>
</event>
<event>
 8    1  0.1373409E-005  0.1028292E+04  0.7818608E-02  0.8748454E-01
         -2   -1    0    0    0  501 -0.00000000000E+00  0.00000000000E+00  0.75495381994E+03  0.75495381994E+03  0.00000000000E+00 0. -1.
          2   -1    0    0  502    0  0.00000000000E+00 -0.00000000000E+00 -0.19384892923E+04  0.19384892923E+04  0.00000000000E+00 0.  1.
    9000010    2    1    2  502    0 -0.29030664157E+02 -0.22889455721E+03  0.11792848965E+03  0.10343359886E+04  0.10013532398E+04 0.  0.
   -9000010    2    1    2    0  501  0.29030664157E+02  0.22889455721E+03 -0.13014639621E+04  0.16591071237E+04  0.10027923542E+04 0.  0.
        -13    1    3    3    0    0  0.10090767626E+02 -0.40837999667E+03 -0.34601202640E+03  0.53535070641E+03  0.10566000000E+00 0.  1.
          4    1    3    3  502    0 -0.39121431782E+02  0.17948543947E+03  0.46394051605E+03  0.49898528219E+03  0.00000000000E+00 0.  1.
         13    1    4    4    0    0 -0.33742908713E+03  0.30788410319E+03 -0.20564517475E+03  0.50094007515E+03  0.10566000000E+00 0. -1.
         -4    1    4    4    0  501  0.36645975128E+03 -0.78989545978E+02 -0.10958187873E+04  0.11581670485E+04  0.00000000000E+00 0. -1.
<mgrwt>
<rscale>  2 0.10282922E+04</rscale>
<asrwt>0</asrwt>
<pdfrwt beam="2">  1        2 0.29822912E+00 0.10282922E+04</pdfrwt>
<pdfrwt beam="1">  1       -2 0.11614674E+00 0.10282922E+04</pdfrwt>
<totfact> 0.63479122E+00</totfact>
</mgrwt>
</event>
<event>
 8    1  0.1373409E-005  0.1099200E+04  0.7818608E-02  0.8686597E-01
          2   -1    0    0  502    0  0.00000000000E+00  0.00000000000E+00  0.14528356190E+04  0.14528356190E+04  0.00000000000E+00 0.  1.
         -2   -1    0    0    0  501 -0.00000000000E+00 -0.00000000000E+00 -0.83704801080E+03  0.83704801080E+03  0.00000000000E+00 0. -1.
    9000010    2    1    2  502    0  0.46153310262E+03  0.14640932800E+03  0.21801565405E+03  0.11271921047E+04  0.99427497173E+03 0.  0.
   -9000010    2    1    2    0  501 -0.46153310262E+03 -0.14640932800E+03  0.39777195415E+03  0.11626915251E+04  0.97937763852E+03 0.  0.
        -13    1    3    3    0    0 -0.53541589893E+02  0.47940733227E+03  0.20473281866E+02  0.48282218106E+03  0.10566000000E+00 0.  1.
          4    1    3    3  502    0  0.51507469252E+03 -0.33299800428E+03  0.19754237218E+03  0.64436992367E+03  0.00000000000E+00 0.  1.
         13    1    4    4    0    0 -0.62744846434E+03 -0.20465264016E+03  0.60192806080E+03  0.89324782679E+03  0.10566000000E+00 0. -1.
         -4    1    4    4    0  501  0.16591536171E+03  0.58243312160E+02 -0.20415610665E+03  0.26944369829E+03  0.00000000000E+00 0. -1.
<mgrwt>
<rscale>  2 0.10992000E+04</rscale>
<asrwt>0</asrwt>
<pdfrwt beam="1">  1        2 0.22351317E+00 0.10992000E+04</pdfrwt>
<pdfrwt beam="2">  1       -2 0.12877662E+00 0.10992000E+04</pdfrwt>
<totfact> 0.87779307E+00</totfact>
</mgrwt>
</event>
<event>
 8    1  0.1373409E-005  0.1867795E+04  0.7818608E-02  0.8224450E-01
         -2   -1    0    0    0  501 -0.00000000000E+00  0.00000000000E+00  0.17930448008E+04  0.17930448008E+04  0.00000000000E+00 0. -1.
          2   -1    0    0  502    0  0.00000000000E+00 -0.00000000000E+00 -0.22639230033E+04  0.22639230033E+04  0.00000000000E+00 0.  1.
    9000010    2    1    2  502    0 -0.35848670856E+03 -0.15313949424E+04 -0.99608764430E+03  0.21175319504E+04  0.10089934470E+04 0.  0.
   -9000010    2    1    2    0  501  0.35848670856E+03  0.15313949424E+04  0.52520944181E+03  0.19394358537E+04  0.10059240940E+04 0.  0.
        -13    1    3    3    0    0  0.19806078521E+03 -0.15872909038E+03 -0.49074753519E+03  0.55249991242E+03  0.10566000000E+00 0.  1.
          4    1    3    3  502    0 -0.55654749377E+03 -0.13726658520E+04 -0.50534010912E+03  0.15650320380E+04  0.00000000000E+00 0.  1.
         13    1    4    4    0    0  0.42472838168E+03  0.27742771259E+03 -0.12909980116E+03  0.52347598201E+03  0.10566000000E+00 0. -1.
         -4    1    4    4    0  501 -0.66241673119E+02  0.12539672298E+04  0.65430924297E+03  0.14159598717E+04  0.00000000000E+00 0. -1.
<mgrwt>
<rscale>  2 0.18677948E+04</rscale>
<asrwt>0</asrwt>
<pdfrwt beam="2">  1        2 0.34829585E+00 0.18677948E+04</pdfrwt>
<pdfrwt beam="1">  1       -2 0.27585305E+00 0.18677948E+04</pdfrwt>
<totfact> 0.17720272E-01</totfact>
</mgrwt>
</event>
<event>
 8    1  0.1373409E-005  0.1220668E+04  0.7818608E-02  0.8591159E-01
          2   -1    0    0  502    0  0.00000000000E+00  0.00000000000E+00  0.17761514077E+04  0.17761514077E+04  0.00000000000E+00 0.  1.
         -2   -1    0    0    0  501 -0.00000000000E+00 -0.00000000000E+00 -0.83930020934E+03  0.83930020934E+03  0.00000000000E+00 0. -1.
    9000010    2    1    2  502    0  0.68069159387E+03  0.16330283954E+03  0.48553504673E+03  0.12996009698E+04  0.98143238976E+03 0.  0.
   -9000010    2    1    2    0  501 -0.68069159387E+03 -0.16330283954E+03  0.45131615167E+03  0.13158506473E+04  0.10187088857E+04 0.  0.
        -13    1    3    3    0    0  0.23715115379E+03  0.13743636862E+03 -0.29424421642E+03  0.40213069421E+03  0.10566000000E+00 0.  1.
          4    1    3    3  502    0  0.44354044008E+03  0.25866470922E+02  0.77977926315E+03  0.89747027557E+03  0.00000000000E+00 0.  1.
         13    1    4    4    0    0 -0.55348083970E+03  0.27921574947E+03 -0.65857970226E+02  0.62340978342E+03  0.10566000000E+00 0. -1.
         -4    1    4    4    0  501 -0.12721075417E+03 -0.44251858900E+03  0.51717412190E+03  0.69244086387E+03  0.00000000000E+00 0. -1.
<mgrwt>
<rscale>  2 0.12206684E+04</rscale>
<asrwt>0</asrwt>
<pdfrwt beam="1">  1        2 0.27325406E+00 0.12206684E+04</pdfrwt>
<pdfrwt beam="2">  1       -2 0.12912311E+00 0.12206684E+04</pdfrwt>
<totfact> 0.57317725E+00</totfact>
</mgrwt>
</event>
<event>
 8    1  0.1373409E-005  0.1933308E+04  0.7818608E-02  0.8196099E-01
         -2   -1    0    0    0  501 -0.00000000000E+00  0.00000000000E+00  0.14824615684E+04  0.14824615684E+04  0.00000000000E+00 0.  1.
          2   -1    0    0  502    0  0.00000000000E+00 -0.00000000000E+00 -0.25401157715E+04  0.25401157715E+04  0.00000000000E+00 0. -1.
    9000010    2    1    2  502    0 -0.60005799851E+03  0.15424751834E+04 -0.35566718922E+03  0.19661228581E+04  0.99992032220E+03 0.  0.
   -9000010    2    1    2    0  501  0.60005799851E+03 -0.15424751834E+04 -0.70198701392E+03  0.20564544818E+04  0.99845879984E+03 0.  0.
        -13    1    3    3    0    0 -0.30896266177E+03  0.43670411400E+03  0.33413248434E+03  0.63072413765E+03  0.10566000000E+00 0.  1.
          4    1    3    3  502    0 -0.29109533674E+03  0.11057710694E+04 -0.68979967356E+03  0.13353987205E+04  0.00000000000E+00 0.  1.
         13    1    4    4    0    0  0.17653853999E+03 -0.27776569964E+03  0.25379321601E+03  0.41560876754E+03  0.10566000000E+00 0. -1.
         -4    1    4    4    0  501  0.42351945852E+03 -0.12647094838E+04 -0.95578022993E+03  0.16408457143E+04  0.00000000000E+00 0. -1.
<mgrwt>
<rscale>  2 0.19333079E+04</rscale>
<asrwt>0</asrwt>
<pdfrwt beam="2">  1        2 0.39078704E+00 0.19333079E+04</pdfrwt>
<pdfrwt beam="1">  1       -2 0.22807101E+00 0.19333079E+04</pdfrwt>
<totfact> 0.29028823E-01</totfact>
</mgrwt>
</event>
<event>
 8    1  0.1373409E-005  0.1090324E+04  0.7818608E-02  0.8694070E-01
         -2   -1    0    0    0  501 -0.00000000000E+00  0.00000000000E+00  0.99138415613E+03  0.99138415613E+03  0.00000000000E+00 0. -1.
          2   -1    0    0  502    0  0.00000000000E+00 -0.00000000000E+00 -0.14110530651E+04  0.14110530651E+04  0.00000000000E+00 0.  1.
    9000010    2    1    2  502    0  0.33461447925E+02  0.40994330381E+03 -0.67500763325E+03  0.12806191751E+04  0.10075599167E+04 0.  0.
   -9000010    2    1    2    0  501 -0.33461447925E+02 -0.40994330381E+03  0.25533872429E+03  0.11218180461E+04  0.10119805748E+04 0.  0.
        -13    1    3    3    0    0  0.32809579735E+03  0.16447603908E+03 -0.79761889073E+03  0.87800633579E+03  0.10566000000E+00 0.  1.
          4    1    3    3  502    0 -0.29463434942E+03  0.24546726473E+03  0.12261125747E+03  0.40261283931E+03  0.00000000000E+00 0.  1.
         13    1    4    4    0    0 -0.49704370503E+02 -0.73599926257E+03  0.29187439950E+03  0.79331968033E+03  0.10566000000E+00 0. -1.
         -4    1    4    4    0  501  0.16242922578E+02  0.32605595876E+03 -0.36535675208E+02  0.32849836581E+03  0.00000000000E+00 0. -1.
<mgrwt>
<rscale>  2 0.10903236E+04</rscale>
<asrwt>0</asrwt>
<pdfrwt beam="2">  1        2 0.21708509E+00 0.10903236E+04</pdfrwt>
<pdfrwt beam="1">  1       -2 0.15252064E+00 0.10903236E+04</pdfrwt>
<totfact> 0.56603121E+00</totfact>
</mgrwt>
</event>
<event>
 8    1  0.1373409E-005  0.1073227E+04  0.7818608E-02  0.8708675E-01
         -2   -1    0    0    0  501 -0.00000000000E+00  0.00000000000E+00  0.47195802685E+03  0.47195802685E+03  0.00000000000E+00 0.  1.
          2   -1    0    0  502    0  0.00000000000E+00 -0.00000000000E+00 -0.28645585530E+04  0.28645585530E+04  0.00000000000E+00 0. -1.
    9000010    2    1    2  502    0 -0.38814442402E+03  0.10256866072E+03 -0.55714000428E+03  0.12117413810E+04  0.99836654894E+03 0.  0.
   -9000010    2    1    2    0  501  0.38814442402E+03 -0.10256866072E+03 -0.18354605218E+04  0.21247751988E+04  0.99225898543E+03 0.  0.
        -13    1    3    3    0    0 -0.46940229374E+02  0.44139175397E+02 -0.79123109837E+03  0.79385030965E+03  0.10566000000E+00 0.  1.
          4    1    3    3  502    0 -0.34120419464E+03  0.58429485319E+02  0.23409109409E+03  0.41789107137E+03  0.00000000000E+00 0.  1.
         13    1    4    4    0    0  0.53454355606E+03  0.25441217315E+03 -0.15032809231E+04  0.16156472115E+04  0.10566000000E+00 0. -1.
         -4    1    4    4    0  501 -0.14639913204E+03 -0.35698083387E+03 -0.33217959872E+03  0.50912798727E+03  0.00000000000E+00 0. -1.
<mgrwt>
<rscale>  2 0.10732275E+04</rscale>
<asrwt>0</asrwt>
<pdfrwt beam="2">  1        2 0.44070131E+00 0.10732275E+04</pdfrwt>
<pdfrwt beam="1">  1       -2 0.72608928E-01 0.10732275E+04</pdfrwt>
<totfact> 0.57054587E+00</totfact>
</mgrwt>
</event>
<event>
 8    1  0.1373409E-005  0.1275628E+04  0.7818608E-02  0.8551689E-01
          2   -1    0    0  502    0  0.00000000000E+00  0.00000000000E+00  0.11368336342E+04  0.11368336342E+04  0.00000000000E+00 0.  1.
         -2   -1    0    0    0  501 -0.00000000000E+00 -0.00000000000E+00 -0.14418207427E+04  0.14418207427E+04  0.00000000000E+00 0. -1.
    9000010    2    1    2  502    0 -0.47959287672E+03  0.62121345020E+03 -0.26222841474E+03  0.13019270981E+04  0.10051541918E+04 0.  0.
   -9000010    2    1    2    0  501  0.47959287672E+03 -0.62121345020E+03 -0.42758693766E+02  0.12767272788E+04  0.10061256186E+04 0.  0.
        -13    1    3    3    0    0 -0.46126613364E+03  0.17772022105E+03  0.30563155458E+03  0.58117259169E+03  0.10566000000E+00 0.  1.
          4    1    3    3  502    0 -0.18326743081E+02  0.44349322915E+03 -0.56785996932E+03  0.72075450645E+03  0.00000000000E+00 0.  1.
         13    1    4    4    0    0  0.26920380890E+03  0.25502297161E+03  0.33706125023E+02  0.37234865490E+03  0.10566000000E+00 0. -1.
         -4    1    4    4    0  501  0.21038906783E+03 -0.87623642182E+03 -0.76464818789E+02  0.90437862386E+03  0.00000000000E+00 0. -1.
<mgrwt>
<rscale>  2 0.12756281E+04</rscale>
<asrwt>0</asrwt>
<pdfrwt beam="1">  1        2 0.17489748E+00 0.12756281E+04</pdfrwt>
<pdfrwt beam="2">  1       -2 0.22181858E+00 0.12756281E+04</pdfrwt>
<totfact> 0.20881807E+00</totfact>
</mgrwt>
</event>
<event>
 8    1  0.1373409E-005  0.1082836E+04  0.7818608E-02  0.8700432E-01
          1   -1    0    0  502    0  0.00000000000E+00  0.00000000000E+00  0.51143345764E+03  0.51143345764E+03  0.00000000000E+00 0. -1.
         -1   -1    0    0    0  501 -0.00000000000E+00 -0.00000000000E+00 -0.33266670310E+04  0.33266670310E+04  0.00000000000E+00 0.  1.
    9000010    2    1    2  502    0 -0.30458958330E+03  0.24496437298E+03 -0.34272114456E+03  0.11410857609E+04  0.10157935678E+04 0.  0.
   -9000010    2    1    2    0  501  0.30458958330E+03 -0.24496437298E+03 -0.24725124288E+04  0.26970147277E+04  0.10038866335E+04 0.  0.
        -13    1    3    3    0    0  0.22018440877E+03  0.45815155388E+03 -0.72337163921E+02  0.51343616608E+03  0.10566000000E+00 0.  1.
          4    1    3    3  502    0 -0.52477399207E+03 -0.21318718091E+03 -0.27038398064E+03  0.62764959479E+03  0.00000000000E+00 0.  1.
         13    1    4    4    0    0 -0.92850107635E+02  0.32309676179E+03 -0.46974229152E+03  0.57764218299E+03  0.10566000000E+00 0. -1.
         -4    1    4    4    0  501  0.39743969093E+03 -0.56806113477E+03 -0.20027701373E+04  0.21193725448E+04  0.00000000000E+00 0. -1.
<mgrwt>
<rscale>  2 0.10828357E+04</rscale>
<asrwt>0</asrwt>
<pdfrwt beam="1">  1        1 0.78682069E-01 0.10828357E+04</pdfrwt>
<pdfrwt beam="2">  1       -1 0.51179494E+00 0.10828357E+04</pdfrwt>
<totfact> 0.52092256E-01</totfact>
</mgrwt>
</event>
<event>
 8    1  0.1373409E-005  0.1148447E+04  0.7818608E-02  0.8646428E-01
          1   -1    0    0  502    0  0.00000000000E+00  0.00000000000E+00  0.12552741653E+04  0.12552741653E+04  0.00000000000E+00 0. -1.
         -1   -1    0    0    0  501 -0.00000000000E+00 -0.00000000000E+00 -0.10757319122E+04  0.10757319122E+04  0.00000000000E+00 0.  1.
    9000010    2    1    2  502    0  0.53865703497E+03 -0.98879362761E+02 -0.88363128427E+02  0.11451772642E+04  0.10018454942E+04 0.  0.
   -9000010    2    1    2    0  501 -0.53865703497E+03  0.98879362761E+02  0.26790538152E+03  0.11858288132E+04  0.10170979064E+04 0.  0.
        -13    1    3    3    0    0 -0.19980183655E+03  0.49558683352E+02 -0.29903448217E+03  0.36304058957E+03  0.10566000000E+00 0.  1.
          4    1    3    3  502    0  0.73845887153E+03 -0.14843804611E+03  0.21067135374E+03  0.78213667460E+03  0.00000000000E+00 0.  1.
         13    1    4    4    0    0  0.89966107943E+02 -0.23302611198E+03  0.39140136418E+03  0.46431681909E+03  0.10566000000E+00 0. -1.
         -4    1    4    4    0  501 -0.62862314292E+03  0.33190547474E+03 -0.12349598266E+03  0.72151199415E+03  0.00000000000E+00 0. -1.
<mgrwt>
<rscale>  2 0.11484467E+04</rscale>
<asrwt>0</asrwt>
<pdfrwt beam="1">  1        1 0.19311910E+00 0.11484467E+04</pdfrwt>
<pdfrwt beam="2">  1       -1 0.16549722E+00 0.11484467E+04</pdfrwt>
<totfact> 0.36265042E+00</totfact>
</mgrwt>
</event>
<event>
 8    1  0.1373409E-005  0.1037552E+04  0.7818608E-02  0.8740086E-01
         -2   -1    0    0    0  501 -0.00000000000E+00  0.00000000000E+00  0.10442769439E+04  0.10442769439E+04  0.00000000000E+00 0. -1.
          2   -1    0    0  502    0  0.00000000000E+00 -0.00000000000E+00 -0.10529709954E+04  0.10529709954E+04  0.00000000000E+00 0.  1.
    9000010    2    1    2  502    0 -0.28135806649E+02  0.31648666230E+03 -0.15612782720E+03  0.10435039819E+04  0.98161562275E+03 0.  0.
   -9000010    2    1    2    0  501  0.28135806649E+02 -0.31648666230E+03  0.14743377565E+03  0.10537439574E+04  0.99382301164E+03 0.  0.
        -13    1    3    3    0    0 -0.21587383732E+02  0.60323898884E+03 -0.34957164532E+03  0.69754113798E+03  0.10566000000E+00 0.  1.
          4    1    3    3  502    0 -0.65484229165E+01 -0.28675232654E+03  0.19344381812E+03  0.34596284394E+03  0.00000000000E+00 0.  1.
         13    1    4    4    0    0  0.49816134039E+03 -0.44580462083E+02  0.81486323685E+02  0.50674665344E+03  0.10566000000E+00 0. -1.
         -4    1    4    4    0  501 -0.47002553375E+03 -0.27190620022E+03  0.65947451964E+02  0.54699730393E+03  0.00000000000E+00 0. -1.
<mgrwt>
<rscale>  2 0.10375522E+04</rscale>
<asrwt>0</asrwt>
<pdfrwt beam="2">  1        2 0.16199554E+00 0.10375522E+04</pdfrwt>
<pdfrwt beam="1">  1       -2 0.16065799E+00 0.10375522E+04</pdfrwt>
<totfact> 0.77152511E+00</totfact>
</mgrwt>
</event>
<event>
 8    1  0.1373409E-005  0.1333724E+04  0.7818608E-02  0.8512140E-01
          2   -1    0    0  502    0  0.00000000000E+00  0.00000000000E+00  0.21055263145E+04  0.21055263145E+04  0.00000000000E+00 0. -1.
         -2   -1    0    0    0  501 -0.00000000000E+00 -0.00000000000E+00 -0.84819842753E+03  0.84819842753E+03  0.00000000000E+00 0.  1.
    9000010    2    1    2  502    0  0.56667655738E+03 -0.65463923058E+03  0.52872174195E+03  0.14152572393E+04  0.98677835918E+03 0.  0.
   -9000010    2    1    2    0  501 -0.56667655738E+03  0.65463923058E+03  0.72860614502E+03  0.15384675027E+04  0.10422765945E+04 0.  0.
        -13    1    3    3    0    0  0.71266932995E+03 -0.80988990624E+03  0.53039466215E+03  0.12021388201E+04  0.10566000000E+00 0.  1.
          4    1    3    3  502    0 -0.14599277257E+03  0.15525067565E+03 -0.16729202023E+01  0.21311841918E+03  0.00000000000E+00 0.  1.
         13    1    4    4    0    0  0.25628443009E+03 -0.55351306715E+02  0.86630060633E+02  0.27613448686E+03  0.10566000000E+00 0. -1.
         -4    1    4    4    0  501 -0.82296098747E+03  0.70999053730E+03  0.64197608439E+03  0.12623330158E+04  0.00000000000E+00 0. -1.
<mgrwt>
<rscale>  2 0.13337241E+04</rscale>
<asrwt>0</asrwt>
<pdfrwt beam="1">  1        2 0.32392712E+00 0.13337241E+04</pdfrwt>
<pdfrwt beam="2">  1       -2 0.13049207E+00 0.13337241E+04</pdfrwt>
<totfact> 0.36382147E+00</totfact>
</mgrwt>
</event>
<event>
 8    1  0.1373409E-005  0.1928600E+04  0.7818608E-02  0.8198097E-01
          1   -1    0    0  502    0  0.00000000000E+00  0.00000000000E+00  0.23892721320E+04  0.23892721320E+04  0.00000000000E+00 0. -1.
         -1   -1    0    0    0  501 -0.00000000000E+00 -0.00000000000E+00 -0.15577321084E+04  0.15577321084E+04  0.00000000000E+00 0.  1.
    9000010    2    1    2  502    0  0.11843976147E+04  0.10935648429E+04  0.46273675792E+03  0.20097536415E+04  0.11073854872E+04 0.  0.
   -9000010    2    1    2    0  501 -0.11843976147E+04 -0.10935648429E+04  0.36880326570E+03  0.19372505989E+04  0.10090799071E+04 0.  0.
        -13    1    3    3    0    0  0.10443240607E+04  0.12909582268E+04  0.55492257990E+03  0.17507498302E+04  0.10566000000E+00 0.  1.
          4    1    3    3  502    0  0.14007355397E+03 -0.19739338387E+03 -0.92185821977E+02  0.25900381135E+03  0.00000000000E+00 0.  1.
         13    1    4    4    0    0 -0.93605204285E+02 -0.69396644407E+03 -0.50844153700E+02  0.70209436609E+03  0.10566000000E+00 0. -1.
         -4    1    4    4    0  501 -0.10907924104E+04 -0.39959839884E+03  0.41964741940E+03  0.12351562328E+04  0.00000000000E+00 0. -1.
<mgrwt>
<rscale>  2 0.19286004E+04</rscale>
<asrwt>0</asrwt>
<pdfrwt beam="1">  1        1 0.36758033E+00 0.19286004E+04</pdfrwt>
<pdfrwt beam="2">  1       -1 0.23965109E+00 0.19286004E+04</pdfrwt>
<totfact> 0.93338752E-02</totfact>
</mgrwt>
</event>
<event>
 8    1  0.1373409E-005  0.1306965E+04  0.7818608E-02  0.8530093E-01
          2   -1    0    0  502    0  0.00000000000E+00  0.00000000000E+00  0.29298958082E+04  0.29298958082E+04  0.00000000000E+00 0.  1.
         -2   -1    0    0    0  501 -0.00000000000E+00 -0.00000000000E+00 -0.73189541381E+03  0.73189541381E+03  0.00000000000E+00 0. -1.
    9000010    2    1    2  502    0  0.31360860411E+03 -0.77403938355E+03  0.19253359193E+04  0.23274968010E+04  0.10063973532E+04 0.  0.
   -9000010    2    1    2    0  501 -0.31360860411E+03  0.77403938355E+03  0.27266447507E+03  0.13342944210E+04  0.10042451703E+04 0.  0.
        -13    1    3    3    0    0 -0.12243516186E+03  0.15610146657E+03  0.76875967642E+02  0.21276269008E+03  0.10566000000E+00 0.  1.
          4    1    3    3  502    0  0.43604376597E+03 -0.93014085013E+03  0.18484599517E+04  0.21147341109E+04  0.00000000000E+00 0.  1.
         13    1    4    4    0    0  0.11327963475E+03  0.78272929461E+03  0.40330437962E+03  0.88777917191E+03  0.10566000000E+00 0. -1.
         -4    1    4    4    0  501 -0.42688823886E+03 -0.86899110521E+01 -0.13063990455E+03  0.44651524912E+03  0.00000000000E+00 0. -1.
<mgrwt>
<rscale>  2 0.13069652E+04</rscale>
<asrwt>0</asrwt>
<pdfrwt beam="1">  1        2 0.45075319E+00 0.13069652E+04</pdfrwt>
<pdfrwt beam="2">  1       -2 0.11259930E+00 0.13069652E+04</pdfrwt>
<totfact> 0.18324870E+00</totfact>
</mgrwt>
</event>
<event>
 8    1  0.1373409E-005  0.1234861E+04  0.7818608E-02  0.8580763E-01
         -2   -1    0    0    0  501 -0.00000000000E+00  0.00000000000E+00  0.67585471670E+03  0.67585471670E+03  0.00000000000E+00 0. -1.
          2   -1    0    0  502    0  0.00000000000E+00 -0.00000000000E+00 -0.28867930582E+04  0.28867930582E+04  0.00000000000E+00 0.  1.
    9000010    2    1    2  502    0 -0.70482616001E+03  0.22246921702E+02 -0.27235124210E+03  0.12637176628E+04  0.10126856822E+04 0.  0.
   -9000010    2    1    2    0  501  0.70482616001E+03 -0.22246921702E+02 -0.19385870994E+04  0.22989301121E+04  0.10147338946E+04 0.  0.
        -13    1    3    3    0    0 -0.20889752035E+03  0.11750499023E+03 -0.61056846449E+03  0.65592641182E+03  0.10566000000E+00 0.  1.
          4    1    3    3  502    0 -0.49592863967E+03 -0.95258068524E+02  0.33821722239E+03  0.60779125099E+03  0.00000000000E+00 0.  1.
         13    1    4    4    0    0  0.46530777888E+03  0.45616573417E+02 -0.14696168829E+03  0.49009177696E+03  0.10566000000E+00 0. -1.
         -4    1    4    4    0  501  0.23951838113E+03 -0.67863495119E+02 -0.17916254111E+04  0.18088383351E+04  0.00000000000E+00 0. -1.
<mgrwt>
<rscale>  2 0.12348611E+04</rscale>
<asrwt>0</asrwt>
<pdfrwt beam="2">  1        2 0.44412201E+00 0.12348611E+04</pdfrwt>
<pdfrwt beam="1">  1       -2 0.10397765E+00 0.12348611E+04</pdfrwt>
<totfact> 0.23969115E+00</totfact>
</mgrwt>
</event>
<event>
 8    1  0.1373409E-005  0.1244385E+04  0.7818608E-02  0.8573868E-01
          2   -1    0    0  502    0  0.00000000000E+00  0.00000000000E+00  0.12539298971E+04  0.12539298971E+04  0.00000000000E+00 0. -1.
         -2   -1    0    0    0  501 -0.00000000000E+00 -0.00000000000E+00 -0.12464250547E+04  0.12464250547E+04  0.00000000000E+00 0.  1.
    9000010    2    1    2  502    0 -0.34692997535E+03 -0.67606992561E+03  0.12316161330E+03  0.12376882455E+04  0.96916069765E+03 0.  0.
   -9000010    2    1    2    0  501  0.34692997535E+03  0.67606992561E+03 -0.11565677085E+03  0.12626667063E+04  0.10017583394E+04 0.  0.
        -13    1    3    3    0    0  0.23572133483E+03 -0.19955668805E+03  0.33510713833E+03  0.45572384704E+03  0.10566000000E+00 0.  1.
          4    1    3    3  502    0 -0.58265131018E+03 -0.47651323756E+03 -0.21194552503E+03  0.78196439843E+03  0.00000000000E+00 0.  1.
         13    1    4    4    0    0 -0.27200170290E+03  0.30768781321E+03  0.22237983431E+03  0.46702196806E+03  0.10566000000E+00 0. -1.
         -4    1    4    4    0  501  0.61893167825E+03  0.36838211239E+03 -0.33803660516E+03  0.79564473825E+03  0.00000000000E+00 0. -1.
<mgrwt>
<rscale>  2 0.12443849E+04</rscale>
<asrwt>0</asrwt>
<pdfrwt beam="1">  1        2 0.19291229E+00 0.12443849E+04</pdfrwt>
<pdfrwt beam="2">  1       -2 0.19175770E+00 0.12443849E+04</pdfrwt>
<totfact> 0.31735393E+00</totfact>
</mgrwt>
</event>
<event>
 8    1  0.1373409E-005  0.1154921E+04  0.7818608E-02  0.8641303E-01
          4   -1    0    0  502    0  0.00000000000E+00  0.00000000000E+00  0.45991615964E+03  0.45991615964E+03  0.00000000000E+00 0. -1.
         -4   -1    0    0    0  501 -0.00000000000E+00 -0.00000000000E+00 -0.30075919046E+04  0.30075919046E+04  0.00000000000E+00 0.  1.
    9000010    2    1    2  502    0 -0.22218193006E+03  0.55125578344E+03 -0.93586305569E+03  0.14787404944E+04  0.97856325395E+03 0.  0.
   -9000010    2    1    2    0  501  0.22218193006E+03 -0.55125578344E+03 -0.16118126893E+04  0.19887675699E+04  0.10020022718E+04 0.  0.
        -13    1    3    3    0    0 -0.68936324709E+02 -0.28510160611E+03 -0.27154710085E+03  0.39971612654E+03  0.10566000000E+00 0.  1.
          4    1    3    3  502    0 -0.15324560535E+03  0.83635738955E+03 -0.66431595484E+03  0.10790243679E+04  0.00000000000E+00 0.  1.
         13    1    4    4    0    0  0.30056559790E+03 -0.76917163008E+03 -0.81995380340E+03  0.11637392002E+04  0.10566000000E+00 0. -1.
         -4    1    4    4    0  501 -0.78383667843E+02  0.21791584664E+03 -0.79185888589E+03  0.82502836967E+03  0.00000000000E+00 0. -1.
<mgrwt>
<rscale>  2 0.11549213E+04</rscale>
<asrwt>0</asrwt>
<pdfrwt beam="1">  1        4 0.70756335E-01 0.11549213E+04</pdfrwt>
<pdfrwt beam="2">  1       -4 0.46270643E+00 0.11549213E+04</pdfrwt>
<totfact> 0.14872905E-01</totfact>
</mgrwt>
</event>
<event>
 8    1  0.1373409E-005  0.1323675E+04  0.7818608E-02  0.8518831E-01
         -1   -1    0    0    0  501 -0.00000000000E+00  0.00000000000E+00  0.16479512367E+04  0.16479512367E+04  0.00000000000E+00 0.  1.
          1   -1    0    0  502    0  0.00000000000E+00 -0.00000000000E+00 -0.13413162637E+04  0.13413162637E+04  0.00000000000E+00 0. -1.
    9000010    2    1    2  502    0  0.88721831288E+03 -0.14268157653E+03 -0.52189543459E+03  0.14621705845E+04  0.10286173276E+04 0.  0.
   -9000010    2    1    2    0  501 -0.88721831288E+03  0.14268157653E+03  0.82853040759E+03  0.15270969158E+04  0.91544960921E+03 0.  0.
        -13    1    3    3    0    0  0.45054762976E+03  0.68679151752E+02  0.27275567419E+03  0.53113619867E+03  0.10566000000E+00 0.  1.
          4    1    3    3  502    0  0.43667068313E+03 -0.21136072828E+03 -0.79465110879E+03  0.93103438586E+03  0.00000000000E+00 0.  1.
         13    1    4    4    0    0 -0.71775820246E+03  0.22313204283E+03  0.80541469262E+02  0.75594423417E+03  0.10566000000E+00 0. -1.
         -4    1    4    4    0  501 -0.16946011043E+03 -0.80450466299E+02  0.74798893833E+03  0.77115268165E+03  0.00000000000E+00 0. -1.
<mgrwt>
<rscale>  2 0.13236750E+04</rscale>
<asrwt>0</asrwt>
<pdfrwt beam="2">  1        1 0.20635635E+00 0.13236750E+04</pdfrwt>
<pdfrwt beam="1">  1       -1 0.25353096E+00 0.13236750E+04</pdfrwt>
<totfact> 0.47837605E-01</totfact>
</mgrwt>
</event>
<event>
 8    1  0.1373409E-005  0.1193915E+04  0.7818608E-02  0.8611159E-01
         -1   -1    0    0    0  501 -0.00000000000E+00  0.00000000000E+00  0.81233168052E+03  0.81233168052E+03  0.00000000000E+00 0. -1.
          1   -1    0    0  502    0  0.00000000000E+00 -0.00000000000E+00 -0.25327780839E+04  0.25327780839E+04  0.00000000000E+00 0.  1.
    9000010    2    1    2  502    0  0.31908486947E+02  0.59851212168E+03  0.62588236971E+02  0.12038392389E+04  0.10421500441E+04 0.  0.
   -9000010    2    1    2    0  501 -0.31908486947E+02 -0.59851212168E+03 -0.17830346404E+04  0.21412705255E+04  0.10230308027E+04 0.  0.
        -13    1    3    3    0    0 -0.30128717919E+03  0.59471882593E+03 -0.28255945847E+03  0.72408860300E+03  0.10566000000E+00 0.  1.
          4    1    3    3  502    0  0.33319566613E+03  0.37932957461E+01  0.34514769544E+03  0.47975063594E+03  0.00000000000E+00 0.  1.
         13    1    4    4    0    0 -0.38004265233E+03 -0.23043142446E+03 -0.14924375674E+04  0.15572093510E+04  0.10566000000E+00 0. -1.
         -4    1    4    4    0  501  0.34813416538E+03 -0.36808069721E+03 -0.29059707297E+03  0.58406117453E+03  0.00000000000E+00 0. -1.
<mgrwt>
<rscale>  2 0.11939148E+04</rscale>
<asrwt>0</asrwt>
<pdfrwt beam="2">  1        1 0.38965817E+00 0.11939148E+04</pdfrwt>
<pdfrwt beam="1">  1       -1 0.12497410E+00 0.11939148E+04</pdfrwt>
<totfact> 0.81146916E-01</totfact>
</mgrwt>
</event>
<event>
 8    1  0.1373409E-005  0.1172681E+04  0.7818608E-02  0.8627423E-01
         -4   -1    0    0    0  501 -0.00000000000E+00  0.00000000000E+00  0.87915736256E+03  0.87915736256E+03  0.00000000000E+00 0. -1.
          4   -1    0    0  502    0  0.00000000000E+00 -0.00000000000E+00 -0.17902186244E+04  0.17902186244E+04  0.00000000000E+00 0.  1.
    9000010    2    1    2  502    0 -0.35560021981E+03  0.50308975364E+03 -0.93226855608E+03  0.15040696646E+04  0.10067522429E+04 0.  0.
   -9000010    2    1    2    0  501  0.35560021981E+03 -0.50308975364E+03  0.21207294277E+02  0.11653063223E+04  0.98890760894E+03 0.  0.
        -13    1    3    3    0    0  0.29032004013E+03  0.25467619674E+03 -0.60332050773E+02  0.39087806078E+03  0.10566000000E+00 0.  1.
          4    1    3    3  502    0 -0.64592025994E+03  0.24841355690E+03 -0.87193650531E+03  0.11131916038E+04  0.00000000000E+00 0.  1.
         13    1    4    4    0    0 -0.26798461050E+03  0.59040265162E+02  0.15499838879E+03  0.31516030218E+03  0.10566000000E+00 0. -1.
         -4    1    4    4    0  501  0.62358483032E+03 -0.56213001881E+03 -0.13379109451E+03  0.85014602017E+03  0.00000000000E+00 0. -1.
<mgrwt>
<rscale>  2 0.11726806E+04</rscale>
<asrwt>0</asrwt>
<pdfrwt beam="2">  1        4 0.27541825E+00 0.11726806E+04</pdfrwt>
<pdfrwt beam="1">  1       -4 0.13525498E+00 0.11726806E+04</pdfrwt>
<totfact> 0.20560899E-01</totfact>
</mgrwt>
</event>
<event>
 8    1  0.1373409E-005  0.1395514E+04  0.7818608E-02  0.8472290E-01
          2   -1    0    0  502    0  0.00000000000E+00  0.00000000000E+00  0.26915215296E+04  0.26915215296E+04  0.00000000000E+00 0.  1.
         -2   -1    0    0    0  501 -0.00000000000E+00 -0.00000000000E+00 -0.85950779120E+03  0.85950779120E+03  0.00000000000E+00 0. -1.
    9000010    2    1    2  502    0  0.15249397431E+03 -0.95660734966E+03  0.16216545693E+04  0.21388529458E+04  0.10032827857E+04 0.  0.
   -9000010    2    1    2    0  501 -0.15249397431E+03  0.95660734966E+03  0.21035916908E+03  0.14121763749E+04  0.10058027144E+04 0.  0.
        -13    1    3    3    0    0  0.17917065172E+03 -0.95547362065E+03  0.17531703230E+04  0.20046541235E+04  0.10566000000E+00 0.  1.
          4    1    3    3  502    0 -0.26676677409E+02 -0.11337290083E+01 -0.13151575368E+03  0.13419882237E+03  0.00000000000E+00 0.  1.
         13    1    4    4    0    0  0.21589089631E+03  0.89006746607E+03  0.39181921681E+03  0.99616830059E+03  0.10566000000E+00 0. -1.
         -4    1    4    4    0  501 -0.36838487062E+03  0.66539883584E+02 -0.18146004772E+03  0.41600807436E+03  0.00000000000E+00 0. -1.
<mgrwt>
<rscale>  2 0.13955136E+04</rscale>
<asrwt>0</asrwt>
<pdfrwt beam="1">  1        2 0.41408023E+00 0.13955136E+04</pdfrwt>
<pdfrwt beam="2">  1       -2 0.13223197E+00 0.13955136E+04</pdfrwt>
<totfact> 0.16371126E+00</totfact>
</mgrwt>
</event>
<event>
 8    1  0.1373409E-005  0.2031876E+04  0.7818608E-02  0.8155536E-01
         -2   -1    0    0    0  501 -0.00000000000E+00  0.00000000000E+00  0.15552210699E+04  0.15552210699E+04  0.00000000000E+00 0. -1.
          2   -1    0    0  502    0  0.00000000000E+00 -0.00000000000E+00 -0.26654761823E+04  0.26654761823E+04  0.00000000000E+00 0.  1.
    9000010    2    1    2  502    0 -0.44196534625E+03  0.17297468045E+04 -0.42158564402E+03  0.20790499539E+04  0.97844615604E+03 0.  0.
   -9000010    2    1    2    0  501  0.44196534625E+03 -0.17297468045E+04 -0.68866946837E+03  0.21416472983E+04  0.96178487119E+03 0.  0.
        -13    1    3    3    0    0 -0.27223198215E+03  0.10488283545E+04 -0.73618115565E+03  0.13100052955E+04  0.10566000000E+00 0.  1.
          4    1    3    3  502    0 -0.16973336410E+03  0.68091845008E+03  0.31459551164E+03  0.76904465832E+03  0.00000000000E+00 0.  1.
         13    1    4    4    0    0 -0.22526305748E+03 -0.99721559651E+03 -0.47834689846E+03  0.11287152685E+04  0.10566000000E+00 0. -1.
         -4    1    4    4    0  501  0.66722840372E+03 -0.73253120804E+03 -0.21032256991E+03  0.10129320298E+04  0.00000000000E+00 0. -1.
<mgrwt>
<rscale>  2 0.20318758E+04</rscale>
<asrwt>0</asrwt>
<pdfrwt beam="2">  1        2 0.41007326E+00 0.20318758E+04</pdfrwt>
<pdfrwt beam="1">  1       -2 0.23926478E+00 0.20318758E+04</pdfrwt>
<totfact> 0.19810440E-01</totfact>
</mgrwt>
</event>
<event>
 8    1  0.1373409E-005  0.1066754E+04  0.7818608E-02  0.8714279E-01
         -1   -1    0    0    0  501 -0.00000000000E+00  0.00000000000E+00  0.29682446915E+04  0.29682446915E+04  0.00000000000E+00 0.  1.
          1   -1    0    0  502    0  0.00000000000E+00 -0.00000000000E+00 -0.55667720166E+03  0.55667720166E+03  0.00000000000E+00 0. -1.
    9000010    2    1    2  502    0  0.32857167273E+03 -0.25012605984E+03  0.22948261179E+03  0.10999398994E+04  0.99331924536E+03 0.  0.
   -9000010    2    1    2    0  501 -0.32857167273E+03  0.25012605984E+03  0.21820848781E+04  0.24249819938E+04  0.97392035876E+03 0.  0.
        -13    1    3    3    0    0  0.43573112131E+03 -0.18701451636E+03  0.56764588227E+03  0.73963362433E+03  0.10566000000E+00 0.  1.
          4    1    3    3  502    0 -0.10715944858E+03 -0.63111543482E+02 -0.33816327048E+03  0.36030627505E+03  0.00000000000E+00 0.  1.
         13    1    4    4    0    0 -0.45176786370E+03 -0.20414338159E+02  0.35785509881E+03  0.57668989135E+03  0.10566000000E+00 0. -1.
         -4    1    4    4    0  501  0.12319619098E+03  0.27054039800E+03  0.18242297793E+04  0.18482921025E+04  0.00000000000E+00 0. -1.
<mgrwt>
<rscale>  2 0.10667542E+04</rscale>
<asrwt>0</asrwt>
<pdfrwt beam="2">  1        1 0.85642648E-01 0.10667542E+04</pdfrwt>
<pdfrwt beam="1">  1       -1 0.45665302E+00 0.10667542E+04</pdfrwt>
<totfact> 0.57996174E-01</totfact>
</mgrwt>
</event>
<event>
 8    1  0.1373409E-005  0.1125621E+04  0.7818608E-02  0.8664780E-01
          2   -1    0    0  502    0  0.00000000000E+00  0.00000000000E+00  0.20105169769E+04  0.20105169769E+04  0.00000000000E+00 0.  1.
         -2   -1    0    0    0  501 -0.00000000000E+00 -0.00000000000E+00 -0.96957981690E+03  0.96957981690E+03  0.00000000000E+00 0. -1.
    9000010    2    1    2  502    0 -0.38622432303E+03 -0.39470409612E+03  0.14060683334E+04  0.18099612540E+04  0.99698095848E+03 0.  0.
   -9000010    2    1    2    0  501  0.38622432303E+03  0.39470409612E+03 -0.36513117334E+03  0.11701355399E+04  0.96485017319E+03 0.  0.
        -13    1    3    3    0    0 -0.53357594828E+03 -0.34980566053E+03  0.32137979809E+03  0.71438944457E+03  0.10566000000E+00 0.  1.
          4    1    3    3  502    0  0.14735162525E+03 -0.44898435589E+02  0.10846885353E+04  0.10955718094E+04  0.00000000000E+00 0.  1.
         13    1    4    4    0    0  0.57279525270E+03  0.12476821964E+03  0.10626141034E+03  0.59577932881E+03  0.10566000000E+00 0. -1.
         -4    1    4    4    0  501 -0.18657092967E+03  0.26993587648E+03 -0.47139258369E+03  0.57435621104E+03  0.00000000000E+00 0. -1.
<mgrwt>
<rscale>  2 0.11256207E+04</rscale>
<asrwt>0</asrwt>
<pdfrwt beam="1">  1        2 0.30931030E+00 0.11256207E+04</pdfrwt>
<pdfrwt beam="2">  1       -2 0.14916613E+00 0.11256207E+04</pdfrwt>
<totfact> 0.28472256E+00</totfact>
</mgrwt>
</event>
<event>
 8    1  0.1373409E-005  0.1614074E+04  0.7818608E-02  0.8346714E-01
         -2   -1    0    0    0  501 -0.00000000000E+00  0.00000000000E+00  0.94003890709E+03  0.94003890709E+03  0.00000000000E+00 0. -1.
          2   -1    0    0  502    0  0.00000000000E+00 -0.00000000000E+00 -0.28935410341E+04  0.28935410341E+04  0.00000000000E+00 0.  1.
    9000010    2    1    2  502    0  0.96225950505E+01  0.12298262018E+04 -0.56566063884E+03  0.16793026282E+04  0.99374054852E+03 0.  0.
   -9000010    2    1    2    0  501 -0.96225950505E+01 -0.12298262018E+04 -0.13878414882E+04  0.21542773130E+04  0.10964678126E+04 0.  0.
        -13    1    3    3    0    0 -0.43361225722E+03  0.69281704348E+03 -0.54562764631E+03  0.98271287004E+03  0.10566000000E+00 0.  1.
          4    1    3    3  502    0  0.44323485227E+03  0.53700915834E+03 -0.20032992532E+02  0.69658975818E+03  0.00000000000E+00 0.  1.
         13    1    4    4    0    0 -0.37301419869E+03 -0.91122572401E+03 -0.41597461507E+03  0.10688810991E+04  0.10566000000E+00 0. -1.
         -4    1    4    4    0  501  0.36339160364E+03 -0.31860047781E+03 -0.97186687314E+03  0.10853962139E+04  0.00000000000E+00 0. -1.
<mgrwt>
<rscale>  2 0.16140740E+04</rscale>
<asrwt>0</asrwt>
<pdfrwt beam="2">  1        2 0.44516016E+00 0.16140740E+04</pdfrwt>
<pdfrwt beam="1">  1       -2 0.14462137E+00 0.16140740E+04</pdfrwt>
<totfact> 0.93474982E-01</totfact>
</mgrwt>
</event>
<event>
 8    1  0.1373409E-005  0.1407261E+04  0.7818608E-02  0.8464954E-01
         -2   -1    0    0    0  501 -0.00000000000E+00  0.00000000000E+00  0.13570994946E+04  0.13570994946E+04  0.00000000000E+00 0.  1.
          2   -1    0    0  502    0  0.00000000000E+00 -0.00000000000E+00 -0.20016815483E+04  0.20016815483E+04  0.00000000000E+00 0. -1.
    9000010    2    1    2  502    0 -0.96685683724E+03 -0.19555813072E+03 -0.11946693384E+04  0.18380262014E+04  0.98896428793E+03 0.  0.
   -9000010    2    1    2    0  501  0.96685683724E+03  0.19555813072E+03  0.55008728464E+03  0.15207548416E+04  0.10183536425E+04 0.  0.
        -13    1    3    3    0    0 -0.16304129691E+03 -0.48953222952E+03 -0.28679650467E+03  0.59031899384E+03  0.10566000000E+00 0.  1.
          4    1    3    3  502    0 -0.80381554033E+03  0.29397409880E+03 -0.90787283369E+03  0.12477072076E+04  0.00000000000E+00 0.  1.
         13    1    4    4    0    0  0.10100381736E+04  0.43228232198E+03  0.23366418380E+03  0.11232293087E+04  0.10566000000E+00 0. -1.
         -4    1    4    4    0  501 -0.43181336348E+02 -0.23672419126E+03  0.31642310083E+03  0.39752553286E+03  0.00000000000E+00 0. -1.
<mgrwt>
<rscale>  2 0.14072607E+04</rscale>
<asrwt>0</asrwt>
<pdfrwt beam="2">  1        2 0.30795101E+00 0.14072607E+04</pdfrwt>
<pdfrwt beam="1">  1       -2 0.20878454E+00 0.14072607E+04</pdfrwt>
<totfact> 0.87508482E-01</totfact>
</mgrwt>
</event>
<event>
 8    1  0.1373409E-005  0.1322825E+04  0.7818608E-02  0.8519400E-01
         -2   -1    0    0    0  501 -0.00000000000E+00  0.00000000000E+00  0.54643704780E+03  0.54643704780E+03  0.00000000000E+00 0. -1.
          2   -1    0    0  502    0  0.00000000000E+00 -0.00000000000E+00 -0.33533347965E+04  0.33533347965E+04  0.00000000000E+00 0.  1.
    9000010    2    1    2  502    0  0.38826849709E+03  0.72333918531E+03 -0.97379791716E+03  0.16295529129E+04  0.10164587102E+04 0.  0.
   -9000010    2    1    2    0  501 -0.38826849709E+03 -0.72333918531E+03 -0.18330998316E+04  0.22702189314E+04  0.10581431856E+04 0.  0.
        -13    1    3    3    0    0 -0.30102186340E+03  0.46202194900E+03 -0.55200652536E+03  0.78024974131E+03  0.10566000000E+00 0.  1.
          4    1    3    3  502    0  0.68929036049E+03  0.26131723630E+03 -0.42179139180E+03  0.84930317158E+03  0.00000000000E+00 0.  1.
         13    1    4    4    0    0 -0.77528527740E+02 -0.88055545167E+03 -0.84628897011E+03  0.12237620717E+04  0.10566000000E+00 0. -1.
         -4    1    4    4    0  501 -0.31073996935E+03  0.15721626637E+03 -0.98681086145E+03  0.10464568597E+04  0.00000000000E+00 0. -1.
<mgrwt>
<rscale>  2 0.13228248E+04</rscale>
<asrwt>0</asrwt>
<pdfrwt beam="2">  1        2 0.51589766E+00 0.13228248E+04</pdfrwt>
<pdfrwt beam="1">  1       -2 0.84067238E-01 0.13228248E+04</pdfrwt>
<totfact> 0.19626604E+00</totfact>
</mgrwt>
</event>
<event>
 8    1  0.1373409E-005  0.1294273E+04  0.7818608E-02  0.8538764E-01
          4   -1    0    0  502    0  0.00000000000E+00  0.00000000000E+00  0.59895712374E+03  0.59895712374E+03  0.00000000000E+00 0.  1.
         -4   -1    0    0    0  501 -0.00000000000E+00 -0.00000000000E+00 -0.28319124876E+04  0.28319124876E+04  0.00000000000E+00 0. -1.
    9000010    2    1    2  502    0  0.62486969618E+03  0.41938522057E+03 -0.12464201693E+04  0.17585539470E+04  0.98620618835E+03 0.  0.
   -9000010    2    1    2    0  501 -0.62486969618E+03 -0.41938522057E+03 -0.98653519458E+03  0.16723156643E+04  0.11211787950E+04 0.  0.
        -13    1    3    3    0    0  0.26070078144E+03  0.90294211944E+02  0.12430003147E+03  0.30260279434E+03  0.10566000000E+00 0.  1.
          4    1    3    3  502    0  0.36416891474E+03  0.32909100863E+03 -0.13707202007E+04  0.14559511527E+04  0.00000000000E+00 0.  1.
         13    1    4    4    0    0 -0.11153446288E+03  0.18251415486E+03  0.16853970830E+03  0.27231782456E+03  0.10566000000E+00 0. -1.
         -4    1    4    4    0  501 -0.51333523330E+03 -0.60189937543E+03 -0.11550749029E+04  0.13999978397E+04  0.00000000000E+00 0. -1.
<mgrwt>
<rscale>  2 0.12942728E+04</rscale>
<asrwt>0</asrwt>
<pdfrwt beam="1">  1        4 0.92147252E-01 0.12942728E+04</pdfrwt>
<pdfrwt beam="2">  1       -4 0.43567883E+00 0.12942728E+04</pdfrwt>
<totfact> 0.11463383E-01</totfact>
</mgrwt>
</event>
<event>
 8    1  0.1373409E-005  0.1298342E+04  0.7818608E-02  0.8535973E-01
         -1   -1    0    0    0  501 -0.00000000000E+00  0.00000000000E+00  0.13485145575E+04  0.13485145575E+04  0.00000000000E+00 0.  1.
          1   -1    0    0  502    0  0.00000000000E+00 -0.00000000000E+00 -0.13987345959E+04  0.13987345959E+04  0.00000000000E+00 0. -1.
    9000010    2    1    2  502    0 -0.48417279006E+03  0.67931261312E+03 -0.47301877643E+03  0.13841901913E+04  0.99817173165E+03 0.  0.
   -9000010    2    1    2    0  501  0.48417279006E+03 -0.67931261312E+03  0.42279873802E+03  0.13630589620E+04  0.99160579066E+03 0.  0.
        -13    1    3    3    0    0 -0.77686390978E+03  0.63784043708E+03 -0.37190985860E+03  0.10717625257E+04  0.10566000000E+00 0.  1.
          4    1    3    3  502    0  0.29269111971E+03  0.41472176040E+02 -0.10110891783E+03  0.31242766556E+03  0.00000000000E+00 0.  1.
         13    1    4    4    0    0  0.99712214693E+02 -0.21756764003E+02  0.57695690015E+03  0.58591395130E+03  0.10566000000E+00 0. -1.
         -4    1    4    4    0  501  0.38446057537E+03 -0.65755584911E+03 -0.15415816212E+03  0.77714501071E+03  0.00000000000E+00 0. -1.
<mgrwt>
<rscale>  2 0.12983415E+04</rscale>
<asrwt>0</asrwt>
<pdfrwt beam="2">  1        1 0.21518994E+00 0.12983415E+04</pdfrwt>
<pdfrwt beam="1">  1       -1 0.20746378E+00 0.12983415E+04</pdfrwt>
<totfact> 0.11823987E+00</totfact>
</mgrwt>
</event>
<event>
 8    1  0.1373409E-005  0.1155299E+04  0.7818608E-02  0.8641006E-01
          1   -1    0    0  502    0  0.00000000000E+00  0.00000000000E+00  0.17167413001E+04  0.17167413001E+04  0.00000000000E+00 0.  1.
         -1   -1    0    0    0  501 -0.00000000000E+00 -0.00000000000E+00 -0.77939236073E+03  0.77939236073E+03  0.00000000000E+00 0. -1.
    9000010    2    1    2  502    0 -0.15150218003E+03  0.55999358579E+03  0.53232673238E+03  0.12762515808E+04  0.10044404516E+04 0.  0.
   -9000010    2    1    2    0  501  0.15150218003E+03 -0.55999358579E+03  0.40502220701E+03  0.12198820800E+04  0.99374220717E+03 0.  0.
        -13    1    3    3    0    0 -0.55906739227E+03  0.47539999810E+03  0.25875806882E+03  0.77814989343E+03  0.10566000000E+00 0.  1.
          4    1    3    3  502    0  0.40756521224E+03  0.84593587690E+02  0.27356866356E+03  0.49810168740E+03  0.00000000000E+00 0.  1.
         13    1    4    4    0    0  0.54114450131E+03 -0.10645942271E+03  0.16606623402E+03  0.57597654920E+03  0.10566000000E+00 0. -1.
         -4    1    4    4    0  501 -0.38964232128E+03 -0.45353416308E+03  0.23895597300E+03  0.64390553083E+03  0.00000000000E+00 0. -1.
<mgrwt>
<rscale>  2 0.11552987E+04</rscale>
<asrwt>0</asrwt>
<pdfrwt beam="1">  1        1 0.26411405E+00 0.11552987E+04</pdfrwt>
<pdfrwt beam="2">  1       -1 0.11990652E+00 0.11552987E+04</pdfrwt>
<totfact> 0.40905054E+00</totfact>
</mgrwt>
</event>
<event>
 8    1  0.1373409E-005  0.1404267E+04  0.7818608E-02  0.8466817E-01
          2   -1    0    0  502    0  0.00000000000E+00  0.00000000000E+00  0.36093167608E+04  0.36093167608E+04  0.00000000000E+00 0.  1.
         -2   -1    0    0    0  501 -0.00000000000E+00 -0.00000000000E+00 -0.55076914913E+03  0.55076914913E+03  0.00000000000E+00 0. -1.
    9000010    2    1    2  502    0 -0.28111397229E+03  0.94925287159E+03  0.13481842801E+04  0.19500325642E+04  0.10024570159E+04 0.  0.
   -9000010    2    1    2    0  501  0.28111397229E+03 -0.94925287159E+03  0.17103633316E+04  0.22100533457E+04  0.98938717663E+03 0.  0.
        -13    1    3    3    0    0 -0.39259003174E+03  0.10836401523E+03  0.65889034356E+02  0.41256644172E+03  0.10566000000E+00 0.  1.
          4    1    3    3  502    0  0.11147605945E+03  0.84088885636E+03  0.12822952458E+04  0.15374661225E+04  0.00000000000E+00 0.  1.
         13    1    4    4    0    0  0.35290637514E+03 -0.32616465983E+03  0.11256013294E+03  0.49355454574E+03  0.10566000000E+00 0. -1.
         -4    1    4    4    0  501 -0.71792402842E+02 -0.62308821176E+03  0.15978031987E+04  0.17164988000E+04  0.00000000000E+00 0. -1.
<mgrwt>
<rscale>  2 0.14042673E+04</rscale>
<asrwt>0</asrwt>
<pdfrwt beam="1">  1        2 0.55527949E+00 0.14042673E+04</pdfrwt>
<pdfrwt beam="2">  1       -2 0.84733717E-01 0.14042673E+04</pdfrwt>
<totfact> 0.12396667E+00</totfact>
</mgrwt>
</event>
<event>
 8    1  0.1373409E-005  0.1732896E+04  0.7818608E-02  0.8286776E-01
          2   -1    0    0  502    0  0.00000000000E+00  0.00000000000E+00  0.21105293755E+04  0.21105293755E+04  0.00000000000E+00 0.  1.
         -2   -1    0    0    0  501 -0.00000000000E+00 -0.00000000000E+00 -0.14256716539E+04  0.14256716539E+04  0.00000000000E+00 0. -1.
    9000010    2    1    2  502    0 -0.44427022531E+03  0.13505223988E+04  0.42061165730E+03  0.17799800223E+04  0.98495072501E+03 0.  0.
   -9000010    2    1    2    0  501  0.44427022531E+03 -0.13505223988E+04  0.26424606430E+03  0.17562210071E+04  0.99659392957E+03 0.  0.
        -13    1    3    3    0    0 -0.38958103074E+03  0.13504361942E+04  0.64685936508E+03  0.15472163208E+04  0.10566000000E+00 0.  1.
          4    1    3    3  502    0 -0.54689194567E+02  0.86204604107E-01 -0.22624770778E+03  0.23276370144E+03  0.00000000000E+00 0.  1.
         13    1    4    4    0    0 -0.96269603676E+02 -0.14129401491E+03  0.38989120903E+03  0.42573113732E+03  0.10566000000E+00 0. -1.
         -4    1    4    4    0  501  0.54053982898E+03 -0.12092283839E+04 -0.12564514473E+03  0.13304898697E+04  0.00000000000E+00 0. -1.
<mgrwt>
<rscale>  2 0.17328959E+04</rscale>
<asrwt>0</asrwt>
<pdfrwt beam="1">  1        2 0.32469683E+00 0.17328959E+04</pdfrwt>
<pdfrwt beam="2">  1       -2 0.21933410E+00 0.17328959E+04</pdfrwt>
<totfact> 0.60420711E-01</totfact>
</mgrwt>
</event>
<event>
 8    1  0.1373409E-005  0.1575811E+04  0.7818608E-02  0.8367158E-01
         -1   -1    0    0    0  501 -0.00000000000E+00  0.00000000000E+00  0.12912523851E+04  0.12912523851E+04  0.00000000000E+00 0. -1.
          1   -1    0    0  502    0  0.00000000000E+00 -0.00000000000E+00 -0.19967864370E+04  0.19967864370E+04  0.00000000000E+00 0.  1.
    9000010    2    1    2  502    0  0.16036351220E+03 -0.12052371944E+04 -0.36688533878E+02  0.15752221884E+04  0.10008325252E+04 0.  0.
   -9000010    2    1    2    0  501 -0.16036351220E+03  0.12052371944E+04 -0.66884551798E+03  0.17128166337E+04  0.10040285568E+04 0.  0.
        -13    1    3    3    0    0 -0.25915548985E+03 -0.11152041572E+04 -0.49087182482E+02  0.11459718333E+04  0.10566000000E+00 0.  1.
          4    1    3    3  502    0  0.41951900205E+03 -0.90033037250E+02  0.12398648604E+02  0.42925035511E+03  0.00000000000E+00 0.  1.
         13    1    4    4    0    0 -0.10178004577E+02 -0.62574735706E+02 -0.40401852039E+03  0.40896230304E+03  0.10566000000E+00 0. -1.
         -4    1    4    4    0  501 -0.15018550763E+03  0.12678119301E+04 -0.26482699759E+03  0.13038543307E+04  0.00000000000E+00 0. -1.
<mgrwt>
<rscale>  2 0.15758111E+04</rscale>
<asrwt>0</asrwt>
<pdfrwt beam="2">  1        1 0.30719791E+00 0.15758111E+04</pdfrwt>
<pdfrwt beam="1">  1       -1 0.19865421E+00 0.15758111E+04</pdfrwt>
<totfact> 0.48824822E-01</totfact>
</mgrwt>
</event>
<event>
 8    1  0.1373409E-005  0.1456200E+04  0.7818608E-02  0.8435162E-01
         -1   -1    0    0    0  501 -0.00000000000E+00  0.00000000000E+00  0.12671073576E+04  0.12671073576E+04  0.00000000000E+00 0.  1.
          1   -1    0    0  502    0  0.00000000000E+00 -0.00000000000E+00 -0.24087559613E+04  0.24087559613E+04  0.00000000000E+00 0. -1.
    9000010    2    1    2  502    0 -0.74382206619E+03  0.76695360041E+03 -0.15883414615E+04  0.21601559486E+04  0.10009775386E+04 0.  0.
   -9000010    2    1    2    0  501  0.74382206619E+03 -0.76695360041E+03  0.44669285776E+03  0.15157073703E+04  0.97792905255E+03 0.  0.
        -13    1    3    3    0    0 -0.13980251473E+03  0.70237374018E+03 -0.13077936332E+04  0.14910391719E+04  0.10566000000E+00 0.  1.
          4    1    3    3  502    0 -0.60401955147E+03  0.64579860233E+02 -0.28054782825E+03  0.66911677668E+03  0.00000000000E+00 0.  1.
         13    1    4    4    0    0  0.96699014901E+03 -0.74466420124E+03  0.41546339780E+03  0.12892651267E+04  0.10566000000E+00 0. -1.
         -4    1    4    4    0  501 -0.22316808282E+03 -0.22289399173E+02  0.31229459957E+02  0.22644224357E+03  0.00000000000E+00 0. -1.
<mgrwt>
<rscale>  2 0.14561995E+04</rscale>
<asrwt>0</asrwt>
<pdfrwt beam="2">  1        1 0.37057784E+00 0.14561995E+04</pdfrwt>
<pdfrwt beam="1">  1       -1 0.19493960E+00 0.14561995E+04</pdfrwt>
<totfact> 0.24643172E-01</totfact>
</mgrwt>
</event>
<event>
 8    1  0.1373409E-005  0.1136328E+04  0.7818608E-02  0.8656116E-01
         -1   -1    0    0    0  501 -0.00000000000E+00  0.00000000000E+00  0.12530336133E+04  0.12530336133E+04  0.00000000000E+00 0. -1.
          1   -1    0    0  502    0  0.00000000000E+00 -0.00000000000E+00 -0.14760226551E+04  0.14760226551E+04  0.00000000000E+00 0.  1.
    9000010    2    1    2  502    0  0.12508191843E+03  0.51333264953E+03 -0.86101679901E+03  0.14239236135E+04  0.10035201211E+04 0.  0.
   -9000010    2    1    2    0  501 -0.12508191843E+03 -0.51333264953E+03  0.63802775720E+03  0.13051326549E+04  0.10085315724E+04 0.  0.
        -13    1    3    3    0    0 -0.14916607014E+03  0.73655242957E+03 -0.72748659827E+03  0.10459430003E+04  0.10566000000E+00 0.  1.
          4    1    3    3  502    0  0.27424798857E+03 -0.22321978005E+03 -0.13353020074E+03  0.37798061319E+03  0.00000000000E+00 0.  1.
         13    1    4    4    0    0  0.19613270143E+03 -0.58453980511E+03  0.73762382056E+03  0.96137595775E+03  0.10566000000E+00 0. -1.
         -4    1    4    4    0  501 -0.32121461986E+03  0.71207155582E+02 -0.99596063358E+02  0.34375669718E+03  0.00000000000E+00 0. -1.
<mgrwt>
<rscale>  2 0.11363276E+04</rscale>
<asrwt>0</asrwt>
<pdfrwt beam="2">  1        1 0.22708041E+00 0.11363276E+04</pdfrwt>
<pdfrwt beam="1">  1       -1 0.19277440E+00 0.11363276E+04</pdfrwt>
<totfact> 0.14337666E+00</totfact>
</mgrwt>
</event>
<event>
 8    1  0.1373409E-005  0.1869566E+04  0.7818608E-02  0.8223668E-01
          4   -1    0    0  502    0  0.00000000000E+00  0.00000000000E+00  0.88579919624E+03  0.88579919624E+03  0.00000000000E+00 0.  1.
         -4   -1    0    0    0  501 -0.00000000000E+00 -0.00000000000E+00 -0.40419575775E+04  0.40419575775E+04  0.00000000000E+00 0. -1.
    9000010    2    1    2  502    0  0.15545112326E+04  0.43938256263E+02 -0.12107849956E+04  0.22397208734E+04  0.10639142552E+04 0.  0.
   -9000010    2    1    2    0  501 -0.15545112326E+04 -0.43938256263E+02 -0.19453733857E+04  0.26880359003E+04  0.10112485594E+04 0.  0.
        -13    1    3    3    0    0  0.62907373272E+03 -0.98920182029E+02  0.83460421795E+02  0.64224965300E+03  0.10566000000E+00 0.  1.
          4    1    3    3  502    0  0.92543749991E+03  0.14285843829E+03 -0.12942454174E+04  0.15974712204E+04  0.00000000000E+00 0.  1.
         13    1    4    4    0    0 -0.10581287005E+04 -0.44550659817E+03 -0.15778421730E+04  0.19513324703E+04  0.10566000000E+00 0. -1.
         -4    1    4    4    0  501 -0.49638253211E+03  0.40156834191E+03 -0.36753121271E+03  0.73670342996E+03  0.00000000000E+00 0. -1.
<mgrwt>
<rscale>  2 0.18695660E+04</rscale>
<asrwt>0</asrwt>
<pdfrwt beam="1">  1        4 0.13627680E+00 0.18695660E+04</pdfrwt>
<pdfrwt beam="2">  1       -4 0.62183963E+00 0.18695660E+04</pdfrwt>
<totfact> 0.64286095E-03</totfact>
</mgrwt>
</event>
<event>
 8    1  0.1373409E-005  0.1127267E+04  0.7818608E-02  0.8663442E-01
         -1   -1    0    0    0  501 -0.00000000000E+00  0.00000000000E+00  0.57846954144E+03  0.57846954144E+03  0.00000000000E+00 0.  1.
          1   -1    0    0  502    0  0.00000000000E+00 -0.00000000000E+00 -0.24006857094E+04  0.24006857094E+04  0.00000000000E+00 0. -1.
    9000010    2    1    2  502    0 -0.20596661767E+03 -0.52773159610E+03 -0.13363792482E+04  0.17408464317E+04  0.96110036854E+03 0.  0.
   -9000010    2    1    2    0  501  0.20596661767E+03  0.52773159610E+03 -0.48583691966E+03  0.12383088191E+04  0.98815400313E+03 0.  0.
        -13    1    3    3    0    0 -0.11178646334E+03 -0.58127077171E+03 -0.23935297085E+03  0.63848396946E+03  0.10566000000E+00 0.  1.
          4    1    3    3  502    0 -0.94180154326E+02  0.53539175610E+02 -0.10970262774E+04  0.11023624622E+04  0.00000000000E+00 0.  1.
         13    1    4    4    0    0  0.14644575927E+03  0.80558104601E+03 -0.48984863611E+03  0.95412728688E+03  0.10566000000E+00 0. -1.
         -4    1    4    4    0  501  0.59520858395E+02 -0.27784944991E+03  0.40117164517E+01  0.28418153224E+03  0.00000000000E+00 0. -1.
<mgrwt>
<rscale>  2 0.11272668E+04</rscale>
<asrwt>0</asrwt>
<pdfrwt beam="2">  1        1 0.36933627E+00 0.11272668E+04</pdfrwt>
<pdfrwt beam="1">  1       -1 0.88995312E-01 0.11272668E+04</pdfrwt>
<totfact> 0.23073941E+00</totfact>
</mgrwt>
</event>
<event>
 8    1  0.1373409E-005  0.1306643E+04  0.7818608E-02  0.8530312E-01
         -4   -1    0    0    0  501 -0.00000000000E+00  0.00000000000E+00  0.22218326401E+04  0.22218326401E+04  0.00000000000E+00 0. -1.
          4   -1    0    0  502    0  0.00000000000E+00 -0.00000000000E+00 -0.77249991063E+03  0.77249991063E+03  0.00000000000E+00 0.  1.
    9000010    2    1    2  502    0  0.51160842248E+03  0.62594499607E+03  0.82176352148E+03  0.15287765769E+04  0.10041475095E+04 0.  0.
   -9000010    2    1    2    0  501 -0.51160842248E+03 -0.62594499607E+03  0.62756920800E+03  0.14655559738E+04  0.10490285437E+04 0.  0.
        -13    1    3    3    0    0 -0.30419874840E+03  0.22293928995E+03  0.28074082096E+03  0.47016404079E+03  0.10566000000E+00 0.  1.
          4    1    3    3  502    0  0.81580717088E+03  0.40300570611E+03  0.54102270053E+03  0.10586125362E+04  0.00000000000E+00 0.  1.
         13    1    4    4    0    0 -0.73273221198E+03 -0.74935873814E+03  0.60780471415E+03  0.12115533808E+04  0.10566000000E+00 0. -1.
         -4    1    4    4    0  501  0.22112378951E+03  0.12341374207E+03  0.19764493851E+02  0.25400259297E+03  0.00000000000E+00 0. -1.
<mgrwt>
<rscale>  2 0.13066428E+04</rscale>
<asrwt>0</asrwt>
<pdfrwt beam="2">  1        4 0.11884614E+00 0.13066428E+04</pdfrwt>
<pdfrwt beam="1">  1       -4 0.34182040E+00 0.13066428E+04</pdfrwt>
<totfact> 0.16517957E-01</totfact>
</mgrwt>
</event>
<event>
 8    1  0.1373409E-005  0.1036787E+04  0.7818608E-02  0.8740774E-01
         -4   -1    0    0    0  501 -0.00000000000E+00  0.00000000000E+00  0.43015243186E+04  0.43015243186E+04  0.00000000000E+00 0. -1.
          4   -1    0    0  502    0  0.00000000000E+00 -0.00000000000E+00 -0.36282287778E+03  0.36282287778E+03  0.00000000000E+00 0.  1.
    9000010    2    1    2  502    0  0.26235261911E+03  0.12179386397E+03  0.66917640216E+03  0.12345894683E+04  0.99636913641E+03 0.  0.
   -9000010    2    1    2    0  501 -0.26235261911E+03 -0.12179386397E+03  0.32695250386E+04  0.34297577280E+04  0.99487760692E+03 0.  0.
        -13    1    3    3    0    0  0.45133104605E+03  0.43635186329E+03  0.24545747830E+03  0.67405641199E+03  0.10566000000E+00 0.  1.
          4    1    3    3  502    0 -0.18897842694E+03 -0.31455799932E+03  0.42371892386E+03  0.56053305632E+03  0.00000000000E+00 0.  1.
         13    1    4    4    0    0 -0.23275783100E+03 -0.18607132655E+03  0.33259374461E+04  0.33392601955E+04  0.10566000000E+00 0. -1.
         -4    1    4    4    0  501 -0.29594788107E+02  0.64277462577E+02 -0.56412407495E+02  0.90497532551E+02  0.00000000000E+00 0. -1.
<mgrwt>
<rscale>  2 0.10367874E+04</rscale>
<asrwt>0</asrwt>
<pdfrwt beam="2">  1        4 0.55818907E-01 0.10367874E+04</pdfrwt>
<pdfrwt beam="1">  1       -4 0.66177294E+00 0.10367874E+04</pdfrwt>
<totfact> 0.24004887E-02</totfact>
</mgrwt>
</event>
<event>
 8    1  0.1373409E-005  0.1638500E+04  0.7818608E-02  0.8333967E-01
          4   -1    0    0  502    0  0.00000000000E+00  0.00000000000E+00  0.23378469940E+04  0.23378469940E+04  0.00000000000E+00 0.  1.
         -4   -1    0    0    0  501 -0.00000000000E+00 -0.00000000000E+00 -0.11698608464E+04  0.11698608464E+04  0.00000000000E+00 0. -1.
    9000010    2    1    2  502    0  0.45044088855E+03  0.12097045795E+04  0.82223152405E+03  0.18343933009E+04  0.10112625473E+04 0.  0.
   -9000010    2    1    2    0  501 -0.45044088855E+03 -0.12097045795E+04  0.34575462357E+03  0.16733145395E+04  0.10070516991E+04 0.  0.
        -13    1    3    3    0    0  0.16282421927E+03  0.60074789469E+03  0.96274938493E+03  0.11464275593E+04  0.10566000000E+00 0.  1.
          4    1    3    3  502    0  0.28761666927E+03  0.60895668478E+03 -0.14051786088E+03  0.68796574160E+03  0.00000000000E+00 0.  1.
         13    1    4    4    0    0 -0.13466357297E+03 -0.98374450373E+03 -0.19071253215E+03  0.10110681518E+04  0.10566000000E+00 0. -1.
         -4    1    4    4    0  501 -0.31577731557E+03 -0.22596007574E+03  0.53646715572E+03  0.66224638770E+03  0.00000000000E+00 0. -1.
<mgrwt>
<rscale>  2 0.16384997E+04</rscale>
<asrwt>0</asrwt>
<pdfrwt beam="1">  1        4 0.35966877E+00 0.16384997E+04</pdfrwt>
<pdfrwt beam="2">  1       -4 0.17997859E+00 0.16384997E+04</pdfrwt>
<totfact> 0.74830300E-02</totfact>
</mgrwt>
</event>
<event>
 8    1  0.1373409E-005  0.1528416E+04  0.7818608E-02  0.8393331E-01
         -2   -1    0    0    0  501 -0.00000000000E+00  0.00000000000E+00  0.12182435150E+04  0.12182435150E+04  0.00000000000E+00 0.  1.
          2   -1    0    0  502    0  0.00000000000E+00 -0.00000000000E+00 -0.20920009553E+04  0.20920009553E+04  0.00000000000E+00 0. -1.
    9000010    2    1    2  502    0 -0.53141632500E+03 -0.10216558824E+04 -0.91547937790E+03  0.17838043777E+04  0.10087970630E+04 0.  0.
   -9000010    2    1    2    0  501  0.53141632500E+03  0.10216558824E+04  0.41721937656E+02  0.15264400926E+04  0.10010467440E+04 0.  0.
        -13    1    3    3    0    0 -0.61565512191E+03 -0.41102062708E+03 -0.78599503858E+02  0.74441055755E+03  0.10566000000E+00 0.  1.
          4    1    3    3  502    0  0.84238796904E+02 -0.61063525527E+03 -0.83687987404E+03  0.10393938202E+04  0.00000000000E+00 0.  1.
         13    1    4    4    0    0  0.49781766671E+02  0.52913554300E+03  0.47486048138E+03  0.71270971306E+03  0.10566000000E+00 0. -1.
         -4    1    4    4    0  501  0.48163455833E+03  0.49252033935E+03 -0.43313854372E+03  0.81373037949E+03  0.00000000000E+00 0. -1.
<mgrwt>
<rscale>  2 0.15284156E+04</rscale>
<asrwt>0</asrwt>
<pdfrwt beam="2">  1        2 0.32184630E+00 0.15284156E+04</pdfrwt>
<pdfrwt beam="1">  1       -2 0.18742208E+00 0.15284156E+04</pdfrwt>
<totfact> 0.11593383E+00</totfact>
</mgrwt>
</event>
<event>
 8    1  0.1373409E-005  0.1619987E+04  0.7818608E-02  0.8343607E-01
          4   -1    0    0  502    0  0.00000000000E+00  0.00000000000E+00  0.21616993724E+04  0.21616993724E+04  0.00000000000E+00 0.  1.
         -4   -1    0    0    0  501 -0.00000000000E+00 -0.00000000000E+00 -0.12527417697E+04  0.12527417697E+04  0.00000000000E+00 0. -1.
    9000010    2    1    2  502    0  0.65085843977E+03 -0.10154366991E+04  0.14627887331E+03  0.15859208055E+04  0.10193227623E+04 0.  0.
   -9000010    2    1    2    0  501 -0.65085843977E+03  0.10154366991E+04  0.76267872945E+03  0.18285203366E+04  0.11432757229E+04 0.  0.
        -13    1    3    3    0    0  0.90702579030E+03 -0.85477885148E+03  0.24025133406E+03  0.12692767168E+04  0.10566000000E+00 0.  1.
          4    1    3    3  502    0 -0.25616735052E+03 -0.16065784766E+03 -0.93972460744E+02  0.31664408864E+03  0.00000000000E+00 0.  1.
         13    1    4    4    0    0 -0.87022113996E+03  0.44584891094E+03  0.19930107523E+03  0.99789128345E+03  0.10566000000E+00 0. -1.
         -4    1    4    4    0  501  0.21936270019E+03  0.56958778820E+03  0.56337765422E+03  0.83062905317E+03  0.00000000000E+00 0. -1.
<mgrwt>
<rscale>  2 0.16199868E+04</rscale>
<asrwt>0</asrwt>
<pdfrwt beam="1">  1        4 0.33256914E+00 0.16199868E+04</pdfrwt>
<pdfrwt beam="2">  1       -4 0.19272950E+00 0.16199868E+04</pdfrwt>
<totfact> 0.83789870E-02</totfact>
</mgrwt>
</event>
<event>
 8    1  0.1373409E-005  0.1077557E+04  0.7818608E-02  0.8704950E-01
          2   -1    0    0  502    0  0.00000000000E+00  0.00000000000E+00  0.14014053014E+04  0.14014053014E+04  0.00000000000E+00 0. -1.
         -2   -1    0    0    0  501 -0.00000000000E+00 -0.00000000000E+00 -0.85762042680E+03  0.85762042680E+03  0.00000000000E+00 0.  1.
    9000010    2    1    2  502    0 -0.30059540075E+03  0.28633452515E+03  0.63934651756E+02  0.10794969461E+04  0.99442494017E+03 0.  0.
   -9000010    2    1    2    0  501  0.30059540075E+03 -0.28633452515E+03  0.47985022282E+03  0.11795287821E+04  0.99432733857E+03 0.  0.
        -13    1    3    3    0    0  0.28179000607E+03 -0.15711163205E+03  0.12263715392E+03  0.34515149591E+03  0.10566000000E+00 0.  1.
          4    1    3    3  502    0 -0.58238540682E+03  0.44344615719E+03 -0.58702502169E+02  0.73434545016E+03  0.00000000000E+00 0.  1.
         13    1    4    4    0    0  0.18971349260E+03  0.77763306152E+02 -0.26975625868E+03  0.33883150875E+03  0.10566000000E+00 0. -1.
         -4    1    4    4    0  501  0.11088190815E+03 -0.36409783130E+03  0.74960648150E+03  0.84069727335E+03  0.00000000000E+00 0. -1.
<mgrwt>
<rscale>  2 0.10775569E+04</rscale>
<asrwt>0</asrwt>
<pdfrwt beam="1">  1        2 0.21560082E+00 0.10775569E+04</pdfrwt>
<pdfrwt beam="2">  1       -2 0.13194160E+00 0.10775569E+04</pdfrwt>
<totfact> 0.87762468E+00</totfact>
</mgrwt>
</event>
<event>
 8    1  0.1373409E-005  0.1189297E+04  0.7818608E-02  0.8614666E-01
         -1   -1    0    0    0  501 -0.00000000000E+00  0.00000000000E+00  0.64862558589E+03  0.64862558589E+03  0.00000000000E+00 0.  1.
          1   -1    0    0  502    0  0.00000000000E+00 -0.00000000000E+00 -0.21987917938E+04  0.21987917938E+04  0.00000000000E+00 0. -1.
    9000010    2    1    2  502    0 -0.12764610178E+03  0.65641984499E+03 -0.91078027358E+03  0.15066965078E+04  0.99671115162E+03 0.  0.
   -9000010    2    1    2    0  501  0.12764610178E+03 -0.65641984499E+03 -0.63938593436E+03  0.13407208719E+04  0.97032857481E+03 0.  0.
        -13    1    3    3    0    0  0.20834551977E+03  0.79919572067E+03 -0.71521851904E+03  0.10925471142E+04  0.10566000000E+00 0.  1.
          4    1    3    3  502    0 -0.33599162155E+03 -0.14277587568E+03 -0.19556175454E+03  0.41414939366E+03  0.00000000000E+00 0.  1.
         13    1    4    4    0    0 -0.20761047361E+03  0.93321241107E+02 -0.44029132592E+03  0.49564849000E+03  0.10566000000E+00 0. -1.
         -4    1    4    4    0  501  0.33525657540E+03 -0.74974108610E+03 -0.19909460843E+03  0.84507238189E+03  0.00000000000E+00 0. -1.
<mgrwt>
<rscale>  2 0.11892972E+04</rscale>
<asrwt>0</asrwt>
<pdfrwt beam="2">  1        1 0.33827566E+00 0.11892972E+04</pdfrwt>
<pdfrwt beam="1">  1       -1 0.99788552E-01 0.11892972E+04</pdfrwt>
<totfact> 0.26608035E+00</totfact>
</mgrwt>
</event>
<event>
 8    1  0.1373409E-005  0.1133736E+04  0.7818608E-02  0.8658204E-01
          2   -1    0    0  502    0  0.00000000000E+00  0.00000000000E+00  0.90390642542E+03  0.90390642542E+03  0.00000000000E+00 0. -1.
         -2   -1    0    0    0  501 -0.00000000000E+00 -0.00000000000E+00 -0.14256348440E+04  0.14256348440E+04  0.00000000000E+00 0.  1.
    9000010    2    1    2  502    0 -0.54127762462E+03 -0.31297024650E+03 -0.22589890125E+03  0.11941880076E+04  0.99202965770E+03 0.  0.
   -9000010    2    1    2    0  501  0.54127762462E+03  0.31297024650E+03 -0.29582951737E+03  0.11353532619E+04  0.90032221112E+03 0.  0.
        -13    1    3    3    0    0 -0.20609756664E+03  0.13548869913E+03 -0.50988538052E+03  0.56640666222E+03  0.10566000000E+00 0.  1.
          4    1    3    3  502    0 -0.33518005798E+03 -0.44845894563E+03  0.28398647927E+03  0.62778134536E+03  0.00000000000E+00 0.  1.
         13    1    4    4    0    0  0.10771389453E+03  0.11358770927E+03  0.32001747763E+03  0.35625222515E+03  0.10566000000E+00 0. -1.
         -4    1    4    4    0  501  0.43356373009E+03  0.19938253723E+03 -0.61584699500E+03  0.77910103674E+03  0.00000000000E+00 0. -1.
<mgrwt>
<rscale>  2 0.11337362E+04</rscale>
<asrwt>0</asrwt>
<pdfrwt beam="1">  1        2 0.13906253E+00 0.11337362E+04</pdfrwt>
<pdfrwt beam="2">  1       -2 0.21932844E+00 0.11337362E+04</pdfrwt>
<totfact> 0.30713258E+00</totfact>
</mgrwt>
</event>
<event>
 8    1  0.1373409E-005  0.1815527E+04  0.7818608E-02  0.8247938E-01
         -2   -1    0    0    0  501 -0.00000000000E+00  0.00000000000E+00  0.14584716803E+04  0.14584716803E+04  0.00000000000E+00 0.  1.
          2   -1    0    0  502    0  0.00000000000E+00 -0.00000000000E+00 -0.23288969457E+04  0.23288969457E+04  0.00000000000E+00 0. -1.
    9000010    2    1    2  502    0 -0.12126345801E+04 -0.90672590633E+03 -0.76056032631E+03  0.19669247633E+04  0.99885260190E+03 0.  0.
   -9000010    2    1    2    0  501  0.12126345801E+04  0.90672590633E+03 -0.10986493912E+03  0.18204438628E+04  0.10046447424E+04 0.  0.
        -13    1    3    3    0    0 -0.26775207848E+03 -0.74767618737E+03 -0.60010424417E+03  0.99540744006E+03  0.10566000000E+00 0.  1.
          4    1    3    3  502    0 -0.94488250166E+03 -0.15904971896E+03 -0.16045608214E+03  0.97151732323E+03  0.00000000000E+00 0.  1.
         13    1    4    4    0    0  0.74835798781E+03  0.26468373018E+03 -0.49912346481E+03  0.93766806453E+03  0.10566000000E+00 0. -1.
         -4    1    4    4    0  501  0.46427659233E+03  0.64204217614E+03  0.38925852569E+03  0.88277579824E+03  0.00000000000E+00 0. -1.
<mgrwt>
<rscale>  2 0.18155270E+04</rscale>
<asrwt>0</asrwt>
<pdfrwt beam="2">  1        2 0.35829184E+00 0.18155270E+04</pdfrwt>
<pdfrwt beam="1">  1       -2 0.22438026E+00 0.18155270E+04</pdfrwt>
<totfact> 0.41293039E-01</totfact>
</mgrwt>
</event>
<event>
 8    1  0.1373409E-005  0.1018993E+04  0.7818608E-02  0.8756948E-01
          2   -1    0    0  502    0  0.00000000000E+00  0.00000000000E+00  0.70174591155E+03  0.70174591155E+03  0.00000000000E+00 0. -1.
         -2   -1    0    0    0  501 -0.00000000000E+00 -0.00000000000E+00 -0.14896272020E+04  0.14896272020E+04  0.00000000000E+00 0.  1.
    9000010    2    1    2  502    0 -0.30322037500E+03  0.22606750648E+03 -0.44843064526E+03  0.10702893068E+04  0.89519832622E+03 0.  0.
   -9000010    2    1    2    0  501  0.30322037500E+03 -0.22606750648E+03 -0.33945064514E+03  0.11210838067E+04  0.99927626207E+03 0.  0.
        -13    1    3    3    0    0 -0.54224429029E+03  0.20176678640E+03 -0.56017635632E+03  0.80531749502E+03  0.10566000000E+00 0.  1.
          4    1    3    3  502    0  0.23902391529E+03  0.24300720081E+02  0.11174571106E+03  0.26497181174E+03  0.00000000000E+00 0.  1.
         13    1    4    4    0    0  0.34559745620E+03 -0.53442277258E+03 -0.46213899249E+03  0.78652257509E+03  0.10566000000E+00 0. -1.
         -4    1    4    4    0  501 -0.42377081207E+02  0.30835526611E+03  0.12268834734E+03  0.33456123165E+03  0.00000000000E+00 0. -1.
<mgrwt>
<rscale>  2 0.10189926E+04</rscale>
<asrwt>0</asrwt>
<pdfrwt beam="1">  1        2 0.10796091E+00 0.10189926E+04</pdfrwt>
<pdfrwt beam="2">  1       -2 0.22917341E+00 0.10189926E+04</pdfrwt>
<totfact> 0.35752355E+00</totfact>
</mgrwt>
</event>
<event>
 8    1  0.1373409E-005  0.1016501E+04  0.7818608E-02  0.8759240E-01
         -2   -1    0    0    0  501 -0.00000000000E+00  0.00000000000E+00  0.90309201854E+03  0.90309201854E+03  0.00000000000E+00 0.  1.
          2   -1    0    0  502    0  0.00000000000E+00 -0.00000000000E+00 -0.12099586469E+04  0.12099586469E+04  0.00000000000E+00 0. -1.
    9000010    2    1    2  502    0 -0.19509151485E+03  0.20400558837E+03  0.94524498747E+02  0.10071149402E+04  0.96211571165E+03 0.  0.
   -9000010    2    1    2    0  501  0.19509151485E+03 -0.20400558837E+03 -0.40139112714E+03  0.11059357253E+04  0.99111049450E+03 0.  0.
        -13    1    3    3    0    0  0.19236586363E+02  0.56887382225E+03 -0.17180675662E+02  0.56945821504E+03  0.10566000000E+00 0.  1.
          4    1    3    3  502    0 -0.21432810121E+03 -0.36486823388E+03  0.11170517441E+03  0.43765672513E+03  0.00000000000E+00 0.  1.
         13    1    4    4    0    0 -0.21624685675E+03 -0.29096729500E+03 -0.55109819863E+03  0.65964680361E+03  0.10566000000E+00 0. -1.
         -4    1    4    4    0  501  0.41133837160E+03  0.86961706631E+02  0.14970707149E+03  0.44628892169E+03  0.00000000000E+00 0. -1.
<mgrwt>
<rscale>  2 0.10165010E+04</rscale>
<asrwt>0</asrwt>
<pdfrwt beam="2">  1        2 0.18614748E+00 0.10165010E+04</pdfrwt>
<pdfrwt beam="1">  1       -2 0.13893723E+00 0.10165010E+04</pdfrwt>
<totfact> 0.97543733E+00</totfact>
</mgrwt>
</event>
<event>
 8    1  0.1373409E-005  0.1556049E+04  0.7818608E-02  0.8377954E-01
         -2   -1    0    0    0  501 -0.00000000000E+00  0.00000000000E+00  0.98966972114E+03  0.98966972114E+03  0.00000000000E+00 0.  1.
          2   -1    0    0  502    0  0.00000000000E+00 -0.00000000000E+00 -0.25391523846E+04  0.25391523846E+04  0.00000000000E+00 0. -1.
    9000010    2    1    2  502    0 -0.10826611346E+04  0.48988730402E+03 -0.43471736252E+03  0.16092691124E+04  0.99429532226E+03 0.  0.
   -9000010    2    1    2    0  501  0.10826611346E+04 -0.48988730402E+03 -0.11147653010E+04  0.19195529934E+04  0.10148090042E+04 0.  0.
        -13    1    3    3    0    0 -0.15460773254E+03 -0.84257605741E+02  0.26116956523E+03  0.31498007564E+03  0.10566000000E+00 0.  1.
          4    1    3    3  502    0 -0.92805340210E+03  0.57414490976E+03 -0.69588692775E+03  0.12942890368E+04  0.00000000000E+00 0.  1.
         13    1    4    4    0    0  0.69588899076E+03 -0.35742715070E+03 -0.55672546021E+02  0.78429273811E+03  0.10566000000E+00 0. -1.
         -4    1    4    4    0  501  0.38677214388E+03 -0.13246015332E+03 -0.10590927550E+04  0.11352602552E+04  0.00000000000E+00 0. -1.
<mgrwt>
<rscale>  2 0.15560486E+04</rscale>
<asrwt>0</asrwt>
<pdfrwt beam="2">  1        2 0.39063882E+00 0.15560486E+04</pdfrwt>
<pdfrwt beam="1">  1       -2 0.15225688E+00 0.15560486E+04</pdfrwt>
<totfact> 0.13000908E+00</totfact>
</mgrwt>
</event>
<event>
 8    1  0.1373409E-005  0.1440811E+04  0.7818608E-02  0.8444399E-01
         -2   -1    0    0    0  501 -0.00000000000E+00  0.00000000000E+00  0.93343851533E+03  0.93343851533E+03  0.00000000000E+00 0. -1.
          2   -1    0    0  502    0  0.00000000000E+00 -0.00000000000E+00 -0.22669517252E+04  0.22669517252E+04  0.00000000000E+00 0.  1.
    9000010    2    1    2  502    0 -0.86226060415E+03  0.59768399717E+03 -0.44628704994E+03  0.15080895419E+04  0.98713850369E+03 0.  0.
   -9000010    2    1    2    0  501  0.86226060415E+03 -0.59768399717E+03 -0.88722615994E+03  0.16923006986E+04  0.98792301611E+03 0.  0.
        -13    1    3    3    0    0 -0.59576027717E+03  0.85039085430E+03 -0.17845385290E+03  0.10535372332E+04  0.10566000000E+00 0.  1.
          4    1    3    3  502    0 -0.26650032698E+03 -0.25270685712E+03 -0.26783319704E+03  0.45455230871E+03  0.00000000000E+00 0.  1.
         13    1    4    4    0    0  0.45411477264E+03  0.23374775604E+03 -0.37737340488E+03  0.63503459595E+03  0.10566000000E+00 0. -1.
         -4    1    4    4    0  501  0.40814583151E+03 -0.83143175321E+03 -0.50985275506E+03  0.10572661027E+04  0.00000000000E+00 0. -1.
<mgrwt>
<rscale>  2 0.14408111E+04</rscale>
<asrwt>0</asrwt>
<pdfrwt beam="2">  1        2 0.34876180E+00 0.14408111E+04</pdfrwt>
<pdfrwt beam="1">  1       -2 0.14360593E+00 0.14408111E+04</pdfrwt>
<totfact> 0.22273386E+00</totfact>
</mgrwt>
</event>
<event>
 8    1  0.1373409E-005  0.1368626E+04  0.7818608E-02  0.8489365E-01
         -1   -1    0    0    0  501 -0.00000000000E+00  0.00000000000E+00  0.14659325707E+04  0.14659325707E+04  0.00000000000E+00 0. -1.
          1   -1    0    0  502    0  0.00000000000E+00 -0.00000000000E+00 -0.12894504843E+04  0.12894504843E+04  0.00000000000E+00 0.  1.
    9000010    2    1    2  502    0  0.70425334336E+03 -0.59168985954E+03  0.21852540964E+03  0.13778327371E+04  0.10022973787E+04 0.  0.
   -9000010    2    1    2    0  501 -0.70425334336E+03  0.59168985954E+03 -0.42043323208E+02  0.13775503179E+04  0.10246011789E+04 0.  0.
        -13    1    3    3    0    0  0.13173366099E+02  0.24570898340E+03 -0.67304682772E+02  0.25510071263E+03  0.10566000000E+00 0.  1.
          4    1    3    3  502    0  0.69107997726E+03 -0.83739884294E+03  0.28583009241E+03  0.11227320245E+04  0.00000000000E+00 0.  1.
         13    1    4    4    0    0 -0.73705819165E+03  0.56726886664E+03  0.34227621301E+03  0.99106092754E+03  0.10566000000E+00 0. -1.
         -4    1    4    4    0  501  0.32804848292E+02  0.24420992900E+02 -0.38431953622E+03  0.38648939039E+03  0.00000000000E+00 0. -1.
<mgrwt>
<rscale>  2 0.13686260E+04</rscale>
<asrwt>0</asrwt>
<pdfrwt beam="2">  1        1 0.19837700E+00 0.13686260E+04</pdfrwt>
<pdfrwt beam="1">  1       -1 0.22552809E+00 0.13686260E+04</pdfrwt>
<totfact> 0.96604396E-01</totfact>
</mgrwt>
</event>
<event>
 8    1  0.1373409E-005  0.1462763E+04  0.7818608E-02  0.8431257E-01
         -1   -1    0    0    0  501 -0.00000000000E+00  0.00000000000E+00  0.70699542970E+03  0.70699542970E+03  0.00000000000E+00 0. -1.
          1   -1    0    0  502    0  0.00000000000E+00 -0.00000000000E+00 -0.31742693099E+04  0.31742693099E+04  0.00000000000E+00 0.  1.
    9000010    2    1    2  502    0 -0.14047811461E+03 -0.10203531780E+04 -0.79536138321E+03  0.16424418892E+04  0.10020783009E+04 0.  0.
   -9000010    2    1    2    0  501  0.14047811461E+03  0.10203531780E+04 -0.16719124970E+04  0.22388228504E+04  0.10752588754E+04 0.  0.
        -13    1    3    3    0    0  0.99503134528E+02 -0.10815829040E+04 -0.86123365871E+03  0.13861622842E+04  0.10566000000E+00 0.  1.
          4    1    3    3  502    0 -0.23998124914E+03  0.61229726004E+02  0.65872275503E+02  0.25627960505E+03  0.00000000000E+00 0.  1.
         13    1    4    4    0    0 -0.17128458276E+03 -0.62166505101E+02  0.42793164060E+02  0.18717464759E+03  0.10566000000E+00 0. -1.
         -4    1    4    4    0  501  0.31176269737E+03  0.10825196831E+04 -0.17147056611E+04  0.20516482028E+04  0.00000000000E+00 0. -1.
<mgrwt>
<rscale>  2 0.14627632E+04</rscale>
<asrwt>0</asrwt>
<pdfrwt beam="2">  1        1 0.48834912E+00 0.14627632E+04</pdfrwt>
<pdfrwt beam="1">  1       -1 0.10876853E+00 0.14627632E+04</pdfrwt>
<totfact> 0.23673304E-01</totfact>
</mgrwt>
</event>
<event>
 8    1  0.1373409E-005  0.1109355E+04  0.7818608E-02  0.8678137E-01
         -2   -1    0    0    0  501 -0.00000000000E+00  0.00000000000E+00  0.71533265291E+03  0.71533265291E+03  0.00000000000E+00 0. -1.
          2   -1    0    0  502    0  0.00000000000E+00 -0.00000000000E+00 -0.17490805778E+04  0.17490805778E+04  0.00000000000E+00 0.  1.
    9000010    2    1    2  502    0  0.60566361748E+02 -0.50531492515E+03 -0.37012660985E+03  0.11890462324E+04  0.10088735192E+04 0.  0.
   -9000010    2    1    2    0  501 -0.60566361748E+02  0.50531492515E+03 -0.66362131509E+03  0.12753669983E+04  0.96288954341E+03 0.  0.
        -13    1    3    3    0    0  0.38929381550E+02 -0.11934186401E+03 -0.68131233421E+03  0.69278025749E+03  0.10566000000E+00 0.  1.
          4    1    3    3  502    0  0.21636980198E+02 -0.38597306114E+03  0.31118572436E+03  0.49626597495E+03  0.00000000000E+00 0.  1.
         13    1    4    4    0    0 -0.86300138556E+02 -0.21924580088E+03  0.68123187129E+02  0.24526967792E+03  0.10566000000E+00 0. -1.
         -4    1    4    4    0  501  0.25733776808E+02  0.72456072603E+03 -0.73174450222E+03  0.10300973204E+04  0.00000000000E+00 0. -1.
<mgrwt>
<rscale>  2 0.11093547E+04</rscale>
<asrwt>0</asrwt>
<pdfrwt beam="2">  1        2 0.26908932E+00 0.11093547E+04</pdfrwt>
<pdfrwt beam="1">  1       -2 0.11005118E+00 0.11093547E+04</pdfrwt>
<totfact> 0.91349025E+00</totfact>
</mgrwt>
</event>
<event>
 8    1  0.1373409E-005  0.1548077E+04  0.7818608E-02  0.8382356E-01
          1   -1    0    0  502    0  0.00000000000E+00  0.00000000000E+00  0.15701590473E+04  0.15701590473E+04  0.00000000000E+00 0.  1.
         -1   -1    0    0    0  501 -0.00000000000E+00 -0.00000000000E+00 -0.15783275489E+04  0.15783275489E+04  0.00000000000E+00 0. -1.
    9000010    2    1    2  502    0  0.22710779797E+03 -0.11574844744E+04  0.28171219072E+03  0.15745860621E+04  0.10042963947E+04 0.  0.
   -9000010    2    1    2    0  501 -0.22710779797E+03  0.11574844744E+04 -0.28988069236E+03  0.15739005341E+04  0.10008915101E+04 0.  0.
        -13    1    3    3    0    0 -0.27067629535E+03 -0.96844351438E+03  0.93775989617E+02  0.10099219994E+04  0.10566000000E+00 0.  1.
          4    1    3    3  502    0  0.49778409332E+03 -0.18904095999E+03  0.18793620110E+03  0.56466406278E+03  0.00000000000E+00 0.  1.
         13    1    4    4    0    0 -0.37980781951E+03  0.62312367561E+03 -0.59349416127E+03  0.94062342384E+03  0.10566000000E+00 0. -1.
         -4    1    4    4    0  501  0.15270002153E+03  0.53436079876E+03  0.30361346890E+03  0.63327711022E+03  0.00000000000E+00 0. -1.
<mgrwt>
<rscale>  2 0.15480773E+04</rscale>
<asrwt>0</asrwt>
<pdfrwt beam="1">  1        1 0.24156293E+00 0.15480773E+04</pdfrwt>
<pdfrwt beam="2">  1       -1 0.24281962E+00 0.15480773E+04</pdfrwt>
<totfact> 0.39898327E-01</totfact>
</mgrwt>
</event>
<event>
 8    1  0.1373409E-005  0.1790760E+04  0.7818608E-02  0.8259352E-01
          2   -1    0    0  502    0  0.00000000000E+00  0.00000000000E+00  0.45812483439E+04  0.45812483439E+04  0.00000000000E+00 0.  1.
         -2   -1    0    0    0  501 -0.00000000000E+00 -0.00000000000E+00 -0.77835431208E+03  0.77835431208E+03  0.00000000000E+00 0. -1.
    9000010    2    1    2  502    0 -0.40844597693E+03 -0.14380446413E+04  0.27494770688E+04  0.32799287072E+04  0.98158426320E+03 0.  0.
   -9000010    2    1    2    0  501  0.40844597693E+03  0.14380446413E+04  0.10534169630E+04  0.20796739488E+04  0.99023024042E+03 0.  0.
        -13    1    3    3    0    0 -0.19320604856E+03 -0.51699227687E+03  0.19952201442E+04  0.20701480688E+04  0.10566000000E+00 0.  1.
          4    1    3    3  502    0 -0.21523992836E+03 -0.92105236442E+03  0.75425692461E+03  0.12097806384E+04  0.00000000000E+00 0.  1.
         13    1    4    4    0    0  0.40009287083E+03  0.15344619011E+04  0.11374348007E+04  0.19515136608E+04  0.10566000000E+00 0. -1.
         -4    1    4    4    0  501  0.83531060938E+01 -0.96417259811E+02 -0.84017837719E+02  0.12816028802E+03  0.00000000000E+00 0. -1.
<mgrwt>
<rscale>  2 0.17907599E+04</rscale>
<asrwt>0</asrwt>
<pdfrwt beam="1">  1        2 0.70480742E+00 0.17907599E+04</pdfrwt>
<pdfrwt beam="2">  1       -2 0.11974682E+00 0.17907599E+04</pdfrwt>
<totfact> 0.71227311E-02</totfact>
</mgrwt>
</event>
<event>
 8    1  0.1373409E-005  0.1064139E+04  0.7818608E-02  0.8716555E-01
          5   -1    0    0  502    0  0.00000000000E+00  0.00000000000E+00  0.22799380363E+04  0.22799380363E+04  0.00000000000E+00 0.  1.
         -5   -1    0    0    0  501 -0.00000000000E+00 -0.00000000000E+00 -0.49677244939E+03  0.49677244939E+03  0.00000000000E+00 0. -1.
    9000010    2    1    2  502    0  0.28191149915E+03  0.20365742415E+03  0.90882930680E+03  0.14103017500E+04  0.10207986469E+04 0.  0.
   -9000010    2    1    2    0  501 -0.28191149915E+03 -0.20365742415E+03  0.87433628012E+03  0.13664087357E+04  0.99078678961E+03 0.  0.
        -13    1    3    3    0    0  0.56012520840E+03  0.12293943824E+03  0.95795238809E+03  0.11164797999E+04  0.10566000000E+00 0.  1.
          4    1    3    3  502    0 -0.27821370925E+03  0.80717985911E+02 -0.49123081287E+02  0.29382195013E+03  0.00000000000E+00 0.  1.
         13    1    4    4    0    0  0.96705538375E+02  0.75357638137E+02 -0.17662769332E+03  0.21500718125E+03  0.10566000000E+00 0. -1.
         -4    1    4    4    0  501 -0.37861703752E+03 -0.27901506229E+03  0.10509639734E+04  0.11514015544E+04  0.00000000000E+00 0. -1.
<mgrwt>
<rscale>  2 0.10641393E+04</rscale>
<asrwt>0</asrwt>
<pdfrwt beam="1">  1        5 0.35075969E+00 0.10641393E+04</pdfrwt>
<pdfrwt beam="2">  1       -5 0.76426532E-01 0.10641393E+04</pdfrwt>
<totfact> 0.43477886E-03</totfact>
</mgrwt>
</event>
<event>
 8    1  0.1373409E-005  0.9625440E+03  0.7818608E-02  0.8810603E-01
         -2   -1    0    0    0  501 -0.00000000000E+00  0.00000000000E+00  0.32574822338E+03  0.32574822338E+03  0.00000000000E+00 0.  1.
          2   -1    0    0  502    0  0.00000000000E+00 -0.00000000000E+00 -0.28888050867E+04  0.28888050867E+04  0.00000000000E+00 0. -1.
    9000010    2    1    2  502    0  0.42096217700E+03  0.57123510022E+02 -0.13270968890E+04  0.17075198771E+04  0.98689701988E+03 0.  0.
   -9000010    2    1    2    0  501 -0.42096217700E+03 -0.57123510022E+02 -0.12359599744E+04  0.15070334331E+04  0.75038687376E+03 0.  0.
        -13    1    3    3    0    0  0.97372217703E+02 -0.44745379481E+03 -0.72793679019E+03  0.85999315634E+03  0.10566000000E+00 0.  1.
          4    1    3    3  502    0  0.32358995930E+03  0.50457730483E+03 -0.59916009881E+03  0.84752672071E+03  0.00000000000E+00 0.  1.
         13    1    4    4    0    0 -0.59633845820E+03 -0.77397408934E+02 -0.60966044049E+03  0.85632691158E+03  0.10566000000E+00 0. -1.
         -4    1    4    4    0  501  0.17537628119E+03  0.20273898911E+02 -0.62629953387E+03  0.65070652149E+03  0.00000000000E+00 0. -1.
<mgrwt>
<rscale>  2 0.96254400E+03</rscale>
<asrwt>0</asrwt>
<pdfrwt beam="2">  1        2 0.44443155E+00 0.96254400E+03</pdfrwt>
<pdfrwt beam="1">  1       -2 0.50115111E-01 0.96254400E+03</pdfrwt>
<totfact> 0.11819064E+01</totfact>
</mgrwt>
</event>
<event>
 8    1  0.1373409E-005  0.1165929E+04  0.7818608E-02  0.8632670E-01
         -2   -1    0    0    0  501 -0.00000000000E+00  0.00000000000E+00  0.86197299494E+03  0.86197299494E+03  0.00000000000E+00 0. -1.
          2   -1    0    0  502    0  0.00000000000E+00 -0.00000000000E+00 -0.16443946367E+04  0.16443946367E+04  0.00000000000E+00 0.  1.
    9000010    2    1    2  502    0  0.23233505646E+03 -0.55010951863E+03 -0.64208037530E+03  0.13240985200E+04  0.99215403104E+03 0.  0.
   -9000010    2    1    2    0  501 -0.23233505646E+03  0.55010951863E+03 -0.14034126649E+03  0.11822691117E+04  0.10106752794E+04 0.  0.
        -13    1    3    3    0    0 -0.23276974631E+01 -0.48098349774E+03  0.14299248828E+03  0.50179418703E+03  0.10566000000E+00 0.  1.
          4    1    3    3  502    0  0.23466275392E+03 -0.69126020890E+02 -0.78507286359E+03  0.82230433295E+03  0.00000000000E+00 0.  1.
         13    1    4    4    0    0 -0.13191285289E+03 -0.13505604634E+03  0.30517444325E+03  0.35884897713E+03  0.10566000000E+00 0. -1.
         -4    1    4    4    0  501 -0.10042220357E+03  0.68516556497E+03 -0.44551570974E+03  0.82342013457E+03  0.00000000000E+00 0. -1.
<mgrwt>
<rscale>  2 0.11659291E+04</rscale>
<asrwt>0</asrwt>
<pdfrwt beam="2">  1        2 0.25298379E+00 0.11659291E+04</pdfrwt>
<pdfrwt beam="1">  1       -2 0.13261123E+00 0.11659291E+04</pdfrwt>
<totfact> 0.63142891E+00</totfact>
</mgrwt>
</event>
<event>
 8    1  0.1373409E-005  0.1416003E+04  0.7818608E-02  0.8459542E-01
          1   -1    0    0  502    0  0.00000000000E+00  0.00000000000E+00  0.12554752373E+04  0.12554752373E+04  0.00000000000E+00 0.  1.
         -1   -1    0    0    0  501 -0.00000000000E+00 -0.00000000000E+00 -0.18047917246E+04  0.18047917246E+04  0.00000000000E+00 0. -1.
    9000010    2    1    2  502    0  0.99165609902E+03  0.10551304193E+03  0.24620780777E+03  0.14265408173E+04  0.98989171032E+03 0.  0.
   -9000010    2    1    2    0  501 -0.99165609902E+03 -0.10551304193E+03 -0.79552429510E+03  0.16337261446E+04  0.10206308788E+04 0.  0.
        -13    1    3    3    0    0  0.68004231054E+02 -0.24638388098E+03 -0.21670284734E+03  0.33509659422E+03  0.10566000000E+00 0.  1.
          4    1    3    3  502    0  0.92365186797E+03  0.35189692290E+03  0.46291065511E+03  0.10914442231E+04  0.00000000000E+00 0.  1.
         13    1    4    4    0    0 -0.10819740437E+04  0.14954441888E+03 -0.41856871176E+03  0.11697141283E+04  0.10566000000E+00 0. -1.
         -4    1    4    4    0  501  0.90317944647E+02 -0.25505746081E+03 -0.37695558335E+03  0.46401201628E+03  0.00000000000E+00 0. -1.
<mgrwt>
<rscale>  2 0.14160025E+04</rscale>
<asrwt>0</asrwt>
<pdfrwt beam="1">  1        1 0.19315004E+00 0.14160025E+04</pdfrwt>
<pdfrwt beam="2">  1       -1 0.27766026E+00 0.14160025E+04</pdfrwt>
<totfact> 0.31848566E-01</totfact>
</mgrwt>
</event>
<event>
 8    1  0.1373409E-005  0.1051131E+04  0.7818608E-02  0.8727978E-01
         -1   -1    0    0    0  501 -0.00000000000E+00  0.00000000000E+00  0.68383044373E+03  0.68383044373E+03  0.00000000000E+00 0.  1.
          1   -1    0    0  502    0  0.00000000000E+00 -0.00000000000E+00 -0.16367824428E+04  0.16367824428E+04  0.00000000000E+00 0. -1.
    9000010    2    1    2  502    0 -0.32148285835E+03 -0.25049214695E+02 -0.60296879044E+03  0.12028501009E+04  0.98959502399E+03 0.  0.
   -9000010    2    1    2    0  501  0.32148285835E+03  0.25049214695E+02 -0.34998320866E+03  0.11177627857E+04  0.10113983920E+04 0.  0.
        -13    1    3    3    0    0 -0.15424067387E+02 -0.41995960904E+03 -0.56172282621E+03  0.70152442561E+03  0.10566000000E+00 0.  1.
          4    1    3    3  502    0 -0.30605879097E+03  0.39491039435E+03 -0.41245964232E+02  0.50132567524E+03  0.00000000000E+00 0.  1.
         13    1    4    4    0    0  0.38194205843E+03 -0.30198739831E+03 -0.54611910129E+03  0.73165716609E+03  0.10566000000E+00 0. -1.
         -4    1    4    4    0  501 -0.60459200074E+02  0.32703661301E+03  0.19613589263E+03  0.38610561961E+03  0.00000000000E+00 0. -1.
<mgrwt>
<rscale>  2 0.10511308E+04</rscale>
<asrwt>0</asrwt>
<pdfrwt beam="2">  1        1 0.25181268E+00 0.10511308E+04</pdfrwt>
<pdfrwt beam="1">  1       -1 0.10520468E+00 0.10511308E+04</pdfrwt>
<totfact> 0.64476940E+00</totfact>
</mgrwt>
</event>
<event>
 8    1  0.1373409E-005  0.1229164E+04  0.7818608E-02  0.8584919E-01
         -2   -1    0    0    0  501 -0.00000000000E+00  0.00000000000E+00  0.90419507011E+03  0.90419507011E+03  0.00000000000E+00 0. -1.
          2   -1    0    0  502    0  0.00000000000E+00 -0.00000000000E+00 -0.16710847078E+04  0.16710847078E+04  0.00000000000E+00 0.  1.
    9000010    2    1    2  502    0  0.11949172833E+03 -0.70831930075E+03 -0.37089763498E+03  0.12777607606E+04  0.98950139000E+03 0.  0.
   -9000010    2    1    2    0  501 -0.11949172833E+03  0.70831930075E+03 -0.39599200267E+03  0.12975190172E+04  0.10053613425E+04 0.  0.
        -13    1    3    3    0    0  0.40396981561E+03 -0.68965959615E+03  0.13261817878E+02  0.79937341553E+03  0.10566000000E+00 0.  1.
          4    1    3    3  502    0 -0.28447808729E+03 -0.18659704606E+02 -0.38415945286E+03  0.47838734509E+03  0.00000000000E+00 0.  1.
         13    1    4    4    0    0  0.69480598798E+02  0.12003336964E+03  0.32179666103E+03  0.35041213685E+03  0.10566000000E+00 0. -1.
         -4    1    4    4    0  501 -0.18897232713E+03  0.58828593112E+03 -0.71778866369E+03  0.94710688040E+03  0.00000000000E+00 0. -1.
<mgrwt>
<rscale>  2 0.12291639E+04</rscale>
<asrwt>0</asrwt>
<pdfrwt beam="2">  1        2 0.25708995E+00 0.12291639E+04</pdfrwt>
<pdfrwt beam="1">  1       -2 0.13910694E+00 0.12291639E+04</pdfrwt>
<totfact> 0.52925471E+00</totfact>
</mgrwt>
</event>
<event>
 8    1  0.1373409E-005  0.1046887E+04  0.7818608E-02  0.8731742E-01
          2   -1    0    0  502    0  0.00000000000E+00  0.00000000000E+00  0.15474207025E+04  0.15474207025E+04  0.00000000000E+00 0.  1.
         -2   -1    0    0    0  501 -0.00000000000E+00 -0.00000000000E+00 -0.70943607779E+03  0.70943607779E+03  0.00000000000E+00 0. -1.
    9000010    2    1    2  502    0  0.30551389428E+03  0.33124306492E+02  0.37130446927E+03  0.11060225345E+04  0.99548122970E+03 0.  0.
   -9000010    2    1    2    0  501 -0.30551389428E+03 -0.33124306492E+02  0.46668015544E+03  0.11508342458E+04  0.10060780956E+04 0.  0.
        -13    1    3    3    0    0  0.27423648633E+03  0.54419724223E+02  0.71112013168E+03  0.76410667427E+03  0.10566000000E+00 0.  1.
          4    1    3    3  502    0  0.31277407950E+02 -0.21295417731E+02 -0.33981566241E+03  0.34191586024E+03  0.00000000000E+00 0.  1.
         13    1    4    4    0    0 -0.14520302373E+03 -0.51914574792E+03  0.21288751142E+03  0.57958375526E+03  0.10566000000E+00 0. -1.
         -4    1    4    4    0  501 -0.16031087055E+03  0.48602144143E+03  0.25379264402E+03  0.57125049050E+03  0.00000000000E+00 0. -1.
<mgrwt>
<rscale>  2 0.10468871E+04</rscale>
<asrwt>0</asrwt>
<pdfrwt beam="1">  1        2 0.23806472E+00 0.10468871E+04</pdfrwt>
<pdfrwt beam="2">  1       -2 0.10914401E+00 0.10468871E+04</pdfrwt>
<totfact> 0.12085041E+01</totfact>
</mgrwt>
</event>
<event>
 8    1  0.1373409E-005  0.1108038E+04  0.7818608E-02  0.8679228E-01
          1   -1    0    0  502    0  0.00000000000E+00  0.00000000000E+00  0.16692937846E+04  0.16692937846E+04  0.00000000000E+00 0.  1.
         -1   -1    0    0    0  501 -0.00000000000E+00 -0.00000000000E+00 -0.82013815099E+03  0.82013815099E+03  0.00000000000E+00 0. -1.
    9000010    2    1    2  502    0 -0.33495988315E+03  0.19729042605E+03  0.83423332432E+03  0.14143169646E+04  0.10738834208E+04 0.  0.
   -9000010    2    1    2    0  501  0.33495988315E+03 -0.19729042605E+03  0.14922309309E+02  0.10751149710E+04  0.10022613881E+04 0.  0.
        -13    1    3    3    0    0 -0.11315955236E+03  0.62814926223E+03  0.60031504535E+03  0.87621615185E+03  0.10566000000E+00 0.  1.
          4    1    3    3  502    0 -0.22180033079E+03 -0.43085883618E+03  0.23391827897E+03  0.53810081275E+03  0.00000000000E+00 0.  1.
         13    1    4    4    0    0  0.55199696105E+03  0.32531537834E+02 -0.29984420650E+03  0.62901947927E+03  0.10566000000E+00 0. -1.
         -4    1    4    4    0  501 -0.21703707790E+03 -0.22982196389E+03  0.31476651581E+03  0.44609549173E+03  0.00000000000E+00 0. -1.
<mgrwt>
<rscale>  2 0.11080385E+04</rscale>
<asrwt>0</asrwt>
<pdfrwt beam="1">  1        1 0.25681443E+00 0.11080385E+04</pdfrwt>
<pdfrwt beam="2">  1       -1 0.12617510E+00 0.11080385E+04</pdfrwt>
<totfact> 0.39307335E+00</totfact>
</mgrwt>
</event>
<event>
 8    1  0.1373409E-005  0.2022972E+04  0.7818608E-02  0.8159103E-01
         -2   -1    0    0    0  501 -0.00000000000E+00  0.00000000000E+00  0.42153828224E+04  0.42153828224E+04  0.00000000000E+00 0.  1.
          2   -1    0    0  502    0  0.00000000000E+00 -0.00000000000E+00 -0.10316525353E+04  0.10316525353E+04  0.00000000000E+00 0. -1.
    9000010    2    1    2  502    0 -0.17387221772E+04  0.24249707020E+03  0.95098673233E+03  0.22305986730E+04  0.99460295413E+03 0.  0.
   -9000010    2    1    2    0  501  0.17387221772E+04 -0.24249707020E+03  0.22327435548E+04  0.30164366846E+04  0.10157690941E+04 0.  0.
        -13    1    3    3    0    0 -0.71323250966E+02 -0.48110998315E+02 -0.17688267638E+03  0.19669561931E+03  0.10566000000E+00 0.  1.
          4    1    3    3  502    0 -0.16673989263E+04  0.29060806851E+03  0.11278694087E+04  0.20339030537E+04  0.00000000000E+00 0.  1.
         13    1    4    4    0    0  0.23281425753E+03 -0.98017118409E+01  0.10823962967E+04  0.11071947915E+04  0.10566000000E+00 0. -1.
         -4    1    4    4    0  501  0.15059079197E+04 -0.23269535836E+03  0.11503472581E+04  0.19092418932E+04  0.00000000000E+00 0. -1.
<mgrwt>
<rscale>  2 0.20229719E+04</rscale>
<asrwt>0</asrwt>
<pdfrwt beam="2">  1        2 0.15871578E+00 0.20229719E+04</pdfrwt>
<pdfrwt beam="1">  1       -2 0.64852043E+00 0.20229719E+04</pdfrwt>
<totfact> 0.11146644E-01</totfact>
</mgrwt>
</event>
<event>
 8    1  0.1373409E-005  0.1307193E+04  0.7818608E-02  0.8529939E-01
         -1   -1    0    0    0  501 -0.00000000000E+00  0.00000000000E+00  0.19367309415E+04  0.19367309415E+04  0.00000000000E+00 0. -1.
          1   -1    0    0  502    0  0.00000000000E+00 -0.00000000000E+00 -0.88865339088E+03  0.88865339088E+03  0.00000000000E+00 0.  1.
    9000010    2    1    2  502    0 -0.52917449402E+02  0.91292996223E+03  0.39831263943E+03  0.13152708944E+04  0.85734660110E+03 0.  0.
   -9000010    2    1    2    0  501  0.52917449402E+02 -0.91292996223E+03  0.64976491116E+03  0.15101134380E+04  0.10109435115E+04 0.  0.
        -13    1    3    3    0    0  0.82735490717E+02  0.63359852242E+03  0.65302780061E+03  0.91363973675E+03  0.10566000000E+00 0.  1.
          4    1    3    3  502    0 -0.13565294012E+03  0.27933143981E+03 -0.25471516117E+03  0.40163115761E+03  0.00000000000E+00 0.  1.
         13    1    4    4    0    0 -0.23075833355E+03  0.98659971351E+02  0.32465975180E+03  0.41035005063E+03  0.10566000000E+00 0. -1.
         -4    1    4    4    0  501  0.28367578295E+03 -0.10115899336E+04  0.32510515936E+03  0.10997633874E+04  0.00000000000E+00 0. -1.
<mgrwt>
<rscale>  2 0.13071928E+04</rscale>
<asrwt>0</asrwt>
<pdfrwt beam="2">  1        1 0.13671591E+00 0.13071928E+04</pdfrwt>
<pdfrwt beam="1">  1       -1 0.29795861E+00 0.13071928E+04</pdfrwt>
<totfact> 0.41277862E-01</totfact>
</mgrwt>
</event>
<event>
 8    1  0.1373409E-005  0.1693052E+04  0.7818608E-02  0.8306308E-01
         -2   -1    0    0    0  501 -0.00000000000E+00  0.00000000000E+00  0.86688353185E+03  0.86688353185E+03  0.00000000000E+00 0.  1.
          2   -1    0    0  502    0  0.00000000000E+00 -0.00000000000E+00 -0.33831027819E+04  0.33831027819E+04  0.00000000000E+00 0. -1.
    9000010    2    1    2  502    0 -0.13303090193E+04  0.25960774376E+03 -0.92789151381E+03  0.19171722439E+04  0.98865994355E+03 0.  0.
   -9000010    2    1    2    0  501  0.13303090193E+04 -0.25960774376E+03 -0.15883277362E+04  0.23328140698E+04  0.10402491140E+04 0.  0.
        -13    1    3    3    0    0 -0.12457096995E+04  0.56387192765E+02 -0.10799558935E+04  0.16496293262E+04  0.10566000000E+00 0.  1.
          4    1    3    3  502    0 -0.84599319830E+02  0.20322055100E+03  0.15206437965E+03  0.26754291772E+03  0.00000000000E+00 0.  1.
         13    1    4    4    0    0  0.13663890463E+04 -0.50241257541E+03 -0.12784492905E+04  0.19374906507E+04  0.10566000000E+00 0. -1.
         -4    1    4    4    0  501 -0.36080026987E+02  0.24280483164E+03 -0.30987844564E+03  0.39532341910E+03  0.00000000000E+00 0. -1.
<mgrwt>
<rscale>  2 0.16930517E+04</rscale>
<asrwt>0</asrwt>
<pdfrwt beam="2">  1        2 0.52047735E+00 0.16930517E+04</pdfrwt>
<pdfrwt beam="1">  1       -2 0.13336670E+00 0.16930517E+04</pdfrwt>
<totfact> 0.56502968E-01</totfact>
</mgrwt>
</event>
<event>
 8    1  0.1373409E-005  0.1249851E+04  0.7818608E-02  0.8569940E-01
          2   -1    0    0  502    0  0.00000000000E+00  0.00000000000E+00  0.16152486136E+04  0.16152486136E+04  0.00000000000E+00 0.  1.
         -2   -1    0    0    0  501 -0.00000000000E+00 -0.00000000000E+00 -0.21208155484E+04  0.21208155484E+04  0.00000000000E+00 0. -1.
    9000010    2    1    2  502    0 -0.75166225430E+03 -0.55499827661E+02  0.11248775331E+04  0.16824618914E+04  0.99862514290E+03 0.  0.
   -9000010    2    1    2    0  501  0.75166225430E+03  0.55499827661E+02 -0.16304444679E+04  0.20536022706E+04  0.99541787586E+03 0.  0.
        -13    1    3    3    0    0 -0.37859486620E+03  0.41458799500E+03  0.85868132534E+03  0.10259390372E+04  0.10566000000E+00 0.  1.
          4    1    3    3  502    0 -0.37306738810E+03 -0.47008782267E+03  0.26619620778E+03  0.65652285423E+03  0.00000000000E+00 0.  1.
         13    1    4    4    0    0  0.60265629899E+03 -0.17719331603E+02 -0.17487324863E+04  0.18497496883E+04  0.10566000000E+00 0. -1.
         -4    1    4    4    0  501  0.14900595532E+03  0.73219159264E+02  0.11828801846E+03  0.20385258231E+03  0.00000000000E+00 0. -1.
<mgrwt>
<rscale>  2 0.12498510E+04</rscale>
<asrwt>0</asrwt>
<pdfrwt beam="1">  1        2 0.24849979E+00 0.12498510E+04</pdfrwt>
<pdfrwt beam="2">  1       -2 0.32627931E+00 0.12498510E+04</pdfrwt>
<totfact> 0.19532753E-01</totfact>
</mgrwt>
</event>
<event>
 8    1  0.1373409E-005  0.1859127E+04  0.7818608E-02  0.8228291E-01
          4   -1    0    0  502    0  0.00000000000E+00  0.00000000000E+00  0.23986416021E+04  0.23986416021E+04  0.00000000000E+00 0.  1.
         -4   -1    0    0    0  501 -0.00000000000E+00 -0.00000000000E+00 -0.31262714077E+04  0.31262714077E+04  0.00000000000E+00 0. -1.
    9000010    2    1    2  502    0 -0.44524451540E+03 -0.15083029543E+04  0.16648194677E+04  0.24923783236E+04  0.98341515518E+03 0.  0.
   -9000010    2    1    2    0  501  0.44524451540E+03  0.15083029543E+04 -0.23924492732E+04  0.30325346862E+04  0.99961623495E+03 0.  0.
        -13    1    3    3    0    0  0.15006021023E+03 -0.16537690151E+03  0.70036536691E+03  0.73510492080E+03  0.10566000000E+00 0.  1.
          4    1    3    3  502    0 -0.59530472562E+03 -0.13429260528E+04  0.96445410077E+03  0.17572734028E+04  0.00000000000E+00 0.  1.
         13    1    4    4    0    0  0.60763949626E+03  0.13681931779E+04 -0.15174320266E+04  0.21316140120E+04  0.10566000000E+00 0. -1.
         -4    1    4    4    0  501 -0.16239498086E+03  0.14010977643E+03 -0.87501724665E+03  0.90092067420E+03  0.00000000000E+00 0. -1.
<mgrwt>
<rscale>  2 0.18591267E+04</rscale>
<asrwt>0</asrwt>
<pdfrwt beam="1">  1        4 0.36902179E+00 0.18591267E+04</pdfrwt>
<pdfrwt beam="2">  1       -4 0.48096483E+00 0.18591267E+04</pdfrwt>
<totfact> 0.64155497E-03</totfact>
</mgrwt>
</event>
<event>
 8    1  0.1373409E-005  0.2361173E+04  0.7818608E-02  0.8035410E-01
          4   -1    0    0  502    0  0.00000000000E+00  0.00000000000E+00  0.26122707363E+04  0.26122707363E+04  0.00000000000E+00 0.  1.
         -4   -1    0    0    0  501 -0.00000000000E+00 -0.00000000000E+00 -0.26202190245E+04  0.26202190245E+04  0.00000000000E+00 0. -1.
    9000010    2    1    2  502    0  0.21204762356E+04  0.27917226008E+03  0.11227827150E+04  0.26155949553E+04  0.10031646569E+04 0.  0.
   -9000010    2    1    2    0  501 -0.21204762356E+04 -0.27917226008E+03 -0.11307310031E+04  0.26168948055E+04  0.99761175082E+03 0.  0.
        -13    1    3    3    0    0  0.48275896693E+03  0.56029076829E+02 -0.17246731264E+03  0.51569415616E+03  0.10566000000E+00 0.  1.
          4    1    3    3  502    0  0.16377172686E+04  0.22314318325E+03  0.12952500276E+04  0.20999007991E+04  0.00000000000E+00 0.  1.
         13    1    4    4    0    0 -0.63885368799E+03 -0.38410948136E+03 -0.80332606414E+03  0.10959046057E+04  0.10566000000E+00 0. -1.
         -4    1    4    4    0  501 -0.14816225476E+04  0.10493722128E+03 -0.32740493900E+03  0.15209901998E+04  0.00000000000E+00 0. -1.
<mgrwt>
<rscale>  2 0.23611730E+04</rscale>
<asrwt>0</asrwt>
<pdfrwt beam="1">  1        4 0.40188781E+00 0.23611730E+04</pdfrwt>
<pdfrwt beam="2">  1       -4 0.40311062E+00 0.23611730E+04</pdfrwt>
<totfact> 0.10283119E-02</totfact>
</mgrwt>
</event>
<event>
 8    1  0.1373409E-005  0.1299772E+04  0.7818608E-02  0.8534995E-01
          2   -1    0    0  502    0  0.00000000000E+00  0.00000000000E+00  0.19172208615E+04  0.19172208615E+04  0.00000000000E+00 0.  1.
         -2   -1    0    0    0  501 -0.00000000000E+00 -0.00000000000E+00 -0.11701818996E+04  0.11701818996E+04  0.00000000000E+00 0. -1.
    9000010    2    1    2  502    0 -0.15140487947E+02 -0.83895323302E+03  0.11430181400E+04  0.17393834370E+04  0.10074187367E+04 0.  0.
   -9000010    2    1    2    0  501  0.15140487947E+02  0.83895323302E+03 -0.39597917799E+03  0.13480193241E+04  0.97789816805E+03 0.  0.
        -13    1    3    3    0    0  0.39153336669E+03 -0.66449472364E+03  0.10224740453E+04  0.12807438462E+04  0.10566000000E+00 0.  1.
          4    1    3    3  502    0 -0.40667385464E+03 -0.17445850938E+03  0.12054409464E+03  0.45863959085E+03  0.00000000000E+00 0.  1.
         13    1    4    4    0    0 -0.32694498070E+03  0.19463601158E+03 -0.48131480644E+03  0.61354718765E+03  0.10566000000E+00 0. -1.
         -4    1    4    4    0  501  0.34208546865E+03  0.64431722144E+03  0.85335628442E+02  0.73447213642E+03  0.00000000000E+00 0. -1.
<mgrwt>
<rscale>  2 0.12997716E+04</rscale>
<asrwt>0</asrwt>
<pdfrwt beam="1">  1        2 0.29495706E+00 0.12997716E+04</pdfrwt>
<pdfrwt beam="2">  1       -2 0.18002798E+00 0.12997716E+04</pdfrwt>
<totfact> 0.17066743E+00</totfact>
</mgrwt>
</event>
<event>
 8    1  0.1373409E-005  0.1297050E+04  0.7818608E-02  0.8536858E-01
          2   -1    0    0  502    0  0.00000000000E+00  0.00000000000E+00  0.24734778490E+04  0.24734778490E+04  0.00000000000E+00 0. -1.
         -2   -1    0    0    0  501 -0.00000000000E+00 -0.00000000000E+00 -0.76427155767E+03  0.76427155767E+03  0.00000000000E+00 0.  1.
    9000010    2    1    2  502    0 -0.75727263295E+03  0.35361773204E+03  0.13914883970E+04  0.19020296581E+04  0.99144819344E+03 0.  0.
   -9000010    2    1    2    0  501  0.75727263295E+03 -0.35361773204E+03  0.31771789428E+03  0.13357197485E+04  0.99231811693E+03 0.  0.
        -13    1    3    3    0    0 -0.76003330118E+03  0.33526976341E+03  0.15413908770E+04  0.17509832323E+04  0.10566000000E+00 0.  1.
          4    1    3    3  502    0  0.27606682272E+01  0.18347968631E+02 -0.14990247996E+03  0.15104642577E+03  0.00000000000E+00 0.  1.
         13    1    4    4    0    0  0.60018176247E+03  0.15998165162E+03  0.46833503884E+03  0.77791387481E+03  0.10566000000E+00 0. -1.
         -4    1    4    4    0  501  0.15709087048E+03 -0.51359938367E+03 -0.15061714456E+03  0.55780587370E+03  0.00000000000E+00 0. -1.
<mgrwt>
<rscale>  2 0.12970503E+04</rscale>
<asrwt>0</asrwt>
<pdfrwt beam="1">  1        2 0.38053505E+00 0.12970503E+04</pdfrwt>
<pdfrwt beam="2">  1       -2 0.11758024E+00 0.12970503E+04</pdfrwt>
<totfact> 0.30338842E+00</totfact>
</mgrwt>
</event>
<event>
 8    1  0.1373409E-005  0.1150855E+04  0.7818608E-02  0.8644518E-01
          1   -1    0    0  502    0  0.00000000000E+00  0.00000000000E+00  0.83385865451E+03  0.83385865451E+03  0.00000000000E+00 0.  1.
         -1   -1    0    0    0  501 -0.00000000000E+00 -0.00000000000E+00 -0.15885591545E+04  0.15885591545E+04  0.00000000000E+00 0. -1.
    9000010    2    1    2  502    0 -0.42190582104E+03 -0.41043306727E+03 -0.36411371021E+03  0.11994386508E+04  0.97959913150E+03 0.  0.
   -9000010    2    1    2    0  501  0.42190582104E+03  0.41043306727E+03 -0.39058678976E+03  0.12229791582E+04  0.99832868164E+03 0.  0.
        -13    1    3    3    0    0 -0.31160810083E+03  0.66009535667E+02  0.25673747830E+03  0.40911002338E+03  0.10566000000E+00 0.  1.
          4    1    3    3  502    0 -0.11029772021E+03 -0.47644260293E+03 -0.62085118851E+03  0.79032862738E+03  0.00000000000E+00 0.  1.
         13    1    4    4    0    0  0.36983948578E+02  0.20772298900E+03  0.32384738083E+03  0.38651492836E+03  0.10566000000E+00 0. -1.
         -4    1    4    4    0  501  0.38492187246E+03  0.20271007826E+03 -0.71443417059E+03  0.83646422986E+03  0.00000000000E+00 0. -1.
<mgrwt>
<rscale>  2 0.11508552E+04</rscale>
<asrwt>0</asrwt>
<pdfrwt beam="1">  1        1 0.12828595E+00 0.11508552E+04</pdfrwt>
<pdfrwt beam="2">  1       -1 0.24439372E+00 0.11508552E+04</pdfrwt>
<totfact> 0.15310490E+00</totfact>
</mgrwt>
</event>
<event>
 8    1  0.1373409E-005  0.1134412E+04  0.7818608E-02  0.8657659E-01
          1   -1    0    0  502    0  0.00000000000E+00  0.00000000000E+00  0.18052193725E+04  0.18052193725E+04  0.00000000000E+00 0. -1.
         -1   -1    0    0    0  501 -0.00000000000E+00 -0.00000000000E+00 -0.82759931900E+03  0.82759931900E+03  0.00000000000E+00 0.  1.
    9000010    2    1    2  502    0  0.44296412631E+03  0.28546952573E+03  0.98008542960E+03  0.15015132905E+04  0.10080995213E+04 0.  0.
   -9000010    2    1    2    0  501 -0.44296412631E+03 -0.28546952573E+03 -0.24653760680E+01  0.11313054010E+04  0.10010673129E+04 0.  0.
        -13    1    3    3    0    0 -0.23915810358E+02  0.40900384557E+03  0.89642889847E+00  0.40970346158E+03  0.10566000000E+00 0.  1.
          4    1    3    3  502    0  0.46687993667E+03 -0.12353431985E+03  0.97918900070E+03  0.10918098289E+04  0.00000000000E+00 0.  1.
         13    1    4    4    0    0 -0.11160538538E+03  0.10109003309E+03 -0.43682798744E+03  0.46205373996E+03  0.10566000000E+00 0. -1.
         -4    1    4    4    0  501 -0.33135874093E+03 -0.38655955882E+03  0.43436261137E+03  0.66925166108E+03  0.00000000000E+00 0. -1.
<mgrwt>
<rscale>  2 0.11344121E+04</rscale>
<asrwt>0</asrwt>
<pdfrwt beam="1">  1        1 0.27772606E+00 0.11344121E+04</pdfrwt>
<pdfrwt beam="2">  1       -1 0.12732297E+00 0.11344121E+04</pdfrwt>
<totfact> 0.30290639E+00</totfact>
</mgrwt>
</event>
<event>
 8    1  0.1373409E-005  0.1236680E+04  0.7818608E-02  0.8579442E-01
         -1   -1    0    0    0  501 -0.00000000000E+00  0.00000000000E+00  0.16521478501E+04  0.16521478501E+04  0.00000000000E+00 0. -1.
          1   -1    0    0  502    0  0.00000000000E+00 -0.00000000000E+00 -0.95522554100E+03  0.95522554100E+03  0.00000000000E+00 0.  1.
    9000010    2    1    2  502    0 -0.11851659231E+03  0.71640218626E+03  0.57969118931E+03  0.13729209131E+04  0.10107381875E+04 0.  0.
   -9000010    2    1    2    0  501  0.11851659231E+03 -0.71640218626E+03  0.11723111981E+03  0.12344524780E+04  0.99138867747E+03 0.  0.
        -13    1    3    3    0    0 -0.27714857756E+03  0.86041621790E+03  0.68501127481E+03  0.11341815815E+04  0.10566000000E+00 0.  1.
          4    1    3    3  502    0  0.15863198525E+03 -0.14401403164E+03 -0.10532008550E+03  0.23873933162E+03  0.00000000000E+00 0.  1.
         13    1    4    4    0    0  0.15763456000E+03 -0.83867725016E+03  0.38599553898E+03  0.93660063619E+03  0.10566000000E+00 0. -1.
         -4    1    4    4    0  501 -0.39117967686E+02  0.12227506390E+03 -0.26876441917E+03  0.29785184179E+03  0.00000000000E+00 0. -1.
<mgrwt>
<rscale>  2 0.12366799E+04</rscale>
<asrwt>0</asrwt>
<pdfrwt beam="2">  1        1 0.14695778E+00 0.12366799E+04</pdfrwt>
<pdfrwt beam="1">  1       -1 0.25417659E+00 0.12366799E+04</pdfrwt>
<totfact> 0.95668163E-01</totfact>
</mgrwt>
</event>
<event>
 8    1  0.1373409E-005  0.1783679E+04  0.7818608E-02  0.8262650E-01
         -4   -1    0    0    0  501 -0.00000000000E+00  0.00000000000E+00  0.11960285351E+04  0.11960285351E+04  0.00000000000E+00 0. -1.
          4   -1    0    0  502    0  0.00000000000E+00 -0.00000000000E+00 -0.26806292632E+04  0.26806292632E+04  0.00000000000E+00 0.  1.
    9000010    2    1    2  502    0 -0.12248485665E+04  0.81586228540E+03 -0.91401917769E+03  0.20085994436E+04  0.10164425158E+04 0.  0.
   -9000010    2    1    2    0  501  0.12248485665E+04 -0.81586228540E+03 -0.57058155038E+03  0.18680583548E+04  0.99909630748E+03 0.  0.
        -13    1    3    3    0    0 -0.68977584765E+03  0.78226765706E+02 -0.84662304963E+03  0.10948427952E+04  0.10566000000E+00 0.  1.
          4    1    3    3  502    0 -0.53507271883E+03  0.73763551970E+03 -0.67396128066E+02  0.91375664837E+03  0.00000000000E+00 0.  1.
         13    1    4    4    0    0  0.97374169382E+03 -0.37976243486E+03  0.76916978062E+02  0.10480022070E+04  0.10566000000E+00 0. -1.
         -4    1    4    4    0  501  0.25110687266E+03 -0.43609985055E+03 -0.64749852844E+03  0.82005614776E+03  0.00000000000E+00 0. -1.
<mgrwt>
<rscale>  2 0.17836792E+04</rscale>
<asrwt>0</asrwt>
<pdfrwt beam="2">  1        4 0.41240450E+00 0.17836792E+04</pdfrwt>
<pdfrwt beam="1">  1       -4 0.18400439E+00 0.17836792E+04</pdfrwt>
<totfact> 0.44807846E-02</totfact>
</mgrwt>
</event>
<event>
 8    1  0.1373409E-005  0.1414933E+04  0.7818608E-02  0.8460202E-01
          2   -1    0    0  502    0  0.00000000000E+00  0.00000000000E+00  0.16912746689E+04  0.16912746689E+04  0.00000000000E+00 0. -1.
         -2   -1    0    0    0  501 -0.00000000000E+00 -0.00000000000E+00 -0.12778790930E+04  0.12778790930E+04  0.00000000000E+00 0.  1.
    9000010    2    1    2  502    0  0.80809953218E+03  0.58533433694E+03  0.60892103464E+03  0.15357977000E+04  0.99611676475E+03 0.  0.
   -9000010    2    1    2    0  501 -0.80809953218E+03 -0.58533433694E+03 -0.19552545875E+03  0.14333560619E+04  0.10102664279E+04 0.  0.
        -13    1    3    3    0    0  0.73284402443E+03  0.83596487554E+03  0.62181694004E+03  0.12737950994E+04  0.10566000000E+00 0.  1.
          4    1    3    3  502    0  0.75255507749E+02 -0.25063053860E+03 -0.12895905402E+02  0.26200260057E+03  0.00000000000E+00 0.  1.
         13    1    4    4    0    0 -0.54416907444E+03  0.98223016742E+02  0.21518896440E+03  0.59335827639E+03  0.10566000000E+00 0. -1.
         -4    1    4    4    0  501 -0.26393045774E+03 -0.68355735368E+03 -0.41071442315E+03  0.83999778552E+03  0.00000000000E+00 0. -1.
<mgrwt>
<rscale>  2 0.14149326E+04</rscale>
<asrwt>0</asrwt>
<pdfrwt beam="1">  1        2 0.26019610E+00 0.14149326E+04</pdfrwt>
<pdfrwt beam="2">  1       -2 0.19659678E+00 0.14149326E+04</pdfrwt>
<totfact> 0.16296569E+00</totfact>
</mgrwt>
</event>
<event>
 8    1  0.1373409E-005  0.1120062E+04  0.7818608E-02  0.8669318E-01
          2   -1    0    0  502    0  0.00000000000E+00  0.00000000000E+00  0.12690351737E+04  0.12690351737E+04  0.00000000000E+00 0. -1.
         -2   -1    0    0    0  501 -0.00000000000E+00 -0.00000000000E+00 -0.99077761629E+03  0.99077761629E+03  0.00000000000E+00 0.  1.
    9000010    2    1    2  502    0 -0.50689814192E+03 -0.26261426412E+03  0.94344603175E+02  0.11476934693E+04  0.99115458798E+03 0.  0.
   -9000010    2    1    2    0  501  0.50689814192E+03  0.26261426412E+03  0.18391295427E+03  0.11121193207E+04  0.93652198629E+03 0.  0.
        -13    1    3    3    0    0 -0.18898224353E+03  0.21897656022E+03 -0.32446145765E+03  0.43467260204E+03  0.10566000000E+00 0.  1.
          4    1    3    3  502    0 -0.31791589839E+03 -0.48159082434E+03  0.41880606082E+03  0.71302086724E+03  0.00000000000E+00 0.  1.
         13    1    4    4    0    0  0.51381456374E+02  0.43081482833E+03 -0.21451452261E+03  0.48400202680E+03  0.10566000000E+00 0. -1.
         -4    1    4    4    0  501  0.45551668555E+03 -0.16820056421E+03  0.39842747688E+03  0.62811729394E+03  0.00000000000E+00 0. -1.
<mgrwt>
<rscale>  2 0.11200615E+04</rscale>
<asrwt>0</asrwt>
<pdfrwt beam="1">  1        2 0.19523618E+00 0.11200615E+04</pdfrwt>
<pdfrwt beam="2">  1       -2 0.15242733E+00 0.11200615E+04</pdfrwt>
<totfact> 0.67796728E+00</totfact>
</mgrwt>
</event>
<event>
 8    1  0.1373409E-005  0.1152025E+04  0.7818608E-02  0.8643591E-01
          2   -1    0    0  502    0  0.00000000000E+00  0.00000000000E+00  0.16968861334E+04  0.16968861334E+04  0.00000000000E+00 0. -1.
         -2   -1    0    0    0  501 -0.00000000000E+00 -0.00000000000E+00 -0.78961278428E+03  0.78961278428E+03  0.00000000000E+00 0.  1.
    9000010    2    1    2  502    0 -0.59143397262E+03 -0.48446028506E+02  0.33810622549E+03  0.12126389305E+04  0.10020160650E+04 0.  0.
   -9000010    2    1    2    0  501  0.59143397262E+03  0.48446028506E+02  0.56916712364E+03  0.12738599872E+04  0.97294752718E+03 0.  0.
        -13    1    3    3    0    0 -0.36077567299E+03  0.23758338281E+03  0.61569927193E+03  0.75212402876E+03  0.10566000000E+00 0.  1.
          4    1    3    3  502    0 -0.23065829963E+03 -0.28602941131E+03 -0.27759304644E+03  0.46051490177E+03  0.00000000000E+00 0.  1.
         13    1    4    4    0    0  0.72449095084E+03  0.19175704579E+03  0.88142487642E+02  0.75460387737E+03  0.10566000000E+00 0. -1.
         -4    1    4    4    0  501 -0.13305697822E+03 -0.14331101728E+03  0.48102463600E+03  0.51925610980E+03  0.00000000000E+00 0. -1.
<mgrwt>
<rscale>  2 0.11520253E+04</rscale>
<asrwt>0</asrwt>
<pdfrwt beam="1">  1        2 0.26105941E+00 0.11520253E+04</pdfrwt>
<pdfrwt beam="2">  1       -2 0.12147889E+00 0.11520253E+04</pdfrwt>
<totfact> 0.75266101E+00</totfact>
</mgrwt>
</event>
<event>
 8    1  0.1373409E-005  0.2606263E+04  0.7818608E-02  0.7958368E-01
         -2   -1    0    0    0  501 -0.00000000000E+00  0.00000000000E+00  0.30828961152E+04  0.30828961152E+04  0.00000000000E+00 0.  1.
          2   -1    0    0  502    0  0.00000000000E+00 -0.00000000000E+00 -0.22315509461E+04  0.22315509461E+04  0.00000000000E+00 0. -1.
    9000010    2    1    2  502    0  0.11633576941E+04 -0.21042569068E+04  0.72481652116E+03  0.27068116988E+04  0.10100358061E+04 0.  0.
   -9000010    2    1    2    0  501 -0.11633576941E+04  0.21042569068E+04  0.12652864799E+03  0.26076353625E+04  0.10012264633E+04 0.  0.
        -13    1    3    3    0    0  0.36892469478E+03 -0.63220666885E+02  0.29088959513E+03  0.47404541013E+03  0.10566000000E+00 0.  1.
          4    1    3    3  502    0  0.79443299929E+03 -0.20410362399E+04  0.43392692603E+03  0.22327662887E+04  0.00000000000E+00 0.  1.
         13    1    4    4    0    0 -0.59110211119E+03  0.19044940566E+04  0.33351255925E+02  0.19943950549E+04  0.10566000000E+00 0. -1.
         -4    1    4    4    0  501 -0.57225558288E+03  0.19976285011E+03  0.93177392068E+02  0.61324030756E+03  0.00000000000E+00 0. -1.
<mgrwt>
<rscale>  2 0.26062628E+04</rscale>
<asrwt>0</asrwt>
<pdfrwt beam="2">  1        2 0.34331553E+00 0.26062628E+04</pdfrwt>
<pdfrwt beam="1">  1       -2 0.47429171E+00 0.26062628E+04</pdfrwt>
<totfact> 0.20259422E-02</totfact>
</mgrwt>
</event>
<event>
 8    1  0.1373409E-005  0.1036604E+04  0.7818608E-02  0.8740939E-01
         -2   -1    0    0    0  501 -0.00000000000E+00  0.00000000000E+00  0.47088447929E+03  0.47088447929E+03  0.00000000000E+00 0. -1.
          2   -1    0    0  502    0  0.00000000000E+00 -0.00000000000E+00 -0.22895804326E+04  0.22895804326E+04  0.00000000000E+00 0.  1.
    9000010    2    1    2  502    0 -0.32854148305E+03  0.12797938047E+03 -0.84219298128E+03  0.13451792482E+04  0.98787649237E+03 0.  0.
   -9000010    2    1    2    0  501  0.32854148305E+03 -0.12797938047E+03 -0.97650297207E+03  0.14152856637E+04  0.96185093832E+03 0.  0.
        -13    1    3    3    0    0 -0.67890017820E+03  0.15761781968E+03 -0.57600316910E+03  0.90417282144E+03  0.10566000000E+00 0.  1.
          4    1    3    3  502    0  0.35035869515E+03 -0.29638439213E+02 -0.26618981218E+03  0.44100642677E+03  0.00000000000E+00 0.  1.
         13    1    4    4    0    0  0.61100956951E+03 -0.31031244499E+03 -0.60377150051E+03  0.91332718319E+03  0.10566000000E+00 0. -1.
         -4    1    4    4    0  501 -0.28246808646E+03  0.18233306452E+03 -0.37273147155E+03  0.50195848053E+03  0.00000000000E+00 0. -1.
<mgrwt>
<rscale>  2 0.10366038E+04</rscale>
<asrwt>0</asrwt>
<pdfrwt beam="2">  1        2 0.35224315E+00 0.10366038E+04</pdfrwt>
<pdfrwt beam="1">  1       -2 0.72443766E-01 0.10366038E+04</pdfrwt>
<totfact> 0.12218410E+01</totfact>
</mgrwt>
</event>
<event>
 8    1  0.1373409E-005  0.1116203E+04  0.7818608E-02  0.8672485E-01
         -2   -1    0    0    0  501 -0.00000000000E+00  0.00000000000E+00  0.19852084223E+04  0.19852084223E+04  0.00000000000E+00 0. -1.
          2   -1    0    0  502    0  0.00000000000E+00 -0.00000000000E+00 -0.68665927596E+03  0.68665927596E+03  0.00000000000E+00 0.  1.
    9000010    2    1    2  502    0 -0.42384078942E+03 -0.18063911051E+03  0.24974875023E+03  0.11289615663E+04  0.99995413746E+03 0.  0.
   -9000010    2    1    2    0  501  0.42384078942E+03  0.18063911051E+03  0.10488003961E+04  0.15429061319E+04  0.10335886793E+04 0.  0.
        -13    1    3    3    0    0  0.26980294943E+03 -0.16618328267E+03 -0.12474674878E+03  0.34054702679E+03  0.10566000000E+00 0.  1.
          4    1    3    3  502    0 -0.69364373885E+03 -0.14455827840E+02  0.37449549900E+03  0.78841453956E+03  0.00000000000E+00 0.  1.
         13    1    4    4    0    0  0.60145797050E+03  0.12274584270E+03  0.15955891245E+03  0.63425333258E+03  0.10566000000E+00 0. -1.
         -4    1    4    4    0  501 -0.17761718108E+03  0.57893267802E+02  0.88924148362E+03  0.90865279930E+03  0.00000000000E+00 0. -1.
<mgrwt>
<rscale>  2 0.11162030E+04</rscale>
<asrwt>0</asrwt>
<pdfrwt beam="2">  1        2 0.10563989E+00 0.11162030E+04</pdfrwt>
<pdfrwt beam="1">  1       -2 0.30541668E+00 0.11162030E+04</pdfrwt>
<totfact> 0.98408167E-01</totfact>
</mgrwt>
</event>
<event>
 8    1  0.1373409E-005  0.1096785E+04  0.7818608E-02  0.8688622E-01
         -2   -1    0    0    0  501 -0.00000000000E+00  0.00000000000E+00  0.35099030606E+03  0.35099030606E+03  0.00000000000E+00 0.  1.
          2   -1    0    0  502    0  0.00000000000E+00 -0.00000000000E+00 -0.34299989099E+04  0.34299989099E+04  0.00000000000E+00 0. -1.
    9000010    2    1    2  502    0  0.43093554724E+03 -0.18567530653E+03 -0.15992669496E+04  0.19421266533E+04  0.99700571527E+03 0.  0.
   -9000010    2    1    2    0  501 -0.43093554724E+03  0.18567530653E+03 -0.14797416543E+04  0.18388625627E+04  0.98569741582E+03 0.  0.
        -13    1    3    3    0    0 -0.32644334009E+03 -0.25615130847E+02 -0.45310732512E+03  0.55904172336E+03  0.10566000000E+00 0.  1.
          4    1    3    3  502    0  0.75737888733E+03 -0.16006017568E+03 -0.11461596245E+04  0.13830849300E+04  0.00000000000E+00 0.  1.
         13    1    4    4    0    0 -0.28432757442E+03  0.25123172485E+03 -0.15960775779E+04  0.16405557580E+04  0.10566000000E+00 0. -1.
         -4    1    4    4    0  501 -0.14660797282E+03 -0.65556418321E+02  0.11633592359E+03  0.19830680471E+03  0.00000000000E+00 0. -1.
<mgrwt>
<rscale>  2 0.10967855E+04</rscale>
<asrwt>0</asrwt>
<pdfrwt beam="2">  1        2 0.52769216E+00 0.10967855E+04</pdfrwt>
<pdfrwt beam="1">  1       -2 0.53998506E-01 0.10967855E+04</pdfrwt>
<totfact> 0.44965582E+00</totfact>
</mgrwt>
</event>
<event>
 8    1  0.1373409E-005  0.1192937E+04  0.7818608E-02  0.8611900E-01
         -1   -1    0    0    0  501 -0.00000000000E+00  0.00000000000E+00  0.66853851450E+03  0.66853851450E+03  0.00000000000E+00 0.  1.
          1   -1    0    0  502    0  0.00000000000E+00 -0.00000000000E+00 -0.22026315427E+04  0.22026315427E+04  0.00000000000E+00 0. -1.
    9000010    2    1    2  502    0  0.86536980720E+02  0.56720980920E+03 -0.48363970793E+03  0.12510942044E+04  0.10010563044E+04 0.  0.
   -9000010    2    1    2    0  501 -0.86536980720E+02 -0.56720980920E+03 -0.10504533202E+04  0.16200758527E+04  0.10917774379E+04 0.  0.
        -13    1    3    3    0    0  0.45158300393E+03  0.23411523439E+03  0.64894581171E+02  0.51278501367E+03  0.10566000000E+00 0.  1.
          4    1    3    3  502    0 -0.36504602321E+03  0.33309457482E+03 -0.54853428911E+03  0.73830919076E+03  0.00000000000E+00 0.  1.
         13    1    4    4    0    0 -0.16002030977E+03  0.31220183501E+03 -0.29117463469E+03  0.45591574263E+03  0.10566000000E+00 0. -1.
         -4    1    4    4    0  501  0.73483329046E+02 -0.87941164422E+03 -0.75927868553E+03  0.11641601101E+04  0.00000000000E+00 0. -1.
<mgrwt>
<rscale>  2 0.11929370E+04</rscale>
<asrwt>0</asrwt>
<pdfrwt beam="2">  1        1 0.33886639E+00 0.11929370E+04</pdfrwt>
<pdfrwt beam="1">  1       -1 0.10285208E+00 0.11929370E+04</pdfrwt>
<totfact> 0.24716192E+00</totfact>
</mgrwt>
</event>
<event>
 8    1  0.1373409E-005  0.1027833E+04  0.7818608E-02  0.8748871E-01
          2   -1    0    0  502    0  0.00000000000E+00  0.00000000000E+00  0.67422205082E+03  0.67422205082E+03  0.00000000000E+00 0.  1.
         -2   -1    0    0    0  501 -0.00000000000E+00 -0.00000000000E+00 -0.16716297368E+04  0.16716297368E+04  0.00000000000E+00 0. -1.
    9000010    2    1    2  502    0  0.20533689324E+03  0.14280274393E+03 -0.20396082259E+03  0.10453389866E+04  0.99427245578E+03 0.  0.
   -9000010    2    1    2    0  501 -0.20533689324E+03 -0.14280274393E+03 -0.79344686339E+03  0.13005128010E+04  0.99960980249E+03 0.  0.
        -13    1    3    3    0    0  0.43889806169E+03 -0.26508792633E+03 -0.25481670229E+03  0.57256849387E+03  0.10566000000E+00 0.  1.
          4    1    3    3  502    0 -0.23356116845E+03  0.40789067026E+03  0.50855879706E+02  0.47277049272E+03  0.00000000000E+00 0.  1.
         13    1    4    4    0    0 -0.24015223693E+02  0.36838348527E+03 -0.63660370940E+03  0.73589905366E+03  0.10566000000E+00 0. -1.
         -4    1    4    4    0  501 -0.18132166955E+03 -0.51118622920E+03 -0.15684315399E+03  0.56461374738E+03  0.00000000000E+00 0. -1.
<mgrwt>
<rscale>  2 0.10278333E+04</rscale>
<asrwt>0</asrwt>
<pdfrwt beam="1">  1        2 0.10372647E+00 0.10278333E+04</pdfrwt>
<pdfrwt beam="2">  1       -2 0.25717381E+00 0.10278333E+04</pdfrwt>
<totfact> 0.22705748E+00</totfact>
</mgrwt>
</event>
<event>
 8    1  0.1373409E-005  0.1253777E+04  0.7818608E-02  0.8567131E-01
         -1   -1    0    0    0  501 -0.00000000000E+00  0.00000000000E+00  0.12380437612E+04  0.12380437612E+04  0.00000000000E+00 0. -1.
          1   -1    0    0  502    0  0.00000000000E+00 -0.00000000000E+00 -0.13919715755E+04  0.13919715755E+04  0.00000000000E+00 0.  1.
    9000010    2    1    2  502    0  0.39616910811E+03  0.63648475408E+03  0.31297444108E+03  0.12881322695E+04  0.99963440245E+03 0.  0.
   -9000010    2    1    2    0  501 -0.39616910811E+03 -0.63648475408E+03 -0.46690225532E+03  0.13418830672E+04  0.10102423697E+04 0.  0.
        -13    1    3    3    0    0  0.59361039356E+03  0.41178166305E+03  0.54877449053E+03  0.90724356707E+03  0.10566000000E+00 0.  1.
          4    1    3    3  502    0 -0.19744128545E+03  0.22470309103E+03 -0.23580004945E+03  0.38088870243E+03  0.00000000000E+00 0.  1.
         13    1    4    4    0    0  0.20551511417E+03  0.14217159049E+03 -0.20596323919E+03  0.32383651795E+03  0.10566000000E+00 0. -1.
         -4    1    4    4    0  501 -0.60168422227E+03 -0.77865634457E+03 -0.26093901612E+03  0.10180465492E+04  0.00000000000E+00 0. -1.
<mgrwt>
<rscale>  2 0.12537767E+04</rscale>
<asrwt>0</asrwt>
<pdfrwt beam="2">  1        1 0.21414947E+00 0.12537767E+04</pdfrwt>
<pdfrwt beam="1">  1       -1 0.19046827E+00 0.12537767E+04</pdfrwt>
<totfact> 0.17085336E+00</totfact>
</mgrwt>
</event>
<event>
 8    1  0.1373409E-005  0.1231446E+04  0.7818608E-02  0.8583252E-01
         -2   -1    0    0    0  501 -0.00000000000E+00  0.00000000000E+00  0.19143237078E+04  0.19143237078E+04  0.00000000000E+00 0. -1.
          2   -1    0    0  502    0  0.00000000000E+00 -0.00000000000E+00 -0.10658978521E+04  0.10658978521E+04  0.00000000000E+00 0.  1.
    9000010    2    1    2  502    0  0.64951924679E+03 -0.13352153274E+03 -0.32568606090E+03  0.12924548580E+04  0.10605021914E+04 0.  0.
   -9000010    2    1    2    0  501 -0.64951924679E+03  0.13352153274E+03  0.11741119166E+04  0.16877667019E+04  0.10150440362E+04 0.  0.
        -13    1    3    3    0    0  0.80192736086E+03 -0.43541286470E+03 -0.23212711265E+03  0.94157042351E+03  0.10566000000E+00 0.  1.
          4    1    3    3  502    0 -0.15240811407E+03  0.30189133196E+03 -0.93558948251E+02  0.35088443446E+03  0.00000000000E+00 0.  1.
         13    1    4    4    0    0 -0.37393753232E+03 -0.25923343568E+03  0.11150992101E+04  0.12043577176E+04  0.10566000000E+00 0. -1.
         -4    1    4    4    0  501 -0.27558171447E+03  0.39275496842E+03  0.59012706488E+02  0.48340898430E+03  0.00000000000E+00 0. -1.
<mgrwt>
<rscale>  2 0.12314460E+04</rscale>
<asrwt>0</asrwt>
<pdfrwt beam="2">  1        2 0.16398429E+00 0.12314460E+04</pdfrwt>
<pdfrwt beam="1">  1       -2 0.29451134E+00 0.12314460E+04</pdfrwt>
<totfact> 0.64106888E-01</totfact>
</mgrwt>
</event>
<event>
 8    1  0.1373409E-005  0.1244436E+04  0.7818608E-02  0.8573832E-01
         -1   -1    0    0    0  501 -0.00000000000E+00  0.00000000000E+00  0.83329152207E+03  0.83329152207E+03  0.00000000000E+00 0. -1.
          1   -1    0    0  502    0  0.00000000000E+00 -0.00000000000E+00 -0.18584886710E+04  0.18584886710E+04  0.00000000000E+00 0.  1.
    9000010    2    1    2  502    0  0.52913601311E+03  0.52788171357E+03 -0.51848134397E+03  0.13533223315E+04  0.10020051921E+04 0.  0.
   -9000010    2    1    2    0  501 -0.52913601311E+03 -0.52788171357E+03 -0.50671580500E+03  0.13384578616E+04  0.98795977463E+03 0.  0.
        -13    1    3    3    0    0 -0.97975294648E+02  0.53964052659E+03 -0.47334857917E+03  0.72447908519E+03  0.10566000000E+00 0.  1.
          4    1    3    3  502    0  0.62711130776E+03 -0.11758813023E+02 -0.45132764798E+02  0.62884324634E+03  0.00000000000E+00 0.  1.
         13    1    4    4    0    0 -0.38955539938E+03 -0.88421896977E+01  0.20996514613E+03  0.44262508657E+03  0.10566000000E+00 0. -1.
         -4    1    4    4    0  501 -0.13958061374E+03 -0.51903952387E+03 -0.71668095113E+03  0.89583277501E+03  0.00000000000E+00 0. -1.
<mgrwt>
<rscale>  2 0.12444358E+04</rscale>
<asrwt>0</asrwt>
<pdfrwt beam="2">  1        1 0.28592133E+00 0.12444358E+04</pdfrwt>
<pdfrwt beam="1">  1       -1 0.12819870E+00 0.12444358E+04</pdfrwt>
<totfact> 0.26764516E+00</totfact>
</mgrwt>
</event>
<event>
 8    1  0.1373409E-005  0.1042256E+04  0.7818608E-02  0.8735871E-01
         -2   -1    0    0    0  501 -0.00000000000E+00  0.00000000000E+00  0.28233670014E+04  0.28233670014E+04  0.00000000000E+00 0. -1.
          2   -1    0    0  502    0  0.00000000000E+00 -0.00000000000E+00 -0.42764860522E+03  0.42764860522E+03  0.00000000000E+00 0.  1.
    9000010    2    1    2  502    0 -0.40437607975E+02 -0.31499083142E+03  0.67894140359E+03  0.12405453943E+04  0.98850241367E+03 0.  0.
   -9000010    2    1    2    0  501  0.40437607975E+02  0.31499083142E+03  0.17167769926E+04  0.20104702123E+04  0.99690160410E+03 0.  0.
        -13    1    3    3    0    0  0.45470586695E+03 -0.17421536577E+03  0.16760169409E+03  0.51497452183E+03  0.10566000000E+00 0.  1.
          4    1    3    3  502    0 -0.49514347492E+03 -0.14077546565E+03  0.51133970950E+03  0.72557087248E+03  0.00000000000E+00 0.  1.
         13    1    4    4    0    0  0.15223516337E+03  0.66041106361E+03  0.12131194337E+04  0.13895960167E+04  0.10566000000E+00 0. -1.
         -4    1    4    4    0  501 -0.11179755540E+03 -0.34542023219E+03  0.50365755882E+03  0.62087419559E+03  0.00000000000E+00 0. -1.
<mgrwt>
<rscale>  2 0.10422559E+04</rscale>
<asrwt>0</asrwt>
<pdfrwt beam="2">  1        2 0.65792095E-01 0.10422559E+04</pdfrwt>
<pdfrwt beam="1">  1       -2 0.43436414E+00 0.10422559E+04</pdfrwt>
<totfact> 0.31844412E-01</totfact>
</mgrwt>
</event>
<event>
 8    1  0.1373409E-005  0.1296769E+04  0.7818608E-02  0.8537050E-01
          2   -1    0    0  502    0  0.00000000000E+00  0.00000000000E+00  0.25475263999E+04  0.25475263999E+04  0.00000000000E+00 0. -1.
         -2   -1    0    0    0  501 -0.00000000000E+00 -0.00000000000E+00 -0.89636862491E+03  0.89636862491E+03  0.00000000000E+00 0.  1.
    9000010    2    1    2  502    0  0.51004463415E+03  0.64215202830E+03 -0.62302680978E+02  0.12900231046E+04  0.99386781323E+03 0.  0.
   -9000010    2    1    2    0  501 -0.51004463415E+03 -0.64215202830E+03  0.17134604559E+04  0.21538719201E+04  0.10152402464E+04 0.  0.
        -13    1    3    3    0    0  0.76136836182E+03  0.63863647608E+03 -0.18419802981E+03  0.10106766329E+04  0.10566000000E+00 0.  1.
          4    1    3    3  502    0 -0.25132372768E+03  0.35155522237E+01  0.12189534883E+03  0.27934647173E+03  0.00000000000E+00 0.  1.
         13    1    4    4    0    0 -0.62196284958E+03 -0.58063809966E+03  0.18058384404E+04  0.19962542105E+04  0.10566000000E+00 0. -1.
         -4    1    4    4    0  501  0.11191821543E+03 -0.61513928641E+02 -0.92377984479E+02  0.15761770960E+03  0.00000000000E+00 0. -1.
<mgrwt>
<rscale>  2 0.12967693E+04</rscale>
<asrwt>0</asrwt>
<pdfrwt beam="1">  1        2 0.39192714E+00 0.12967693E+04</pdfrwt>
<pdfrwt beam="2">  1       -2 0.13790287E+00 0.12967693E+04</pdfrwt>
<totfact> 0.17781323E+00</totfact>
</mgrwt>
</event>
<event>
 8    1  0.1373409E-005  0.1792004E+04  0.7818608E-02  0.8258775E-01
         -2   -1    0    0    0  501 -0.00000000000E+00  0.00000000000E+00  0.90417106258E+03  0.90417106258E+03  0.00000000000E+00 0. -1.
          2   -1    0    0  502    0  0.00000000000E+00 -0.00000000000E+00 -0.38970507249E+04  0.38970507249E+04  0.00000000000E+00 0.  1.
    9000010    2    1    2  502    0 -0.14124596723E+04  0.53671684654E+03 -0.22292936950E+04  0.28759917380E+04  0.10091931427E+04 0.  0.
   -9000010    2    1    2    0  501  0.14124596723E+04 -0.53671684654E+03 -0.76358596731E+03  0.19252300495E+04  0.91670055884E+03 0.  0.
        -13    1    3    3    0    0 -0.69412766597E+03  0.79129152430E+03 -0.12208842160E+04  0.16119906244E+04  0.10566000000E+00 0.  1.
          4    1    3    3  502    0 -0.71833200635E+03 -0.25457467776E+03 -0.10084094790E+04  0.12640011136E+04  0.00000000000E+00 0.  1.
         13    1    4    4    0    0 -0.13487031199E+03 -0.32885228885E+02 -0.41221922307E+02  0.14481262851E+03  0.10566000000E+00 0. -1.
         -4    1    4    4    0  501  0.15473299843E+04 -0.50383161765E+03 -0.72236404500E+03  0.17804174209E+04  0.00000000000E+00 0. -1.
<mgrwt>
<rscale>  2 0.17920038E+04</rscale>
<asrwt>0</asrwt>
<pdfrwt beam="2">  1        2 0.59954626E+00 0.17920038E+04</pdfrwt>
<pdfrwt beam="1">  1       -2 0.13910324E+00 0.17920038E+04</pdfrwt>
<totfact> 0.19472533E-01</totfact>
</mgrwt>
</event>
<event>
 8    1  0.1373409E-005  0.1297902E+04  0.7818608E-02  0.8536275E-01
         -2   -1    0    0    0  501 -0.00000000000E+00  0.00000000000E+00  0.11582499791E+04  0.11582499791E+04  0.00000000000E+00 0.  1.
          2   -1    0    0  502    0  0.00000000000E+00 -0.00000000000E+00 -0.15518329356E+04  0.15518329356E+04  0.00000000000E+00 0. -1.
    9000010    2    1    2  502    0 -0.84264157181E+03  0.32451014982E+02  0.14042105428E+03  0.13196495273E+04  0.10053153314E+04 0.  0.
   -9000010    2    1    2    0  501  0.84264157181E+03 -0.32451014982E+02 -0.53400401081E+03  0.13904333873E+04  0.96801179438E+03 0.  0.
        -13    1    3    3    0    0 -0.23166217555E+03  0.12792307137E+03 -0.41251480232E+03  0.49010218227E+03  0.10566000000E+00 0.  1.
          4    1    3    3  502    0 -0.61097939625E+03 -0.95472056387E+02  0.55293585660E+03  0.82954734506E+03  0.00000000000E+00 0.  1.
         13    1    4    4    0    0  0.65178427998E+03  0.42666777814E+02 -0.81380061359E+03  0.10435107337E+04  0.10566000000E+00 0. -1.
         -4    1    4    4    0  501  0.19085729182E+03 -0.75117792796E+02  0.27979660278E+03  0.34692265357E+03  0.00000000000E+00 0. -1.
<mgrwt>
<rscale>  2 0.12979017E+04</rscale>
<asrwt>0</asrwt>
<pdfrwt beam="2">  1        2 0.23874353E+00 0.12979017E+04</pdfrwt>
<pdfrwt beam="1">  1       -2 0.17819231E+00 0.12979017E+04</pdfrwt>
<totfact> 0.27978398E+00</totfact>
</mgrwt>
</event>
<event>
 8    1  0.1373409E-005  0.1200932E+04  0.7818608E-02  0.8605861E-01
         -1   -1    0    0    0  501 -0.00000000000E+00  0.00000000000E+00  0.57977755810E+03  0.57977755810E+03  0.00000000000E+00 0.  1.
          1   -1    0    0  502    0  0.00000000000E+00 -0.00000000000E+00 -0.26330638161E+04  0.26330638161E+04  0.00000000000E+00 0. -1.
    9000010    2    1    2  502    0  0.37537553341E+03 -0.53004988891E+03 -0.65330942004E+03  0.13717331799E+04  0.10163557658E+04 0.  0.
   -9000010    2    1    2    0  501 -0.37537553341E+03  0.53004988891E+03 -0.13999768380E+04  0.18411081943E+04  0.10039345400E+04 0.  0.
        -13    1    3    3    0    0  0.56794967634E+03 -0.29514172276E+03  0.12205593993E+02  0.64017533462E+03  0.10566000000E+00 0.  1.
          4    1    3    3  502    0 -0.19257414293E+03 -0.23490816615E+03 -0.66551501403E+03  0.73155784526E+03  0.00000000000E+00 0.  1.
         13    1    4    4    0    0 -0.67304216769E+03  0.42925553479E+03 -0.12720820715E+04  0.15018118662E+04  0.10566000000E+00 0. -1.
         -4    1    4    4    0  501  0.29766663428E+03  0.10079435411E+03 -0.12789476642E+03  0.33929632810E+03  0.00000000000E+00 0. -1.
<mgrwt>
<rscale>  2 0.12009317E+04</rscale>
<asrwt>0</asrwt>
<pdfrwt beam="2">  1        1 0.40508675E+00 0.12009317E+04</pdfrwt>
<pdfrwt beam="1">  1       -1 0.89196545E-01 0.12009317E+04</pdfrwt>
<totfact> 0.14028368E+00</totfact>
</mgrwt>
</event>
<event>
 8    1  0.1373409E-005  0.1311102E+04  0.7818608E-02  0.8527289E-01
          2   -1    0    0  502    0  0.00000000000E+00  0.00000000000E+00  0.32169027693E+04  0.32169027693E+04  0.00000000000E+00 0.  1.
         -2   -1    0    0    0  501 -0.00000000000E+00 -0.00000000000E+00 -0.53438845046E+03  0.53438845046E+03  0.00000000000E+00 0. -1.
    9000010    2    1    2  502    0  0.52062600216E+03 -0.69142344731E+03  0.13492559419E+04  0.18878904510E+04  0.99725670748E+03 0.  0.
   -9000010    2    1    2    0  501 -0.52062600216E+03  0.69142344731E+03  0.13332583769E+04  0.18634007688E+04  0.97240254408E+03 0.  0.
        -13    1    3    3    0    0 -0.12091533813E+03 -0.63374790421E+03  0.87900838678E+03  0.10903727254E+04  0.10566000000E+00 0.  1.
          4    1    3    3  502    0  0.64154134029E+03 -0.57675543101E+02  0.47024755516E+03  0.79751772564E+03  0.00000000000E+00 0.  1.
         13    1    4    4    0    0 -0.52737544198E+03  0.55644300064E+03  0.14782274049E+04  0.16652056755E+04  0.10566000000E+00 0. -1.
         -4    1    4    4    0  501  0.67494398115E+01  0.13498044667E+03 -0.14496902801E+03  0.19819509329E+03  0.00000000000E+00 0. -1.
<mgrwt>
<rscale>  2 0.13111016E+04</rscale>
<asrwt>0</asrwt>
<pdfrwt beam="1">  1        2 0.49490811E+00 0.13111016E+04</pdfrwt>
<pdfrwt beam="2">  1       -2 0.82213610E-01 0.13111016E+04</pdfrwt>
<totfact> 0.25525353E+00</totfact>
</mgrwt>
</event>
<event>
 8    1  0.1373409E-005  0.1123920E+04  0.7818608E-02  0.8666166E-01
         -2   -1    0    0    0  501 -0.00000000000E+00  0.00000000000E+00  0.94099106554E+03  0.94099106554E+03  0.00000000000E+00 0. -1.
          2   -1    0    0  502    0  0.00000000000E+00 -0.00000000000E+00 -0.13428198305E+04  0.13428198305E+04  0.00000000000E+00 0.  1.
    9000010    2    1    2  502    0 -0.46173914686E+03  0.24754229320E+03 -0.18229681457E+03  0.11430576260E+04  0.99943403040E+03 0.  0.
   -9000010    2    1    2    0  501  0.46173914686E+03 -0.24754229320E+03 -0.21953195038E+03  0.11407532700E+04  0.98926413012E+03 0.  0.
        -13    1    3    3    0    0 -0.57526932120E+03  0.35655702261E+03 -0.46384593583E+03  0.82050031422E+03  0.10566000000E+00 0.  1.
          4    1    3    3  502    0  0.11353017434E+03 -0.10901472940E+03  0.28154912126E+03  0.32255731180E+03  0.00000000000E+00 0.  1.
         13    1    4    4    0    0  0.16410760861E+03  0.38408558685E+03 -0.38619125494E+02  0.41945737953E+03  0.10566000000E+00 0. -1.
         -4    1    4    4    0  501  0.29763153826E+03 -0.63162788005E+03 -0.18091282489E+03  0.72129589049E+03  0.00000000000E+00 0. -1.
<mgrwt>
<rscale>  2 0.11239198E+04</rscale>
<asrwt>0</asrwt>
<pdfrwt beam="2">  1        2 0.20658767E+00 0.11239198E+04</pdfrwt>
<pdfrwt beam="1">  1       -2 0.14476786E+00 0.11239198E+04</pdfrwt>
<totfact> 0.72047677E+00</totfact>
</mgrwt>
</event>
<event>
 8    1  0.1373409E-005  0.1281516E+04  0.7818608E-02  0.8547583E-01
          2   -1    0    0  502    0  0.00000000000E+00  0.00000000000E+00  0.15078988991E+04  0.15078988991E+04  0.00000000000E+00 0. -1.
         -2   -1    0    0    0  501 -0.00000000000E+00 -0.00000000000E+00 -0.11067556445E+04  0.11067556445E+04  0.00000000000E+00 0.  1.
    9000010    2    1    2  502    0 -0.83237594813E+03  0.27039881979E+03  0.48690786240E+02  0.13275092477E+04  0.99696778749E+03 0.  0.
   -9000010    2    1    2    0  501  0.83237594813E+03 -0.27039881979E+03  0.35245246829E+03  0.12871452959E+04  0.87553128414E+03 0.  0.
        -13    1    3    3    0    0 -0.79532170339E+03  0.22505940282E+03  0.43689433915E+03  0.93491444605E+03  0.10566000000E+00 0.  1.
          4    1    3    3  502    0 -0.37054244739E+02  0.45339416964E+02 -0.38820355292E+03  0.39259480165E+03  0.00000000000E+00 0.  1.
         13    1    4    4    0    0 -0.10060876534E+03 -0.14661170904E+03 -0.13872392911E+03  0.22552484688E+03  0.10566000000E+00 0. -1.
         -4    1    4    4    0  501  0.93298471347E+03 -0.12378711075E+03  0.49117639740E+03  0.10616204490E+04  0.00000000000E+00 0. -1.
<mgrwt>
<rscale>  2 0.12815164E+04</rscale>
<asrwt>0</asrwt>
<pdfrwt beam="1">  1        2 0.23198445E+00 0.12815164E+04</pdfrwt>
<pdfrwt beam="2">  1       -2 0.17027010E+00 0.12815164E+04</pdfrwt>
<totfact> 0.34513562E+00</totfact>
</mgrwt>
</event>
<event>
 8    1  0.1373409E-005  0.1168089E+04  0.7818608E-02  0.8630987E-01
         -2   -1    0    0    0  501 -0.00000000000E+00  0.00000000000E+00  0.67643303368E+03  0.67643303368E+03  0.00000000000E+00 0. -1.
          2   -1    0    0  502    0  0.00000000000E+00 -0.00000000000E+00 -0.20590020233E+04  0.20590020233E+04  0.00000000000E+00 0.  1.
    9000010    2    1    2  502    0 -0.58893237099E+03 -0.10173272455E+03 -0.48815390307E+03  0.12520351003E+04  0.98595475280E+03 0.  0.
   -9000010    2    1    2    0  501  0.58893237099E+03  0.10173272455E+03 -0.89441508655E+03  0.14833999566E+04  0.10214236141E+04 0.  0.
        -13    1    3    3    0    0 -0.43390309322E+03  0.36214506780E+03 -0.59513630394E+01  0.56520471895E+03  0.10566000000E+00 0.  1.
          4    1    3    3  502    0 -0.15502927778E+03 -0.46387779235E+03 -0.48220254003E+03  0.68683038140E+03  0.00000000000E+00 0.  1.
         13    1    4    4    0    0  0.62243120171E+03  0.30443821132E+03 -0.10269968236E+04  0.12388808305E+04  0.10566000000E+00 0. -1.
         -4    1    4    4    0  501 -0.33498830720E+02 -0.20270548677E+03  0.13258173706E+03  0.24451912610E+03  0.00000000000E+00 0. -1.
<mgrwt>
<rscale>  2 0.11680895E+04</rscale>
<asrwt>0</asrwt>
<pdfrwt beam="2">  1        2 0.31676954E+00 0.11680895E+04</pdfrwt>
<pdfrwt beam="1">  1       -2 0.10406662E+00 0.11680895E+04</pdfrwt>
<totfact> 0.70769572E+00</totfact>
</mgrwt>
</event>
<event>
 8    1  0.1373409E-005  0.1102560E+04  0.7818608E-02  0.8683787E-01
          2   -1    0    0  502    0  0.00000000000E+00  0.00000000000E+00  0.19102632259E+04  0.19102632259E+04  0.00000000000E+00 0.  1.
         -2   -1    0    0    0  501 -0.00000000000E+00 -0.00000000000E+00 -0.63734492347E+03  0.63734492347E+03  0.00000000000E+00 0. -1.
    9000010    2    1    2  502    0  0.44559121064E+03 -0.12881749943E+03  0.68640051230E+03  0.12990244662E+04  0.10005865407E+04 0.  0.
   -9000010    2    1    2    0  501 -0.44559121064E+03  0.12881749943E+03  0.58651779015E+03  0.12485836832E+04  0.99990630587E+03 0.  0.
        -13    1    3    3    0    0  0.79469869120E+02  0.25835999731E+03 -0.14861587573E+03  0.30846723973E+03  0.10566000000E+00 0.  1.
          4    1    3    3  502    0  0.36612134152E+03 -0.38717749673E+03  0.83501638803E+03  0.99055722650E+03  0.00000000000E+00 0.  1.
         13    1    4    4    0    0 -0.81513088863E+02  0.34680561147E+03  0.72035019588E+03  0.80363109178E+03  0.10566000000E+00 0. -1.
         -4    1    4    4    0  501 -0.36407812177E+03 -0.21798811205E+03 -0.13383240573E+03  0.44495259138E+03  0.00000000000E+00 0. -1.
<mgrwt>
<rscale>  2 0.11025599E+04</rscale>
<asrwt>0</asrwt>
<pdfrwt beam="1">  1        2 0.29388665E+00 0.11025599E+04</pdfrwt>
<pdfrwt beam="2">  1       -2 0.98053066E-01 0.11025599E+04</pdfrwt>
<totfact> 0.99149027E+00</totfact>
</mgrwt>
</event>
<event>
 8    1  0.1373409E-005  0.1015644E+04  0.7818608E-02  0.8760031E-01
          2   -1    0    0  502    0  0.00000000000E+00  0.00000000000E+00  0.22802943618E+04  0.22802943618E+04  0.00000000000E+00 0.  1.
         -2   -1    0    0    0  501 -0.00000000000E+00 -0.00000000000E+00 -0.45250051166E+03  0.45250051166E+03  0.00000000000E+00 0. -1.
    9000010    2    1    2  502    0  0.99815048710E+02 -0.11645987930E+03  0.92019678871E+03  0.13826961815E+04  0.10205687889E+04 0.  0.
   -9000010    2    1    2    0  501 -0.99815048710E+02  0.11645987930E+03  0.90759706140E+03  0.13500986920E+04  0.98767813824E+03 0.  0.
        -13    1    3    3    0    0  0.24182273466E+03  0.17798209753E+03 -0.95984854374E+02  0.31522843379E+03  0.10566000000E+00 0.  1.
          4    1    3    3  502    0 -0.14200768595E+03 -0.29444197683E+03  0.10161816431E+04  0.10674677477E+04  0.00000000000E+00 0.  1.
         13    1    4    4    0    0  0.21868319793E+03 -0.35450166480E+03  0.49879162419E+03  0.64983603080E+03  0.10566000000E+00 0. -1.
         -4    1    4    4    0  501 -0.31849824664E+03  0.47096154410E+03  0.40880543722E+03  0.70026266117E+03  0.00000000000E+00 0. -1.
<mgrwt>
<rscale>  2 0.10156435E+04</rscale>
<asrwt>0</asrwt>
<pdfrwt beam="1">  1        2 0.35081451E+00 0.10156435E+04</pdfrwt>
<pdfrwt beam="2">  1       -2 0.69615464E-01 0.10156435E+04</pdfrwt>
<totfact> 0.13474203E+01</totfact>
</mgrwt>
</event>
<event>
 8    1  0.1373409E-005  0.1454283E+04  0.7818608E-02  0.8436306E-01
         -2   -1    0    0    0  501 -0.00000000000E+00  0.00000000000E+00  0.10834192606E+04  0.10834192606E+04  0.00000000000E+00 0.  1.
          2   -1    0    0  502    0  0.00000000000E+00 -0.00000000000E+00 -0.20839527713E+04  0.20839527713E+04  0.00000000000E+00 0. -1.
    9000010    2    1    2  502    0  0.44433660876E+03 -0.95960210942E+03 -0.96808509805E+02  0.14404657858E+04  0.97329263958E+03 0.  0.
   -9000010    2    1    2    0  501 -0.44433660876E+03  0.95960210942E+03 -0.90372500084E+03  0.17269062461E+04  0.10233352702E+04 0.  0.
        -13    1    3    3    0    0 -0.22112712520E+03  0.33742235473E+02  0.67337778230E+02  0.23360250747E+03  0.10566000000E+00 0.  1.
          4    1    3    3  502    0  0.66546373397E+03 -0.99334434490E+03 -0.16414628804E+03  0.12068632784E+04  0.00000000000E+00 0.  1.
         13    1    4    4    0    0  0.16582415682E+03  0.53315044287E+03 -0.79959222179E+03  0.97524088206E+03  0.10566000000E+00 0. -1.
         -4    1    4    4    0  501 -0.61016076559E+03  0.42645166655E+03 -0.10413277905E+03  0.75166536400E+03  0.00000000000E+00 0. -1.
<mgrwt>
<rscale>  2 0.14542827E+04</rscale>
<asrwt>0</asrwt>
<pdfrwt beam="2">  1        2 0.32060812E+00 0.14542827E+04</pdfrwt>
<pdfrwt beam="1">  1       -2 0.16667989E+00 0.14542827E+04</pdfrwt>
<totfact> 0.17608050E+00</totfact>
</mgrwt>
</event>
<event>
 8    1  0.1373409E-005  0.1043729E+04  0.7818608E-02  0.8734555E-01
          2   -1    0    0  502    0  0.00000000000E+00  0.00000000000E+00  0.73248186676E+03  0.73248186676E+03  0.00000000000E+00 0. -1.
         -2   -1    0    0    0  501 -0.00000000000E+00 -0.00000000000E+00 -0.17876411643E+04  0.17876411643E+04  0.00000000000E+00 0.  1.
    9000010    2    1    2  502    0 -0.42555259970E+03  0.10342839759E+03 -0.10234392562E+04  0.14319513471E+04  0.90070211547E+03 0.  0.
   -9000010    2    1    2    0  501  0.42555259970E+03 -0.10342839759E+03 -0.31720041333E+02  0.10881716840E+04  0.99565004104E+03 0.  0.
        -13    1    3    3    0    0 -0.55815379791E+03  0.61437709925E+02 -0.11265969081E+04  0.12587814977E+04  0.10566000000E+00 0.  1.
          4    1    3    3  502    0  0.13260119821E+03  0.41990687665E+02  0.10315765189E+03  0.17316984946E+03  0.00000000000E+00 0.  1.
         13    1    4    4    0    0  0.55586216135E+03 -0.12374268330E+02  0.36207406631E+03  0.66350094618E+03  0.10566000000E+00 0. -1.
         -4    1    4    4    0  501 -0.13030956165E+03 -0.91054129260E+02 -0.39379410764E+03  0.42467073778E+03  0.00000000000E+00 0. -1.
<mgrwt>
<rscale>  2 0.10437291E+04</rscale>
<asrwt>0</asrwt>
<pdfrwt beam="1">  1        2 0.11268952E+00 0.10437291E+04</pdfrwt>
<pdfrwt beam="2">  1       -2 0.27502171E+00 0.10437291E+04</pdfrwt>
<totfact> 0.14907925E+00</totfact>
</mgrwt>
</event>
<event>
 8    1  0.1373409E-005  0.1167066E+04  0.7818608E-02  0.8631783E-01
          2   -1    0    0  502    0  0.00000000000E+00  0.00000000000E+00  0.49638313492E+04  0.49638313492E+04  0.00000000000E+00 0. -1.
         -2   -1    0    0    0  501 -0.00000000000E+00 -0.00000000000E+00 -0.46402302250E+03  0.46402302250E+03  0.00000000000E+00 0.  1.
    9000010    2    1    2  502    0 -0.42215354776E+01  0.59042512686E+03  0.52481678475E+03  0.12874684434E+04  0.10166231767E+04 0.  0.
   -9000010    2    1    2    0  501  0.42215354776E+01 -0.59042512686E+03  0.39749915420E+04  0.41403859283E+04  0.99680400531E+03 0.  0.
        -13    1    3    3    0    0  0.22520830177E+03  0.34889566173E+03  0.76931933383E+03  0.87424207777E+03  0.10566000000E+00 0.  1.
          4    1    3    3  502    0 -0.22942983725E+03  0.24152946513E+03 -0.24450254908E+03  0.41322636563E+03  0.00000000000E+00 0.  1.
         13    1    4    4    0    0 -0.35018170652E+03  0.76220803996E+02  0.18714884293E+04  0.19054935819E+04  0.10566000000E+00 0. -1.
         -4    1    4    4    0  501  0.35440324200E+03 -0.66664593086E+03  0.21035031126E+04  0.22348923464E+04  0.00000000000E+00 0. -1.
<mgrwt>
<rscale>  2 0.11670664E+04</rscale>
<asrwt>0</asrwt>
<pdfrwt beam="1">  1        2 0.76366632E+00 0.11670664E+04</pdfrwt>
<pdfrwt beam="2">  1       -2 0.71388161E-01 0.11670664E+04</pdfrwt>
<totfact> 0.12191759E-01</totfact>
</mgrwt>
</event>
<event>
 8    1  0.1373409E-005  0.1384373E+04  0.7818608E-02  0.8479317E-01
         -2   -1    0    0    0  501 -0.00000000000E+00  0.00000000000E+00  0.33204702969E+04  0.33204702969E+04  0.00000000000E+00 0. -1.
          2   -1    0    0  502    0  0.00000000000E+00 -0.00000000000E+00 -0.60057825814E+03  0.60057825814E+03  0.00000000000E+00 0.  1.
    9000010    2    1    2  502    0  0.51832624602E+03 -0.71772901572E+03  0.17055255538E+04  0.21722882634E+04  0.10130260844E+04 0.  0.
   -9000010    2    1    2    0  501 -0.51832624602E+03  0.71772901572E+03  0.10143664850E+04  0.17487602916E+04  0.11159866282E+04 0.  0.
        -13    1    3    3    0    0 -0.20009231666E+03 -0.54146057469E+03  0.53160773913E+03  0.78474409115E+03  0.10566000000E+00 0.  1.
          4    1    3    3  502    0  0.71841856268E+03 -0.17626844102E+03  0.11739178147E+04  0.13875441723E+04  0.00000000000E+00 0.  1.
         13    1    4    4    0    0 -0.18016713337E+03  0.31814041465E+03 -0.20685542234E+03  0.42007463182E+03  0.10566000000E+00 0. -1.
         -4    1    4    4    0  501 -0.33815911265E+03  0.39958860107E+03  0.12212219073E+04  0.13286856597E+04  0.00000000000E+00 0. -1.
<mgrwt>
<rscale>  2 0.13843734E+04</rscale>
<asrwt>0</asrwt>
<pdfrwt beam="2">  1        2 0.92396657E-01 0.13843734E+04</pdfrwt>
<pdfrwt beam="1">  1       -2 0.51084157E+00 0.13843734E+04</pdfrwt>
<totfact> 0.19627634E-01</totfact>
</mgrwt>
</event>
<event>
 8    1  0.1373409E-005  0.1413405E+04  0.7818608E-02  0.8461146E-01
         -2   -1    0    0    0  501 -0.00000000000E+00  0.00000000000E+00  0.88920022373E+03  0.88920022373E+03  0.00000000000E+00 0. -1.
          2   -1    0    0  502    0  0.00000000000E+00 -0.00000000000E+00 -0.24377299913E+04  0.24377299913E+04  0.00000000000E+00 0.  1.
    9000010    2    1    2  502    0  0.49746254428E+03  0.87458462350E+03 -0.30718866036E+03  0.14437856155E+04  0.98883000753E+03 0.  0.
   -9000010    2    1    2    0  501 -0.49746254428E+03 -0.87458462350E+03 -0.12413411072E+04  0.18831445995E+04  0.99646304081E+03 0.  0.
        -13    1    3    3    0    0 -0.21883617745E+03 -0.24551290102E+02  0.74545482610E+02  0.23248457701E+03  0.10566000000E+00 0.  1.
          4    1    3    3  502    0  0.71629872174E+03  0.89913591360E+03 -0.38173414297E+03  0.12113010385E+04  0.00000000000E+00 0.  1.
         13    1    4    4    0    0 -0.68711323040E+03 -0.27550038660E+03 -0.90892857569E+03  0.11722526269E+04  0.10566000000E+00 0. -1.
         -4    1    4    4    0  501  0.18965068612E+03 -0.59908423690E+03 -0.33241253152E+03  0.71089197264E+03  0.00000000000E+00 0. -1.
<mgrwt>
<rscale>  2 0.14134053E+04</rscale>
<asrwt>0</asrwt>
<pdfrwt beam="2">  1        2 0.37503538E+00 0.14134053E+04</pdfrwt>
<pdfrwt beam="1">  1       -2 0.13680004E+00 0.14134053E+04</pdfrwt>
<totfact> 0.20709233E+00</totfact>
</mgrwt>
</event>
<event>
 8    1  0.1373409E-005  0.1472500E+04  0.7818608E-02  0.8425504E-01
          1   -1    0    0  502    0  0.00000000000E+00  0.00000000000E+00  0.32235545443E+04  0.32235545443E+04  0.00000000000E+00 0.  1.
         -1   -1    0    0    0  501 -0.00000000000E+00 -0.00000000000E+00 -0.82766353684E+03  0.82766353684E+03  0.00000000000E+00 0. -1.
    9000010    2    1    2  502    0  0.10716181589E+04 -0.13785920136E+03  0.20786586915E+04  0.25509355910E+04  0.10094948221E+04 0.  0.
   -9000010    2    1    2    0  501 -0.10716181589E+04  0.13785920136E+03  0.31723231603E+03  0.15002824902E+04  0.99138316004E+03 0.  0.
        -13    1    3    3    0    0  0.10783592858E+04 -0.44847449225E+03  0.16311677640E+04  0.20061646007E+04  0.10566000000E+00 0.  1.
          4    1    3    3  502    0 -0.67411268781E+01  0.31061529089E+03  0.44749092744E+03  0.54477099029E+03  0.00000000000E+00 0.  1.
         13    1    4    4    0    0 -0.94054582839E+03  0.11541890738E+03 -0.19808524761E+03  0.96808354803E+03  0.10566000000E+00 0. -1.
         -4    1    4    4    0  501 -0.13107233056E+03  0.22440293986E+02  0.51531756364E+03  0.53219894215E+03  0.00000000000E+00 0. -1.
<mgrwt>
<rscale>  2 0.14724996E+04</rscale>
<asrwt>0</asrwt>
<pdfrwt beam="1">  1        1 0.49593146E+00 0.14724996E+04</pdfrwt>
<pdfrwt beam="2">  1       -1 0.12733285E+00 0.14724996E+04</pdfrwt>
<totfact> 0.14026330E-01</totfact>
</mgrwt>
</event>
<event>
 8    1  0.1373409E-005  0.1432872E+04  0.7818608E-02  0.8449211E-01
          2   -1    0    0  502    0  0.00000000000E+00  0.00000000000E+00  0.24009034658E+04  0.24009034658E+04  0.00000000000E+00 0. -1.
         -2   -1    0    0    0  501 -0.00000000000E+00 -0.00000000000E+00 -0.86109050736E+03  0.86109050736E+03  0.00000000000E+00 0.  1.
    9000010    2    1    2  502    0  0.10202189141E+04  0.83605458651E+02  0.63381353202E+03  0.15658096298E+04  0.10011012427E+04 0.  0.
   -9000010    2    1    2    0  501 -0.10202189141E+04 -0.83605458651E+02  0.90599942646E+03  0.16961843434E+04  0.10041762100E+04 0.  0.
        -13    1    3    3    0    0  0.65108339322E+02 -0.36461655622E+03  0.10131169143E+03  0.38399010261E+03  0.10566000000E+00 0.  1.
          4    1    3    3  502    0  0.95511057475E+03  0.44822201487E+03  0.53250184059E+03  0.11818195272E+04  0.00000000000E+00 0.  1.
         13    1    4    4    0    0 -0.39389658626E+02 -0.17671822222E+03  0.65487803335E+03  0.67944545403E+03  0.10566000000E+00 0. -1.
         -4    1    4    4    0  501 -0.98082925545E+03  0.93112763569E+02  0.25112139311E+03  0.10167388894E+04  0.00000000000E+00 0. -1.
<mgrwt>
<rscale>  2 0.14328716E+04</rscale>
<asrwt>0</asrwt>
<pdfrwt beam="1">  1        2 0.36936976E+00 0.14328716E+04</pdfrwt>
<pdfrwt beam="2">  1       -2 0.13247546E+00 0.14328716E+04</pdfrwt>
<totfact> 0.23741087E+00</totfact>
</mgrwt>
</event>
<event>
 8    1  0.1373409E-005  0.1401647E+04  0.7818608E-02  0.8468451E-01
         -1   -1    0    0    0  501 -0.00000000000E+00  0.00000000000E+00  0.12214985320E+04  0.12214985320E+04  0.00000000000E+00 0. -1.
          1   -1    0    0  502    0  0.00000000000E+00 -0.00000000000E+00 -0.16659025416E+04  0.16659025416E+04  0.00000000000E+00 0.  1.
    9000010    2    1    2  502    0  0.86873732949E+03  0.43604358621E+03 -0.48786716981E+03  0.14704721650E+04  0.98966431473E+03 0.  0.
   -9000010    2    1    2    0  501 -0.86873732949E+03 -0.43604358621E+03  0.43463160174E+02  0.14169289086E+04  0.10300290914E+04 0.  0.
        -13    1    3    3    0    0  0.70796096670E+03 -0.19627896722E+03 -0.25082154476E+03  0.77630253241E+03  0.10566000000E+00 0.  1.
          4    1    3    3  502    0  0.16077636278E+03  0.63232255343E+03 -0.23704562506E+03  0.69416963256E+03  0.00000000000E+00 0.  1.
         13    1    4    4    0    0 -0.79065989039E+03 -0.10231122055E+03 -0.37079794133E+03  0.87926206138E+03  0.10566000000E+00 0. -1.
         -4    1    4    4    0  501 -0.78077439094E+02 -0.33373236566E+03  0.41426110151E+03  0.53766684723E+03  0.00000000000E+00 0. -1.
<mgrwt>
<rscale>  2 0.14016467E+04</rscale>
<asrwt>0</asrwt>
<pdfrwt beam="2">  1        1 0.25629270E+00 0.14016467E+04</pdfrwt>
<pdfrwt beam="1">  1       -1 0.18792285E+00 0.14016467E+04</pdfrwt>
<totfact> 0.11035286E+00</totfact>
</mgrwt>
</event>
<event>
 8    1  0.1373409E-005  0.1055564E+04  0.7818608E-02  0.8724066E-01
          1   -1    0    0  502    0  0.00000000000E+00  0.00000000000E+00  0.91785784187E+03  0.91785784187E+03  0.00000000000E+00 0.  1.
         -1   -1    0    0    0  501 -0.00000000000E+00 -0.00000000000E+00 -0.17527774955E+04  0.17527774955E+04  0.00000000000E+00 0. -1.
    9000010    2    1    2  502    0  0.27407554248E+03 -0.22052994700E+03  0.32694301248E+03  0.10902984669E+04  0.97882999189E+03 0.  0.
   -9000010    2    1    2    0  501 -0.27407554248E+03  0.22052994700E+03 -0.11618626661E+04  0.15803368704E+04  0.10118245444E+04 0.  0.
        -13    1    3    3    0    0  0.41759563277E+03 -0.43947857282E+03 -0.74744345907E+02  0.61083079235E+03  0.10566000000E+00 0.  1.
          4    1    3    3  502    0 -0.14352009029E+03  0.21894862582E+03  0.40168735838E+03  0.47946767456E+03  0.00000000000E+00 0.  1.
         13    1    4    4    0    0 -0.57369779150E+03  0.42000615348E+03 -0.78811889654E+03  0.10614451145E+04  0.10566000000E+00 0. -1.
         -4    1    4    4    0  501  0.29962224902E+03 -0.19947620649E+03 -0.37374376953E+03  0.51889175588E+03  0.00000000000E+00 0. -1.
<mgrwt>
<rscale>  2 0.10555641E+04</rscale>
<asrwt>0</asrwt>
<pdfrwt beam="1">  1        1 0.14120890E+00 0.10555641E+04</pdfrwt>
<pdfrwt beam="2">  1       -1 0.26965807E+00 0.10555641E+04</pdfrwt>
<totfact> 0.73815834E-01</totfact>
</mgrwt>
</event>
<event>
 8    1  0.1373409E-005  0.1456323E+04  0.7818608E-02  0.8435088E-01
         -2   -1    0    0    0  501 -0.00000000000E+00  0.00000000000E+00  0.14936719167E+04  0.14936719167E+04  0.00000000000E+00 0. -1.
          2   -1    0    0  502    0  0.00000000000E+00 -0.00000000000E+00 -0.14846565184E+04  0.14846565184E+04  0.00000000000E+00 0.  1.
    9000010    2    1    2  502    0  0.52130617432E+03  0.90107590130E+03  0.31549845000E+03  0.14912700575E+04  0.10201221521E+04 0.  0.
   -9000010    2    1    2    0  501 -0.52130617432E+03 -0.90107590130E+03 -0.30648305171E+03  0.14870583775E+04  0.10167167009E+04 0.  0.
        -13    1    3    3    0    0  0.23677957543E+03  0.24463752107E+03 -0.36833179404E+03  0.50157791591E+03  0.10566000000E+00 0.  1.
          4    1    3    3  502    0  0.28452659889E+03  0.65643838023E+03  0.68383024404E+03  0.98969214162E+03  0.00000000000E+00 0.  1.
         13    1    4    4    0    0 -0.13849891075E+02 -0.44911222201E+03  0.32882185304E+03  0.55679208835E+03  0.10566000000E+00 0. -1.
         -4    1    4    4    0  501 -0.50745628325E+03 -0.45196367929E+03 -0.63530490475E+03  0.93026628919E+03  0.00000000000E+00 0. -1.
<mgrwt>
<rscale>  2 0.14563228E+04</rscale>
<asrwt>0</asrwt>
<pdfrwt beam="2">  1        2 0.22840869E+00 0.14563228E+04</pdfrwt>
<pdfrwt beam="1">  1       -2 0.22979568E+00 0.14563228E+04</pdfrwt>
<totfact> 0.11271948E+00</totfact>
</mgrwt>
</event>
<event>
 8    1  0.1373409E-005  0.1281835E+04  0.7818608E-02  0.8547361E-01
          2   -1    0    0  502    0  0.00000000000E+00  0.00000000000E+00  0.15109385208E+04  0.15109385208E+04  0.00000000000E+00 0.  1.
         -2   -1    0    0    0  501 -0.00000000000E+00 -0.00000000000E+00 -0.10882323753E+04  0.10882323753E+04  0.00000000000E+00 0. -1.
    9000010    2    1    2  502    0  0.77699942094E+03  0.25570877682E+03  0.24549788246E+03  0.13169423361E+04  0.10024733550E+04 0.  0.
   -9000010    2    1    2    0  501 -0.77699942094E+03 -0.25570877682E+03  0.17720826297E+03  0.12822285600E+04  0.97138675768E+03 0.  0.
        -13    1    3    3    0    0  0.48314948551E+03  0.10016492925E+03  0.63542828956E+03  0.80450951563E+03  0.10566000000E+00 0.  1.
          4    1    3    3  502    0  0.29384993542E+03  0.15554384757E+03 -0.38993040710E+03  0.51243282043E+03  0.00000000000E+00 0.  1.
         13    1    4    4    0    0 -0.52017384538E+02 -0.49976034724E+03  0.30935352896E+02  0.50341158130E+03  0.10566000000E+00 0. -1.
         -4    1    4    4    0  501 -0.72498203640E+03  0.24405157042E+03  0.14627291007E+03  0.77881697872E+03  0.00000000000E+00 0. -1.
<mgrwt>
<rscale>  2 0.12818351E+04</rscale>
<asrwt>0</asrwt>
<pdfrwt beam="1">  1        2 0.23245208E+00 0.12818351E+04</pdfrwt>
<pdfrwt beam="2">  1       -2 0.16742037E+00 0.12818351E+04</pdfrwt>
<totfact> 0.36333110E+00</totfact>
</mgrwt>
</event>
<event>
 8    1  0.1373409E-005  0.1106799E+04  0.7818608E-02  0.8680257E-01
         -2   -1    0    0    0  501 -0.00000000000E+00  0.00000000000E+00  0.55955745031E+03  0.55955745031E+03  0.00000000000E+00 0. -1.
          2   -1    0    0  502    0  0.00000000000E+00 -0.00000000000E+00 -0.22076273217E+04  0.22076273217E+04  0.00000000000E+00 0.  1.
    9000010    2    1    2  502    0 -0.49120213815E+03 -0.16119020761E+01 -0.95962267976E+03  0.14758152897E+04  0.10079052252E+04 0.  0.
   -9000010    2    1    2    0  501  0.49120213815E+03  0.16119020761E+01 -0.68844719164E+03  0.12913694823E+04  0.97590648399E+03 0.  0.
        -13    1    3    3    0    0 -0.23582753030E+03 -0.40146208743E+03 -0.74459656685E+02  0.47151954713E+03  0.10566000000E+00 0.  1.
          4    1    3    3  502    0 -0.25537460785E+03  0.39985018535E+03 -0.88516302307E+03  0.10042957425E+04  0.00000000000E+00 0.  1.
         13    1    4    4    0    0  0.29822061066E+03  0.48531542615E+03 -0.40008171894E+03  0.69608332007E+03  0.10566000000E+00 0. -1.
         -4    1    4    4    0  501  0.19298152749E+03 -0.48370352407E+03 -0.28836547270E+03  0.59528616228E+03  0.00000000000E+00 0. -1.
<mgrwt>
<rscale>  2 0.11067991E+04</rscale>
<asrwt>0</asrwt>
<pdfrwt beam="2">  1        2 0.33963498E+00 0.11067991E+04</pdfrwt>
<pdfrwt beam="1">  1       -2 0.86085760E-01 0.11067991E+04</pdfrwt>
<totfact> 0.92348395E+00</totfact>
</mgrwt>
</event>
<event>
 8    1  0.1373409E-005  0.1031862E+04  0.7818608E-02  0.8745218E-01
         -2   -1    0    0    0  501 -0.00000000000E+00  0.00000000000E+00  0.40248215296E+04  0.40248215296E+04  0.00000000000E+00 0. -1.
          2   -1    0    0  502    0  0.00000000000E+00 -0.00000000000E+00 -0.28840723924E+03  0.28840723924E+03  0.00000000000E+00 0.  1.
    9000010    2    1    2  502    0 -0.13373247482E+03 -0.19753492646E+03  0.12247265937E+04  0.15923180813E+04  0.98925083806E+03 0.  0.
   -9000010    2    1    2    0  501  0.13373247482E+03  0.19753492646E+03  0.25116876967E+04  0.27209106876E+04  0.10187617298E+04 0.  0.
        -13    1    3    3    0    0  0.80989972866E+02 -0.56991509520E+03  0.57783758368E+03  0.81563403296E+03  0.10566000000E+00 0.  1.
          4    1    3    3  502    0 -0.21472244768E+03  0.37238016874E+03  0.64688901001E+03  0.77668404829E+03  0.00000000000E+00 0.  1.
         13    1    4    4    0    0 -0.17417977072E+03  0.52515596380E+03  0.17610763513E+04  0.18459461815E+04  0.10566000000E+00 0. -1.
         -4    1    4    4    0  501  0.30791224553E+03 -0.32762103734E+03  0.75061134543E+03  0.87496450610E+03  0.00000000000E+00 0. -1.
<mgrwt>
<rscale>  2 0.10318617E+04</rscale>
<asrwt>0</asrwt>
<pdfrwt beam="2">  1        2 0.44370347E-01 0.10318617E+04</pdfrwt>
<pdfrwt beam="1">  1       -2 0.61920327E+00 0.10318617E+04</pdfrwt>
<totfact> 0.73692322E-01</totfact>
</mgrwt>
</event>
<event>
 8    1  0.1373409E-005  0.1598558E+04  0.7818608E-02  0.8354933E-01
         -2   -1    0    0    0  501 -0.00000000000E+00  0.00000000000E+00  0.57852273689E+03  0.57852273689E+03  0.00000000000E+00 0. -1.
          2   -1    0    0  502    0  0.00000000000E+00 -0.00000000000E+00 -0.44332673264E+04  0.44332673264E+04  0.00000000000E+00 0.  1.
    9000010    2    1    2  502    0 -0.16715339799E+03  0.12294688352E+04 -0.17724763424E+04  0.23848410317E+04  0.10031253595E+04 0.  0.
   -9000010    2    1    2    0  501  0.16715339799E+03 -0.12294688352E+04 -0.20822682471E+04  0.26269490316E+04  0.10126629678E+04 0.  0.
        -13    1    3    3    0    0 -0.13719738468E+03  0.35292370385E+02  0.93153041899E+02  0.16954696738E+03  0.10566000000E+00 0.  1.
          4    1    3    3  502    0 -0.29956013310E+02  0.11941764648E+04 -0.18656293843E+04  0.22152940643E+04  0.00000000000E+00 0.  1.
         13    1    4    4    0    0 -0.21174540893E+03  0.66017093646E+02 -0.14195114968E+03  0.26333346714E+03  0.10566000000E+00 0. -1.
         -4    1    4    4    0  501  0.37889880692E+03 -0.12954859289E+04 -0.19403170974E+04  0.23636155644E+04  0.00000000000E+00 0. -1.
<mgrwt>
<rscale>  2 0.15985585E+04</rscale>
<asrwt>0</asrwt>
<pdfrwt beam="2">  1        2 0.68204114E+00 0.15985585E+04</pdfrwt>
<pdfrwt beam="1">  1       -2 0.89003496E-01 0.15985585E+04</pdfrwt>
<totfact> 0.20440775E-01</totfact>
</mgrwt>
</event>
<event>
 8    1  0.1373409E-005  0.1324756E+04  0.7818608E-02  0.8518108E-01
          2   -1    0    0  502    0  0.00000000000E+00  0.00000000000E+00  0.36847637257E+04  0.36847637257E+04  0.00000000000E+00 0. -1.
         -2   -1    0    0    0  501 -0.00000000000E+00 -0.00000000000E+00 -0.49276008066E+03  0.49276008066E+03  0.00000000000E+00 0.  1.
    9000010    2    1    2  502    0 -0.82243278119E+03 -0.39834473925E+03  0.20168183409E+04  0.24339155610E+04  0.10106010722E+04 0.  0.
   -9000010    2    1    2    0  501  0.82243278119E+03  0.39834473925E+03  0.11751853042E+04  0.17436082454E+04  0.90776373760E+03 0.  0.
        -13    1    3    3    0    0 -0.38814543734E+03 -0.48706950919E+03  0.18636107513E+04  0.19649271312E+04  0.10566000000E+00 0.  1.
          4    1    3    3  502    0 -0.43428734385E+03  0.88724769948E+02  0.15320758960E+03  0.46898842985E+03  0.00000000000E+00 0.  1.
         13    1    4    4    0    0  0.16900815041E+03 -0.34803225278E+02  0.89439355597E+03  0.91088685550E+03  0.10566000000E+00 0. -1.
         -4    1    4    4    0  501  0.65342463077E+03  0.43314796452E+03  0.28079174820E+03  0.83272138986E+03  0.00000000000E+00 0. -1.
<mgrwt>
<rscale>  2 0.13247562E+04</rscale>
<asrwt>0</asrwt>
<pdfrwt beam="1">  1        2 0.56688671E+00 0.13247562E+04</pdfrwt>
<pdfrwt beam="2">  1       -2 0.75809246E-01 0.13247562E+04</pdfrwt>
<totfact> 0.13898439E+00</totfact>
</mgrwt>
</event>
<event>
 8    1  0.1373409E-005  0.1184050E+04  0.7818608E-02  0.8618671E-01
          2   -1    0    0  502    0  0.00000000000E+00  0.00000000000E+00  0.20842669674E+04  0.20842669674E+04  0.00000000000E+00 0.  1.
         -2   -1    0    0    0  501 -0.00000000000E+00 -0.00000000000E+00 -0.67998331779E+03  0.67998331779E+03  0.00000000000E+00 0. -1.
    9000010    2    1    2  502    0  0.61814954711E+03  0.31120147796E+02  0.56423208701E+03  0.13197718141E+04  0.10199816013E+04 0.  0.
   -9000010    2    1    2    0  501 -0.61814954711E+03 -0.31120147796E+02  0.84005156262E+03  0.14444784711E+04  0.99887641851E+03 0.  0.
        -13    1    3    3    0    0  0.55739377279E+03  0.48262683099E+03  0.36047369219E+03  0.82070565361E+03  0.10566000000E+00 0.  1.
          4    1    3    3  502    0  0.60755774313E+02 -0.45150668319E+03  0.20375839481E+03  0.49906616048E+03  0.00000000000E+00 0.  1.
         13    1    4    4    0    0 -0.32787137991E+03 -0.15476805691E+03  0.10191181105E+04  0.10816905877E+04  0.10566000000E+00 0. -1.
         -4    1    4    4    0  501 -0.29027816719E+03  0.12364790911E+03 -0.17906654788E+03  0.36278788341E+03  0.00000000000E+00 0. -1.
<mgrwt>
<rscale>  2 0.11840497E+04</rscale>
<asrwt>0</asrwt>
<pdfrwt beam="1">  1        2 0.32065646E+00 0.11840497E+04</pdfrwt>
<pdfrwt beam="2">  1       -2 0.10461282E+00 0.11840497E+04</pdfrwt>
<totfact> 0.67567869E+00</totfact>
</mgrwt>
</event>
<event>
 8    1  0.1373409E-005  0.1224833E+04  0.7818608E-02  0.8588093E-01
         -2   -1    0    0    0  501 -0.00000000000E+00  0.00000000000E+00  0.62955489018E+03  0.62955489018E+03  0.00000000000E+00 0.  1.
          2   -1    0    0  502    0  0.00000000000E+00 -0.00000000000E+00 -0.26858089360E+04  0.26858089360E+04  0.00000000000E+00 0. -1.
    9000010    2    1    2  502    0 -0.63629965188E+03  0.29149153006E+03 -0.15832707035E+04  0.20005295956E+04  0.10027601822E+04 0.  0.
   -9000010    2    1    2    0  501  0.63629965188E+03 -0.29149153006E+03 -0.47298334229E+03  0.13148342306E+04  0.10075868463E+04 0.  0.
        -13    1    3    3    0    0 -0.14479381772E+03  0.10046813897E+03  0.12281572947E+03  0.21480877814E+03  0.10566000000E+00 0.  1.
          4    1    3    3  502    0 -0.49150583416E+03  0.19102339109E+03 -0.17060864330E+04  0.17857208174E+04  0.00000000000E+00 0.  1.
         13    1    4    4    0    0  0.46422351175E+03 -0.62892072367E+03 -0.51140212981E+03  0.93411824469E+03  0.10566000000E+00 0. -1.
         -4    1    4    4    0  501  0.17207614013E+03  0.33742919361E+03  0.38418787515E+02  0.38071598592E+03  0.00000000000E+00 0. -1.
<mgrwt>
<rscale>  2 0.12248332E+04</rscale>
<asrwt>0</asrwt>
<pdfrwt beam="2">  1        2 0.41320138E+00 0.12248332E+04</pdfrwt>
<pdfrwt beam="1">  1       -2 0.96854598E-01 0.12248332E+04</pdfrwt>
<totfact> 0.37457137E+00</totfact>
</mgrwt>
</event>
<event>
 8    1  0.1373409E-005  0.1251786E+04  0.7818608E-02  0.8568554E-01
          1   -1    0    0  502    0  0.00000000000E+00  0.00000000000E+00  0.96823974590E+03  0.96823974590E+03  0.00000000000E+00 0.  1.
         -1   -1    0    0    0  501 -0.00000000000E+00 -0.00000000000E+00 -0.16205766479E+04  0.16205766479E+04  0.00000000000E+00 0. -1.
    9000010    2    1    2  502    0 -0.71106821421E+03  0.27793181532E+03 -0.37491339868E+03  0.13111541349E+04  0.99784818968E+03 0.  0.
   -9000010    2    1    2    0  501  0.71106821421E+03 -0.27793181532E+03 -0.27742350329E+03  0.12776622589E+04  0.98620127175E+03 0.  0.
        -13    1    3    3    0    0 -0.70410104567E+03 -0.46889848131E+01 -0.61910403383E+03  0.93758737457E+03  0.10566000000E+00 0.  1.
          4    1    3    3  502    0 -0.69671685477E+01  0.28262080013E+03  0.24419063515E+03  0.37356676030E+03  0.00000000000E+00 0.  1.
         13    1    4    4    0    0  0.85563622250E+03 -0.47067005947E+03 -0.10666482031E+03  0.98235484688E+03  0.10566000000E+00 0. -1.
         -4    1    4    4    0  501 -0.14456800828E+03  0.19273824415E+03 -0.17075868298E+03  0.29530741202E+03  0.00000000000E+00 0. -1.
<mgrwt>
<rscale>  2 0.12517861E+04</rscale>
<asrwt>0</asrwt>
<pdfrwt beam="1">  1        1 0.14895996E+00 0.12517861E+04</pdfrwt>
<pdfrwt beam="2">  1       -1 0.24931948E+00 0.12517861E+04</pdfrwt>
<totfact> 0.10394506E+00</totfact>
</mgrwt>
</event>
<event>
 8    1  0.1373409E-005  0.1315036E+04  0.7818608E-02  0.8524632E-01
          2   -1    0    0  502    0  0.00000000000E+00  0.00000000000E+00  0.27617744218E+04  0.27617744218E+04  0.00000000000E+00 0.  1.
         -2   -1    0    0    0  501 -0.00000000000E+00 -0.00000000000E+00 -0.62957070122E+03  0.62957070122E+03  0.00000000000E+00 0. -1.
    9000010    2    1    2  502    0  0.51420965781E+03  0.70269440367E+03  0.94394586167E+03  0.16213144186E+04  0.98966441637E+03 0.  0.
   -9000010    2    1    2    0  501 -0.51420965781E+03 -0.70269440367E+03  0.11882578590E+04  0.17700307045E+04  0.98125478763E+03 0.  0.
        -13    1    3    3    0    0  0.10717479430E+02  0.58689543897E+03  0.93573879558E+03  0.11046122511E+04  0.10566000000E+00 0.  1.
          4    1    3    3  502    0  0.50349217838E+03  0.11579896471E+03  0.82070660826E+01  0.51670216745E+03  0.00000000000E+00 0.  1.
         13    1    4    4    0    0 -0.44735712823E+03 -0.84438861539E+03  0.12731283090E+04  0.15918468005E+04  0.10566000000E+00 0. -1.
         -4    1    4    4    0  501 -0.66852529575E+02  0.14169421171E+03 -0.84870450028E+02  0.17818390396E+03  0.00000000000E+00 0. -1.
<mgrwt>
<rscale>  2 0.13150359E+04</rscale>
<asrwt>0</asrwt>
<pdfrwt beam="1">  1        2 0.42488836E+00 0.13150359E+04</pdfrwt>
<pdfrwt beam="2">  1       -2 0.96857033E-01 0.13150359E+04</pdfrwt>
<totfact> 0.33470793E+00</totfact>
</mgrwt>
</event>
<event>
 8    1  0.1373409E-005  0.1728245E+04  0.7818608E-02  0.8289028E-01
         -1   -1    0    0    0  501 -0.00000000000E+00  0.00000000000E+00  0.16393976063E+04  0.16393976063E+04  0.00000000000E+00 0.  1.
          1   -1    0    0  502    0  0.00000000000E+00 -0.00000000000E+00 -0.20333422250E+04  0.20333422250E+04  0.00000000000E+00 0. -1.
    9000010    2    1    2  502    0 -0.46908304195E+03  0.13569828926E+04 -0.78539708153E+03  0.18722716538E+04  0.90945648554E+03 0.  0.
   -9000010    2    1    2    0  501  0.46908304195E+03 -0.13569828926E+04  0.39145246285E+03  0.18004681774E+04  0.10134146024E+04 0.  0.
        -13    1    3    3    0    0 -0.62078989958E+03  0.57690277440E+03 -0.64562854444E+03  0.10653793405E+04  0.10566000000E+00 0.  1.
          4    1    3    3  502    0  0.15170685762E+03  0.78008011816E+03 -0.13976853708E+03  0.80689231336E+03  0.00000000000E+00 0.  1.
         13    1    4    4    0    0  0.13372716120E+03 -0.75098117754E+03  0.70637717411E+03  0.10396270514E+04  0.10566000000E+00 0. -1.
         -4    1    4    4    0  501  0.33535588075E+03 -0.60600171502E+03 -0.31492471126E+03  0.76084112607E+03  0.00000000000E+00 0. -1.
<mgrwt>
<rscale>  2 0.17282447E+04</rscale>
<asrwt>0</asrwt>
<pdfrwt beam="2">  1        1 0.31282188E+00 0.17282447E+04</pdfrwt>
<pdfrwt beam="1">  1       -1 0.25221502E+00 0.17282447E+04</pdfrwt>
<totfact> 0.14144107E-01</totfact>
</mgrwt>
</event>
<event>
 8    1  0.1373409E-005  0.1595896E+04  0.7818608E-02  0.8356353E-01
         -2   -1    0    0    0  501 -0.00000000000E+00  0.00000000000E+00  0.10761126565E+04  0.10761126565E+04  0.00000000000E+00 0. -1.
          2   -1    0    0  502    0  0.00000000000E+00 -0.00000000000E+00 -0.38532640903E+04  0.38532640903E+04  0.00000000000E+00 0.  1.
    9000010    2    1    2  502    0 -0.11733479044E+04 -0.37313344947E+03 -0.29172746010E+04  0.33233441206E+04  0.10090347717E+04 0.  0.
   -9000010    2    1    2    0  501  0.11733479044E+04  0.37313344947E+03  0.14012316721E+03  0.16060326262E+04  0.10216322325E+04 0.  0.
        -13    1    3    3    0    0 -0.72724212032E+03 -0.36347469813E+03 -0.27137315718E+04  0.28329020478E+04  0.10566000000E+00 0.  1.
          4    1    3    3  502    0 -0.44610578404E+03 -0.96587513407E+01 -0.20354302927E+03  0.49044207282E+03  0.00000000000E+00 0.  1.
         13    1    4    4    0    0  0.10083257654E+03 -0.31145871088E+03  0.37624702003E+02  0.32952900698E+03  0.10566000000E+00 0. -1.
         -4    1    4    4    0  501  0.10725153278E+04  0.68459216035E+03  0.10249846520E+03  0.12765036192E+04  0.00000000000E+00 0. -1.
<mgrwt>
<rscale>  2 0.15958958E+04</rscale>
<asrwt>0</asrwt>
<pdfrwt beam="2">  1        2 0.59280986E+00 0.15958958E+04</pdfrwt>
<pdfrwt beam="1">  1       -2 0.16555579E+00 0.15958958E+04</pdfrwt>
<totfact> 0.12659923E-01</totfact>
</mgrwt>
</event>
<event>
 8    1  0.1373409E-005  0.1512019E+04  0.7818608E-02  0.8402616E-01
         -1   -1    0    0    0  501 -0.00000000000E+00  0.00000000000E+00  0.15022501498E+04  0.15022501498E+04  0.00000000000E+00 0.  1.
          1   -1    0    0  502    0  0.00000000000E+00 -0.00000000000E+00 -0.18689754375E+04  0.18689754375E+04  0.00000000000E+00 0. -1.
    9000010    2    1    2  502    0  0.11107898535E+04 -0.22394036825E+03  0.54325119598E+03  0.16049531530E+04  0.99837336415E+03 0.  0.
   -9000010    2    1    2    0  501 -0.11107898535E+04  0.22394036825E+03 -0.90997648373E+03  0.17662724343E+04  0.10038215598E+04 0.  0.
        -13    1    3    3    0    0  0.11249991022E+02  0.27518117932E+03 -0.12466486795E+02  0.27569306884E+03  0.10566000000E+00 0.  1.
          4    1    3    3  502    0  0.10995398625E+04 -0.49912154757E+03  0.55571768278E+03  0.13292600842E+04  0.00000000000E+00 0.  1.
         13    1    4    4    0    0  0.67026287874E+02  0.26745904415E+03 -0.39102142869E+03  0.47846069057E+03  0.10566000000E+00 0. -1.
         -4    1    4    4    0  501 -0.11778161414E+04 -0.43518675899E+02 -0.51895505505E+03  0.12878117437E+04  0.00000000000E+00 0. -1.
<mgrwt>
<rscale>  2 0.15120187E+04</rscale>
<asrwt>0</asrwt>
<pdfrwt beam="2">  1        1 0.28753468E+00 0.15120187E+04</pdfrwt>
<pdfrwt beam="1">  1       -1 0.23111541E+00 0.15120187E+04</pdfrwt>
<totfact> 0.30913836E-01</totfact>
</mgrwt>
</event>
<event>
 8    1  0.1373409E-005  0.1378267E+04  0.7818608E-02  0.8483197E-01
         -1   -1    0    0    0  501 -0.00000000000E+00  0.00000000000E+00  0.92503531799E+03  0.92503531799E+03  0.00000000000E+00 0.  1.
          1   -1    0    0  502    0  0.00000000000E+00 -0.00000000000E+00 -0.20828205323E+04  0.20828205323E+04  0.00000000000E+00 0. -1.
    9000010    2    1    2  502    0 -0.14147674772E+03 -0.95102278946E+03 -0.39122164501E+03  0.14040448337E+04  0.94542450953E+03 0.  0.
   -9000010    2    1    2    0  501  0.14147674772E+03  0.95102278946E+03 -0.76656356931E+03  0.16038110166E+04  0.10296261725E+04 0.  0.
        -13    1    3    3    0    0  0.21941030608E+03 -0.54691760871E+03 -0.58335307358E+03  0.82919272353E+03  0.10566000000E+00 0.  1.
          4    1    3    3  502    0 -0.36088705379E+03 -0.40410518074E+03  0.19213142856E+03  0.57485211015E+03  0.00000000000E+00 0.  1.
         13    1    4    4    0    0 -0.13793645429E+03 -0.20340326675E+02  0.17410910870E+03  0.22305646641E+03  0.10566000000E+00 0. -1.
         -4    1    4    4    0  501  0.27941320201E+03  0.97136311613E+03 -0.94067267801E+03  0.13807545502E+04  0.00000000000E+00 0. -1.
<mgrwt>
<rscale>  2 0.13782670E+04</rscale>
<asrwt>0</asrwt>
<pdfrwt beam="2">  1        1 0.32043393E+00 0.13782670E+04</pdfrwt>
<pdfrwt beam="1">  1       -1 0.14231313E+00 0.13782670E+04</pdfrwt>
<totfact> 0.13350564E+00</totfact>
</mgrwt>
</event>
<event>
 8    1  0.1373409E-005  0.1499100E+04  0.7818608E-02  0.8410017E-01
         -1   -1    0    0    0  501 -0.00000000000E+00  0.00000000000E+00  0.10174611349E+04  0.10174611349E+04  0.00000000000E+00 0.  1.
          1   -1    0    0  502    0  0.00000000000E+00 -0.00000000000E+00 -0.22649195184E+04  0.22649195184E+04  0.00000000000E+00 0. -1.
    9000010    2    1    2  502    0 -0.42051899845E+03 -0.10429382588E+04 -0.36634942295E+03  0.15458323444E+04  0.99540408760E+03 0.  0.
   -9000010    2    1    2    0  501  0.42051899845E+03  0.10429382588E+04 -0.88110896054E+03  0.17365483090E+04  0.98726419432E+03 0.  0.
        -13    1    3    3    0    0 -0.41247274814E+03 -0.53472246065E+02  0.13406096932E+03  0.43699588524E+03  0.10566000000E+00 0.  1.
          4    1    3    3  502    0 -0.80462503143E+01 -0.98946601272E+03 -0.50041039227E+03  0.11088364592E+04  0.00000000000E+00 0.  1.
         13    1    4    4    0    0  0.51336603529E+03  0.83999461694E+03 -0.10628619663E+04  0.14487274461E+04  0.10566000000E+00 0. -1.
         -4    1    4    4    0  501 -0.92847036833E+02  0.20294364184E+03  0.18175300571E+03  0.28782086286E+03  0.00000000000E+00 0. -1.
<mgrwt>
<rscale>  2 0.14991004E+04</rscale>
<asrwt>0</asrwt>
<pdfrwt beam="2">  1        1 0.34844915E+00 0.14991004E+04</pdfrwt>
<pdfrwt beam="1">  1       -1 0.15653249E+00 0.14991004E+04</pdfrwt>
<totfact> 0.70716770E-01</totfact>
</mgrwt>
</event>
<event>
 8    1  0.1373409E-005  0.1165670E+04  0.7818608E-02  0.8632872E-01
         -2   -1    0    0    0  501 -0.00000000000E+00  0.00000000000E+00  0.11794329764E+04  0.11794329764E+04  0.00000000000E+00 0.  1.
          2   -1    0    0  502    0  0.00000000000E+00 -0.00000000000E+00 -0.11544061325E+04  0.11544061325E+04  0.00000000000E+00 0. -1.
    9000010    2    1    2  502    0 -0.48624215538E+03  0.33327696135E+03 -0.39943850112E+02  0.11682415940E+04  0.10078134470E+04 0.  0.
   -9000010    2    1    2    0  501  0.48624215538E+03 -0.33327696135E+03  0.64970694011E+02  0.11655975149E+04  0.10034397884E+04 0.  0.
        -13    1    3    3    0    0 -0.14031502729E+03  0.44380095973E+03 -0.43115047613E+03  0.63445909480E+03  0.10566000000E+00 0.  1.
          4    1    3    3  502    0 -0.34592712809E+03 -0.11052399838E+03  0.39120662602E+03  0.53378249916E+03  0.00000000000E+00 0.  1.
         13    1    4    4    0    0 -0.12311189493E+03  0.14476510324E+03  0.30097320289E+03  0.35594712221E+03  0.10566000000E+00 0. -1.
         -4    1    4    4    0  501  0.60935405031E+03 -0.47804206459E+03 -0.23600250887E+03  0.80965039266E+03  0.00000000000E+00 0. -1.
<mgrwt>
<rscale>  2 0.11656704E+04</rscale>
<asrwt>0</asrwt>
<pdfrwt beam="2">  1        2 0.17760094E+00 0.11656704E+04</pdfrwt>
<pdfrwt beam="1">  1       -2 0.18145123E+00 0.11656704E+04</pdfrwt>
<totfact> 0.44425901E+00</totfact>
</mgrwt>
</event>
<event>
 8    1  0.1373409E-005  0.1181208E+04  0.7818608E-02  0.8620849E-01
          2   -1    0    0  502    0  0.00000000000E+00  0.00000000000E+00  0.12351206491E+04  0.12351206491E+04  0.00000000000E+00 0.  1.
         -2   -1    0    0    0  501 -0.00000000000E+00 -0.00000000000E+00 -0.12504616536E+04  0.12504616536E+04  0.00000000000E+00 0. -1.
    9000010    2    1    2  502    0 -0.51450767763E+03 -0.37823661272E+03  0.37836124629E+03  0.12515510066E+04  0.10076912245E+04 0.  0.
   -9000010    2    1    2    0  501  0.51450767763E+03  0.37823661272E+03 -0.39370225073E+03  0.12340312961E+04  0.97982176537E+03 0.  0.
        -13    1    3    3    0    0 -0.55083630341E+03 -0.73472211996E+01 -0.18061452230E+03  0.57973807158E+03  0.10566000000E+00 0.  1.
          4    1    3    3  502    0  0.36328625775E+02 -0.37088939152E+03  0.55897576859E+03  0.67181293502E+03  0.00000000000E+00 0.  1.
         13    1    4    4    0    0  0.36895937357E+03  0.60451932160E+03 -0.57276400712E+03  0.91084205467E+03  0.10566000000E+00 0. -1.
         -4    1    4    4    0  501  0.14554830406E+03 -0.22628270888E+03  0.17906175639E+03  0.32318924140E+03  0.00000000000E+00 0. -1.
<mgrwt>
<rscale>  2 0.11812080E+04</rscale>
<asrwt>0</asrwt>
<pdfrwt beam="1">  1        2 0.19001856E+00 0.11812080E+04</pdfrwt>
<pdfrwt beam="2">  1       -2 0.19237871E+00 0.11812080E+04</pdfrwt>
<totfact> 0.32352248E+00</totfact>
</mgrwt>
</event>
<event>
 8    1  0.1373409E-005  0.1256433E+04  0.7818608E-02  0.8565237E-01
          2   -1    0    0  502    0  0.00000000000E+00  0.00000000000E+00  0.29305017205E+04  0.29305017205E+04  0.00000000000E+00 0. -1.
         -2   -1    0    0    0  501 -0.00000000000E+00 -0.00000000000E+00 -0.63821077514E+03  0.63821077514E+03  0.00000000000E+00 0.  1.
    9000010    2    1    2  502    0 -0.19352078893E+02  0.72319168580E+03  0.42615876588E+03  0.13072971902E+04  0.10020149362E+04 0.  0.
   -9000010    2    1    2    0  501  0.19352078893E+02 -0.72319168580E+03  0.18661321794E+04  0.22614153054E+04  0.10526961362E+04 0.  0.
        -13    1    3    3    0    0 -0.45514176026E+03  0.18558214334E+03  0.36563326403E+03  0.61260301075E+03  0.10566000000E+00 0.  1.
          4    1    3    3  502    0  0.43578968136E+03  0.53760954246E+03  0.60525501857E+02  0.69469417941E+03  0.00000000000E+00 0.  1.
         13    1    4    4    0    0 -0.41158175834E+02  0.35696602685E+02 -0.12140244515E+03  0.13306692953E+03  0.10566000000E+00 0. -1.
         -4    1    4    4    0  501  0.60510254727E+02 -0.75888828849E+03  0.19875346246E+04  0.21283483759E+04  0.00000000000E+00 0. -1.
<mgrwt>
<rscale>  2 0.12564330E+04</rscale>
<asrwt>0</asrwt>
<pdfrwt beam="1">  1        2 0.45084641E+00 0.12564330E+04</pdfrwt>
<pdfrwt beam="2">  1       -2 0.98186275E-01 0.12564330E+04</pdfrwt>
<totfact> 0.25823577E+00</totfact>
</mgrwt>
</event>
<event>
 8    1  0.1373409E-005  0.1272669E+04  0.7818608E-02  0.8553762E-01
          1   -1    0    0  502    0  0.00000000000E+00  0.00000000000E+00  0.10433048453E+04  0.10433048453E+04  0.00000000000E+00 0. -1.
         -1   -1    0    0    0  501 -0.00000000000E+00 -0.00000000000E+00 -0.15898207158E+04  0.15898207158E+04  0.00000000000E+00 0.  1.
    9000010    2    1    2  502    0  0.68453266106E+03  0.40209840178E+03 -0.47588495176E+03  0.13624873792E+04  0.99981862476E+03 0.  0.
   -9000010    2    1    2    0  501 -0.68453266106E+03 -0.40209840178E+03 -0.70630918738E+02  0.12706381818E+04  0.98957797757E+03 0.  0.
        -13    1    3    3    0    0  0.27287459999E+02 -0.24736781313E+02  0.27481015112E+03  0.27726727926E+03  0.10566000000E+00 0.  1.
          4    1    3    3  502    0  0.65724520106E+03  0.42683518309E+03 -0.75069510288E+03  0.10852201000E+04  0.00000000000E+00 0.  1.
         13    1    4    4    0    0 -0.76595155567E+03 -0.16261183956E+03  0.28581974667E+03  0.83355703749E+03  0.10566000000E+00 0. -1.
         -4    1    4    4    0  501  0.81418894605E+02 -0.23948656222E+03 -0.35645066541E+03  0.43708114436E+03  0.00000000000E+00 0. -1.
<mgrwt>
<rscale>  2 0.12726692E+04</rscale>
<asrwt>0</asrwt>
<pdfrwt beam="1">  1        1 0.16050844E+00 0.12726692E+04</pdfrwt>
<pdfrwt beam="2">  1       -1 0.24458780E+00 0.12726692E+04</pdfrwt>
<totfact> 0.10012230E+00</totfact>
</mgrwt>
</event>
<event>
 8    1  0.1373409E-005  0.1090809E+04  0.7818608E-02  0.8693660E-01
          4   -1    0    0  502    0  0.00000000000E+00  0.00000000000E+00  0.44157208104E+03  0.44157208104E+03  0.00000000000E+00 0.  1.
         -4   -1    0    0    0  501 -0.00000000000E+00 -0.00000000000E+00 -0.32864198331E+04  0.32864198331E+04  0.00000000000E+00 0. -1.
    9000010    2    1    2  502    0 -0.36757541816E+03 -0.28134627893E+03 -0.61711043835E+03  0.12414389289E+04  0.97266536097E+03 0.  0.
   -9000010    2    1    2    0  501  0.36757541816E+03  0.28134627893E+03 -0.22277373137E+04  0.24865529852E+04  0.10029281095E+04 0.  0.
        -13    1    3    3    0    0 -0.58250474064E+03 -0.26343728436E+03 -0.57712676194E+02  0.64190477472E+03  0.10566000000E+00 0.  1.
          4    1    3    3  502    0  0.21492932248E+03 -0.17908994572E+02 -0.55939776215E+03  0.59953415420E+03  0.00000000000E+00 0.  1.
         13    1    4    4    0    0  0.83509198405E+02 -0.34616377149E+03 -0.41204803691E+03  0.54459777707E+03  0.10566000000E+00 0. -1.
         -4    1    4    4    0  501  0.28406621975E+03  0.62751005041E+03 -0.18156892768E+04  0.19419552082E+04  0.00000000000E+00 0. -1.
<mgrwt>
<rscale>  2 0.10908086E+04</rscale>
<asrwt>0</asrwt>
<pdfrwt beam="1">  1        4 0.67934167E-01 0.10908086E+04</pdfrwt>
<pdfrwt beam="2">  1       -4 0.50560304E+00 0.10908086E+04</pdfrwt>
<totfact> 0.10275502E-01</totfact>
</mgrwt>
</event>
<event>
 8    1  0.1373409E-005  0.1078879E+04  0.7818608E-02  0.8703816E-01
         -2   -1    0    0    0  501 -0.00000000000E+00  0.00000000000E+00  0.81871839695E+03  0.81871839695E+03  0.00000000000E+00 0.  1.
          2   -1    0    0  502    0  0.00000000000E+00 -0.00000000000E+00 -0.14226113649E+04  0.14226113649E+04  0.00000000000E+00 0. -1.
    9000010    2    1    2  502    0 -0.16685865069E+02 -0.48909648691E+03 -0.30730929405E+03  0.10985140577E+04  0.93423783977E+03 0.  0.
   -9000010    2    1    2    0  501  0.16685865069E+02  0.48909648691E+03 -0.29658367394E+03  0.11428157041E+04  0.98922801537E+03 0.  0.
        -13    1    3    3    0    0 -0.64090699633E+01 -0.20957887985E+02 -0.56406385738E+03  0.56448946458E+03  0.10566000000E+00 0.  1.
          4    1    3    3  502    0 -0.10276795106E+02 -0.46813859892E+03  0.25675456333E+03  0.53402459317E+03  0.00000000000E+00 0.  1.
         13    1    4    4    0    0 -0.47170097409E+03  0.34314722053E+03 -0.23698929015E+03  0.62961556424E+03  0.10566000000E+00 0. -1.
         -4    1    4    4    0  501  0.48838683916E+03  0.14594926637E+03 -0.59594383795E+02  0.51320013991E+03  0.00000000000E+00 0. -1.
<mgrwt>
<rscale>  2 0.10788787E+04</rscale>
<asrwt>0</asrwt>
<pdfrwt beam="2">  1        2 0.21886328E+00 0.10788787E+04</pdfrwt>
<pdfrwt beam="1">  1       -2 0.12595668E+00 0.10788787E+04</pdfrwt>
<totfact> 0.97110259E+00</totfact>
</mgrwt>
</event>
<event>
 8    1  0.1373409E-005  0.1410280E+04  0.7818608E-02  0.8463080E-01
         -2   -1    0    0    0  501 -0.00000000000E+00  0.00000000000E+00  0.95408935250E+03  0.95408935250E+03  0.00000000000E+00 0.  1.
          2   -1    0    0  502    0  0.00000000000E+00 -0.00000000000E+00 -0.21529885431E+04  0.21529885431E+04  0.00000000000E+00 0. -1.
    9000010    2    1    2  502    0 -0.83590613074E+03  0.53570150078E+03 -0.86847448092E+03  0.16414731122E+04  0.97697026403E+03 0.  0.
   -9000010    2    1    2    0  501  0.83590613074E+03 -0.53570150078E+03 -0.33042470970E+03  0.14656047834E+04  0.10262074522E+04 0.  0.
        -13    1    3    3    0    0 -0.10508368515E+04  0.43401999744E+03 -0.81187883253E+03  0.13970607347E+04  0.10566000000E+00 0.  1.
          4    1    3    3  502    0  0.21493072077E+03  0.10168150334E+03 -0.56595648389E+02  0.24441237749E+03  0.00000000000E+00 0.  1.
         13    1    4    4    0    0  0.57378453660E+03 -0.47776255909E+03  0.28105330786E+03  0.79779491746E+03  0.10566000000E+00 0. -1.
         -4    1    4    4    0  501  0.26212159414E+03 -0.57938941690E+02 -0.61147801756E+03  0.66780986594E+03  0.00000000000E+00 0. -1.
<mgrwt>
<rscale>  2 0.14102802E+04</rscale>
<asrwt>0</asrwt>
<pdfrwt beam="2">  1        2 0.33122900E+00 0.14102802E+04</pdfrwt>
<pdfrwt beam="1">  1       -2 0.14678298E+00 0.14102802E+04</pdfrwt>
<totfact> 0.24183896E+00</totfact>
</mgrwt>
</event>
<event>
 8    1  0.1373409E-005  0.1213948E+04  0.7818608E-02  0.8596132E-01
         -2   -1    0    0    0  501 -0.00000000000E+00  0.00000000000E+00  0.14556115420E+04  0.14556115420E+04  0.00000000000E+00 0. -1.
          2   -1    0    0  502    0  0.00000000000E+00 -0.00000000000E+00 -0.11275278167E+04  0.11275278167E+04  0.00000000000E+00 0.  1.
    9000010    2    1    2  502    0  0.63400237984E+03  0.25886749502E+03 -0.25117724055E+03  0.12079317110E+04  0.96282792583E+03 0.  0.
   -9000010    2    1    2    0  501 -0.63400237984E+03 -0.25886749502E+03  0.57926096585E+03  0.13752076476E+04  0.10424401229E+04 0.  0.
        -13    1    3    3    0    0 -0.17459678650E+03 -0.53348349299E+02 -0.28729807687E+03  0.34039723907E+03  0.10566000000E+00 0.  1.
          4    1    3    3  502    0  0.80859916634E+03  0.31221584432E+03  0.36120836320E+02  0.86753447197E+03  0.00000000000E+00 0.  1.
         13    1    4    4    0    0  0.56060677962E+02 -0.18224321595E+03  0.64992504813E+03  0.67731674180E+03  0.10566000000E+00 0. -1.
         -4    1    4    4    0  501 -0.69006305781E+03 -0.76624279066E+02 -0.70664082276E+02  0.69789090581E+03  0.00000000000E+00 0. -1.
<mgrwt>
<rscale>  2 0.12139484E+04</rscale>
<asrwt>0</asrwt>
<pdfrwt beam="2">  1        2 0.17346582E+00 0.12139484E+04</pdfrwt>
<pdfrwt beam="1">  1       -2 0.22394024E+00 0.12139484E+04</pdfrwt>
<totfact> 0.20454940E+00</totfact>
</mgrwt>
</event>
<event>
 8    1  0.1373409E-005  0.1129432E+04  0.7818608E-02  0.8661685E-01
          2   -1    0    0  502    0  0.00000000000E+00  0.00000000000E+00  0.10604914566E+04  0.10604914566E+04  0.00000000000E+00 0.  1.
         -2   -1    0    0    0  501 -0.00000000000E+00 -0.00000000000E+00 -0.15337729208E+04  0.15337729208E+04  0.00000000000E+00 0. -1.
    9000010    2    1    2  502    0  0.51100831623E+03 -0.16075634652E+03  0.36478933293E+03  0.11929132861E+04  0.10014982519E+04 0.  0.
   -9000010    2    1    2    0  501 -0.51100831623E+03  0.16075634652E+03 -0.83807079707E+03  0.14013510913E+04  0.98714240008E+03 0.  0.
        -13    1    3    3    0    0 -0.94402866452E+02  0.31355275731E+03  0.25709785619E+03  0.41632505526E+03  0.10566000000E+00 0.  1.
          4    1    3    3  502    0  0.60541118268E+03 -0.47430910383E+03  0.10769147674E+03  0.77658823083E+03  0.00000000000E+00 0.  1.
         13    1    4    4    0    0 -0.47285992423E+03  0.54566323316E+03 -0.64888098751E+03  0.97076846832E+03  0.10566000000E+00 0. -1.
         -4    1    4    4    0  501 -0.38148391998E+02 -0.38490688663E+03 -0.18918980955E+03  0.43058262300E+03  0.00000000000E+00 0. -1.
<mgrwt>
<rscale>  2 0.11294320E+04</rscale>
<asrwt>0</asrwt>
<pdfrwt beam="1">  1        2 0.16315253E+00 0.11294320E+04</pdfrwt>
<pdfrwt beam="2">  1       -2 0.23596506E+00 0.11294320E+04</pdfrwt>
<totfact> 0.18122729E+00</totfact>
</mgrwt>
</event>
<event>
 8    1  0.1373409E-005  0.1279009E+04  0.7818608E-02  0.8549329E-01
         -1   -1    0    0    0  501 -0.00000000000E+00  0.00000000000E+00  0.18460073296E+04  0.18460073296E+04  0.00000000000E+00 0.  1.
          1   -1    0    0  502    0  0.00000000000E+00 -0.00000000000E+00 -0.91832135609E+03  0.91832135609E+03  0.00000000000E+00 0. -1.
    9000010    2    1    2  502    0 -0.44518852629E+03  0.65832938995E+03  0.71848379837E+03  0.14577073081E+04  0.98848430339E+03 0.  0.
   -9000010    2    1    2    0  501  0.44518852629E+03 -0.65832938995E+03  0.20920217518E+03  0.13066213776E+04  0.10158264934E+04 0.  0.
        -13    1    3    3    0    0 -0.67845021953E+02  0.84301737446E+03  0.43662130461E+03  0.95179799088E+03  0.10566000000E+00 0.  1.
          4    1    3    3  502    0 -0.37734350434E+03 -0.18468798451E+03  0.28186249377E+03  0.50590931725E+03  0.00000000000E+00 0.  1.
         13    1    4    4    0    0  0.60493697783E+03 -0.45989448732E+03  0.50792650424E+03  0.91402463396E+03  0.10566000000E+00 0. -1.
         -4    1    4    4    0  501 -0.15974845154E+03 -0.19843490262E+03 -0.29872432905E+03  0.39259674364E+03  0.00000000000E+00 0. -1.
<mgrwt>
<rscale>  2 0.12790087E+04</rscale>
<asrwt>0</asrwt>
<pdfrwt beam="2">  1        1 0.14128021E+00 0.12790087E+04</pdfrwt>
<pdfrwt beam="1">  1       -1 0.28400113E+00 0.12790087E+04</pdfrwt>
<totfact> 0.52241647E-01</totfact>
</mgrwt>
</event>
<event>
 8    1  0.1373409E-005  0.1141303E+04  0.7818608E-02  0.8652124E-01
         -1   -1    0    0    0  501 -0.00000000000E+00  0.00000000000E+00  0.48939143736E+03  0.48939143736E+03  0.00000000000E+00 0.  1.
          1   -1    0    0  502    0  0.00000000000E+00 -0.00000000000E+00 -0.27862014931E+04  0.27862014931E+04  0.00000000000E+00 0. -1.
    9000010    2    1    2  502    0 -0.32263077805E+03  0.44662289968E+03 -0.80035033682E+03  0.13924835935E+04  0.99744035570E+03 0.  0.
   -9000010    2    1    2    0  501  0.32263077805E+03 -0.44662289968E+03 -0.14964597189E+04  0.18831093369E+04  0.10015719899E+04 0.  0.
        -13    1    3    3    0    0 -0.26144550054E+03  0.57926674189E+03 -0.60564038211E+02  0.63841344120E+03  0.10566000000E+00 0.  1.
          4    1    3    3  502    0 -0.61185277506E+02 -0.13264384220E+03 -0.73978629861E+03  0.75407015235E+03  0.00000000000E+00 0.  1.
         13    1    4    4    0    0  0.65505484613E+03 -0.10852580204E+03 -0.95854407282E+03  0.11660537946E+04  0.10566000000E+00 0. -1.
         -4    1    4    4    0  501 -0.33242406808E+03 -0.33809709764E+03 -0.53791564611E+03  0.71705554234E+03  0.00000000000E+00 0. -1.
<mgrwt>
<rscale>  2 0.11413032E+04</rscale>
<asrwt>0</asrwt>
<pdfrwt beam="2">  1        1 0.42864638E+00 0.11413032E+04</pdfrwt>
<pdfrwt beam="1">  1       -1 0.75290991E-01 0.11413032E+04</pdfrwt>
<totfact> 0.14036614E+00</totfact>
</mgrwt>
</event>
<event>
 8    1  0.1373409E-005  0.1811194E+04  0.7818608E-02  0.8249921E-01
          2   -1    0    0  502    0  0.00000000000E+00  0.00000000000E+00  0.13263645756E+04  0.13263645756E+04  0.00000000000E+00 0. -1.
         -2   -1    0    0    0  501 -0.00000000000E+00 -0.00000000000E+00 -0.32030355678E+04  0.32030355678E+04  0.00000000000E+00 0.  1.
    9000010    2    1    2  502    0 -0.48520082095E+03  0.14468457796E+04 -0.20271284569E+04  0.27319396099E+04  0.10126508307E+04 0.  0.
   -9000010    2    1    2    0  501  0.48520082095E+03 -0.14468457796E+04  0.15045746468E+03  0.17974605334E+04  0.93778695551E+03 0.  0.
        -13    1    3    3    0    0 -0.76358994725E+03  0.11790391008E+04 -0.13274025188E+04  0.19326666207E+04  0.10566000000E+00 0.  1.
          4    1    3    3  502    0  0.27838912631E+03  0.26780667884E+03 -0.69972593808E+03  0.79927298922E+03  0.00000000000E+00 0.  1.
         13    1    4    4    0    0  0.59745137156E+03 -0.35827552588E+03  0.70541625215E+02  0.70020398876E+03  0.10566000000E+00 0. -1.
         -4    1    4    4    0  501 -0.11225055061E+03 -0.10885702537E+04  0.79915839469E+02  0.10972565447E+04  0.00000000000E+00 0. -1.
<mgrwt>
<rscale>  2 0.18111939E+04</rscale>
<asrwt>0</asrwt>
<pdfrwt beam="1">  1        2 0.20405609E+00 0.18111939E+04</pdfrwt>
<pdfrwt beam="2">  1       -2 0.49277470E+00 0.18111939E+04</pdfrwt>
<totfact> 0.61535703E-02</totfact>
</mgrwt>
</event>
<event>
 8    1  0.1373409E-005  0.1191369E+04  0.7818608E-02  0.8613090E-01
         -1   -1    0    0    0  501 -0.00000000000E+00  0.00000000000E+00  0.14090749585E+04  0.14090749585E+04  0.00000000000E+00 0.  1.
          1   -1    0    0  502    0  0.00000000000E+00 -0.00000000000E+00 -0.10703656259E+04  0.10703656259E+04  0.00000000000E+00 0. -1.
    9000010    2    1    2  502    0  0.40275119191E+03 -0.54175742759E+03  0.46891471331E+03  0.12719194538E+04  0.97066392515E+03 0.  0.
   -9000010    2    1    2    0  501 -0.40275119191E+03  0.54175742759E+03 -0.13020538079E+03  0.12075211306E+04  0.99269542498E+03 0.  0.
        -13    1    3    3    0    0  0.51925371818E+03 -0.18040286921E+03 -0.12807841196E+03  0.56442334275E+03  0.10566000000E+00 0.  1.
          4    1    3    3  502    0 -0.11650252628E+03 -0.36135455837E+03  0.59699312527E+03  0.70749611101E+03  0.00000000000E+00 0.  1.
         13    1    4    4    0    0  0.13816937528E+03 -0.11457307411E+01 -0.37769032378E+03  0.40217170563E+03  0.10566000000E+00 0. -1.
         -4    1    4    4    0  501 -0.54092056718E+03  0.54290315833E+03  0.24748494299E+03  0.80534942499E+03  0.00000000000E+00 0. -1.
<mgrwt>
<rscale>  2 0.11913695E+04</rscale>
<asrwt>0</asrwt>
<pdfrwt beam="2">  1        1 0.16467163E+00 0.11913695E+04</pdfrwt>
<pdfrwt beam="1">  1       -1 0.21678076E+00 0.11913695E+04</pdfrwt>
<totfact> 0.17594948E+00</totfact>
</mgrwt>
</event>
<event>
 8    1  0.1373409E-005  0.1485413E+04  0.7818608E-02  0.8417944E-01
          2   -1    0    0  502    0  0.00000000000E+00  0.00000000000E+00  0.21548456809E+04  0.21548456809E+04  0.00000000000E+00 0.  1.
         -2   -1    0    0    0  501 -0.00000000000E+00 -0.00000000000E+00 -0.11716936901E+04  0.11716936901E+04  0.00000000000E+00 0. -1.
    9000010    2    1    2  502    0 -0.55415592450E+03  0.96027453939E+03 -0.10045266286E+03  0.14838816105E+04  0.98112074525E+03 0.  0.
   -9000010    2    1    2    0  501  0.55415592450E+03 -0.96027453939E+03  0.10836046537E+04  0.18426577606E+04  0.99597821139E+03 0.  0.
        -13    1    3    3    0    0  0.15419974427E+03  0.18064473667E+03  0.27704016398E+03  0.36491279183E+03  0.10566000000E+00 0.  1.
          4    1    3    3  502    0 -0.70835566877E+03  0.77962980272E+03 -0.37749282684E+03  0.11189688186E+04  0.00000000000E+00 0.  1.
         13    1    4    4    0    0  0.41325875640E+02 -0.38205086932E+03  0.99266461444E+03  0.10644499719E+04  0.10566000000E+00 0. -1.
         -4    1    4    4    0  501  0.51283004886E+03 -0.57822367007E+03  0.90940039221E+02  0.77820778869E+03  0.00000000000E+00 0. -1.
<mgrwt>
<rscale>  2 0.14854132E+04</rscale>
<asrwt>0</asrwt>
<pdfrwt beam="1">  1        2 0.33151472E+00 0.14854132E+04</pdfrwt>
<pdfrwt beam="2">  1       -2 0.18026057E+00 0.14854132E+04</pdfrwt>
<totfact> 0.12336899E+00</totfact>
</mgrwt>
</event>
<event>
 8    1  0.1373409E-005  0.1122190E+04  0.7818608E-02  0.8667578E-01
          1   -1    0    0  502    0  0.00000000000E+00  0.00000000000E+00  0.15256898489E+04  0.15256898489E+04  0.00000000000E+00 0.  1.
         -1   -1    0    0    0  501 -0.00000000000E+00 -0.00000000000E+00 -0.83859327998E+03  0.83859327998E+03  0.00000000000E+00 0. -1.
    9000010    2    1    2  502    0 -0.48912740879E+03 -0.13937688604E+03  0.19494456717E+03  0.11378371952E+04  0.99899877883E+03 0.  0.
   -9000010    2    1    2    0  501  0.48912740879E+03  0.13937688604E+03  0.49215200177E+03  0.12264459337E+04  0.10016409022E+04 0.  0.
        -13    1    3    3    0    0  0.15814669163E+03  0.27456668505E+03  0.19009374184E+03  0.36950356218E+03  0.10566000000E+00 0.  1.
          4    1    3    3  502    0 -0.64727410042E+03 -0.41394357109E+03  0.48508253341E+01  0.76833363302E+03  0.00000000000E+00 0.  1.
         13    1    4    4    0    0  0.25929534752E+03  0.65189482237E+02 -0.29791174405E+03  0.40029384738E+03  0.10566000000E+00 0. -1.
         -4    1    4    4    0  501  0.22983206127E+03  0.74187403803E+02  0.79006374582E+03  0.82615208632E+03  0.00000000000E+00 0. -1.
<mgrwt>
<rscale>  2 0.11221900E+04</rscale>
<asrwt>0</asrwt>
<pdfrwt beam="1">  1        1 0.23472151E+00 0.11221900E+04</pdfrwt>
<pdfrwt beam="2">  1       -1 0.12901435E+00 0.11221900E+04</pdfrwt>
<totfact> 0.47320802E+00</totfact>
</mgrwt>
</event>
<event>
 8    1  0.1373409E-005  0.1133776E+04  0.7818608E-02  0.8658172E-01
          2   -1    0    0  502    0  0.00000000000E+00  0.00000000000E+00  0.12965514838E+04  0.12965514838E+04  0.00000000000E+00 0. -1.
         -2   -1    0    0    0  501 -0.00000000000E+00 -0.00000000000E+00 -0.99587038513E+03  0.99587038513E+03  0.00000000000E+00 0.  1.
    9000010    2    1    2  502    0 -0.15717495912E+03 -0.51824509104E+03  0.22524933657E+03  0.11477386888E+04  0.98655202196E+03 0.  0.
   -9000010    2    1    2    0  501  0.15717495912E+03  0.51824509104E+03  0.75431762152E+02  0.11446831801E+04  0.10056478956E+04 0.  0.
        -13    1    3    3    0    0 -0.37423905846E+03  0.14705740216E+03  0.19597138058E+03  0.44730922814E+03  0.10566000000E+00 0.  1.
          4    1    3    3  502    0  0.21706409935E+03 -0.66530249320E+03  0.29277955993E+02  0.70042946068E+03  0.00000000000E+00 0.  1.
         13    1    4    4    0    0 -0.32333219744E+03  0.26714126366E+03  0.34139870858E+03  0.54079686947E+03  0.10566000000E+00 0. -1.
         -4    1    4    4    0  501  0.48050715655E+03  0.25110382738E+03 -0.26596694643E+03  0.60388631067E+03  0.00000000000E+00 0. -1.
<mgrwt>
<rscale>  2 0.11337758E+04</rscale>
<asrwt>0</asrwt>
<pdfrwt beam="1">  1        2 0.19946946E+00 0.11337758E+04</pdfrwt>
<pdfrwt beam="2">  1       -2 0.15321083E+00 0.11337758E+04</pdfrwt>
<totfact> 0.64304712E+00</totfact>
</mgrwt>
</event>
<event>
 8    1  0.1373409E-005  0.1316108E+04  0.7818608E-02  0.8523910E-01
         -1   -1    0    0    0  501 -0.00000000000E+00  0.00000000000E+00  0.11820020384E+04  0.11820020384E+04  0.00000000000E+00 0.  1.
          1   -1    0    0  502    0  0.00000000000E+00 -0.00000000000E+00 -0.20798612439E+04  0.20798612439E+04  0.00000000000E+00 0. -1.
    9000010    2    1    2  502    0  0.93866687503E+03  0.83840336959E+02 -0.13197331348E+04  0.18261401765E+04  0.83962354223E+03 0.  0.
   -9000010    2    1    2    0  501 -0.93866687503E+03 -0.83840336959E+02  0.42187392935E+03  0.14357231058E+04  0.99759637123E+03 0.  0.
        -13    1    3    3    0    0  0.27506222578E+03  0.17293430487E+03 -0.10588064025E+04  0.11075362346E+04  0.10566000000E+00 0.  1.
          4    1    3    3  502    0  0.66360464925E+03 -0.89093967915E+02 -0.26092673232E+03  0.71860394187E+03  0.00000000000E+00 0.  1.
         13    1    4    4    0    0 -0.71299149490E+03 -0.36445626817E+03 -0.94381364484E+02  0.80628350865E+03  0.10566000000E+00 0. -1.
         -4    1    4    4    0  501 -0.22567538014E+03  0.28061593121E+03  0.51625529383E+03  0.62943959715E+03  0.00000000000E+00 0. -1.
<mgrwt>
<rscale>  2 0.13161078E+04</rscale>
<asrwt>0</asrwt>
<pdfrwt beam="2">  1        1 0.31997865E+00 0.13161078E+04</pdfrwt>
<pdfrwt beam="1">  1       -1 0.18184647E+00 0.13161078E+04</pdfrwt>
<totfact> 0.61303418E-01</totfact>
</mgrwt>
</event>
<event>
 8    1  0.1373409E-005  0.1120588E+04  0.7818608E-02  0.8668887E-01
          2   -1    0    0  502    0  0.00000000000E+00  0.00000000000E+00  0.19757398780E+04  0.19757398780E+04  0.00000000000E+00 0.  1.
         -2   -1    0    0    0  501 -0.00000000000E+00 -0.00000000000E+00 -0.74334545871E+03  0.74334545871E+03  0.00000000000E+00 0. -1.
    9000010    2    1    2  502    0 -0.45613782231E+03 -0.15999123132E+03  0.11360349989E+04  0.15989904453E+04  0.10161377950E+04 0.  0.
   -9000010    2    1    2    0  501  0.45613782231E+03  0.15999123132E+03  0.96359420426E+02  0.11200948914E+04  0.10058173397E+04 0.  0.
        -13    1    3    3    0    0 -0.50400558825E+03 -0.13466058520E+03  0.13135735054E+04  0.14133755592E+04  0.10566000000E+00 0.  1.
          4    1    3    3  502    0  0.47867765942E+02 -0.25330646118E+02 -0.17753850650E+03  0.18561488609E+03  0.00000000000E+00 0.  1.
         13    1    4    4    0    0 -0.20944845452E+03  0.28388572255E+03  0.24170987462E+03  0.42764872644E+03  0.10566000000E+00 0. -1.
         -4    1    4    4    0  501  0.66558627683E+03 -0.12389449124E+03 -0.14535045419E+03  0.69244616498E+03  0.00000000000E+00 0. -1.
<mgrwt>
<rscale>  2 0.11205882E+04</rscale>
<asrwt>0</asrwt>
<pdfrwt beam="1">  1        2 0.30395998E+00 0.11205882E+04</pdfrwt>
<pdfrwt beam="2">  1       -2 0.11436084E+00 0.11205882E+04</pdfrwt>
<totfact> 0.62357378E+00</totfact>
</mgrwt>
</event>
<event>
 8    1  0.1373409E-005  0.1789929E+04  0.7818608E-02  0.8259739E-01
          2   -1    0    0  502    0  0.00000000000E+00  0.00000000000E+00  0.30212814228E+04  0.30212814228E+04  0.00000000000E+00 0. -1.
         -2   -1    0    0    0  501 -0.00000000000E+00 -0.00000000000E+00 -0.14251945729E+04  0.14251945729E+04  0.00000000000E+00 0.  1.
    9000010    2    1    2  502    0  0.52672521764E+03  0.13654709287E+04  0.19160781283E+04  0.26088473524E+04  0.99638285958E+03 0.  0.
   -9000010    2    1    2    0  501 -0.52672521764E+03 -0.13654709287E+04 -0.31999127839E+03  0.18376286433E+04  0.10642059483E+04 0.  0.
        -13    1    3    3    0    0  0.66232088431E+03  0.99076138338E+03  0.18562563356E+04  0.22058931677E+04  0.10566000000E+00 0.  1.
          4    1    3    3  502    0 -0.13559566667E+03  0.37470954529E+03  0.59821792664E+02  0.40295418478E+03  0.00000000000E+00 0.  1.
         13    1    4    4    0    0  0.14536987471E+03  0.52521597820E+02  0.13346577465E+03  0.20421567736E+03  0.10566000000E+00 0. -1.
         -4    1    4    4    0  501 -0.67209509235E+03 -0.14179925265E+04 -0.45345705304E+03  0.16334129659E+04  0.00000000000E+00 0. -1.
<mgrwt>
<rscale>  2 0.17899287E+04</rscale>
<asrwt>0</asrwt>
<pdfrwt beam="1">  1        2 0.46481253E+00 0.17899287E+04</pdfrwt>
<pdfrwt beam="2">  1       -2 0.21926070E+00 0.17899287E+04</pdfrwt>
<totfact> 0.17853192E-01</totfact>
</mgrwt>
</event>
<event>
 8    1  0.1373409E-005  0.1440725E+04  0.7818608E-02  0.8444451E-01
         -2   -1    0    0    0  501 -0.00000000000E+00  0.00000000000E+00  0.12749094158E+04  0.12749094158E+04  0.00000000000E+00 0. -1.
          2   -1    0    0  502    0  0.00000000000E+00 -0.00000000000E+00 -0.17736830464E+04  0.17736830464E+04  0.00000000000E+00 0.  1.
    9000010    2    1    2  502    0  0.89136469141E+03  0.52700261243E+03 -0.68765172769E+03  0.16062378650E+04  0.10172867903E+04 0.  0.
   -9000010    2    1    2    0  501 -0.89136469141E+03 -0.52700261243E+03  0.18887809711E+03  0.14423545972E+04  0.98612832934E+03 0.  0.
        -13    1    3    3    0    0  0.10169204580E+04  0.64929065363E+03 -0.40318072015E+03  0.12721085941E+04  0.10566000000E+00 0.  1.
          4    1    3    3  502    0 -0.12555576663E+03 -0.12228804120E+03 -0.28447100753E+03  0.33412927091E+03  0.00000000000E+00 0.  1.
         13    1    4    4    0    0 -0.43193178866E+03 -0.78181834773E+03  0.20624391637E+03  0.91670145800E+03  0.10566000000E+00 0. -1.
         -4    1    4    4    0  501 -0.45943290276E+03  0.25481573530E+03 -0.17365819253E+02  0.52565313922E+03  0.00000000000E+00 0. -1.
<mgrwt>
<rscale>  2 0.14407251E+04</rscale>
<asrwt>0</asrwt>
<pdfrwt beam="2">  1        2 0.27287431E+00 0.14407251E+04</pdfrwt>
<pdfrwt beam="1">  1       -2 0.19613991E+00 0.14407251E+04</pdfrwt>
<totfact> 0.14773778E+00</totfact>
</mgrwt>
</event>
<event>
 8    1  0.1373409E-005  0.1221159E+04  0.7818608E-02  0.8590797E-01
          1   -1    0    0  502    0  0.00000000000E+00  0.00000000000E+00  0.16595581158E+04  0.16595581158E+04  0.00000000000E+00 0. -1.
         -1   -1    0    0    0  501 -0.00000000000E+00 -0.00000000000E+00 -0.90957898096E+03  0.90957898096E+03  0.00000000000E+00 0.  1.
    9000010    2    1    2  502    0 -0.25388757997E+03 -0.66636446553E+03  0.23446459625E+03  0.12459628324E+04  0.99445926441E+03 0.  0.
   -9000010    2    1    2    0  501  0.25388757997E+03  0.66636446553E+03  0.51551453857E+03  0.13231742644E+04  0.98819754616E+03 0.  0.
        -13    1    3    3    0    0  0.88598732023E+01  0.76753935443E+02  0.42753440108E+03  0.43445982464E+03  0.10566000000E+00 0.  1.
          4    1    3    3  502    0 -0.26274745318E+03 -0.74311840097E+03 -0.19306980483E+03  0.81150300773E+03  0.00000000000E+00 0.  1.
         13    1    4    4    0    0  0.49554644419E+03  0.68714252802E+03  0.62921867364E+03  0.10552948794E+04  0.10566000000E+00 0. -1.
         -4    1    4    4    0  501 -0.24165886422E+03 -0.20778062497E+02 -0.11370413507E+03  0.26787938493E+03  0.00000000000E+00 0. -1.
<mgrwt>
<rscale>  2 0.12211590E+04</rscale>
<asrwt>0</asrwt>
<pdfrwt beam="1">  1        1 0.25531663E+00 0.12211590E+04</pdfrwt>
<pdfrwt beam="2">  1       -1 0.13993523E+00 0.12211590E+04</pdfrwt>
<totfact> 0.29831864E+00</totfact>
</mgrwt>
</event>
<event>
 8    1  0.1373409E-005  0.1672129E+04  0.7818608E-02  0.8316787E-01
         -2   -1    0    0    0  501 -0.00000000000E+00  0.00000000000E+00  0.10202445865E+04  0.10202445865E+04  0.00000000000E+00 0.  1.
          2   -1    0    0  502    0  0.00000000000E+00 -0.00000000000E+00 -0.27739236807E+04  0.27739236807E+04  0.00000000000E+00 0. -1.
    9000010    2    1    2  502    0 -0.83495396585E+03  0.10532571693E+04 -0.66777340462E+03  0.17988514798E+04  0.99168872985E+03 0.  0.
   -9000010    2    1    2    0  501  0.83495396585E+03 -0.10532571693E+04 -0.10859056895E+04  0.19953167874E+04  0.99779713659E+03 0.  0.
        -13    1    3    3    0    0 -0.86628548697E+03  0.12015704955E+04 -0.70832605158E+03  0.16419342274E+04  0.10566000000E+00 0.  1.
          4    1    3    3  502    0  0.31331521120E+02 -0.14831332621E+03  0.40552646952E+02  0.15691725247E+03  0.00000000000E+00 0.  1.
         13    1    4    4    0    0  0.26614068453E+03 -0.10237648643E+04 -0.47335712686E+03  0.11588754645E+04  0.10566000000E+00 0. -1.
         -4    1    4    4    0  501  0.56881328132E+03 -0.29492304917E+02 -0.61254856267E+03  0.83644132292E+03  0.00000000000E+00 0. -1.
<mgrwt>
<rscale>  2 0.16721289E+04</rscale>
<asrwt>0</asrwt>
<pdfrwt beam="2">  1        2 0.42675748E+00 0.16721289E+04</pdfrwt>
<pdfrwt beam="1">  1       -2 0.15696071E+00 0.16721289E+04</pdfrwt>
<totfact> 0.85261443E-01</totfact>
</mgrwt>
</event>
<event>
 8    1  0.1373409E-005  0.1055546E+04  0.7818608E-02  0.8724081E-01
         -2   -1    0    0    0  501 -0.00000000000E+00  0.00000000000E+00  0.42344042736E+03  0.42344042736E+03  0.00000000000E+00 0.  1.
          2   -1    0    0  502    0  0.00000000000E+00 -0.00000000000E+00 -0.33091051584E+04  0.33091051584E+04  0.00000000000E+00 0. -1.
    9000010    2    1    2  502    0  0.25381165920E+03  0.29691194001E+02 -0.23249252970E+04  0.25689358989E+04  0.10624745130E+04 0.  0.
   -9000010    2    1    2    0  501 -0.25381165920E+03 -0.29691194001E+02 -0.56073943397E+03  0.11636096868E+04  0.98704451013E+03 0.  0.
        -13    1    3    3    0    0  0.61480742337E+03 -0.53456491274E+02 -0.19352967332E+04  0.20313097304E+04  0.10566000000E+00 0.  1.
          4    1    3    3  502    0 -0.36099576417E+03  0.83147685274E+02 -0.38962856385E+03  0.53762616852E+03  0.00000000000E+00 0.  1.
         13    1    4    4    0    0  0.22386915068E+03  0.21116112086E+03 -0.54799211418E+03  0.62849167374E+03  0.10566000000E+00 0. -1.
         -4    1    4    4    0  501 -0.47768080988E+03 -0.24085231486E+03 -0.12747319796E+02  0.53511801303E+03  0.00000000000E+00 0. -1.
<mgrwt>
<rscale>  2 0.10555465E+04</rscale>
<asrwt>0</asrwt>
<pdfrwt beam="2">  1        2 0.50909310E+00 0.10555465E+04</pdfrwt>
<pdfrwt beam="1">  1       -2 0.65144681E-01 0.10555465E+04</pdfrwt>
<totfact> 0.37609708E+00</totfact>
</mgrwt>
</event>
<event>
 8    1  0.1373409E-005  0.1056592E+04  0.7818608E-02  0.8723161E-01
          1   -1    0    0  502    0  0.00000000000E+00  0.00000000000E+00  0.26034309857E+04  0.26034309857E+04  0.00000000000E+00 0.  1.
         -1   -1    0    0    0  501 -0.00000000000E+00 -0.00000000000E+00 -0.47939436561E+03  0.47939436561E+03  0.00000000000E+00 0. -1.
    9000010    2    1    2  502    0  0.34529957156E+03  0.14270935249E+03  0.57507256805E+03  0.12160371089E+04  0.10042111522E+04 0.  0.
   -9000010    2    1    2    0  501 -0.34529957156E+03 -0.14270935249E+03  0.15489640521E+04  0.18667882425E+04  0.97263094450E+03 0.  0.
        -13    1    3    3    0    0 -0.94509616944E+02 -0.10551102109E+03  0.68474737983E+03  0.69924504190E+03  0.10566000000E+00 0.  1.
          4    1    3    3  502    0  0.43980918851E+03  0.24822037358E+03 -0.10967481178E+03  0.51679206698E+03  0.00000000000E+00 0.  1.
         13    1    4    4    0    0 -0.33248488638E+03  0.37624779856E+03  0.57695599495E+03  0.76484432198E+03  0.10566000000E+00 0. -1.
         -4    1    4    4    0  501 -0.12814685185E+02 -0.51895715106E+03  0.97200805713E+03  0.11019439205E+04  0.00000000000E+00 0. -1.
<mgrwt>
<rscale>  2 0.10565921E+04</rscale>
<asrwt>0</asrwt>
<pdfrwt beam="1">  1        1 0.40052784E+00 0.10565921E+04</pdfrwt>
<pdfrwt beam="2">  1       -1 0.73752981E-01 0.10565921E+04</pdfrwt>
<totfact> 0.22194561E+00</totfact>
</mgrwt>
</event>
<event>
 8    1  0.1373409E-005  0.1383509E+04  0.7818608E-02  0.8479865E-01
          2   -1    0    0  502    0  0.00000000000E+00  0.00000000000E+00  0.13084346213E+04  0.13084346213E+04  0.00000000000E+00 0.  1.
         -2   -1    0    0    0  501 -0.00000000000E+00 -0.00000000000E+00 -0.14699583142E+04  0.14699583142E+04  0.00000000000E+00 0. -1.
    9000010    2    1    2  502    0 -0.90822862273E+03  0.22195025713E+03 -0.17724819451E+03  0.14009564136E+04  0.10281638015E+04 0.  0.
   -9000010    2    1    2    0  501  0.90822862273E+03 -0.22195025713E+03  0.15724501620E+02  0.13774365218E+04  0.10114064286E+04 0.  0.
        -13    1    3    3    0    0 -0.95391063393E+03 -0.18361282158E+03 -0.47033134368E+02  0.97255914610E+03  0.10566000000E+00 0.  1.
          4    1    3    3  502    0  0.45682011199E+02  0.40556307871E+03 -0.13021506015E+03  0.42839726755E+03  0.00000000000E+00 0.  1.
         13    1    4    4    0    0  0.16025071408E+03  0.38156093568E+03 -0.32617907142E+02  0.41513007362E+03  0.10566000000E+00 0. -1.
         -4    1    4    4    0  501  0.74797790865E+03 -0.60351119280E+03  0.48342408762E+02  0.96230644815E+03  0.00000000000E+00 0. -1.
<mgrwt>
<rscale>  2 0.13835089E+04</rscale>
<asrwt>0</asrwt>
<pdfrwt beam="1">  1        2 0.20129763E+00 0.13835089E+04</pdfrwt>
<pdfrwt beam="2">  1       -2 0.22614743E+00 0.13835089E+04</pdfrwt>
<totfact> 0.15215415E+00</totfact>
</mgrwt>
</event>
<event>
 8    1  0.1373409E-005  0.1476208E+04  0.7818608E-02  0.8423325E-01
         -2   -1    0    0    0  501 -0.00000000000E+00  0.00000000000E+00  0.31913670592E+04  0.31913670592E+04  0.00000000000E+00 0.  1.
          2   -1    0    0  502    0  0.00000000000E+00 -0.00000000000E+00 -0.68335998104E+03  0.68335998104E+03  0.00000000000E+00 0. -1.
    9000010    2    1    2  502    0  0.32807676420E+03  0.10245501931E+04  0.13123673042E+04  0.19801178210E+04  0.10204024611E+04 0.  0.
   -9000010    2    1    2    0  501 -0.32807676420E+03 -0.10245501931E+04  0.11956397739E+04  0.18946092192E+04  0.10013252035E+04 0.  0.
        -13    1    3    3    0    0  0.49046007564E+03  0.16060212024E+03  0.83007929026E+03  0.97743325404E+03  0.10566000000E+00 0.  1.
          4    1    3    3  502    0 -0.16238331145E+03  0.86394807287E+03  0.48228801398E+03  0.10026845670E+04  0.00000000000E+00 0.  1.
         13    1    4    4    0    0 -0.31936034414E+03 -0.12261488392E+04  0.10087332016E+04  0.16195600293E+04  0.10566000000E+00 0. -1.
         -4    1    4    4    0  501 -0.87164200569E+01  0.20159864612E+03  0.18690657229E+03  0.27504918989E+03  0.00000000000E+00 0. -1.
<mgrwt>
<rscale>  2 0.14762076E+04</rscale>
<asrwt>0</asrwt>
<pdfrwt beam="2">  1        2 0.10513231E+00 0.14762076E+04</pdfrwt>
<pdfrwt beam="1">  1       -2 0.49097954E+00 0.14762076E+04</pdfrwt>
<totfact> 0.15825432E-01</totfact>
</mgrwt>
</event>
<event>
 8    1  0.1373409E-005  0.1714683E+04  0.7818608E-02  0.8295636E-01
         -2   -1    0    0    0  501 -0.00000000000E+00  0.00000000000E+00  0.40722021465E+04  0.40722021465E+04  0.00000000000E+00 0. -1.
          2   -1    0    0  502    0  0.00000000000E+00 -0.00000000000E+00 -0.73842461919E+03  0.73842461919E+03  0.00000000000E+00 0.  1.
    9000010    2    1    2  502    0  0.70233870471E+03  0.11981884160E+04  0.20217365656E+04  0.26483652949E+04  0.99874163732E+03 0.  0.
   -9000010    2    1    2    0  501 -0.70233870471E+03 -0.11981884160E+04  0.13120409618E+04  0.21622614708E+04  0.10124169332E+04 0.  0.
        -13    1    3    3    0    0  0.10688715340E+03 -0.17003579896E+03  0.13120714960E+03  0.23990073731E+03  0.10566000000E+00 0.  1.
          4    1    3    3  502    0  0.59545155130E+03  0.13682242150E+04  0.18905294160E+04  0.24084645575E+04  0.00000000000E+00 0.  1.
         13    1    4    4    0    0 -0.77541146275E+03 -0.13457994825E+04  0.11664756022E+04  0.19424480754E+04  0.10566000000E+00 0. -1.
         -4    1    4    4    0  501  0.73072758046E+02  0.14761106654E+03  0.14556535952E+03  0.21981339546E+03  0.00000000000E+00 0. -1.
<mgrwt>
<rscale>  2 0.17146835E+04</rscale>
<asrwt>0</asrwt>
<pdfrwt beam="2">  1        2 0.11360379E+00 0.17146835E+04</pdfrwt>
<pdfrwt beam="1">  1       -2 0.62649262E+00 0.17146835E+04</pdfrwt>
<totfact> 0.21629031E-01</totfact>
</mgrwt>
</event>
<event>
 8    1  0.1373409E-005  0.1293679E+04  0.7818608E-02  0.8539172E-01
         -2   -1    0    0    0  501 -0.00000000000E+00  0.00000000000E+00  0.10187318548E+04  0.10187318548E+04  0.00000000000E+00 0. -1.
          2   -1    0    0  502    0  0.00000000000E+00 -0.00000000000E+00 -0.16477533200E+04  0.16477533200E+04  0.00000000000E+00 0.  1.
    9000010    2    1    2  502    0  0.83926068066E+03  0.20783471007E+02 -0.38889512243E+03  0.13590048561E+04  0.99542168949E+03 0.  0.
   -9000010    2    1    2    0  501 -0.83926068066E+03 -0.20783471007E+02 -0.24012634281E+03  0.13074803187E+04  0.97316683078E+03 0.  0.
        -13    1    3    3    0    0  0.76320985749E+03 -0.21106100416E+03 -0.63307165713E+03  0.10138124917E+04  0.10566000000E+00 0.  1.
          4    1    3    3  502    0  0.76050823170E+02  0.23184447516E+03  0.24417653470E+03  0.34519236444E+03  0.00000000000E+00 0.  1.
         13    1    4    4    0    0  0.20013380672E+03 -0.64243500294E+02  0.70652231130E+02  0.22174876967E+03  0.10566000000E+00 0. -1.
         -4    1    4    4    0  501 -0.10393944874E+04  0.43460029287E+02 -0.31077857394E+03  0.10857315490E+04  0.00000000000E+00 0. -1.
<mgrwt>
<rscale>  2 0.12936793E+04</rscale>
<asrwt>0</asrwt>
<pdfrwt beam="2">  1        2 0.25350051E+00 0.12936793E+04</pdfrwt>
<pdfrwt beam="1">  1       -2 0.15672798E+00 0.12936793E+04</pdfrwt>
<totfact> 0.37753205E+00</totfact>
</mgrwt>
</event>
<event>
 8    1  0.1373409E-005  0.1501383E+04  0.7818608E-02  0.8408704E-01
         -2   -1    0    0    0  501 -0.00000000000E+00  0.00000000000E+00  0.15825501732E+04  0.15825501732E+04  0.00000000000E+00 0.  1.
          2   -1    0    0  502    0  0.00000000000E+00 -0.00000000000E+00 -0.14245565518E+04  0.14245565518E+04  0.00000000000E+00 0. -1.
    9000010    2    1    2  502    0 -0.10652407486E+04  0.34280243323E+03  0.95812780012E+02  0.15044567762E+04  0.10009788918E+04 0.  0.
   -9000010    2    1    2    0  501  0.10652407486E+04 -0.34280243323E+03  0.62180841468E+02  0.15026499488E+04  0.10009191031E+04 0.  0.
        -13    1    3    3    0    0 -0.75284711111E+03  0.22377329795E+03 -0.41934214558E+03  0.89033763697E+03  0.10566000000E+00 0.  1.
          4    1    3    3  502    0 -0.31239363752E+03  0.11902913528E+03  0.51515492559E+03  0.61411913923E+03  0.00000000000E+00 0.  1.
         13    1    4    4    0    0  0.55457574573E+03 -0.25951110849E+03 -0.46129980604E+03  0.76661450247E+03  0.10566000000E+00 0. -1.
         -4    1    4    4    0  501  0.51066500290E+03 -0.83291324740E+02  0.52348064751E+03  0.73603544635E+03  0.00000000000E+00 0. -1.
<mgrwt>
<rscale>  2 0.15013828E+04</rscale>
<asrwt>0</asrwt>
<pdfrwt beam="2">  1        2 0.21916255E+00 0.15013828E+04</pdfrwt>
<pdfrwt beam="1">  1       -2 0.24346926E+00 0.15013828E+04</pdfrwt>
<totfact> 0.94345157E-01</totfact>
</mgrwt>
</event>
<event>
 8    1  0.1373409E-005  0.1108971E+04  0.7818608E-02  0.8678454E-01
         -1   -1    0    0    0  501 -0.00000000000E+00  0.00000000000E+00  0.59517681528E+03  0.59517681528E+03  0.00000000000E+00 0.  1.
          1   -1    0    0  502    0  0.00000000000E+00 -0.00000000000E+00 -0.26671865192E+04  0.26671865192E+04  0.00000000000E+00 0. -1.
    9000010    2    1    2  502    0  0.23902796852E+03  0.35785995183E+03 -0.24854497719E+03  0.11181707586E+04  0.10016651760E+04 0.  0.
   -9000010    2    1    2    0  501 -0.23902796852E+03 -0.35785995183E+03 -0.18234647267E+04  0.21441925758E+04  0.10427560011E+04 0.  0.
        -13    1    3    3    0    0 -0.23271090962E+02  0.32723619482E+03 -0.59685200545E+03  0.68107077345E+03  0.10566000000E+00 0.  1.
          4    1    3    3  502    0  0.26229905949E+03  0.30623757014E+02  0.34830702826E+03  0.43709998517E+03  0.00000000000E+00 0.  1.
         13    1    4    4    0    0 -0.75788488111E+02  0.36312037536E+03 -0.79857418584E+03  0.88052316459E+03  0.10566000000E+00 0. -1.
         -4    1    4    4    0  501 -0.16323948041E+03 -0.72098032719E+03 -0.10248905409E+04  0.12636694112E+04  0.00000000000E+00 0. -1.
<mgrwt>
<rscale>  2 0.11089714E+04</rscale>
<asrwt>0</asrwt>
<pdfrwt beam="2">  1        1 0.41033638E+00 0.11089714E+04</pdfrwt>
<pdfrwt beam="1">  1       -1 0.91565666E-01 0.11089714E+04</pdfrwt>
<totfact> 0.12507078E+00</totfact>
</mgrwt>
</event>
<event>
 8    1  0.1373409E-005  0.1349262E+04  0.7818608E-02  0.8501914E-01
          2   -1    0    0  502    0  0.00000000000E+00  0.00000000000E+00  0.20204905590E+04  0.20204905590E+04  0.00000000000E+00 0. -1.
         -2   -1    0    0    0  501 -0.00000000000E+00 -0.00000000000E+00 -0.90448440497E+03  0.90448440497E+03  0.00000000000E+00 0.  1.
    9000010    2    1    2  502    0 -0.25370609186E+03 -0.86793363554E+03  0.46716427986E+03  0.14270199122E+04  0.10002338669E+04 0.  0.
   -9000010    2    1    2    0  501  0.25370609186E+03  0.86793363554E+03  0.64884187418E+03  0.14979550518E+04  0.10025956228E+04 0.  0.
        -13    1    3    3    0    0  0.26410139659E+03 -0.75380993336E+03  0.16119689518E+03  0.81483950168E+03  0.10566000000E+00 0.  1.
          4    1    3    3  502    0 -0.51780748845E+03 -0.11412370218E+03  0.30596738468E+03  0.61218041048E+03  0.00000000000E+00 0.  1.
         13    1    4    4    0    0  0.22813608120E+03 -0.13695680673E+03 -0.53849449639E+02  0.27148298813E+03  0.10566000000E+00 0. -1.
         -4    1    4    4    0  501  0.25570010658E+02  0.10048904423E+04  0.70269132382E+03  0.12264720637E+04  0.00000000000E+00 0. -1.
<mgrwt>
<rscale>  2 0.13492616E+04</rscale>
<asrwt>0</asrwt>
<pdfrwt beam="1">  1        2 0.31084470E+00 0.13492616E+04</pdfrwt>
<pdfrwt beam="2">  1       -2 0.13915145E+00 0.13492616E+04</pdfrwt>
<totfact> 0.33674546E+00</totfact>
</mgrwt>
</event>
<event>
 8    1  0.1373409E-005  0.1333753E+04  0.7818608E-02  0.8512121E-01
          2   -1    0    0  502    0  0.00000000000E+00  0.00000000000E+00  0.25370726388E+04  0.25370726388E+04  0.00000000000E+00 0.  1.
         -2   -1    0    0    0  501 -0.00000000000E+00 -0.00000000000E+00 -0.72852990148E+03  0.72852990148E+03  0.00000000000E+00 0. -1.
    9000010    2    1    2  502    0 -0.86417416972E+03  0.23795454304E+02  0.59739956940E+03  0.14742904177E+04  0.10340612994E+04 0.  0.
   -9000010    2    1    2    0  501  0.86417416972E+03 -0.23795454304E+02  0.12111431679E+04  0.17913121225E+04  0.99728036577E+03 0.  0.
        -13    1    3    3    0    0 -0.69244752570E+03 -0.37226855193E+03  0.64983763374E+02  0.78885382123E+03  0.10566000000E+00 0.  1.
          4    1    3    3  502    0 -0.17172664402E+03  0.39606400624E+03  0.53241580603E+03  0.68543659649E+03  0.00000000000E+00 0.  1.
         13    1    4    4    0    0  0.10521845331E+04 -0.52830432239E+02  0.12055229554E+04  0.16009899917E+04  0.10566000000E+00 0. -1.
         -4    1    4    4    0  501 -0.18801036341E+03  0.29034977935E+02  0.56202124669E+01  0.19032213083E+03  0.00000000000E+00 0. -1.
<mgrwt>
<rscale>  2 0.13337528E+04</rscale>
<asrwt>0</asrwt>
<pdfrwt beam="1">  1        2 0.39031886E+00 0.13337528E+04</pdfrwt>
<pdfrwt beam="2">  1       -2 0.11208152E+00 0.13337528E+04</pdfrwt>
<totfact> 0.31470087E+00</totfact>
</mgrwt>
</event>
<event>
 8    1  0.1373409E-005  0.1193008E+04  0.7818608E-02  0.8611846E-01
         -2   -1    0    0    0  501 -0.00000000000E+00  0.00000000000E+00  0.32072372228E+03  0.32072372228E+03  0.00000000000E+00 0.  1.
          2   -1    0    0  502    0  0.00000000000E+00 -0.00000000000E+00 -0.46144845307E+04  0.46144845307E+04  0.00000000000E+00 0. -1.
    9000010    2    1    2  502    0 -0.25729876134E+03  0.60740813828E+03 -0.26430927588E+04  0.29030816829E+04  0.10033925587E+04 0.  0.
   -9000010    2    1    2    0  501  0.25729876134E+03 -0.60740813828E+03 -0.16506680497E+04  0.20321265701E+04  0.98472640254E+03 0.  0.
        -13    1    3    3    0    0 -0.14065841121E+02  0.19853197531E+03  0.17956688173E+02  0.19983805174E+03  0.10566000000E+00 0.  1.
          4    1    3    3  502    0 -0.24323292022E+03  0.40887616296E+03 -0.26610494470E+04  0.27032436311E+04  0.00000000000E+00 0.  1.
         13    1    4    4    0    0  0.11773707637E+02 -0.11480240342E+03 -0.14371243272E+04  0.14417505176E+04  0.10566000000E+00 0. -1.
         -4    1    4    4    0  501  0.24552505370E+03 -0.49260573485E+03 -0.21354372246E+03  0.59037605254E+03  0.00000000000E+00 0. -1.
<mgrwt>
<rscale>  2 0.11930078E+04</rscale>
<asrwt>0</asrwt>
<pdfrwt beam="2">  1        2 0.70992072E+00 0.11930078E+04</pdfrwt>
<pdfrwt beam="1">  1       -2 0.49342110E-01 0.11930078E+04</pdfrwt>
<totfact> 0.51229388E-01</totfact>
</mgrwt>
</event>
<event>
 8    1  0.1373409E-005  0.1360708E+04  0.7818608E-02  0.8494470E-01
          2   -1    0    0  502    0  0.00000000000E+00  0.00000000000E+00  0.21034203146E+04  0.21034203146E+04  0.00000000000E+00 0.  1.
         -2   -1    0    0    0  501 -0.00000000000E+00 -0.00000000000E+00 -0.97892516146E+03  0.97892516146E+03  0.00000000000E+00 0. -1.
    9000010    2    1    2  502    0  0.38587702252E+03  0.83207358205E+03  0.10519241132E+04  0.17206742471E+04  0.10064432435E+04 0.  0.
   -9000010    2    1    2    0  501 -0.38587702252E+03 -0.83207358205E+03  0.72571039992E+02  0.13616712289E+04  0.10038099708E+04 0.  0.
        -13    1    3    3    0    0 -0.25009074507E+02 -0.22247688090E+03  0.23712348128E+03  0.32611190240E+03  0.10566000000E+00 0.  1.
          4    1    3    3  502    0  0.41088609703E+03  0.10545504630E+04  0.81480063188E+03  0.13945623447E+04  0.00000000000E+00 0.  1.
         13    1    4    4    0    0 -0.33238348743E+03 -0.49884001053E+03 -0.44306438408E+03  0.74540337967E+03  0.10566000000E+00 0. -1.
         -4    1    4    4    0  501 -0.53493535092E+02 -0.33323357152E+03  0.51563542407E+03  0.61626784927E+03  0.00000000000E+00 0. -1.
<mgrwt>
<rscale>  2 0.13607082E+04</rscale>
<asrwt>0</asrwt>
<pdfrwt beam="1">  1        2 0.32360312E+00 0.13607082E+04</pdfrwt>
<pdfrwt beam="2">  1       -2 0.15060387E+00 0.13607082E+04</pdfrwt>
<totfact> 0.23938863E+00</totfact>
</mgrwt>
</event>
<event>
 8    1  0.1373409E-005  0.1157399E+04  0.7818608E-02  0.8639351E-01
         -2   -1    0    0    0  501 -0.00000000000E+00  0.00000000000E+00  0.54661177292E+03  0.54661177292E+03  0.00000000000E+00 0.  1.
          2   -1    0    0  502    0  0.00000000000E+00 -0.00000000000E+00 -0.33116395728E+04  0.33116395728E+04  0.00000000000E+00 0. -1.
    9000010    2    1    2  502    0 -0.56894702891E+03 -0.10738774865E+03 -0.23666782710E+04  0.26347966767E+04  0.10028731917E+04 0.  0.
   -9000010    2    1    2    0  501  0.56894702891E+03  0.10738774865E+03 -0.39834952890E+03  0.12234546691E+04  0.10014619962E+04 0.  0.
        -13    1    3    3    0    0 -0.50049247905E+03  0.19110800739E+03 -0.22403569456E+04  0.23035221394E+04  0.10566000000E+00 0.  1.
          4    1    3    3  502    0 -0.68454549863E+02 -0.29849575604E+03 -0.12632132542E+03  0.33127453725E+03  0.00000000000E+00 0.  1.
         13    1    4    4    0    0  0.28427067745E+03 -0.35296778856E+03 -0.49772075987E+03  0.67314340507E+03  0.10566000000E+00 0. -1.
         -4    1    4    4    0  501  0.28467635147E+03  0.46035553721E+03  0.99371230972E+02  0.55031126399E+03  0.00000000000E+00 0. -1.
<mgrwt>
<rscale>  2 0.11573990E+04</rscale>
<asrwt>0</asrwt>
<pdfrwt beam="2">  1        2 0.50948301E+00 0.11573990E+04</pdfrwt>
<pdfrwt beam="1">  1       -2 0.84094119E-01 0.11573990E+04</pdfrwt>
<totfact> 0.21410686E+00</totfact>
</mgrwt>
</event>
<event>
 8    1  0.1373409E-005  0.1661622E+04  0.7818608E-02  0.8322110E-01
          2   -1    0    0  502    0  0.00000000000E+00  0.00000000000E+00  0.18653778859E+04  0.18653778859E+04  0.00000000000E+00 0.  1.
         -2   -1    0    0    0  501 -0.00000000000E+00 -0.00000000000E+00 -0.15163421754E+04  0.15163421754E+04  0.00000000000E+00 0. -1.
    9000010    2    1    2  502    0  0.55411077975E+03  0.12050836917E+04  0.43650403378E+03  0.17253450441E+04  0.10134171350E+04 0.  0.
   -9000010    2    1    2    0  501 -0.55411077975E+03 -0.12050836917E+04 -0.87468323290E+02  0.16563750173E+04  0.98826212617E+03 0.  0.
        -13    1    3    3    0    0  0.40346476284E+03  0.95859304637E+03 -0.16973159102E+03  0.10537994437E+04  0.10566000000E+00 0.  1.
          4    1    3    3  502    0  0.15064601691E+03  0.24649064531E+03  0.60623562480E+03  0.67154560039E+03  0.00000000000E+00 0.  1.
         13    1    4    4    0    0 -0.73293797787E+03 -0.41154917634E+03 -0.50983211707E+02  0.84212238006E+03  0.10566000000E+00 0. -1.
         -4    1    4    4    0  501  0.17882719812E+03 -0.79353451534E+03 -0.36485111583E+02  0.81425263720E+03  0.00000000000E+00 0. -1.
<mgrwt>
<rscale>  2 0.16616224E+04</rscale>
<asrwt>0</asrwt>
<pdfrwt beam="1">  1        2 0.28698121E+00 0.16616224E+04</pdfrwt>
<pdfrwt beam="2">  1       -2 0.23328341E+00 0.16616224E+04</pdfrwt>
<totfact> 0.64082727E-01</totfact>
</mgrwt>
</event>
<event>
 8    1  0.1373409E-005  0.1313584E+04  0.7818608E-02  0.8525611E-01
          2   -1    0    0  502    0  0.00000000000E+00  0.00000000000E+00  0.39719964663E+03  0.39719964663E+03  0.00000000000E+00 0.  1.
         -2   -1    0    0    0  501 -0.00000000000E+00 -0.00000000000E+00 -0.43468012449E+04  0.43468012449E+04  0.00000000000E+00 0. -1.
    9000010    2    1    2  502    0 -0.83894631184E+03 -0.32332289936E+01 -0.20400337346E+04  0.24291169693E+04  0.10173643616E+04 0.  0.
   -9000010    2    1    2    0  501  0.83894631184E+03  0.32332289936E+01 -0.19095678637E+04  0.23148839223E+04  0.10041896134E+04 0.  0.
        -13    1    3    3    0    0 -0.77476901928E+03 -0.40392953522E+03 -0.16457647945E+04  0.18633217309E+04  0.10566000000E+00 0.  1.
          4    1    3    3  502    0 -0.64177292555E+02  0.40069630623E+03 -0.39426894009E+03  0.56579523843E+03  0.00000000000E+00 0.  1.
         13    1    4    4    0    0  0.21171205706E+03  0.34595964668E+03 -0.18058303775E+03  0.44398233852E+03  0.10566000000E+00 0. -1.
         -4    1    4    4    0  501  0.62723425477E+03 -0.34272641768E+03 -0.17289848259E+04  0.18709015837E+04  0.00000000000E+00 0. -1.
<mgrwt>
<rscale>  2 0.13135842E+04</rscale>
<asrwt>0</asrwt>
<pdfrwt beam="1">  1        2 0.61107641E-01 0.13135842E+04</pdfrwt>
<pdfrwt beam="2">  1       -2 0.66873862E+00 0.13135842E+04</pdfrwt>
<totfact> 0.28220641E-01</totfact>
</mgrwt>
</event>
<event>
 8    1  0.1373409E-005  0.1092564E+04  0.7818608E-02  0.8692177E-01
         -2   -1    0    0    0  501 -0.00000000000E+00  0.00000000000E+00  0.43346376698E+03  0.43346376698E+03  0.00000000000E+00 0.  1.
          2   -1    0    0  502    0  0.00000000000E+00 -0.00000000000E+00 -0.29536345023E+04  0.29536345023E+04  0.00000000000E+00 0. -1.
    9000010    2    1    2  502    0  0.47667963721E+02 -0.42252758027E+03 -0.82806702122E+03  0.13770679088E+04  0.10148001000E+04 0.  0.
   -9000010    2    1    2    0  501 -0.47667963721E+02  0.42252758027E+03 -0.16921037141E+04  0.20100303605E+04  0.99810083650E+03 0.  0.
        -13    1    3    3    0    0  0.30980394783E+03 -0.30521054052E+02  0.10752314016E+03  0.32934974976E+03  0.10566000000E+00 0.  1.
          4    1    3    3  502    0 -0.26213598411E+03 -0.39200652622E+03 -0.93559016138E+03  0.10477181591E+04  0.00000000000E+00 0.  1.
         13    1    4    4    0    0  0.36862429314E+03 -0.13075894880E+03 -0.56297659345E+03  0.68551034137E+03  0.10566000000E+00 0. -1.
         -4    1    4    4    0  501 -0.41629225686E+03  0.55328652907E+03 -0.11291271207E+04  0.13245200191E+04  0.00000000000E+00 0. -1.
<mgrwt>
<rscale>  2 0.10925638E+04</rscale>
<asrwt>0</asrwt>
<pdfrwt beam="2">  1        2 0.45440531E+00 0.10925638E+04</pdfrwt>
<pdfrwt beam="1">  1       -2 0.66686733E-01 0.10925638E+04</pdfrwt>
<totfact> 0.60031054E+00</totfact>
</mgrwt>
</event>
<event>
 8    1  0.1373409E-005  0.1525532E+04  0.7818608E-02  0.8394955E-01
         -4   -1    0    0    0  501 -0.00000000000E+00  0.00000000000E+00  0.18359450188E+04  0.18359450188E+04  0.00000000000E+00 0. -1.
          4   -1    0    0  502    0  0.00000000000E+00 -0.00000000000E+00 -0.17001862177E+04  0.17001862177E+04  0.00000000000E+00 0.  1.
    9000010    2    1    2  502    0  0.46684474911E+03  0.10457842020E+04 -0.82414500359E+03  0.17281506185E+04  0.99783814138E+03 0.  0.
   -9000010    2    1    2    0  501 -0.46684474911E+03 -0.10457842020E+04  0.95990380467E+03  0.18079806179E+04  0.10177278534E+04 0.  0.
        -13    1    3    3    0    0  0.39210389578E+03  0.12170069949E+03 -0.67367245608E+03  0.78891768555E+03  0.10566000000E+00 0.  1.
          4    1    3    3  502    0  0.74740853330E+02  0.92408350255E+03 -0.15047254751E+03  0.93923293298E+03  0.00000000000E+00 0.  1.
         13    1    4    4    0    0 -0.22679517199E+03  0.10588869818E+03  0.47226890667E+03  0.53449639644E+03  0.10566000000E+00 0. -1.
         -4    1    4    4    0  501 -0.24004957712E+03 -0.11516729002E+04  0.48763489800E+03  0.12734842215E+04  0.00000000000E+00 0. -1.
<mgrwt>
<rscale>  2 0.15255320E+04</rscale>
<asrwt>0</asrwt>
<pdfrwt beam="2">  1        4 0.26156711E+00 0.15255320E+04</pdfrwt>
<pdfrwt beam="1">  1       -4 0.28245308E+00 0.15255320E+04</pdfrwt>
<totfact> 0.77290466E-02</totfact>
</mgrwt>
</event>
<event>
 8    1  0.1373409E-005  0.1159456E+04  0.7818608E-02  0.8637734E-01
          2   -1    0    0  502    0  0.00000000000E+00  0.00000000000E+00  0.11454239881E+04  0.11454239881E+04  0.00000000000E+00 0.  1.
         -2   -1    0    0    0  501 -0.00000000000E+00 -0.00000000000E+00 -0.12533898179E+04  0.12533898179E+04  0.00000000000E+00 0. -1.
    9000010    2    1    2  502    0  0.38557214477E+03  0.48025642913E+03 -0.35675021330E+03  0.12230376227E+04  0.99460454214E+03 0.  0.
   -9000010    2    1    2    0  501 -0.38557214477E+03 -0.48025642913E+03  0.24878438353E+03  0.11757761833E+04  0.97017722468E+03 0.  0.
        -13    1    3    3    0    0  0.14605554893E+03  0.23153697120E+03  0.34530914915E+03  0.44065861169E+03  0.10566000000E+00 0.  1.
          4    1    3    3  502    0  0.23951659584E+03  0.24871945793E+03 -0.70205936245E+03  0.78237901099E+03  0.00000000000E+00 0.  1.
         13    1    4    4    0    0 -0.34101075821E+03 -0.77229134851E+03  0.11699353513E+03  0.85229675737E+03  0.10566000000E+00 0. -1.
         -4    1    4    4    0  501 -0.44561386567E+02  0.29203491938E+03  0.13179084840E+03  0.32347942598E+03  0.00000000000E+00 0. -1.
<mgrwt>
<rscale>  2 0.11594563E+04</rscale>
<asrwt>0</asrwt>
<pdfrwt beam="1">  1        2 0.17621908E+00 0.11594563E+04</pdfrwt>
<pdfrwt beam="2">  1       -2 0.19282920E+00 0.11594563E+04</pdfrwt>
<totfact> 0.36180693E+00</totfact>
</mgrwt>
</event>
<event>
 8    1  0.1373409E-005  0.1293934E+04  0.7818608E-02  0.8538997E-01
         -1   -1    0    0    0  501 -0.00000000000E+00  0.00000000000E+00  0.98532203392E+03  0.98532203392E+03  0.00000000000E+00 0.  1.
          1   -1    0    0  502    0  0.00000000000E+00 -0.00000000000E+00 -0.20282723565E+04  0.20282723565E+04  0.00000000000E+00 0. -1.
    9000010    2    1    2  502    0 -0.23057002850E+02 -0.83025378819E+03 -0.11232733634E+04  0.17026149722E+04  0.97329425996E+03 0.  0.
   -9000010    2    1    2    0  501  0.23057002850E+02  0.83025378819E+03  0.80323040891E+02  0.13109794182E+04  0.10111193133E+04 0.  0.
        -13    1    3    3    0    0 -0.38518014948E+03 -0.17169297882E+03 -0.75704118341E+03  0.86657578495E+03  0.10566000000E+00 0.  1.
          4    1    3    3  502    0  0.36212314663E+03 -0.65856080937E+03 -0.36623218002E+03  0.83603918727E+03  0.00000000000E+00 0.  1.
         13    1    4    4    0    0  0.57543553131E+02  0.48590049157E+03 -0.45852833207E+03  0.67056602262E+03  0.10566000000E+00 0. -1.
         -4    1    4    4    0  501 -0.34486550281E+02  0.34435329661E+03  0.53885137296E+03  0.64041339554E+03  0.00000000000E+00 0. -1.
<mgrwt>
<rscale>  2 0.12939337E+04</rscale>
<asrwt>0</asrwt>
<pdfrwt beam="2">  1        1 0.31204190E+00 0.12939337E+04</pdfrwt>
<pdfrwt beam="1">  1       -1 0.15158801E+00 0.12939337E+04</pdfrwt>
<totfact> 0.12356662E+00</totfact>
</mgrwt>
</event>
<event>
 8    1  0.1373409E-005  0.1065529E+04  0.7818608E-02  0.8715344E-01
          2   -1    0    0  502    0  0.00000000000E+00  0.00000000000E+00  0.12927232405E+04  0.12927232405E+04  0.00000000000E+00 0.  1.
         -2   -1    0    0    0  501 -0.00000000000E+00 -0.00000000000E+00 -0.89766043718E+03  0.89766043718E+03  0.00000000000E+00 0. -1.
    9000010    2    1    2  502    0  0.47565219824E+03  0.15288794440E+03  0.35955249057E+02  0.10168295606E+04  0.88488973215E+03 0.  0.
   -9000010    2    1    2    0  501 -0.47565219824E+03 -0.15288794440E+03  0.35910755426E+03  0.11735541171E+04  0.99932541899E+03 0.  0.
        -13    1    3    3    0    0  0.30649890309E+03  0.20993059834E+03 -0.39990147488E+03  0.54583297307E+03  0.10566000000E+00 0.  1.
          4    1    3    3  502    0  0.16915329515E+03 -0.57042653936E+02  0.43585672394E+03  0.47099658749E+03  0.00000000000E+00 0.  1.
         13    1    4    4    0    0 -0.49386868614E+03  0.20767421029E+03  0.54776372539E+03  0.76621143739E+03  0.10566000000E+00 0. -1.
         -4    1    4    4    0  501  0.18216487902E+02 -0.36056215469E+03 -0.18865617112E+03  0.40734267973E+03  0.00000000000E+00 0. -1.
<mgrwt>
<rscale>  2 0.10655295E+04</rscale>
<asrwt>0</asrwt>
<pdfrwt beam="1">  1        2 0.19888050E+00 0.10655295E+04</pdfrwt>
<pdfrwt beam="2">  1       -2 0.13810161E+00 0.10655295E+04</pdfrwt>
<totfact> 0.88685844E+00</totfact>
</mgrwt>
</event>
<event>
 8    1  0.1373409E-005  0.1194935E+04  0.7818608E-02  0.8610386E-01
          2   -1    0    0  502    0  0.00000000000E+00  0.00000000000E+00  0.19192358503E+04  0.19192358503E+04  0.00000000000E+00 0.  1.
         -2   -1    0    0    0  501 -0.00000000000E+00 -0.00000000000E+00 -0.76211728601E+03  0.76211728601E+03  0.00000000000E+00 0. -1.
    9000010    2    1    2  502    0  0.43946462524E+03  0.46020560369E+03  0.79001277186E+03  0.14412710829E+04  0.10238280130E+04 0.  0.
   -9000010    2    1    2    0  501 -0.43946462524E+03 -0.46020560369E+03  0.36710579245E+03  0.12400820534E+04  0.99905879803E+03 0.  0.
        -13    1    3    3    0    0 -0.30521976710E+03  0.26281007611E+03  0.43554136508E+03  0.59323227676E+03  0.10566000000E+00 0.  1.
          4    1    3    3  502    0  0.74468439233E+03  0.19739552758E+03  0.35447140678E+03  0.84803880614E+03  0.00000000000E+00 0.  1.
         13    1    4    4    0    0 -0.58062108118E-01  0.27586972352E+03  0.25473944748E+03  0.37549474696E+03  0.10566000000E+00 0. -1.
         -4    1    4    4    0  501 -0.43940656313E+03 -0.73607532721E+03  0.11236634496E+03  0.86458730648E+03  0.00000000000E+00 0. -1.
<mgrwt>
<rscale>  2 0.11949350E+04</rscale>
<asrwt>0</asrwt>
<pdfrwt beam="1">  1        2 0.29526705E+00 0.11949350E+04</pdfrwt>
<pdfrwt beam="2">  1       -2 0.11724881E+00 0.11949350E+04</pdfrwt>
<totfact> 0.62252083E+00</totfact>
</mgrwt>
</event>
<event>
 8    1  0.1373409E-005  0.1371232E+04  0.7818608E-02  0.8487693E-01
         -1   -1    0    0    0  501 -0.00000000000E+00  0.00000000000E+00  0.22284333066E+04  0.22284333066E+04  0.00000000000E+00 0.  1.
          1   -1    0    0  502    0  0.00000000000E+00 -0.00000000000E+00 -0.87810105551E+03  0.87810105551E+03  0.00000000000E+00 0. -1.
    9000010    2    1    2  502    0  0.89738983069E+03 -0.19014883496E+03  0.97469228218E+03  0.16701381850E+04  0.99893514528E+03 0.  0.
   -9000010    2    1    2    0  501 -0.89738983069E+03  0.19014883496E+03  0.37563996896E+03  0.14363961771E+04  0.10395496639E+04 0.  0.
        -13    1    3    3    0    0  0.67028379953E+03 -0.28554074566E+03  0.69326071885E+02  0.73186064572E+03  0.10566000000E+00 0.  1.
          4    1    3    3  502    0  0.22710603116E+03  0.95391910703E+02  0.90536621030E+03  0.93827753931E+03  0.00000000000E+00 0.  1.
         13    1    4    4    0    0 -0.86942419388E+03  0.31536887823E+03  0.65208792400E+03  0.11316247744E+04  0.10566000000E+00 0. -1.
         -4    1    4    4    0  501 -0.27965636815E+02 -0.12522004327E+03 -0.27644795504E+03  0.30477140273E+03  0.00000000000E+00 0. -1.
<mgrwt>
<rscale>  2 0.13712319E+04</rscale>
<asrwt>0</asrwt>
<pdfrwt beam="2">  1        1 0.13509247E+00 0.13712319E+04</pdfrwt>
<pdfrwt beam="1">  1       -1 0.34283589E+00 0.13712319E+04</pdfrwt>
<totfact> 0.24299526E-01</totfact>
</mgrwt>
</event>
<event>
 8    1  0.1373409E-005  0.1253895E+04  0.7818608E-02  0.8567047E-01
         -2   -1    0    0    0  501 -0.00000000000E+00  0.00000000000E+00  0.83446855737E+03  0.83446855737E+03  0.00000000000E+00 0. -1.
          2   -1    0    0  502    0  0.00000000000E+00 -0.00000000000E+00 -0.23854937534E+04  0.23854937534E+04  0.00000000000E+00 0.  1.
    9000010    2    1    2  502    0 -0.40372489489E+03  0.61631153395E+03 -0.48011811958E+02  0.12756925132E+04  0.10403136818E+04 0.  0.
   -9000010    2    1    2    0  501  0.40372489489E+03 -0.61631153395E+03 -0.15030133840E+04  0.19442697975E+04  0.98909156068E+03 0.  0.
        -13    1    3    3    0    0 -0.63044284311E+03  0.73668182044E+03 -0.18135835567E+03  0.98643253562E+03  0.10566000000E+00 0.  1.
          4    1    3    3  502    0  0.22671794822E+03 -0.12037028648E+03  0.13334654371E+03  0.28925997758E+03  0.00000000000E+00 0.  1.
         13    1    4    4    0    0  0.36278244446E+02 -0.79026374486E+03 -0.11996850034E+04  0.14370375834E+04  0.10566000000E+00 0. -1.
         -4    1    4    4    0  501  0.36744665044E+03  0.17395221091E+03 -0.30332838065E+03  0.50723221419E+03  0.00000000000E+00 0. -1.
<mgrwt>
<rscale>  2 0.12538948E+04</rscale>
<asrwt>0</asrwt>
<pdfrwt beam="2">  1        2 0.36699904E+00 0.12538948E+04</pdfrwt>
<pdfrwt beam="1">  1       -2 0.12837978E+00 0.12538948E+04</pdfrwt>
<totfact> 0.26954515E+00</totfact>
</mgrwt>
</event>
<event>
 8    1  0.1373409E-005  0.1306087E+04  0.7818608E-02  0.8530690E-01
          1   -1    0    0  502    0  0.00000000000E+00  0.00000000000E+00  0.15872014941E+04  0.15872014941E+04  0.00000000000E+00 0. -1.
         -1   -1    0    0    0  501 -0.00000000000E+00 -0.00000000000E+00 -0.13127280950E+04  0.13127280950E+04  0.00000000000E+00 0.  1.
    9000010    2    1    2  502    0 -0.76788849655E+03  0.43233976319E+03  0.75603298156E+03  0.15289032432E+04  0.99468027221E+03 0.  0.
   -9000010    2    1    2    0  501  0.76788849655E+03 -0.43233976319E+03 -0.48155958253E+03  0.13710263459E+04  0.93340409023E+03 0.  0.
        -13    1    3    3    0    0  0.98068500272E+02 -0.20923959502E+03  0.24286286097E+03  0.33523278371E+03  0.10566000000E+00 0.  1.
          4    1    3    3  502    0 -0.86595699683E+03  0.64157935821E+03  0.51317012059E+03  0.11936704595E+04  0.00000000000E+00 0.  1.
         13    1    4    4    0    0 -0.98348981493E+02 -0.35029030620E+03  0.24133272760E+02  0.36463440155E+03  0.10566000000E+00 0. -1.
         -4    1    4    4    0  501  0.86623747805E+03 -0.82049456992E+02 -0.50569285529E+03  0.10063919444E+04  0.00000000000E+00 0. -1.
<mgrwt>
<rscale>  2 0.13060873E+04</rscale>
<asrwt>0</asrwt>
<pdfrwt beam="1">  1        1 0.24418485E+00 0.13060873E+04</pdfrwt>
<pdfrwt beam="2">  1       -1 0.20195817E+00 0.13060873E+04</pdfrwt>
<totfact> 0.95849904E-01</totfact>
</mgrwt>
</event>
<event>
 8    1  0.1373409E-005  0.1213269E+04  0.7818608E-02  0.8596637E-01
          2   -1    0    0  502    0  0.00000000000E+00  0.00000000000E+00  0.19201539082E+04  0.19201539082E+04  0.00000000000E+00 0. -1.
         -2   -1    0    0    0  501 -0.00000000000E+00 -0.00000000000E+00 -0.85752153860E+03  0.85752153860E+03  0.00000000000E+00 0.  1.
    9000010    2    1    2  502    0  0.69843682388E+03 -0.14411795405E+02  0.98305205180E+03  0.15606411986E+04  0.99054930091E+03 0.  0.
   -9000010    2    1    2    0  501 -0.69843682388E+03  0.14411795405E+02  0.79580317834E+02  0.12170342482E+04  0.99338695256E+03 0.  0.
        -13    1    3    3    0    0 -0.49405600872E+02  0.27087811294E+03  0.62663437093E+03  0.68446074502E+03  0.10566000000E+00 0.  1.
          4    1    3    3  502    0  0.74784242475E+03 -0.28528990835E+03  0.35641768087E+03  0.87618045362E+03  0.00000000000E+00 0.  1.
         13    1    4    4    0    0 -0.23088154949E+03  0.25603643571E+03 -0.38373051531E+03  0.51585857156E+03  0.10566000000E+00 0. -1.
         -4    1    4    4    0  501 -0.46755527439E+03 -0.24162464031E+03  0.46331083314E+03  0.70117567665E+03  0.00000000000E+00 0. -1.
<mgrwt>
<rscale>  2 0.12132690E+04</rscale>
<asrwt>0</asrwt>
<pdfrwt beam="1">  1        2 0.29540829E+00 0.12132690E+04</pdfrwt>
<pdfrwt beam="2">  1       -2 0.13192639E+00 0.12132690E+04</pdfrwt>
<totfact> 0.45124493E+00</totfact>
</mgrwt>
</event>
<event>
 8    1  0.1373409E-005  0.1277485E+04  0.7818608E-02  0.8550392E-01
          2   -1    0    0  502    0  0.00000000000E+00  0.00000000000E+00  0.41900363383E+04  0.41900363383E+04  0.00000000000E+00 0. -1.
         -2   -1    0    0    0  501 -0.00000000000E+00 -0.00000000000E+00 -0.38986331548E+03  0.38986331548E+03  0.00000000000E+00 0.  1.
    9000010    2    1    2  502    0 -0.60882950226E+03  0.52212631380E+03  0.18178861913E+04  0.22169281275E+04  0.98324507008E+03 0.  0.
   -9000010    2    1    2    0  501  0.60882950226E+03 -0.52212631380E+03  0.19822868315E+04  0.23629715262E+04  0.10054273226E+04 0.  0.
        -13    1    3    3    0    0 -0.40200074916E+03  0.26014862012E+03  0.18212342131E+04  0.18831293044E+04  0.10566000000E+00 0.  1.
          4    1    3    3  502    0 -0.20682875310E+03  0.26197769368E+03 -0.33480218212E+01  0.33379882316E+03  0.00000000000E+00 0.  1.
         13    1    4    4    0    0  0.72249452578E+03 -0.12106703870E+03  0.69469361172E+03  0.10095814940E+04  0.10566000000E+00 0. -1.
         -4    1    4    4    0  501 -0.11366502353E+03 -0.40105927510E+03  0.12875932198E+04  0.13533900323E+04  0.00000000000E+00 0. -1.
<mgrwt>
<rscale>  2 0.12774849E+04</rscale>
<asrwt>0</asrwt>
<pdfrwt beam="1">  1        2 0.64462094E+00 0.12774849E+04</pdfrwt>
<pdfrwt beam="2">  1       -2 0.59978975E-01 0.12774849E+04</pdfrwt>
<totfact> 0.83207302E-01</totfact>
</mgrwt>
</event>
<event>
 8    1  0.1373409E-005  0.1372297E+04  0.7818608E-02  0.8487010E-01
         -1   -1    0    0    0  501 -0.00000000000E+00  0.00000000000E+00  0.26140986740E+04  0.26140986740E+04  0.00000000000E+00 0.  1.
          1   -1    0    0  502    0  0.00000000000E+00 -0.00000000000E+00 -0.76988190072E+03  0.76988190072E+03  0.00000000000E+00 0. -1.
    9000010    2    1    2  502    0  0.44862047834E+03  0.84225976889E+03  0.13439630313E+04  0.19130166573E+04  0.97094502920E+03 0.  0.
   -9000010    2    1    2    0  501 -0.44862047834E+03 -0.84225976889E+03  0.50025374196E+03  0.14709639174E+04  0.10014086020E+04 0.  0.
        -13    1    3    3    0    0  0.68418263189E+03  0.51507838266E+03  0.53667785096E+03  0.10106605468E+04  0.10566000000E+00 0.  1.
          4    1    3    3  502    0 -0.23556215356E+03  0.32718138623E+03  0.80728518034E+03  0.90235611045E+03  0.00000000000E+00 0.  1.
         13    1    4    4    0    0  0.26523794284E+02 -0.90230468861E+03  0.36103894425E+03  0.97221725617E+03  0.10566000000E+00 0. -1.
         -4    1    4    4    0  501 -0.47514427262E+03  0.60044919723E+02  0.13921479771E+03  0.49874666123E+03  0.00000000000E+00 0. -1.
<mgrwt>
<rscale>  2 0.13722970E+04</rscale>
<asrwt>0</asrwt>
<pdfrwt beam="2">  1        1 0.11844337E+00 0.13722970E+04</pdfrwt>
<pdfrwt beam="1">  1       -1 0.40216902E+00 0.13722970E+04</pdfrwt>
<totfact> 0.35690876E-01</totfact>
</mgrwt>
</event>
<event>
 8    1  0.1373409E-005  0.1568283E+04  0.7818608E-02  0.8371251E-01
          2   -1    0    0  502    0  0.00000000000E+00  0.00000000000E+00  0.34604207461E+04  0.34604207461E+04  0.00000000000E+00 0.  1.
         -2   -1    0    0    0  501 -0.00000000000E+00 -0.00000000000E+00 -0.80035040462E+03  0.80035040462E+03  0.00000000000E+00 0. -1.
    9000010    2    1    2  502    0 -0.93366359010E+03 -0.75438076116E+03  0.61410158707E+03  0.16803202399E+04  0.10027648363E+04 0.  0.
   -9000010    2    1    2    0  501  0.93366359010E+03  0.75438076116E+03  0.20459687544E+04  0.25804509108E+04  0.10158349900E+04 0.  0.
        -13    1    3    3    0    0 -0.96881417575E+03 -0.52501813003E+03  0.88139388475E+02  0.11054471977E+04  0.10566000000E+00 0.  1.
          4    1    3    3  502    0  0.35150585649E+02 -0.22936263113E+03  0.52596219860E+03  0.57487304215E+03  0.00000000000E+00 0.  1.
         13    1    4    4    0    0  0.24809862285E+03  0.79115488561E+03  0.14546217512E+04  0.16743367135E+04  0.10566000000E+00 0. -1.
         -4    1    4    4    0  501  0.68556496725E+03 -0.36774124450E+02  0.59134700315E+03  0.90611419738E+03  0.00000000000E+00 0. -1.
<mgrwt>
<rscale>  2 0.15682830E+04</rscale>
<asrwt>0</asrwt>
<pdfrwt beam="1">  1        2 0.53237241E+00 0.15682830E+04</pdfrwt>
<pdfrwt beam="2">  1       -2 0.12313083E+00 0.15682830E+04</pdfrwt>
<totfact> 0.62993917E-01</totfact>
</mgrwt>
</event>
<event>
 8    1  0.1373409E-005  0.1198722E+04  0.7818608E-02  0.8607525E-01
         -2   -1    0    0    0  501 -0.00000000000E+00  0.00000000000E+00  0.78470821278E+03  0.78470821278E+03  0.00000000000E+00 0. -1.
          2   -1    0    0  502    0  0.00000000000E+00 -0.00000000000E+00 -0.26726931350E+04  0.26726931350E+04  0.00000000000E+00 0.  1.
    9000010    2    1    2  502    0  0.12549056131E+03 -0.57133888400E+03 -0.83327663264E-01  0.12443218055E+04  0.10982534987E+04 0.  0.
   -9000010    2    1    2    0  501 -0.12549056131E+03  0.57133888400E+03 -0.18879015946E+04  0.22130795423E+04  0.99567696986E+03 0.  0.
        -13    1    3    3    0    0  0.30231030383E+03 -0.29682877842E+03  0.49481172087E+03  0.65141192327E+03  0.10566000000E+00 0.  1.
          4    1    3    3  502    0 -0.17681974251E+03 -0.27451010558E+03 -0.49489504853E+03  0.59290988225E+03  0.00000000000E+00 0.  1.
         13    1    4    4    0    0 -0.15294000186E+03  0.31613193275E+03 -0.46936274719E+02  0.35430646074E+03  0.10566000000E+00 0. -1.
         -4    1    4    4    0  501  0.27449440544E+02  0.25520695125E+03 -0.18409653199E+04  0.18587730816E+04  0.00000000000E+00 0. -1.
<mgrwt>
<rscale>  2 0.11987223E+04</rscale>
<asrwt>0</asrwt>
<pdfrwt beam="2">  1        2 0.41118355E+00 0.11987223E+04</pdfrwt>
<pdfrwt beam="1">  1       -2 0.12072434E+00 0.11987223E+04</pdfrwt>
<totfact> 0.22050416E+00</totfact>
</mgrwt>
</event>
<event>
 8    1  0.1373409E-005  0.1384593E+04  0.7818608E-02  0.8479178E-01
          2   -1    0    0  502    0  0.00000000000E+00  0.00000000000E+00  0.30164838398E+04  0.30164838398E+04  0.00000000000E+00 0.  1.
         -2   -1    0    0    0  501 -0.00000000000E+00 -0.00000000000E+00 -0.70982098566E+03  0.70982098566E+03  0.00000000000E+00 0. -1.
    9000010    2    1    2  502    0  0.17860330173E+03  0.92895473354E+03  0.56108700689E+03  0.15066968047E+04  0.10297866749E+04 0.  0.
   -9000010    2    1    2    0  501 -0.17860330173E+03 -0.92895473354E+03  0.17455758472E+04  0.22196080207E+04  0.99235512334E+03 0.  0.
        -13    1    3    3    0    0  0.12219673311E+03  0.11074652578E+04  0.24729171732E+03  0.11412994977E+04  0.10566000000E+00 0.  1.
          4    1    3    3  502    0  0.56406568621E+02 -0.17851052424E+03  0.31379528957E+03  0.36539730706E+03  0.00000000000E+00 0.  1.
         13    1    4    4    0    0  0.17235256995E+03 -0.24225819213E+03  0.12902012815E+04  0.13240142741E+04  0.10566000000E+00 0. -1.
         -4    1    4    4    0  501 -0.35095587168E+03 -0.68669654141E+03  0.45537456569E+03  0.89559374659E+03  0.00000000000E+00 0. -1.
<mgrwt>
<rscale>  2 0.13845928E+04</rscale>
<asrwt>0</asrwt>
<pdfrwt beam="1">  1        2 0.46407443E+00 0.13845928E+04</pdfrwt>
<pdfrwt beam="2">  1       -2 0.10920323E+00 0.13845928E+04</pdfrwt>
<totfact> 0.17341602E+00</totfact>
</mgrwt>
</event>
<event>
 8    1  0.1373409E-005  0.1867094E+04  0.7818608E-02  0.8224760E-01
         -2   -1    0    0    0  501 -0.00000000000E+00  0.00000000000E+00  0.13391727487E+04  0.13391727487E+04  0.00000000000E+00 0.  1.
          2   -1    0    0  502    0  0.00000000000E+00 -0.00000000000E+00 -0.33671124744E+04  0.33671124744E+04  0.00000000000E+00 0. -1.
    9000010    2    1    2  502    0  0.13255294092E+04  0.83265815325E+03 -0.21452661221E+04  0.28611406085E+04  0.10647117132E+04 0.  0.
   -9000010    2    1    2    0  501 -0.13255294092E+04 -0.83265815325E+03  0.11732639641E+03  0.18451446147E+04  0.96976561649E+03 0.  0.
        -13    1    3    3    0    0  0.68826365124E+02  0.61352075890E+03 -0.68592255236E+03  0.92284047871E+03  0.10566000000E+00 0.  1.
          4    1    3    3  502    0  0.12567030441E+04  0.21913739435E+03 -0.14593435697E+04  0.19383001298E+04  0.00000000000E+00 0.  1.
         13    1    4    4    0    0  0.54381509706E+02 -0.32280877185E+03 -0.13220112594E+03  0.35304390753E+03  0.10566000000E+00 0. -1.
         -4    1    4    4    0  501 -0.13799109189E+04 -0.50984938140E+03  0.24952752235E+03  0.14921007071E+04  0.00000000000E+00 0. -1.
<mgrwt>
<rscale>  2 0.18670935E+04</rscale>
<asrwt>0</asrwt>
<pdfrwt beam="2">  1        2 0.51801730E+00 0.18670935E+04</pdfrwt>
<pdfrwt beam="1">  1       -2 0.20602658E+00 0.18670935E+04</pdfrwt>
<totfact> 0.13479021E-01</totfact>
</mgrwt>
</event>
<event>
 8    1  0.1373409E-005  0.1407063E+04  0.7818608E-02  0.8465077E-01
          1   -1    0    0  502    0  0.00000000000E+00  0.00000000000E+00  0.21446154533E+04  0.21446154533E+04  0.00000000000E+00 0.  1.
         -1   -1    0    0    0  501 -0.00000000000E+00 -0.00000000000E+00 -0.93027461566E+03  0.93027461566E+03  0.00000000000E+00 0. -1.
    9000010    2    1    2  502    0  0.10119560072E+04 -0.12406402536E+03  0.74447893385E+03  0.15982999356E+04  0.98023821516E+03 0.  0.
   -9000010    2    1    2    0  501 -0.10119560072E+04  0.12406402536E+03  0.46986190377E+03  0.14765901333E+04  0.95921914616E+03 0.  0.
        -13    1    3    3    0    0  0.55856425909E+03  0.28400635535E+03  0.76387014552E+03  0.98800366993E+03  0.10566000000E+00 0.  1.
          4    1    3    3  502    0  0.45339174807E+03 -0.40807038071E+03 -0.19391211667E+02  0.61029626570E+03  0.00000000000E+00 0.  1.
         13    1    4    4    0    0 -0.97233804775E+03  0.22923870721E+03  0.56959997009E+01  0.99901157129E+03  0.10566000000E+00 0. -1.
         -4    1    4    4    0  501 -0.39617959412E+02 -0.10517468185E+03  0.46416590407E+03  0.47757856203E+03  0.00000000000E+00 0. -1.
<mgrwt>
<rscale>  2 0.14070629E+04</rscale>
<asrwt>0</asrwt>
<pdfrwt beam="1">  1        1 0.32994084E+00 0.14070629E+04</pdfrwt>
<pdfrwt beam="2">  1       -1 0.14311917E+00 0.14070629E+04</pdfrwt>
<totfact> 0.11714132E+00</totfact>
</mgrwt>
</event>
<event>
 8    1  0.1373409E-005  0.1442944E+04  0.7818608E-02  0.8443111E-01
          2   -1    0    0  502    0  0.00000000000E+00  0.00000000000E+00  0.30682262957E+04  0.30682262957E+04  0.00000000000E+00 0.  1.
         -2   -1    0    0    0  501 -0.00000000000E+00 -0.00000000000E+00 -0.75471793528E+03  0.75471793528E+03  0.00000000000E+00 0. -1.
    9000010    2    1    2  502    0  0.10679687949E+04  0.12376210541E+00  0.17748212747E+04  0.22974086385E+04  0.99374973345E+03 0.  0.
   -9000010    2    1    2    0  501 -0.10679687949E+04 -0.12376210541E+00  0.53868708573E+03  0.15255355925E+04  0.94684618888E+03 0.  0.
        -13    1    3    3    0    0  0.94287986637E+03  0.41153690971E+03  0.12558446404E+04  0.16234318102E+04  0.10566000000E+00 0.  1.
          4    1    3    3  502    0  0.12508892857E+03 -0.41141314760E+03  0.51897663432E+03  0.67397682827E+03  0.00000000000E+00 0.  1.
         13    1    4    4    0    0 -0.10960950707E+03 -0.17167778405E+03  0.51260878610E+03  0.55159340490E+03  0.10566000000E+00 0. -1.
         -4    1    4    4    0  501 -0.95835928788E+03  0.17155402194E+03  0.26078299627E+02  0.97394218761E+03  0.00000000000E+00 0. -1.
<mgrwt>
<rscale>  2 0.14429443E+04</rscale>
<asrwt>0</asrwt>
<pdfrwt beam="1">  1        2 0.47203481E+00 0.14429443E+04</pdfrwt>
<pdfrwt beam="2">  1       -2 0.11611045E+00 0.14429443E+04</pdfrwt>
<totfact> 0.13670327E+00</totfact>
</mgrwt>
</event>
<event>
 8    1  0.1373409E-005  0.1248320E+04  0.7818608E-02  0.8571038E-01
          2   -1    0    0  502    0  0.00000000000E+00  0.00000000000E+00  0.19619702106E+04  0.19619702106E+04  0.00000000000E+00 0.  1.
         -2   -1    0    0    0  501 -0.00000000000E+00 -0.00000000000E+00 -0.10560538360E+04  0.10560538360E+04  0.00000000000E+00 0. -1.
    9000010    2    1    2  502    0 -0.55136481968E+03  0.53064520119E+03 -0.29556079469E+03  0.12925922927E+04  0.99892500115E+03 0.  0.
   -9000010    2    1    2    0  501  0.55136481968E+03 -0.53064520119E+03  0.12014771693E+04  0.17254317539E+04  0.97364257058E+03 0.  0.
        -13    1    3    3    0    0 -0.84179376551E+03  0.32841419421E+03 -0.23374726632E+03  0.93333296432E+03  0.10566000000E+00 0.  1.
          4    1    3    3  502    0  0.29042894583E+03  0.20223100698E+03 -0.61813528366E+02  0.35925932841E+03  0.00000000000E+00 0.  1.
         13    1    4    4    0    0  0.51426122680E+03 -0.74032654822E+03  0.58847758408E+03  0.10765007596E+04  0.10566000000E+00 0. -1.
         -4    1    4    4    0  501  0.37103592879E+02  0.20968134703E+03  0.61299958519E+03  0.64893099428E+03  0.00000000000E+00 0. -1.
<mgrwt>
<rscale>  2 0.12483203E+04</rscale>
<asrwt>0</asrwt>
<pdfrwt beam="1">  1        2 0.30184157E+00 0.12483203E+04</pdfrwt>
<pdfrwt beam="2">  1       -2 0.16246982E+00 0.12483203E+04</pdfrwt>
<totfact> 0.22800551E+00</totfact>
</mgrwt>
</event>
<event>
 8    1  0.1373409E-005  0.1136515E+04  0.7818608E-02  0.8655965E-01
         -2   -1    0    0    0  501 -0.00000000000E+00  0.00000000000E+00  0.53812735060E+03  0.53812735060E+03  0.00000000000E+00 0. -1.
          2   -1    0    0  502    0  0.00000000000E+00 -0.00000000000E+00 -0.24964445029E+04  0.24964445029E+04  0.00000000000E+00 0.  1.
    9000010    2    1    2  502    0  0.27332683942E+03 -0.40922778773E+03 -0.12986228157E+04  0.17453990629E+04  0.10572708867E+04 0.  0.
   -9000010    2    1    2    0  501 -0.27332683942E+03  0.40922778773E+03 -0.65969433660E+03  0.12891727906E+04  0.99226756616E+03 0.  0.
        -13    1    3    3    0    0  0.33052449559E+03  0.19642449454E+03 -0.99250304476E+03  0.10643736793E+04  0.10566000000E+00 0.  1.
          4    1    3    3  502    0 -0.57197656172E+02 -0.60565228227E+03 -0.30611977091E+03  0.68102538355E+03  0.00000000000E+00 0.  1.
         13    1    4    4    0    0 -0.31518009474E+03 -0.25365077999E+03 -0.41970035183E+03  0.58294562936E+03  0.10566000000E+00 0. -1.
         -4    1    4    4    0  501  0.41853255321E+02  0.66287856772E+03 -0.23999398478E+03  0.70622716122E+03  0.00000000000E+00 0. -1.
<mgrwt>
<rscale>  2 0.11365152E+04</rscale>
<asrwt>0</asrwt>
<pdfrwt beam="2">  1        2 0.38406838E+00 0.11365152E+04</pdfrwt>
<pdfrwt beam="1">  1       -2 0.82788825E-01 0.11365152E+04</pdfrwt>
<totfact> 0.69669949E+00</totfact>
</mgrwt>
</event>
<event>
 8    1  0.1373409E-005  0.1472687E+04  0.7818608E-02  0.8425394E-01
          1   -1    0    0  502    0  0.00000000000E+00  0.00000000000E+00  0.22483353497E+04  0.22483353497E+04  0.00000000000E+00 0. -1.
         -1   -1    0    0    0  501 -0.00000000000E+00 -0.00000000000E+00 -0.10529729253E+04  0.10529729253E+04  0.00000000000E+00 0.  1.
    9000010    2    1    2  502    0  0.80252192150E+03 -0.73398354294E+03  0.11925157648E+03  0.14766829581E+04  0.99176526689E+03 0.  0.
   -9000010    2    1    2    0  501 -0.80252192150E+03  0.73398354294E+03  0.10761108480E+04  0.18246253168E+04  0.99421814202E+03 0.  0.
        -13    1    3    3    0    0  0.27622499908E+03 -0.76401732976E+03 -0.22998174307E+03  0.84434255110E+03  0.10566000000E+00 0.  1.
          4    1    3    3  502    0  0.52629692241E+03  0.30033786827E+02  0.34923331955E+03  0.63234040704E+03  0.00000000000E+00 0.  1.
         13    1    4    4    0    0 -0.10323617754E+04  0.62329518452E+03  0.79179611001E+03  0.14426395300E+04  0.10566000000E+00 0. -1.
         -4    1    4    4    0  501  0.22983985394E+03  0.11068835842E+03  0.28431473796E+03  0.38198578686E+03  0.00000000000E+00 0. -1.
<mgrwt>
<rscale>  2 0.14726866E+04</rscale>
<asrwt>0</asrwt>
<pdfrwt beam="1">  1        1 0.34589774E+00 0.14726866E+04</pdfrwt>
<pdfrwt beam="2">  1       -1 0.16199584E+00 0.14726866E+04</pdfrwt>
<totfact> 0.65627592E-01</totfact>
</mgrwt>
</event>
<event>
 8    1  0.1373409E-005  0.1449210E+04  0.7818608E-02  0.8439343E-01
          4   -1    0    0  502    0  0.00000000000E+00  0.00000000000E+00  0.69594853043E+03  0.69594853043E+03  0.00000000000E+00 0. -1.
         -4   -1    0    0    0  501 -0.00000000000E+00 -0.00000000000E+00 -0.32677524444E+04  0.32677524444E+04  0.00000000000E+00 0.  1.
    9000010    2    1    2  502    0  0.83775030591E+03 -0.63315407518E+03 -0.18405845169E+04  0.23476721849E+04  0.10104967423E+04 0.  0.
   -9000010    2    1    2    0  501 -0.83775030591E+03  0.63315407518E+03 -0.73121939703E+03  0.16160287899E+04  0.98699421734E+03 0.  0.
        -13    1    3    3    0    0 -0.12741498087E+02  0.21340429092E+03 -0.52580366171E+03  0.56760306464E+03  0.10566000000E+00 0.  1.
          4    1    3    3  502    0  0.85049180400E+03 -0.84655836609E+03 -0.13147808552E+04  0.17800691203E+04  0.00000000000E+00 0.  1.
         13    1    4    4    0    0 -0.41016593127E+03  0.25398448657E+03  0.20095691472E+03  0.52261640171E+03  0.10566000000E+00 0. -1.
         -4    1    4    4    0  501 -0.42758437465E+03  0.37916958860E+03 -0.93217631175E+03  0.10934123881E+04  0.00000000000E+00 0. -1.
<mgrwt>
<rscale>  2 0.14492098E+04</rscale>
<asrwt>0</asrwt>
<pdfrwt beam="1">  1        4 0.10706900E+00 0.14492098E+04</pdfrwt>
<pdfrwt beam="2">  1       -4 0.50273116E+00 0.14492098E+04</pdfrwt>
<totfact> 0.41171472E-02</totfact>
</mgrwt>
</event>
<event>
 8    1  0.1373409E-005  0.1814424E+04  0.7818608E-02  0.8248442E-01
         -2   -1    0    0    0  501 -0.00000000000E+00  0.00000000000E+00  0.98289395386E+03  0.98289395386E+03  0.00000000000E+00 0.  1.
          2   -1    0    0  502    0  0.00000000000E+00 -0.00000000000E+00 -0.33903346999E+04  0.33903346999E+04  0.00000000000E+00 0. -1.
    9000010    2    1    2  502    0 -0.42489725814E+03 -0.14485521533E+04 -0.96545100401E+03  0.20578404790E+04  0.10118155835E+04 0.  0.
   -9000010    2    1    2    0  501  0.42489725814E+03  0.14485521533E+04 -0.14419897420E+04  0.23153881748E+04  0.10014224699E+04 0.  0.
        -13    1    3    3    0    0 -0.17834779107E+03 -0.99110466796E+03 -0.11291871598E+04  0.15129970425E+04  0.10566000000E+00 0.  1.
          4    1    3    3  502    0 -0.24654946707E+03 -0.45744748532E+03  0.16373615583E+03  0.54484343647E+03  0.00000000000E+00 0.  1.
         13    1    4    4    0    0  0.45842091944E+03  0.13928019530E+04 -0.80045066588E+03  0.16705592774E+04  0.10566000000E+00 0. -1.
         -4    1    4    4    0  501 -0.33523661296E+02  0.55750200292E+02 -0.64153907615E+03  0.64482889740E+03  0.00000000000E+00 0. -1.
<mgrwt>
<rscale>  2 0.18144237E+04</rscale>
<asrwt>0</asrwt>
<pdfrwt beam="2">  1        2 0.52158996E+00 0.18144237E+04</pdfrwt>
<pdfrwt beam="1">  1       -2 0.15121445E+00 0.18144237E+04</pdfrwt>
<totfact> 0.38037900E-01</totfact>
</mgrwt>
</event>
<event>
 8    1  0.1373409E-005  0.1957277E+04  0.7818608E-02  0.8186012E-01
          2   -1    0    0  502    0  0.00000000000E+00  0.00000000000E+00  0.30171655482E+04  0.30171655482E+04  0.00000000000E+00 0. -1.
         -2   -1    0    0    0  501 -0.00000000000E+00 -0.00000000000E+00 -0.12700173071E+04  0.12700173071E+04  0.00000000000E+00 0.  1.
    9000010    2    1    2  502    0 -0.15249724233E+04  0.69771939065E+03  0.83948610132E+03  0.21277779474E+04  0.10051611011E+04 0.  0.
   -9000010    2    1    2    0  501  0.15249724233E+04 -0.69771939065E+03  0.90766213973E+03  0.21594049080E+04  0.10133241124E+04 0.  0.
        -13    1    3    3    0    0 -0.15619023382E+03 -0.42314220736E+02  0.51293681445E+03  0.53785692261E+03  0.10566000000E+00 0.  1.
          4    1    3    3  502    0 -0.13687821895E+04  0.74003361139E+03  0.32654928687E+03  0.15899210248E+04  0.00000000000E+00 0.  1.
         13    1    4    4    0    0  0.10999192628E+04 -0.77879543096E+03  0.10450245827E+04  0.17054093636E+04  0.10566000000E+00 0. -1.
         -4    1    4    4    0  501  0.42505316045E+03  0.81076040306E+02 -0.13736244294E+03  0.45399554431E+03  0.00000000000E+00 0. -1.
<mgrwt>
<rscale>  2 0.19572766E+04</rscale>
<asrwt>0</asrwt>
<pdfrwt beam="1">  1        2 0.46417931E+00 0.19572766E+04</pdfrwt>
<pdfrwt beam="2">  1       -2 0.19538728E+00 0.19572766E+04</pdfrwt>
<totfact> 0.27819589E-01</totfact>
</mgrwt>
</event>
<event>
 8    1  0.1373409E-005  0.1565632E+04  0.7818608E-02  0.8372698E-01
         -2   -1    0    0    0  501 -0.00000000000E+00  0.00000000000E+00  0.10404458972E+04  0.10404458972E+04  0.00000000000E+00 0. -1.
          2   -1    0    0  502    0  0.00000000000E+00 -0.00000000000E+00 -0.24079695152E+04  0.24079695152E+04  0.00000000000E+00 0.  1.
    9000010    2    1    2  502    0 -0.45812827353E+03  0.11273612022E+04 -0.93785484042E+03  0.18262249910E+04  0.98726957853E+03 0.  0.
   -9000010    2    1    2    0  501  0.45812827353E+03 -0.11273612022E+04 -0.42966877759E+03  0.16221904214E+04  0.98288438255E+03 0.  0.
        -13    1    3    3    0    0 -0.22938331163E+03  0.72818161325E+03 -0.10995099318E+04  0.13385765824E+04  0.10566000000E+00 0.  1.
          4    1    3    3  502    0 -0.22874496189E+03  0.39917958895E+03  0.16165509141E+03  0.48764840859E+03  0.00000000000E+00 0.  1.
         13    1    4    4    0    0  0.22883796054E+03 -0.12227547667E+03  0.27141512809E+03  0.37547874414E+03  0.10566000000E+00 0. -1.
         -4    1    4    4    0  501  0.22929031298E+03 -0.10050857255E+04 -0.70108390568E+03  0.12467116772E+04  0.00000000000E+00 0. -1.
<mgrwt>
<rscale>  2 0.15656316E+04</rscale>
<asrwt>0</asrwt>
<pdfrwt beam="2">  1        2 0.37045685E+00 0.15656316E+04</pdfrwt>
<pdfrwt beam="1">  1       -2 0.16006860E+00 0.15656316E+04</pdfrwt>
<totfact> 0.13145617E+00</totfact>
</mgrwt>
</event>
<event>
 8    1  0.1373409E-005  0.1119355E+04  0.7818608E-02  0.8669897E-01
          1   -1    0    0  502    0  0.00000000000E+00  0.00000000000E+00  0.15492503978E+04  0.15492503978E+04  0.00000000000E+00 0. -1.
         -1   -1    0    0    0  501 -0.00000000000E+00 -0.00000000000E+00 -0.86943283893E+03  0.86943283893E+03  0.00000000000E+00 0.  1.
    9000010    2    1    2  502    0  0.21306184400E+03 -0.44591802015E+03  0.19345491012E+02  0.11156548057E+04  0.10000365830E+04 0.  0.
   -9000010    2    1    2    0  501 -0.21306184400E+03  0.44591802015E+03  0.66047206783E+03  0.13030284310E+04  0.10086731431E+04 0.  0.
        -13    1    3    3    0    0 -0.29148000333E+03 -0.17794684418E+02 -0.26603514817E+03  0.39503411797E+03  0.10566000000E+00 0.  1.
          4    1    3    3  502    0  0.50454184733E+03 -0.42812333573E+03  0.28538063918E+03  0.72062068769E+03  0.00000000000E+00 0.  1.
         13    1    4    4    0    0  0.16001220429E+03  0.66524233855E+03  0.47066109114E+03  0.83046562144E+03  0.10566000000E+00 0. -1.
         -4    1    4    4    0  501 -0.37307404829E+03 -0.21932431840E+03  0.18981097670E+03  0.47256280961E+03  0.00000000000E+00 0. -1.
<mgrwt>
<rscale>  2 0.11193550E+04</rscale>
<asrwt>0</asrwt>
<pdfrwt beam="1">  1        1 0.23834622E+00 0.11193550E+04</pdfrwt>
<pdfrwt beam="2">  1       -1 0.13375890E+00 0.11193550E+04</pdfrwt>
<totfact> 0.41300998E+00</totfact>
</mgrwt>
</event>
<event>
 8    1  0.1373409E-005  0.1206062E+04  0.7818608E-02  0.8602012E-01
          2   -1    0    0  502    0  0.00000000000E+00  0.00000000000E+00  0.81645000226E+03  0.81645000226E+03  0.00000000000E+00 0. -1.
         -2   -1    0    0    0  501 -0.00000000000E+00 -0.00000000000E+00 -0.18356188164E+04  0.18356188164E+04  0.00000000000E+00 0.  1.
    9000010    2    1    2  502    0 -0.66751000710E+03 -0.13464212614E+03 -0.27816570454E+03  0.12277473079E+04  0.98300009221E+03 0.  0.
   -9000010    2    1    2    0  501  0.66751000710E+03  0.13464212614E+03 -0.74100310961E+03  0.14243215107E+04  0.10079226388E+04 0.  0.
        -13    1    3    3    0    0 -0.63296457094E+03  0.83874328227E+02 -0.57383937912E+03  0.85846997338E+03  0.10566000000E+00 0.  1.
          4    1    3    3  502    0 -0.34545436162E+02 -0.21851645436E+03  0.29567367458E+03  0.36927733457E+03  0.00000000000E+00 0.  1.
         13    1    4    4    0    0 -0.23806790752E+03  0.19456377112E+03 -0.15850117817E+03  0.34591042810E+03  0.10566000000E+00 0. -1.
         -4    1    4    4    0  501  0.90557791462E+03 -0.59921644979E+02 -0.58250193144E+03  0.10784110826E+04  0.00000000000E+00 0. -1.
<mgrwt>
<rscale>  2 0.12060618E+04</rscale>
<asrwt>0</asrwt>
<pdfrwt beam="1">  1        2 0.12560770E+00 0.12060618E+04</pdfrwt>
<pdfrwt beam="2">  1       -2 0.28240289E+00 0.12060618E+04</pdfrwt>
<totfact> 0.11274906E+00</totfact>
</mgrwt>
</event>
<event>
 8    1  0.1373409E-005  0.1076476E+04  0.7818608E-02  0.8705878E-01
         -2   -1    0    0    0  501 -0.00000000000E+00  0.00000000000E+00  0.41661544812E+03  0.41661544812E+03  0.00000000000E+00 0. -1.
          2   -1    0    0  502    0  0.00000000000E+00 -0.00000000000E+00 -0.28074885094E+04  0.28074885094E+04  0.00000000000E+00 0.  1.
    9000010    2    1    2  502    0  0.35554568530E+03 -0.17576013381E+03 -0.13517309260E+04  0.17286217057E+04  0.10018244089E+04 0.  0.
   -9000010    2    1    2    0  501 -0.35554568530E+03  0.17576013381E+03 -0.10391421352E+04  0.14954822517E+04  0.99967316115E+03 0.  0.
        -13    1    3    3    0    0 -0.10181461397E+03 -0.43181690395E+03 -0.25167560299E+03  0.51007124449E+03  0.10566000000E+00 0.  1.
          4    1    3    3  502    0  0.45736029927E+03  0.25605677014E+03 -0.11000553230E+04  0.12185504612E+04  0.00000000000E+00 0.  1.
         13    1    4    4    0    0  0.18602050847E+03  0.35344947189E+03 -0.76503940399E+03  0.86302691706E+03  0.10566000000E+00 0. -1.
         -4    1    4    4    0  501 -0.54156619377E+03 -0.17768933808E+03 -0.27410273123E+03  0.63245533468E+03  0.00000000000E+00 0. -1.
<mgrwt>
<rscale>  2 0.10764765E+04</rscale>
<asrwt>0</asrwt>
<pdfrwt beam="2">  1        2 0.43192131E+00 0.10764765E+04</pdfrwt>
<pdfrwt beam="1">  1       -2 0.64094684E-01 0.10764765E+04</pdfrwt>
<totfact> 0.79989561E+00</totfact>
</mgrwt>
</event>
<event>
 8    1  0.1373409E-005  0.1086092E+04  0.7818608E-02  0.8697659E-01
         -2   -1    0    0    0  501 -0.00000000000E+00  0.00000000000E+00  0.83702433344E+03  0.83702433344E+03  0.00000000000E+00 0.  1.
          2   -1    0    0  502    0  0.00000000000E+00 -0.00000000000E+00 -0.14309970126E+04  0.14309970126E+04  0.00000000000E+00 0. -1.
    9000010    2    1    2  502    0  0.39153035779E+03  0.20550090295E+03 -0.15918446820E+03  0.11041664484E+04  0.99915825010E+03 0.  0.
   -9000010    2    1    2    0  501 -0.39153035779E+03 -0.20550090295E+03 -0.43478821101E+03  0.11638548976E+04  0.98488110560E+03 0.  0.
        -13    1    3    3    0    0 -0.13012597151E+03  0.17753399202E+03 -0.45383249855E+03  0.50439571240E+03  0.10566000000E+00 0.  1.
          4    1    3    3  502    0  0.52165632930E+03  0.27966910928E+02  0.29464803035E+03  0.59977073603E+03  0.00000000000E+00 0.  1.
         13    1    4    4    0    0 -0.18076460575E+03 -0.64961121909E+02  0.31693274525E+03  0.37059704023E+03  0.10566000000E+00 0. -1.
         -4    1    4    4    0  501 -0.21076575204E+03 -0.14053978104E+03 -0.75172095625E+03  0.79325785742E+03  0.00000000000E+00 0. -1.
<mgrwt>
<rscale>  2 0.10860919E+04</rscale>
<asrwt>0</asrwt>
<pdfrwt beam="2">  1        2 0.22015338E+00 0.10860919E+04</pdfrwt>
<pdfrwt beam="1">  1       -2 0.12877298E+00 0.10860919E+04</pdfrwt>
<totfact> 0.90367016E+00</totfact>
</mgrwt>
</event>
<event>
 8    1  0.1373409E-005  0.1117752E+04  0.7818608E-02  0.8671212E-01
         -1   -1    0    0    0  501 -0.00000000000E+00  0.00000000000E+00  0.67958709667E+03  0.67958709667E+03  0.00000000000E+00 0. -1.
          1   -1    0    0  502    0  0.00000000000E+00 -0.00000000000E+00 -0.18896634610E+04  0.18896634610E+04  0.00000000000E+00 0.  1.
    9000010    2    1    2  502    0 -0.71563402178E+02 -0.49603810191E+03 -0.81252896791E+03  0.13759445008E+04  0.99088083361E+03 0.  0.
   -9000010    2    1    2    0  501  0.71563402178E+02  0.49603810191E+03 -0.39754739639E+03  0.11933060569E+04  0.10073531128E+04 0.  0.
        -13    1    3    3    0    0  0.13884275545E+03 -0.61823611420E+03 -0.91413401936E+03  0.11122653551E+04  0.10566000000E+00 0.  1.
          4    1    3    3  502    0 -0.21040615763E+03  0.12219801229E+03  0.10160505145E+03  0.26367914566E+03  0.00000000000E+00 0.  1.
         13    1    4    4    0    0  0.12496532828E+03 -0.29250442271E+03 -0.20956186263E+03  0.38090859272E+03  0.10566000000E+00 0. -1.
         -4    1    4    4    0  501 -0.53401926107E+02  0.78854252462E+03 -0.18798553376E+03  0.81239746414E+03  0.00000000000E+00 0. -1.
<mgrwt>
<rscale>  2 0.11177519E+04</rscale>
<asrwt>0</asrwt>
<pdfrwt beam="2">  1        1 0.29071746E+00 0.11177519E+04</pdfrwt>
<pdfrwt beam="1">  1       -1 0.10455186E+00 0.11177519E+04</pdfrwt>
<totfact> 0.41980335E+00</totfact>
</mgrwt>
</event>
<event>
 8    1  0.1373409E-005  0.1698242E+04  0.7818608E-02  0.8303732E-01
         -1   -1    0    0    0  501 -0.00000000000E+00  0.00000000000E+00  0.79175682883E+03  0.79175682883E+03  0.00000000000E+00 0. -1.
          1   -1    0    0  502    0  0.00000000000E+00 -0.00000000000E+00 -0.36452435850E+04  0.36452435850E+04  0.00000000000E+00 0.  1.
    9000010    2    1    2  502    0  0.83752920033E+03 -0.10975905994E+04 -0.14912673141E+04  0.22644236896E+04  0.99878734422E+03 0.  0.
   -9000010    2    1    2    0  501 -0.83752920033E+03  0.10975905994E+04 -0.13622194421E+04  0.21725767242E+04  0.97892161527E+03 0.  0.
        -13    1    3    3    0    0  0.10065674254E+04 -0.70865579106E+03 -0.85127110941E+03  0.14966741546E+04  0.10566000000E+00 0.  1.
          4    1    3    3  502    0 -0.16903822506E+03 -0.38893480832E+03 -0.63999620465E+03  0.76774953508E+03  0.00000000000E+00 0.  1.
         13    1    4    4    0    0 -0.79566700002E+03  0.12476116103E+04 -0.13700941652E+04  0.20166255819E+04  0.10566000000E+00 0. -1.
         -4    1    4    4    0  501 -0.41862200307E+02 -0.15002101089E+03  0.78747230557E+01  0.15595114230E+03  0.00000000000E+00 0. -1.
<mgrwt>
<rscale>  2 0.16982418E+04</rscale>
<asrwt>0</asrwt>
<pdfrwt beam="2">  1        1 0.56080670E+00 0.16982418E+04</pdfrwt>
<pdfrwt beam="1">  1       -1 0.12180874E+00 0.16982418E+04</pdfrwt>
<totfact> 0.54679075E-02</totfact>
</mgrwt>
</event>
<event>
 8    1  0.1373409E-005  0.1426670E+04  0.7818608E-02  0.8452992E-01
          1   -1    0    0  502    0  0.00000000000E+00  0.00000000000E+00  0.12475489211E+04  0.12475489211E+04  0.00000000000E+00 0. -1.
         -1   -1    0    0    0  501 -0.00000000000E+00 -0.00000000000E+00 -0.16336341925E+04  0.16336341925E+04  0.00000000000E+00 0.  1.
    9000010    2    1    2  502    0 -0.13562296451E+03 -0.10246075240E+04 -0.14076887281E+03  0.14307237331E+04  0.97925500159E+03 0.  0.
   -9000010    2    1    2    0  501  0.13562296451E+03  0.10246075240E+04 -0.24531639858E+03  0.14504593806E+04  0.98764270492E+03 0.  0.
        -13    1    3    3    0    0  0.60331180802E+02 -0.99931692626E+02 -0.42736385894E+03  0.44301927008E+03  0.10566000000E+00 0.  1.
          4    1    3    3  502    0 -0.19595414531E+03 -0.92467583135E+03  0.28659498614E+03  0.98770446300E+03  0.00000000000E+00 0.  1.
         13    1    4    4    0    0 -0.12920516673E+03  0.10844417815E+04 -0.11531550105E+02  0.10921725781E+04  0.10566000000E+00 0. -1.
         -4    1    4    4    0  501  0.26482813124E+03 -0.59834257487E+02 -0.23378484848E+03  0.35828680249E+03  0.00000000000E+00 0. -1.
<mgrwt>
<rscale>  2 0.14266698E+04</rscale>
<asrwt>0</asrwt>
<pdfrwt beam="1">  1        1 0.19193060E+00 0.14266698E+04</pdfrwt>
<pdfrwt beam="2">  1       -1 0.25132834E+00 0.14266698E+04</pdfrwt>
<totfact> 0.58517162E-01</totfact>
</mgrwt>
</event>
<event>
 8    1  0.1373409E-005  0.1212583E+04  0.7818608E-02  0.8597147E-01
         -2   -1    0    0    0  501 -0.00000000000E+00  0.00000000000E+00  0.16650927504E+04  0.16650927504E+04  0.00000000000E+00 0.  1.
          2   -1    0    0  502    0  0.00000000000E+00 -0.00000000000E+00 -0.88805578460E+03  0.88805578460E+03  0.00000000000E+00 0. -1.
    9000010    2    1    2  502    0  0.48153509919E+03  0.46985483208E+03  0.29151340278E+03  0.12433884098E+04  0.10041887564E+04 0.  0.
   -9000010    2    1    2    0  501 -0.48153509919E+03 -0.46985483208E+03  0.48552356298E+03  0.13097601252E+04  0.10134588499E+04 0.  0.
        -13    1    3    3    0    0  0.79290858100E+03  0.28823168062E+03  0.25341053399E+03  0.88090773038E+03  0.10566000000E+00 0.  1.
          4    1    3    3  502    0 -0.31137348181E+03  0.18162315145E+03  0.38102868787E+02  0.36248067938E+03  0.00000000000E+00 0.  1.
         13    1    4    4    0    0 -0.47533603532E+03  0.91682251015E+02  0.56340315085E+03  0.74281431271E+03  0.10566000000E+00 0. -1.
         -4    1    4    4    0  501 -0.61990638729E+01 -0.56153708309E+03 -0.77879587873E+02  0.56694581248E+03  0.00000000000E+00 0. -1.
<mgrwt>
<rscale>  2 0.12125827E+04</rscale>
<asrwt>0</asrwt>
<pdfrwt beam="2">  1        2 0.13662397E+00 0.12125827E+04</pdfrwt>
<pdfrwt beam="1">  1       -2 0.25616811E+00 0.12125827E+04</pdfrwt>
<totfact> 0.16006483E+00</totfact>
</mgrwt>
</event>
<event>
 8    1  0.1373409E-005  0.1413832E+04  0.7818608E-02  0.8460882E-01
          2   -1    0    0  502    0  0.00000000000E+00  0.00000000000E+00  0.91442046373E+03  0.91442046373E+03  0.00000000000E+00 0.  1.
         -2   -1    0    0    0  501 -0.00000000000E+00 -0.00000000000E+00 -0.27494827672E+04  0.27494827672E+04  0.00000000000E+00 0. -1.
    9000010    2    1    2  502    0  0.55393866624E+03 -0.81452173203E+03 -0.89036339779E+02  0.14182527308E+04  0.10164741220E+04 0.  0.
   -9000010    2    1    2    0  501 -0.55393866624E+03  0.81452173203E+03 -0.17460259637E+04  0.22456505001E+04  0.10119514835E+04 0.  0.
        -13    1    3    3    0    0  0.39610837511E+03 -0.34599022364E+03  0.44612967359E+03  0.68966859905E+03  0.10566000000E+00 0.  1.
          4    1    3    3  502    0  0.15783029112E+03 -0.46853150839E+03 -0.53516601337E+03  0.72858413173E+03  0.00000000000E+00 0.  1.
         13    1    4    4    0    0 -0.33765486476E+03  0.53789175140E+03 -0.20835302200E+03  0.66839310055E+03  0.10566000000E+00 0. -1.
         -4    1    4    4    0  501 -0.21628380148E+03  0.27662998063E+03 -0.15376729417E+04  0.15772573996E+04  0.00000000000E+00 0. -1.
<mgrwt>
<rscale>  2 0.14138321E+04</rscale>
<asrwt>0</asrwt>
<pdfrwt beam="1">  1        2 0.14068007E+00 0.14138321E+04</pdfrwt>
<pdfrwt beam="2">  1       -2 0.42299735E+00 0.14138321E+04</pdfrwt>
<totfact> 0.13045310E-01</totfact>
</mgrwt>
</event>
<event>
 8    1  0.1373409E-005  0.1380761E+04  0.7818608E-02  0.8481610E-01
         -2   -1    0    0    0  501 -0.00000000000E+00  0.00000000000E+00  0.10945001507E+04  0.10945001507E+04  0.00000000000E+00 0.  1.
          2   -1    0    0  502    0  0.00000000000E+00 -0.00000000000E+00 -0.18188541283E+04  0.18188541283E+04  0.00000000000E+00 0. -1.
    9000010    2    1    2  502    0 -0.94460338162E+03 -0.25821261612E+01 -0.66142094717E+03  0.15295861349E+04  0.10049248025E+04 0.  0.
   -9000010    2    1    2    0  501  0.94460338162E+03  0.25821261612E+01 -0.62933030453E+02  0.13837681441E+04  0.10092430303E+04 0.  0.
        -13    1    3    3    0    0 -0.58901776686E+03 -0.32003526514E+03 -0.78979873538E+03  0.10359278711E+04  0.10566000000E+00 0.  1.
          4    1    3    3  502    0 -0.35558561477E+03  0.31745313898E+03  0.12837778822E+03  0.49365826376E+03  0.00000000000E+00 0.  1.
         13    1    4    4    0    0  0.40906047345E+03 -0.14274548679E+02  0.47328854740E+03  0.62572861046E+03  0.10566000000E+00 0. -1.
         -4    1    4    4    0  501  0.53554290817E+03  0.16856674840E+02 -0.53622157786E+03  0.75803953362E+03  0.00000000000E+00 0. -1.
<mgrwt>
<rscale>  2 0.13807606E+04</rscale>
<asrwt>0</asrwt>
<pdfrwt beam="2">  1        2 0.27982371E+00 0.13807606E+04</pdfrwt>
<pdfrwt beam="1">  1       -2 0.16838464E+00 0.13807606E+04</pdfrwt>
<totfact> 0.23965226E+00</totfact>
</mgrwt>
</event>
<event>
 8    1  0.1373409E-005  0.1141823E+04  0.7818608E-02  0.8651707E-01
          2   -1    0    0  502    0  0.00000000000E+00  0.00000000000E+00  0.18515468044E+04  0.18515468044E+04  0.00000000000E+00 0. -1.
         -2   -1    0    0    0  501 -0.00000000000E+00 -0.00000000000E+00 -0.83453044594E+03  0.83453044594E+03  0.00000000000E+00 0.  1.
    9000010    2    1    2  502    0  0.46268833613E+03 -0.31237577233E+03 -0.20375416113E+02  0.11471824923E+04  0.10019747470E+04 0.  0.
   -9000010    2    1    2    0  501 -0.46268833613E+03  0.31237577233E+03  0.10373917746E+04  0.15388947580E+04  0.99012941719E+03 0.  0.
        -13    1    3    3    0    0  0.77491527400E+03 -0.30472966529E+03  0.15388778454E+02  0.83282091500E+03  0.10566000000E+00 0.  1.
          4    1    3    3  502    0 -0.31222693788E+03 -0.76461070406E+01 -0.35764194566E+02  0.31436157733E+03  0.00000000000E+00 0.  1.
         13    1    4    4    0    0 -0.64298657289E+03 -0.58016545743E+01  0.97493587157E+03  0.11678892743E+04  0.10566000000E+00 0. -1.
         -4    1    4    4    0  501  0.18029823676E+03  0.31817742691E+03  0.62455903049E+02  0.37100548378E+03  0.00000000000E+00 0. -1.
<mgrwt>
<rscale>  2 0.11418233E+04</rscale>
<asrwt>0</asrwt>
<pdfrwt beam="1">  1        2 0.28485335E+00 0.11418233E+04</pdfrwt>
<pdfrwt beam="2">  1       -2 0.12838930E+00 0.11418233E+04</pdfrwt>
<totfact> 0.53465067E+00</totfact>
</mgrwt>
</event>
<event>
 8    1  0.1373409E-005  0.1073668E+04  0.7818608E-02  0.8708295E-01
          2   -1    0    0  502    0  0.00000000000E+00  0.00000000000E+00  0.11145634120E+04  0.11145634120E+04  0.00000000000E+00 0.  1.
         -2   -1    0    0    0  501 -0.00000000000E+00 -0.00000000000E+00 -0.10454694187E+04  0.10454694187E+04  0.00000000000E+00 0. -1.
    9000010    2    1    2  502    0  0.61463631597E+02 -0.40195960441E+03 -0.74581352641E+02  0.10490055203E+04  0.96410627106E+03 0.  0.
   -9000010    2    1    2    0  501 -0.61463631597E+02  0.40195960441E+03  0.14367534594E+03  0.11110273105E+04  0.10239090673E+04 0.  0.
        -13    1    3    3    0    0 -0.17625519432E+02 -0.71802941023E+03 -0.19091980630E+02  0.71849941391E+03  0.10566000000E+00 0.  1.
          4    1    3    3  502    0  0.79089151029E+02  0.31606980583E+03 -0.55489372011E+02  0.33050610641E+03  0.00000000000E+00 0.  1.
         13    1    4    4    0    0  0.24384022417E+03  0.36315026142E+03 -0.32875892354E+03  0.54719156451E+03  0.10566000000E+00 0. -1.
         -4    1    4    4    0  501 -0.30530385577E+03  0.38809342986E+02  0.47243426949E+03  0.56383574597E+03  0.00000000000E+00 0. -1.
<mgrwt>
<rscale>  2 0.10736680E+04</rscale>
<asrwt>0</asrwt>
<pdfrwt beam="1">  1        2 0.17147129E+00 0.10736680E+04</pdfrwt>
<pdfrwt beam="2">  1       -2 0.16084145E+00 0.10736680E+04</pdfrwt>
<totfact> 0.70465473E+00</totfact>
</mgrwt>
</event>
<event>
 8    1  0.1373409E-005  0.1113134E+04  0.7818608E-02  0.8675013E-01
         -4   -1    0    0    0  501 -0.00000000000E+00  0.00000000000E+00  0.35105849198E+03  0.35105849198E+03  0.00000000000E+00 0. -1.
          4   -1    0    0  502    0  0.00000000000E+00 -0.00000000000E+00 -0.35582374099E+04  0.35582374099E+04  0.00000000000E+00 0.  1.
    9000010    2    1    2  502    0 -0.34881136241E+03  0.34979650880E+03 -0.14313410363E+04  0.18146571081E+04  0.10001081410E+04 0.  0.
   -9000010    2    1    2    0  501  0.34881136241E+03 -0.34979650880E+03 -0.17758378816E+04  0.20946387937E+04  0.99492940975E+03 0.  0.
        -13    1    3    3    0    0 -0.39707449809E+03  0.32572352520E+03 -0.15774300811E+04  0.16589302709E+04  0.10566000000E+00 0.  1.
          4    1    3    3  502    0  0.48263135680E+02  0.24072983607E+02  0.14608904481E+03  0.15572683718E+03  0.00000000000E+00 0.  1.
         13    1    4    4    0    0  0.42209284579E+03 -0.66306081267E+03 -0.11871633865E+04  0.14237868271E+04  0.10566000000E+00 0. -1.
         -4    1    4    4    0  501 -0.73281483387E+02  0.31326430387E+03 -0.58867449513E+03  0.67085196661E+03  0.00000000000E+00 0. -1.
<mgrwt>
<rscale>  2 0.11131337E+04</rscale>
<asrwt>0</asrwt>
<pdfrwt beam="2">  1        4 0.54742113E+00 0.11131337E+04</pdfrwt>
<pdfrwt beam="1">  1       -4 0.54009000E-01 0.11131337E+04</pdfrwt>
<totfact> 0.10585192E-01</totfact>
</mgrwt>
</event>
<event>
 8    1  0.1373409E-005  0.2187153E+04  0.7818608E-02  0.8096182E-01
         -4   -1    0    0    0  501 -0.00000000000E+00  0.00000000000E+00  0.13046656983E+04  0.13046656983E+04  0.00000000000E+00 0.  1.
          4   -1    0    0  502    0  0.00000000000E+00 -0.00000000000E+00 -0.43451541594E+04  0.43451541594E+04  0.00000000000E+00 0. -1.
    9000010    2    1    2  502    0 -0.10749987699E+04 -0.16367576244E+04 -0.41208477750E+03  0.22391978944E+04  0.10047862809E+04 0.  0.
   -9000010    2    1    2    0  501  0.10749987699E+04  0.16367576244E+04 -0.26284036836E+04  0.34106219632E+04  0.94299436687E+03 0.  0.
        -13    1    3    3    0    0 -0.30222219327E+03 -0.12536261348E+04 -0.47529905295E+03  0.13743456409E+04  0.10566000000E+00 0.  1.
          4    1    3    3  502    0 -0.77277657662E+03 -0.38313148960E+03  0.63214275446E+02  0.86485225346E+03  0.00000000000E+00 0.  1.
         13    1    4    4    0    0  0.11939806425E+04  0.13295842918E+04 -0.24602917093E+04  0.30407925726E+04  0.10566000000E+00 0. -1.
         -4    1    4    4    0  501 -0.11898187264E+03  0.30717333255E+03 -0.16811197430E+03  0.36982939060E+03  0.00000000000E+00 0. -1.
<mgrwt>
<rscale>  2 0.21871526E+04</rscale>
<asrwt>0</asrwt>
<pdfrwt beam="2">  1        4 0.66848526E+00 0.21871526E+04</pdfrwt>
<pdfrwt beam="1">  1       -4 0.20071780E+00 0.21871526E+04</pdfrwt>
<totfact> 0.19888339E-03</totfact>
</mgrwt>
</event>
<event>
 8    1  0.1373409E-005  0.1146465E+04  0.7818608E-02  0.8648003E-01
         -1   -1    0    0    0  501 -0.00000000000E+00  0.00000000000E+00  0.74499716588E+03  0.74499716588E+03  0.00000000000E+00 0. -1.
          1   -1    0    0  502    0  0.00000000000E+00 -0.00000000000E+00 -0.19164241340E+04  0.19164241340E+04  0.00000000000E+00 0.  1.
    9000010    2    1    2  502    0 -0.58428407497E+03  0.50634213047E+02 -0.96094981454E+03  0.14964081860E+04  0.98583021321E+03 0.  0.
   -9000010    2    1    2    0  501  0.58428407497E+03 -0.50634213047E+02 -0.21047715355E+03  0.11650131138E+04  0.98437961148E+03 0.  0.
        -13    1    3    3    0    0 -0.79766000125E+03 -0.13727657749E+03 -0.48960582477E+03  0.94594937028E+03  0.10566000000E+00 0.  1.
          4    1    3    3  502    0  0.21337592628E+03  0.18791079053E+03 -0.47134398978E+03  0.55045881573E+03  0.00000000000E+00 0.  1.
         13    1    4    4    0    0  0.13478184650E+03 -0.25580260134E+03  0.32594094246E+03  0.43570474651E+03  0.10566000000E+00 0. -1.
         -4    1    4    4    0  501  0.44950222847E+03  0.20516838829E+03 -0.53641809600E+03  0.72930836734E+03  0.00000000000E+00 0. -1.
<mgrwt>
<rscale>  2 0.11464655E+04</rscale>
<asrwt>0</asrwt>
<pdfrwt beam="2">  1        1 0.29483448E+00 0.11464655E+04</pdfrwt>
<pdfrwt beam="1">  1       -1 0.11461495E+00 0.11464655E+04</pdfrwt>
<totfact> 0.32344016E+00</totfact>
</mgrwt>
</event>
<event>
 8    1  0.1373409E-005  0.1345823E+04  0.7818608E-02  0.8504165E-01
          2   -1    0    0  502    0  0.00000000000E+00  0.00000000000E+00  0.10661371480E+04  0.10661371480E+04  0.00000000000E+00 0.  1.
         -2   -1    0    0    0  501 -0.00000000000E+00 -0.00000000000E+00 -0.18752640417E+04  0.18752640417E+04  0.00000000000E+00 0. -1.
    9000010    2    1    2  502    0 -0.76824139331E+03 -0.47306665332E+03 -0.85535619520E+03  0.15938530941E+04  0.99736982506E+03 0.  0.
   -9000010    2    1    2    0  501  0.76824139331E+03  0.47306665332E+03  0.46229301501E+02  0.13475480955E+04  0.99988090520E+03 0.  0.
        -13    1    3    3    0    0 -0.65586026560E+03 -0.70813244452E+03 -0.35258335099E+03  0.10275793291E+04  0.10566000000E+00 0.  1.
          4    1    3    3  502    0 -0.11238112771E+03  0.23506579120E+03 -0.50277284421E+03  0.56627376500E+03  0.00000000000E+00 0.  1.
         13    1    4    4    0    0  0.73411818270E+02 -0.15374716177E+03 -0.30390911596E+03  0.34840816113E+03  0.10566000000E+00 0. -1.
         -4    1    4    4    0  501  0.69482957504E+03  0.62681381509E+03  0.35013841746E+03  0.99913993440E+03  0.00000000000E+00 0. -1.
<mgrwt>
<rscale>  2 0.13458229E+04</rscale>
<asrwt>0</asrwt>
<pdfrwt beam="1">  1        2 0.16402110E+00 0.13458229E+04</pdfrwt>
<pdfrwt beam="2">  1       -2 0.28850216E+00 0.13458229E+04</pdfrwt>
<totfact> 0.69847418E-01</totfact>
</mgrwt>
</event>
<event>
 8    1  0.1373409E-005  0.1086321E+04  0.7818608E-02  0.8697464E-01
         -2   -1    0    0    0  501 -0.00000000000E+00  0.00000000000E+00  0.45468800540E+03  0.45468800540E+03  0.00000000000E+00 0. -1.
          2   -1    0    0  502    0  0.00000000000E+00 -0.00000000000E+00 -0.25956345347E+04  0.25956345347E+04  0.00000000000E+00 0.  1.
    9000010    2    1    2  502    0 -0.59577054053E+02  0.40266755330E+03 -0.10766189428E+04  0.15251805560E+04  0.10006881615E+04 0.  0.
   -9000010    2    1    2    0  501  0.59577054053E+02 -0.40266755330E+03 -0.10643275865E+04  0.15251419841E+04  0.10136933838E+04 0.  0.
        -13    1    3    3    0    0 -0.13448290457E+03  0.34569520745E+03  0.67647636810E+02  0.37705045021E+03  0.10566000000E+00 0.  1.
          4    1    3    3  502    0  0.74905850514E+02  0.56972345851E+02 -0.11442665796E+04  0.11481301058E+04  0.00000000000E+00 0.  1.
         13    1    4    4    0    0  0.35919628765E+03  0.14248850077E+03 -0.14004282851E+03  0.41101940452E+03  0.10566000000E+00 0. -1.
         -4    1    4    4    0  501 -0.29961923360E+03 -0.54515605407E+03 -0.92428475798E+03  0.11141225796E+04  0.00000000000E+00 0. -1.
<mgrwt>
<rscale>  2 0.10863211E+04</rscale>
<asrwt>0</asrwt>
<pdfrwt beam="2">  1        2 0.39932839E+00 0.10863211E+04</pdfrwt>
<pdfrwt beam="1">  1       -2 0.69952000E-01 0.10863211E+04</pdfrwt>
<totfact> 0.88429833E+00</totfact>
</mgrwt>
</event>
<event>
 8    1  0.1373409E-005  0.1358928E+04  0.7818608E-02  0.8495622E-01
          1   -1    0    0  502    0  0.00000000000E+00  0.00000000000E+00  0.80996826453E+03  0.80996826453E+03  0.00000000000E+00 0.  1.
         -1   -1    0    0    0  501 -0.00000000000E+00 -0.00000000000E+00 -0.23780029013E+04  0.23780029013E+04  0.00000000000E+00 0. -1.
    9000010    2    1    2  502    0  0.16715119864E+03 -0.90543661389E+03 -0.11082883991E+04  0.17544028302E+04  0.10009351278E+04 0.  0.
   -9000010    2    1    2    0  501 -0.16715119864E+03  0.90543661389E+03 -0.45974623768E+03  0.14335683356E+04  0.99799628502E+03 0.  0.
        -13    1    3    3    0    0  0.32929980189E+03  0.75893521057E+02 -0.13843435193E+03  0.36518798861E+03  0.10566000000E+00 0.  1.
          4    1    3    3  502    0 -0.16214860325E+03 -0.98133013495E+03 -0.96985404716E+03  0.13892148416E+04  0.00000000000E+00 0.  1.
         13    1    4    4    0    0  0.66654427654E+02  0.10684101876E+04 -0.39707544725E+03  0.11417583211E+04  0.10566000000E+00 0. -1.
         -4    1    4    4    0  501 -0.23380562629E+03 -0.16297357375E+03 -0.62670790429E+02  0.29181001456E+03  0.00000000000E+00 0. -1.
<mgrwt>
<rscale>  2 0.13589284E+04</rscale>
<asrwt>0</asrwt>
<pdfrwt beam="1">  1        1 0.12461050E+00 0.13589284E+04</pdfrwt>
<pdfrwt beam="2">  1       -1 0.36584660E+00 0.13589284E+04</pdfrwt>
<totfact> 0.29461470E-01</totfact>
</mgrwt>
</event>
<event>
 8    1  0.1373409E-005  0.1579613E+04  0.7818608E-02  0.8365100E-01
         -2   -1    0    0    0  501 -0.00000000000E+00  0.00000000000E+00  0.14342167888E+04  0.14342167888E+04  0.00000000000E+00 0. -1.
          2   -1    0    0  502    0  0.00000000000E+00 -0.00000000000E+00 -0.17417769267E+04  0.17417769267E+04  0.00000000000E+00 0.  1.
    9000010    2    1    2  502    0  0.28706685526E+03 -0.12107645845E+04 -0.20737751956E+03  0.15889815711E+04  0.96617738495E+03 0.  0.
   -9000010    2    1    2    0  501 -0.28706685526E+03  0.12107645845E+04 -0.10018261836E+03  0.15870121443E+04  0.97990444980E+03 0.  0.
        -13    1    3    3    0    0  0.20280925621E+03 -0.22844696972E+03 -0.47737932779E+03  0.56675448489E+03  0.10566000000E+00 0.  1.
          4    1    3    3  502    0  0.84257599046E+02 -0.98231761479E+03  0.27000180823E+03  0.10222270862E+04  0.00000000000E+00 0.  1.
         13    1    4    4    0    0  0.55378314694E+02  0.66313577940E+03  0.39437566509E+03  0.77352957024E+03  0.10566000000E+00 0. -1.
         -4    1    4    4    0  501 -0.34244516995E+03  0.54762880511E+03 -0.49455828346E+03  0.81348257409E+03  0.00000000000E+00 0. -1.
<mgrwt>
<rscale>  2 0.15796133E+04</rscale>
<asrwt>0</asrwt>
<pdfrwt beam="2">  1        2 0.26796568E+00 0.15796133E+04</pdfrwt>
<pdfrwt beam="1">  1       -2 0.22064874E+00 0.15796133E+04</pdfrwt>
<totfact> 0.95307945E-01</totfact>
</mgrwt>
</event>
<event>
 8    1  0.1373409E-005  0.1415146E+04  0.7818608E-02  0.8460071E-01
         -1   -1    0    0    0  501 -0.00000000000E+00  0.00000000000E+00  0.12953188000E+04  0.12953188000E+04  0.00000000000E+00 0. -1.
          1   -1    0    0  502    0  0.00000000000E+00 -0.00000000000E+00 -0.16339670841E+04  0.16339670841E+04  0.00000000000E+00 0.  1.
    9000010    2    1    2  502    0 -0.10010791013E+04 -0.21845569824E+03  0.17177415376E+03  0.14102979107E+04  0.95370413536E+03 0.  0.
   -9000010    2    1    2    0  501  0.10010791013E+04  0.21845569824E+03 -0.51042243788E+03  0.15189879734E+04  0.99845437510E+03 0.  0.
        -13    1    3    3    0    0 -0.91661849484E+02  0.25579680775E+03  0.26610149736E+03  0.38032081138E+03  0.10566000000E+00 0.  1.
          4    1    3    3  502    0 -0.90941725179E+03 -0.47425250599E+03 -0.94327343601E+02  0.10299770993E+04  0.00000000000E+00 0.  1.
         13    1    4    4    0    0  0.12632367965E+03 -0.83262234943E+00 -0.59960337475E+03  0.61276633677E+03  0.10566000000E+00 0. -1.
         -4    1    4    4    0  501  0.87475542163E+03  0.21928832059E+03  0.89180936872E+02  0.90622163664E+03  0.00000000000E+00 0. -1.
<mgrwt>
<rscale>  2 0.14151457E+04</rscale>
<asrwt>0</asrwt>
<pdfrwt beam="2">  1        1 0.25137955E+00 0.14151457E+04</pdfrwt>
<pdfrwt beam="1">  1       -1 0.19927982E+00 0.14151457E+04</pdfrwt>
<totfact> 0.92258554E-01</totfact>
</mgrwt>
</event>
<event>
 8    1  0.1373409E-005  0.1200414E+04  0.7818608E-02  0.8606251E-01
          2   -1    0    0  502    0  0.00000000000E+00  0.00000000000E+00  0.96230884412E+03  0.96230884412E+03  0.00000000000E+00 0. -1.
         -2   -1    0    0    0  501 -0.00000000000E+00 -0.00000000000E+00 -0.15141275436E+04  0.15141275436E+04  0.00000000000E+00 0.  1.
    9000010    2    1    2  502    0  0.28200942150E+03  0.72273980986E+03 -0.14726725265E+03  0.11531611800E+04  0.84036356226E+03 0.  0.
   -9000010    2    1    2    0  501 -0.28200942150E+03 -0.72273980986E+03 -0.40455144678E+03  0.13232752077E+04  0.99273020282E+03 0.  0.
        -13    1    3    3    0    0  0.48380175240E+02  0.48919187270E+03 -0.47803305618E+03  0.68568574700E+03  0.10566000000E+00 0.  1.
          4    1    3    3  502    0  0.23362924626E+03  0.23354793716E+03  0.33076580354E+03  0.46747543299E+03  0.00000000000E+00 0.  1.
         13    1    4    4    0    0 -0.17608778783E+03 -0.89881391465E+03 -0.54684930927E+02  0.91753137005E+03  0.10566000000E+00 0. -1.
         -4    1    4    4    0  501 -0.10592163367E+03  0.17607410479E+03 -0.34986651585E+03  0.40574383763E+03  0.00000000000E+00 0. -1.
<mgrwt>
<rscale>  2 0.12004137E+04</rscale>
<asrwt>0</asrwt>
<pdfrwt beam="1">  1        2 0.14804751E+00 0.12004137E+04</pdfrwt>
<pdfrwt beam="2">  1       -2 0.23294270E+00 0.12004137E+04</pdfrwt>
<totfact> 0.21792514E+00</totfact>
</mgrwt>
</event>
<event>
 8    1  0.1373409E-005  0.1579918E+04  0.7818608E-02  0.8364935E-01
         -2   -1    0    0    0  501 -0.00000000000E+00  0.00000000000E+00  0.12949565033E+04  0.12949565033E+04  0.00000000000E+00 0.  1.
          2   -1    0    0  502    0  0.00000000000E+00 -0.00000000000E+00 -0.20931877019E+04  0.20931877019E+04  0.00000000000E+00 0. -1.
    9000010    2    1    2  502    0  0.11511638422E+04  0.46773956481E+03 -0.87158839680E+03  0.17904878245E+04  0.94985358034E+03 0.  0.
   -9000010    2    1    2    0  501 -0.11511638422E+04 -0.46773956481E+03  0.73357198187E+02  0.15976563806E+04  0.10015818189E+04 0.  0.
        -13    1    3    3    0    0  0.89741626068E+03  0.75554464199E+03 -0.58057896636E+03  0.13089215402E+04  0.10566000000E+00 0.  1.
          4    1    3    3  502    0  0.25374758154E+03 -0.28780507718E+03 -0.29100943043E+03  0.48156628431E+03  0.00000000000E+00 0.  1.
         13    1    4    4    0    0 -0.40480605736E+03  0.31428332562E+03  0.65083335882E+02  0.51660217248E+03  0.10566000000E+00 0. -1.
         -4    1    4    4    0  501 -0.74635778485E+03 -0.78202289043E+03  0.82738623049E+01  0.10810542082E+04  0.00000000000E+00 0. -1.
<mgrwt>
<rscale>  2 0.15799184E+04</rscale>
<asrwt>0</asrwt>
<pdfrwt beam="2">  1        2 0.32202888E+00 0.15799184E+04</pdfrwt>
<pdfrwt beam="1">  1       -2 0.19922408E+00 0.15799184E+04</pdfrwt>
<totfact> 0.91807146E-01</totfact>
</mgrwt>
</event>
<event>
 8    1  0.1373409E-005  0.1128559E+04  0.7818608E-02  0.8662393E-01
         -2   -1    0    0    0  501 -0.00000000000E+00  0.00000000000E+00  0.51590400077E+03  0.51590400077E+03  0.00000000000E+00 0. -1.
          2   -1    0    0  502    0  0.00000000000E+00 -0.00000000000E+00 -0.27763513781E+04  0.27763513781E+04  0.00000000000E+00 0.  1.
    9000010    2    1    2  502    0  0.11141479301E+03 -0.52450892832E+03 -0.16818661105E+04  0.20277815563E+04  0.99784846262E+03 0.  0.
   -9000010    2    1    2    0  501 -0.11141479301E+03  0.52450892832E+03 -0.57858126681E+03  0.12644738226E+04  0.98823827779E+03 0.  0.
        -13    1    3    3    0    0  0.24407579541E+03 -0.48652129133E+03 -0.17780997156E+04  0.18595468724E+04  0.10566000000E+00 0.  1.
          4    1    3    3  502    0 -0.13266100239E+03 -0.37987636986E+02  0.96233605086E+02  0.16823468390E+03  0.00000000000E+00 0.  1.
         13    1    4    4    0    0  0.13118669041E+02  0.57618750894E+03  0.89215951371E+02  0.58320120206E+03  0.10566000000E+00 0. -1.
         -4    1    4    4    0  501 -0.12453346206E+03 -0.51678580624E+02 -0.66779721818E+03  0.68127262052E+03  0.00000000000E+00 0. -1.
<mgrwt>
<rscale>  2 0.11285590E+04</rscale>
<asrwt>0</asrwt>
<pdfrwt beam="2">  1        2 0.42713098E+00 0.11285590E+04</pdfrwt>
<pdfrwt beam="1">  1       -2 0.79369846E-01 0.11285590E+04</pdfrwt>
<totfact> 0.52832299E+00</totfact>
</mgrwt>
</event>
<event>
 8    1  0.1373409E-005  0.1618234E+04  0.7818608E-02  0.8344527E-01
          2   -1    0    0  502    0  0.00000000000E+00  0.00000000000E+00  0.21606986962E+04  0.21606986962E+04  0.00000000000E+00 0. -1.
         -2   -1    0    0    0  501 -0.00000000000E+00 -0.00000000000E+00 -0.12659819193E+04  0.12659819193E+04  0.00000000000E+00 0.  1.
    9000010    2    1    2  502    0 -0.79739950385E+03 -0.10014965614E+04  0.80302052120E+03  0.18126596749E+04  0.10010253783E+04 0.  0.
   -9000010    2    1    2    0  501  0.79739950385E+03  0.10014965614E+04  0.91696255712E+02  0.16140209407E+04  0.97867975470E+03 0.  0.
        -13    1    3    3    0    0  0.17756304423E+03 -0.20132705367E+03 -0.71571406657E+02  0.27781953608E+03  0.10566000000E+00 0.  1.
          4    1    3    3  502    0 -0.97496254808E+03 -0.80016950776E+03  0.87459192785E+03  0.15348401388E+04  0.00000000000E+00 0.  1.
         13    1    4    4    0    0  0.55300252215E+02 -0.51601851724E+02  0.29964342562E+03  0.30904216974E+03  0.10566000000E+00 0. -1.
         -4    1    4    4    0  501  0.74209925164E+03  0.10530984132E+04 -0.20794716991E+03  0.13049787709E+04  0.00000000000E+00 0. -1.
<mgrwt>
<rscale>  2 0.16182339E+04</rscale>
<asrwt>0</asrwt>
<pdfrwt beam="1">  1        2 0.33241518E+00 0.16182339E+04</pdfrwt>
<pdfrwt beam="2">  1       -2 0.19476645E+00 0.16182339E+04</pdfrwt>
<totfact> 0.91422527E-01</totfact>
</mgrwt>
</event>
<event>
 8    1  0.1373409E-005  0.1100960E+04  0.7818608E-02  0.8685124E-01
         -2   -1    0    0    0  501 -0.00000000000E+00  0.00000000000E+00  0.59916582659E+03  0.59916582659E+03  0.00000000000E+00 0.  1.
          2   -1    0    0  502    0  0.00000000000E+00 -0.00000000000E+00 -0.20455140405E+04  0.20455140405E+04  0.00000000000E+00 0. -1.
    9000010    2    1    2  502    0  0.30250321734E+03 -0.43623160469E+03 -0.87318693552E+03  0.14217667523E+04  0.98851356299E+03 0.  0.
   -9000010    2    1    2    0  501 -0.30250321734E+03  0.43623160469E+03 -0.57316127843E+03  0.12229131148E+04  0.94084877948E+03 0.  0.
        -13    1    3    3    0    0 -0.15285234652E+03  0.10769847000E+03 -0.65264526478E+03  0.67890253578E+03  0.10566000000E+00 0.  1.
          4    1    3    3  502    0  0.45535556387E+03 -0.54393007468E+03 -0.22054167074E+03  0.74286421654E+03  0.00000000000E+00 0.  1.
         13    1    4    4    0    0 -0.41927180195E+03  0.27825373702E+03  0.10742448030E+03  0.51454253100E+03  0.10566000000E+00 0. -1.
         -4    1    4    4    0  501  0.11676858461E+03  0.15797786767E+03 -0.68058575873E+03  0.70837058381E+03  0.00000000000E+00 0. -1.
<mgrwt>
<rscale>  2 0.11009596E+04</rscale>
<asrwt>0</asrwt>
<pdfrwt beam="2">  1        2 0.31469447E+00 0.11009596E+04</pdfrwt>
<pdfrwt beam="1">  1       -2 0.92179358E-01 0.11009596E+04</pdfrwt>
<totfact> 0.96801798E+00</totfact>
</mgrwt>
</event>
<event>
 8    1  0.1373409E-005  0.1222033E+04  0.7818608E-02  0.8590153E-01
         -2   -1    0    0    0  501 -0.00000000000E+00  0.00000000000E+00  0.16277606615E+04  0.16277606615E+04  0.00000000000E+00 0. -1.
          2   -1    0    0  502    0  0.00000000000E+00 -0.00000000000E+00 -0.92297891720E+03  0.92297891720E+03  0.00000000000E+00 0.  1.
    9000010    2    1    2  502    0  0.71109598322E+03  0.36327081820E+02  0.45228678954E+03  0.13067700381E+04  0.99805182139E+03 0.  0.
   -9000010    2    1    2    0  501 -0.71109598322E+03 -0.36327081820E+02  0.25249495474E+03  0.12439695406E+04  0.98829619120E+03 0.  0.
        -13    1    3    3    0    0 -0.24198704990E+03  0.11774437222E+03  0.11205693614E+03  0.29151027016E+03  0.10566000000E+00 0.  1.
          4    1    3    3  502    0  0.95308303312E+03 -0.81417290400E+02  0.34022985341E+03  0.10152597679E+04  0.00000000000E+00 0.  1.
         13    1    4    4    0    0 -0.86922709797E+03  0.19738874307E+03  0.42769920774E+02  0.89238295649E+03  0.10566000000E+00 0. -1.
         -4    1    4    4    0  501  0.15813111475E+03 -0.23371582489E+03  0.20972503396E+03  0.35158658411E+03  0.00000000000E+00 0. -1.
<mgrwt>
<rscale>  2 0.12220328E+04</rscale>
<asrwt>0</asrwt>
<pdfrwt beam="2">  1        2 0.14199676E+00 0.12220328E+04</pdfrwt>
<pdfrwt beam="1">  1       -2 0.25042472E+00 0.12220328E+04</pdfrwt>
<totfact> 0.16783089E+00</totfact>
</mgrwt>
</event>
<event>
 8    1  0.1373409E-005  0.1235444E+04  0.7818608E-02  0.8580340E-01
          2   -1    0    0  502    0  0.00000000000E+00  0.00000000000E+00  0.14408058617E+04  0.14408058617E+04  0.00000000000E+00 0.  1.
         -2   -1    0    0    0  501 -0.00000000000E+00 -0.00000000000E+00 -0.18425463830E+04  0.18425463830E+04  0.00000000000E+00 0. -1.
    9000010    2    1    2  502    0 -0.70863408480E+03  0.13362528287E+03  0.86960834429E+03  0.15093890419E+04  0.10010088036E+04 0.  0.
   -9000010    2    1    2    0  501  0.70863408480E+03 -0.13362528287E+03 -0.12713488656E+04  0.17739632028E+04  0.10052857925E+04 0.  0.
        -13    1    3    3    0    0 -0.16087973526E+03  0.99128005409E+02  0.93751022098E+03  0.95636503296E+03  0.10566000000E+00 0.  1.
          4    1    3    3  502    0 -0.54775434954E+03  0.34497277464E+02 -0.67901876692E+02  0.55302400893E+03  0.00000000000E+00 0.  1.
         13    1    4    4    0    0  0.20161991777E+03 -0.46598602667E+03 -0.97474583736E+03  0.10990555158E+04  0.10566000000E+00 0. -1.
         -4    1    4    4    0  501  0.50701416704E+03  0.33236074380E+03 -0.29660302820E+03  0.67490768697E+03  0.00000000000E+00 0. -1.
<mgrwt>
<rscale>  2 0.12354437E+04</rscale>
<asrwt>0</asrwt>
<pdfrwt beam="1">  1        2 0.22166244E+00 0.12354437E+04</pdfrwt>
<pdfrwt beam="2">  1       -2 0.28346868E+00 0.12354437E+04</pdfrwt>
<totfact> 0.47084233E-01</totfact>
</mgrwt>
</event>
<event>
 8    1  0.1373409E-005  0.1360375E+04  0.7818608E-02  0.8494686E-01
         -4   -1    0    0    0  501 -0.00000000000E+00  0.00000000000E+00  0.92770537337E+03  0.92770537337E+03  0.00000000000E+00 0. -1.
          4   -1    0    0  502    0  0.00000000000E+00 -0.00000000000E+00 -0.20156958997E+04  0.20156958997E+04  0.00000000000E+00 0.  1.
    9000010    2    1    2  502    0 -0.61022770495E+03  0.68994460868E+03 -0.69610423323E+03  0.15339012336E+04  0.10098962699E+04 0.  0.
   -9000010    2    1    2    0  501  0.61022770495E+03 -0.68994460868E+03 -0.39188629312E+03  0.14095000395E+04  0.99232760704E+03 0.  0.
        -13    1    3    3    0    0 -0.25690773679E+02 -0.20699408028E+03 -0.35236583512E+03  0.40947314692E+03  0.10566000000E+00 0.  1.
          4    1    3    3  502    0 -0.58453693127E+03  0.89693868896E+03 -0.34373839811E+03  0.11244280867E+04  0.00000000000E+00 0.  1.
         13    1    4    4    0    0  0.38662659613E+03 -0.51872948942E+02  0.26120564896E+03  0.46946707007E+03  0.10566000000E+00 0. -1.
         -4    1    4    4    0  501  0.22360110882E+03 -0.63807165974E+03 -0.65309194208E+03  0.94003296944E+03  0.00000000000E+00 0. -1.
<mgrwt>
<rscale>  2 0.13603750E+04</rscale>
<asrwt>0</asrwt>
<pdfrwt beam="2">  1        4 0.31010706E+00 0.13603750E+04</pdfrwt>
<pdfrwt beam="1">  1       -4 0.14272390E+00 0.13603750E+04</pdfrwt>
<totfact> 0.15139308E-01</totfact>
</mgrwt>
</event>
<event>
 8    1  0.1373409E-005  0.1125112E+04  0.7818608E-02  0.8665195E-01
          2   -1    0    0  502    0  0.00000000000E+00  0.00000000000E+00  0.21050188474E+04  0.21050188474E+04  0.00000000000E+00 0. -1.
         -2   -1    0    0    0  501 -0.00000000000E+00 -0.00000000000E+00 -0.63590171014E+03  0.63590171014E+03  0.00000000000E+00 0.  1.
    9000010    2    1    2  502    0 -0.13863189478E+03 -0.51021680516E+03  0.42119431486E+03  0.12102508684E+04  0.10038737585E+04 0.  0.
   -9000010    2    1    2    0  501  0.13863189478E+03  0.51021680516E+03  0.10479228224E+04  0.15306696891E+04  0.98248026189E+03 0.  0.
        -13    1    3    3    0    0 -0.11052079112E+02 -0.66591867224E+03 -0.79375255736E+02  0.67072369041E+03  0.10566000000E+00 0.  1.
          4    1    3    3  502    0 -0.12757981567E+03  0.15570186709E+03  0.50056957060E+03  0.53952717799E+03  0.00000000000E+00 0.  1.
         13    1    4    4    0    0  0.11837030924E+01 -0.18185049728E+03  0.73790170598E+03  0.75998022564E+03  0.10566000000E+00 0. -1.
         -4    1    4    4    0  501  0.13744819169E+03  0.69206730244E+03  0.31002111640E+03  0.77068946348E+03  0.00000000000E+00 0. -1.
<mgrwt>
<rscale>  2 0.11251119E+04</rscale>
<asrwt>0</asrwt>
<pdfrwt beam="1">  1        2 0.32384905E+00 0.11251119E+04</pdfrwt>
<pdfrwt beam="2">  1       -2 0.97831033E-01 0.11251119E+04</pdfrwt>
<totfact> 0.77902284E+00</totfact>
</mgrwt>
</event>
<event>
 8    1  0.1373409E-005  0.1301687E+04  0.7818608E-02  0.8533687E-01
         -2   -1    0    0    0  501 -0.00000000000E+00  0.00000000000E+00  0.49097575422E+03  0.49097575422E+03  0.00000000000E+00 0.  1.
          2   -1    0    0  502    0  0.00000000000E+00 -0.00000000000E+00 -0.34576737774E+04  0.34576737774E+04  0.00000000000E+00 0. -1.
    9000010    2    1    2  502    0  0.65726558300E+03  0.52546720037E+03 -0.15674098031E+04  0.20362040770E+04  0.99057545249E+03 0.  0.
   -9000010    2    1    2    0  501 -0.65726558300E+03 -0.52546720037E+03 -0.13992882201E+04  0.19124454546E+04  0.99565368918E+03 0.  0.
        -13    1    3    3    0    0  0.73969463796E+03  0.17109404643E+02 -0.11758041219E+04  0.13892286469E+04  0.10566000000E+00 0.  1.
          4    1    3    3  502    0 -0.82429054957E+02  0.50835779573E+03 -0.39160568114E+03  0.64697543004E+03  0.00000000000E+00 0.  1.
         13    1    4    4    0    0 -0.49715660554E+02  0.34799201321E+02 -0.98700600672E+03  0.98886980932E+03  0.10566000000E+00 0. -1.
         -4    1    4    4    0  501 -0.60754992245E+03 -0.56026640169E+03 -0.41228221334E+03  0.92357564529E+03  0.00000000000E+00 0. -1.
<mgrwt>
<rscale>  2 0.13016871E+04</rscale>
<asrwt>0</asrwt>
<pdfrwt beam="2">  1        2 0.53194983E+00 0.13016871E+04</pdfrwt>
<pdfrwt beam="1">  1       -2 0.75534729E-01 0.13016871E+04</pdfrwt>
<totfact> 0.21013795E+00</totfact>
</mgrwt>
</event>
<event>
 8    1  0.1373409E-005  0.1395888E+04  0.7818608E-02  0.8472055E-01
         -1   -1    0    0    0  501 -0.00000000000E+00  0.00000000000E+00  0.11041067459E+04  0.11041067459E+04  0.00000000000E+00 0.  1.
          1   -1    0    0  502    0  0.00000000000E+00 -0.00000000000E+00 -0.30064319497E+04  0.30064319497E+04  0.00000000000E+00 0. -1.
    9000010    2    1    2  502    0 -0.27825262230E+03  0.93453119837E+03 -0.22735822671E+04  0.26700118250E+04  0.10044967585E+04 0.  0.
   -9000010    2    1    2    0  501  0.27825262230E+03 -0.93453119837E+03  0.37125706327E+03  0.14405268705E+04  0.99323349479E+03 0.  0.
        -13    1    3    3    0    0 -0.77269201304E+02 -0.20980012018E+03 -0.52500335630E+03  0.57062698428E+03  0.10566000000E+00 0.  1.
          4    1    3    3  502    0 -0.20098342100E+03  0.11443313185E+04 -0.17485789108E+04  0.20993848407E+04  0.00000000000E+00 0.  1.
         13    1    4    4    0    0  0.29991397246E+03 -0.36049256478E+03 -0.30025820825E+03  0.55682877344E+03  0.10566000000E+00 0. -1.
         -4    1    4    4    0  501 -0.21661350159E+02 -0.57403863359E+03  0.67151527152E+03  0.88369809711E+03  0.00000000000E+00 0. -1.
<mgrwt>
<rscale>  2 0.13958882E+04</rscale>
<asrwt>0</asrwt>
<pdfrwt beam="2">  1        1 0.46252800E+00 0.13958882E+04</pdfrwt>
<pdfrwt beam="1">  1       -1 0.16986257E+00 0.13958882E+04</pdfrwt>
<totfact> 0.10840126E-01</totfact>
</mgrwt>
</event>
<event>
 8    1  0.1373409E-005  0.1110338E+04  0.7818608E-02  0.8677322E-01
          2   -1    0    0  502    0  0.00000000000E+00  0.00000000000E+00  0.14291889774E+04  0.14291889774E+04  0.00000000000E+00 0. -1.
         -2   -1    0    0    0  501 -0.00000000000E+00 -0.00000000000E+00 -0.92512624096E+03  0.92512624096E+03  0.00000000000E+00 0.  1.
    9000010    2    1    2  502    0  0.27883899785E+03  0.48572305175E+03 -0.58255625664E+02  0.10858185794E+04  0.92840196024E+03 0.  0.
   -9000010    2    1    2    0  501 -0.27883899785E+03 -0.48572305175E+03  0.56231836212E+03  0.12684966390E+04  0.98954722623E+03 0.  0.
        -13    1    3    3    0    0 -0.14869840378E+03  0.57985856060E+03  0.12449028995E+03  0.61142866227E+03  0.10566000000E+00 0.  1.
          4    1    3    3  502    0  0.42753740163E+03 -0.94135508851E+02 -0.18274591561E+03  0.47438991715E+03  0.00000000000E+00 0.  1.
         13    1    4    4    0    0  0.11833832016E+03 -0.82997651761E+02 -0.24398060099E+03  0.28358263882E+03  0.10566000000E+00 0. -1.
         -4    1    4    4    0  501 -0.39717731801E+03 -0.40272539999E+03  0.80629896312E+03  0.98491400013E+03  0.00000000000E+00 0. -1.
<mgrwt>
<rscale>  2 0.11103384E+04</rscale>
<asrwt>0</asrwt>
<pdfrwt beam="1">  1        2 0.21987523E+00 0.11103384E+04</pdfrwt>
<pdfrwt beam="2">  1       -2 0.14232711E+00 0.11103384E+04</pdfrwt>
<totfact> 0.67959893E+00</totfact>
</mgrwt>
</event>
<event>
 8    1  0.1373409E-005  0.1752686E+04  0.7818608E-02  0.8277274E-01
          2   -1    0    0  502    0  0.00000000000E+00  0.00000000000E+00  0.37660188724E+04  0.37660188724E+04  0.00000000000E+00 0. -1.
         -2   -1    0    0    0  501 -0.00000000000E+00 -0.00000000000E+00 -0.84943908168E+03  0.84943908168E+03  0.00000000000E+00 0.  1.
    9000010    2    1    2  502    0 -0.14008613233E+04  0.31170925116E+03  0.19167530813E+04  0.25960020765E+04  0.10028505882E+04 0.  0.
   -9000010    2    1    2    0  501  0.14008613233E+04 -0.31170925116E+03  0.99982670945E+03  0.20194558776E+04  0.10094421668E+04 0.  0.
        -13    1    3    3    0    0 -0.82291722384E+03 -0.15686198180E+02  0.35024923659E+03  0.89449055501E+03  0.10566000000E+00 0.  1.
          4    1    3    3  502    0 -0.57794409950E+03  0.32739544934E+03  0.15665038447E+04  0.17015115215E+04  0.00000000000E+00 0.  1.
         13    1    4    4    0    0 -0.27171237394E+02 -0.23099872799E+03  0.41188314172E+03  0.47301841621E+03  0.10566000000E+00 0. -1.
         -4    1    4    4    0  501  0.14280325607E+04 -0.80710523175E+02  0.58794356773E+03  0.15464374614E+04  0.00000000000E+00 0. -1.
<mgrwt>
<rscale>  2 0.17526863E+04</rscale>
<asrwt>0</asrwt>
<pdfrwt beam="1">  1        2 0.57938751E+00 0.17526863E+04</pdfrwt>
<pdfrwt beam="2">  1       -2 0.13068294E+00 0.17526863E+04</pdfrwt>
<totfact> 0.30021191E-01</totfact>
</mgrwt>
</event>
<event>
 8    1  0.1373409E-005  0.1132358E+04  0.7818608E-02  0.8659316E-01
          1   -1    0    0  502    0  0.00000000000E+00  0.00000000000E+00  0.26099541511E+03  0.26099541511E+03  0.00000000000E+00 0.  1.
         -1   -1    0    0    0  501 -0.00000000000E+00 -0.00000000000E+00 -0.49409998615E+04  0.49409998615E+04  0.00000000000E+00 0. -1.
    9000010    2    1    2  502    0 -0.52543663194E+03 -0.88003181517E+02 -0.21244458170E+04  0.24026955990E+04  0.98785013947E+03 0.  0.
   -9000010    2    1    2    0  501  0.52543663194E+03  0.88003181517E+02 -0.25555586294E+04  0.27992996776E+04  0.10106287957E+04 0.  0.
        -13    1    3    3    0    0 -0.58928253524E+03 -0.18433112410E+03 -0.55870688860E+03  0.83269758507E+03  0.10566000000E+00 0.  1.
          4    1    3    3  502    0  0.63845903298E+02  0.96327942580E+02 -0.15657389284E+04  0.15699980140E+04  0.00000000000E+00 0.  1.
         13    1    4    4    0    0  0.15485683908E+02 -0.14015221211E+03 -0.20215680011E+04  0.20264796182E+04  0.10566000000E+00 0. -1.
         -4    1    4    4    0  501  0.50995094803E+03  0.22815539363E+03 -0.53399062833E+03  0.77282005939E+03  0.00000000000E+00 0. -1.
<mgrwt>
<rscale>  2 0.11323584E+04</rscale>
<asrwt>0</asrwt>
<pdfrwt beam="1">  1        1 0.40153143E-01 0.11323584E+04</pdfrwt>
<pdfrwt beam="2">  1       -1 0.76015379E+00 0.11323584E+04</pdfrwt>
<totfact> 0.78036260E-02</totfact>
</mgrwt>
</event>
<event>
 8    1  0.1373409E-005  0.1115436E+04  0.7818608E-02  0.8673116E-01
          1   -1    0    0  502    0  0.00000000000E+00  0.00000000000E+00  0.84037210084E+03  0.84037210084E+03  0.00000000000E+00 0.  1.
         -1   -1    0    0    0  501 -0.00000000000E+00 -0.00000000000E+00 -0.15684827138E+04  0.15684827138E+04  0.00000000000E+00 0. -1.
    9000010    2    1    2  502    0 -0.60920352236E+02  0.51728934378E+03 -0.65322803483E+03  0.13049826142E+04  0.10024835178E+04 0.  0.
   -9000010    2    1    2    0  501  0.60920352236E+02 -0.51728934378E+03 -0.74882578171E+02  0.11038722005E+04  0.97037460804E+03 0.  0.
        -13    1    3    3    0    0  0.10776310485E+03 -0.26911173668E+03 -0.32715490482E+03  0.43710908992E+03  0.10566000000E+00 0.  1.
          4    1    3    3  502    0 -0.16868345709E+03  0.78640108046E+03 -0.32607313001E+03  0.86787352429E+03  0.00000000000E+00 0.  1.
         13    1    4    4    0    0  0.41283371836E+03 -0.49399951022E+03 -0.27307970360E+03  0.69931375705E+03  0.10566000000E+00 0. -1.
         -4    1    4    4    0  501 -0.35191336613E+03 -0.23289833564E+02  0.19819712543E+03  0.40455844341E+03  0.00000000000E+00 0. -1.
<mgrwt>
<rscale>  2 0.11154356E+04</rscale>
<asrwt>0</asrwt>
<pdfrwt beam="1">  1        1 0.12928802E+00 0.11154356E+04</pdfrwt>
<pdfrwt beam="2">  1       -1 0.24130503E+00 0.11154356E+04</pdfrwt>
<totfact> 0.16256447E+00</totfact>
</mgrwt>
</event>
<event>
 8    1  0.1373409E-005  0.1588149E+04  0.7818608E-02  0.8360501E-01
         -2   -1    0    0    0  501 -0.00000000000E+00  0.00000000000E+00  0.92507417270E+03  0.92507417270E+03  0.00000000000E+00 0.  1.
          2   -1    0    0  502    0  0.00000000000E+00 -0.00000000000E+00 -0.28980335414E+04  0.28980335414E+04  0.00000000000E+00 0. -1.
    9000010    2    1    2  502    0  0.57589131548E+03  0.10990228882E+04 -0.51502784556E+03  0.16588848719E+04  0.97321283407E+03 0.  0.
   -9000010    2    1    2    0  501 -0.57589131548E+03 -0.10990228882E+04 -0.14579315231E+04  0.21642228422E+04  0.10093532922E+04 0.  0.
        -13    1    3    3    0    0 -0.77862729149E+02  0.79773017091E+03 -0.52467001589E+02  0.80323647053E+03  0.10566000000E+00 0.  1.
          4    1    3    3  502    0  0.65375404463E+03  0.30129271732E+03 -0.46256084397E+03  0.85564840137E+03  0.00000000000E+00 0.  1.
         13    1    4    4    0    0 -0.38298483523E+03 -0.10172817267E+04 -0.52329159798E+03  0.12063886617E+04  0.10566000000E+00 0. -1.
         -4    1    4    4    0  501 -0.19290648025E+03 -0.81741161561E+02 -0.93463992515E+03  0.95783418049E+03  0.00000000000E+00 0. -1.
<mgrwt>
<rscale>  2 0.15881487E+04</rscale>
<asrwt>0</asrwt>
<pdfrwt beam="2">  1        2 0.44585131E+00 0.15881487E+04</pdfrwt>
<pdfrwt beam="1">  1       -2 0.14231911E+00 0.15881487E+04</pdfrwt>
<totfact> 0.97670040E-01</totfact>
</mgrwt>
</event>
<event>
 8    1  0.1373409E-005  0.1624280E+04  0.7818608E-02  0.8341360E-01
          2   -1    0    0  502    0  0.00000000000E+00  0.00000000000E+00  0.19860136456E+04  0.19860136456E+04  0.00000000000E+00 0. -1.
         -2   -1    0    0    0  501 -0.00000000000E+00 -0.00000000000E+00 -0.13293091256E+04  0.13293091256E+04  0.00000000000E+00 0.  1.
    9000010    2    1    2  502    0  0.11764708584E+04 -0.52558750367E+03  0.36991312393E+03  0.16619756082E+04  0.98234479618E+03 0.  0.
   -9000010    2    1    2    0  501 -0.11764708584E+04  0.52558750367E+03  0.28679139611E+03  0.16533471629E+04  0.99548060338E+03 0.  0.
        -13    1    3    3    0    0  0.23247229613E+02  0.22337098686E+03  0.14835366506E+03  0.26915395698E+03  0.10566000000E+00 0.  1.
          4    1    3    3  502    0  0.11532236287E+04 -0.74895849053E+03  0.22155945887E+03  0.13928216513E+04  0.00000000000E+00 0.  1.
         13    1    4    4    0    0 -0.54691558601E+03  0.56868238670E+03 -0.24707866367E+03  0.82677940974E+03  0.10566000000E+00 0. -1.
         -4    1    4    4    0  501 -0.62955527234E+03 -0.43094883029E+02  0.53387005978E+03  0.82656775319E+03  0.00000000000E+00 0. -1.
<mgrwt>
<rscale>  2 0.16242800E+04</rscale>
<asrwt>0</asrwt>
<pdfrwt beam="1">  1        2 0.30554056E+00 0.16242800E+04</pdfrwt>
<pdfrwt beam="2">  1       -2 0.20450910E+00 0.16242800E+04</pdfrwt>
<totfact> 0.94665381E-01</totfact>
</mgrwt>
</event>
<event>
 8    1  0.1373409E-005  0.1067453E+04  0.7818608E-02  0.8713672E-01
          2   -1    0    0  502    0  0.00000000000E+00  0.00000000000E+00  0.11373264227E+04  0.11373264227E+04  0.00000000000E+00 0.  1.
         -2   -1    0    0    0  501 -0.00000000000E+00 -0.00000000000E+00 -0.11400046660E+04  0.11400046660E+04  0.00000000000E+00 0. -1.
    9000010    2    1    2  502    0  0.19564783291E+03  0.33591370892E+03  0.39502007390E+03  0.11384057076E+04  0.99438956244E+03 0.  0.
   -9000010    2    1    2    0  501 -0.19564783291E+03 -0.33591370892E+03 -0.39769831718E+03  0.11389253811E+04  0.99391698739E+03 0.  0.
        -13    1    3    3    0    0 -0.30997907375E+03 -0.16699782245E+03  0.94786590981E+02  0.36463654213E+03  0.10566000000E+00 0.  1.
          4    1    3    3  502    0  0.50562690666E+03  0.50291153137E+03  0.30023348292E+03  0.77376916544E+03  0.00000000000E+00 0.  1.
         13    1    4    4    0    0  0.62012614879E+02  0.32595619310E+03 -0.15026775670E+02  0.33214276957E+03  0.10566000000E+00 0. -1.
         -4    1    4    4    0  501 -0.25766044779E+03 -0.66186990203E+03 -0.38267154151E+03  0.80678261152E+03  0.00000000000E+00 0. -1.
<mgrwt>
<rscale>  2 0.10674534E+04</rscale>
<asrwt>0</asrwt>
<pdfrwt beam="1">  1        2 0.17497330E+00 0.10674534E+04</pdfrwt>
<pdfrwt beam="2">  1       -2 0.17538533E+00 0.10674534E+04</pdfrwt>
<totfact> 0.51575452E+00</totfact>
</mgrwt>
</event>
<event>
 8    1  0.1373409E-005  0.1184037E+04  0.7818608E-02  0.8618681E-01
          2   -1    0    0  502    0  0.00000000000E+00  0.00000000000E+00  0.20195239358E+04  0.20195239358E+04  0.00000000000E+00 0.  1.
         -2   -1    0    0    0  501 -0.00000000000E+00 -0.00000000000E+00 -0.73730612676E+03  0.73730612676E+03  0.00000000000E+00 0. -1.
    9000010    2    1    2  502    0  0.41876514018E+03 -0.56174262471E+03  0.33398240000E+03  0.12731385491E+04  0.10091672323E+04 0.  0.
   -9000010    2    1    2    0  501 -0.41876514018E+03  0.56174262471E+03  0.94823540903E+03  0.14836915134E+04  0.90070588818E+03 0.  0.
        -13    1    3    3    0    0  0.45432519893E+03  0.10501778677E+03  0.38328605731E+03  0.60361273580E+03  0.10566000000E+00 0.  1.
          4    1    3    3  502    0 -0.35560058754E+02 -0.66676041148E+03 -0.49303657313E+02  0.66952581333E+03  0.00000000000E+00 0.  1.
         13    1    4    4    0    0 -0.40006745240E+03  0.80386100200E+03  0.76194988252E+03  0.11776307196E+04  0.10566000000E+00 0. -1.
         -4    1    4    4    0  501 -0.18697687780E+02 -0.24211837729E+03  0.18628552650E+03  0.30606079386E+03  0.00000000000E+00 0. -1.
<mgrwt>
<rscale>  2 0.11840368E+04</rscale>
<asrwt>0</asrwt>
<pdfrwt beam="1">  1        2 0.31069599E+00 0.11840368E+04</pdfrwt>
<pdfrwt beam="2">  1       -2 0.11343171E+00 0.11840368E+04</pdfrwt>
<totfact> 0.59849383E+00</totfact>
</mgrwt>
</event>
<event>
 8    1  0.1373409E-005  0.1900257E+04  0.7818608E-02  0.8210256E-01
          2   -1    0    0  502    0  0.00000000000E+00  0.00000000000E+00  0.17882612924E+04  0.17882612924E+04  0.00000000000E+00 0.  1.
         -2   -1    0    0    0  501 -0.00000000000E+00 -0.00000000000E+00 -0.21987311002E+04  0.21987311002E+04  0.00000000000E+00 0. -1.
    9000010    2    1    2  502    0 -0.15941824320E+04  0.25951210221E+03  0.36485814683E+03  0.19290652190E+04  0.98964993513E+03 0.  0.
   -9000010    2    1    2    0  501  0.15941824320E+04 -0.25951210221E+03 -0.77532795461E+03  0.20579271737E+04  0.10125051394E+04 0.  0.
        -13    1    3    3    0    0 -0.16538222798E+04  0.15653054244E+03  0.13063283231E+03  0.16663417692E+04  0.10566000000E+00 0.  1.
          4    1    3    3  502    0  0.59639847778E+02  0.10298155977E+03  0.23422531452E+03  0.26272344977E+03  0.00000000000E+00 0.  1.
         13    1    4    4    0    0  0.43075108089E+03 -0.20672215676E+03  0.21992376659E+03  0.52597244991E+03  0.10566000000E+00 0. -1.
         -4    1    4    4    0  501  0.11634313511E+04 -0.52789945446E+02 -0.99525172120E+03  0.15319547238E+04  0.00000000000E+00 0. -1.
<mgrwt>
<rscale>  2 0.19002575E+04</rscale>
<asrwt>0</asrwt>
<pdfrwt beam="1">  1        2 0.27511712E+00 0.19002575E+04</pdfrwt>
<pdfrwt beam="2">  1       -2 0.33826632E+00 0.19002575E+04</pdfrwt>
<totfact> 0.12197068E-01</totfact>
</mgrwt>
</event>
<event>
 8    1  0.1373409E-005  0.1254170E+04  0.7818608E-02  0.8566850E-01
          1   -1    0    0  502    0  0.00000000000E+00  0.00000000000E+00  0.15504545825E+04  0.15504545825E+04  0.00000000000E+00 0.  1.
         -1   -1    0    0    0  501 -0.00000000000E+00 -0.00000000000E+00 -0.10312365064E+04  0.10312365064E+04  0.00000000000E+00 0. -1.
    9000010    2    1    2  502    0  0.68430824959E+03  0.27673295592E+03  0.42234233566E+03  0.13163438893E+04  0.10047533414E+04 0.  0.
   -9000010    2    1    2    0  501 -0.68430824959E+03 -0.27673295592E+03  0.96875740372E+02  0.12653471996E+04  0.10231616281E+04 0.  0.
        -13    1    3    3    0    0  0.33998309551E+02  0.93388560879E+02  0.60765646913E+03  0.61573022014E+03  0.10566000000E+00 0.  1.
          4    1    3    3  502    0  0.65030994003E+03  0.18334439504E+03 -0.18531413347E+03  0.70061366912E+03  0.00000000000E+00 0.  1.
         13    1    4    4    0    0 -0.20100154847E+03  0.33885665255E+03 -0.18267089493E+03  0.43427424570E+03  0.10566000000E+00 0. -1.
         -4    1    4    4    0  501 -0.48330670112E+03 -0.61558960847E+03  0.27954663530E+03  0.83107295391E+03  0.00000000000E+00 0. -1.
<mgrwt>
<rscale>  2 0.12541701E+04</rscale>
<asrwt>0</asrwt>
<pdfrwt beam="1">  1        1 0.23853147E+00 0.12541701E+04</pdfrwt>
<pdfrwt beam="2">  1       -1 0.15865177E+00 0.12541701E+04</pdfrwt>
<totfact> 0.24658655E+00</totfact>
</mgrwt>
</event>
<event>
 8    1  0.1373409E-005  0.1319503E+04  0.7818608E-02  0.8521627E-01
          1   -1    0    0  502    0  0.00000000000E+00  0.00000000000E+00  0.11653600587E+04  0.11653600587E+04  0.00000000000E+00 0. -1.
         -1   -1    0    0    0  501 -0.00000000000E+00 -0.00000000000E+00 -0.16042606196E+04  0.16042606196E+04  0.00000000000E+00 0.  1.
    9000010    2    1    2  502    0 -0.26286254905E+03  0.69952176934E+03  0.14722125564E+03  0.12652624416E+04  0.10103403004E+04 0.  0.
   -9000010    2    1    2    0  501  0.26286254905E+03 -0.69952176934E+03 -0.58612181657E+03  0.15043582367E+04  0.11666736883E+04 0.  0.
        -13    1    3    3    0    0  0.12980072605E+03  0.21757745683E+03  0.49272618567E+03  0.55404628273E+03  0.10566000000E+00 0.  1.
          4    1    3    3  502    0 -0.39266327510E+03  0.48194431251E+03 -0.34550493003E+03  0.71121615888E+03  0.00000000000E+00 0.  1.
         13    1    4    4    0    0  0.57586913795E+03 -0.61491502775E+03 -0.76159522988E+03  0.11356817603E+04  0.10566000000E+00 0. -1.
         -4    1    4    4    0  501 -0.31300658890E+03 -0.84606741588E+02  0.17547341332E+03  0.36867647633E+03  0.00000000000E+00 0. -1.
<mgrwt>
<rscale>  2 0.13195032E+04</rscale>
<asrwt>0</asrwt>
<pdfrwt beam="1">  1        1 0.17928616E+00 0.13195032E+04</pdfrwt>
<pdfrwt beam="2">  1       -1 0.24680932E+00 0.13195032E+04</pdfrwt>
<totfact> 0.75893736E-01</totfact>
</mgrwt>
</event>
<event>
 8    1  0.1373409E-005  0.1243804E+04  0.7818608E-02  0.8574287E-01
          2   -1    0    0  502    0  0.00000000000E+00  0.00000000000E+00  0.15245801107E+04  0.15245801107E+04  0.00000000000E+00 0.  1.
         -2   -1    0    0    0  501 -0.00000000000E+00 -0.00000000000E+00 -0.13755086313E+04  0.13755086313E+04  0.00000000000E+00 0. -1.
    9000010    2    1    2  502    0 -0.56198091476E+02  0.74582041601E+03 -0.66799571749E+03  0.14135027940E+04  0.99617546230E+03 0.  0.
   -9000010    2    1    2    0  501  0.56198091476E+02 -0.74582041601E+03  0.81706719689E+03  0.14865859480E+04  0.99142960329E+03 0.  0.
        -13    1    3    3    0    0 -0.52227373650E+03  0.34050937568E+03 -0.27506597308E+03  0.68145270670E+03  0.10566000000E+00 0.  1.
          4    1    3    3  502    0  0.46607564502E+03  0.40531104033E+03 -0.39292974441E+03  0.73205008731E+03  0.00000000000E+00 0.  1.
         13    1    4    4    0    0  0.30151446182E+03  0.12510848303E+03  0.30586299613E+03  0.44734247147E+03  0.10566000000E+00 0. -1.
         -4    1    4    4    0  501 -0.24531637034E+03 -0.87092889904E+03  0.51120420076E+03  0.10392434766E+04  0.00000000000E+00 0. -1.
<mgrwt>
<rscale>  2 0.12438039E+04</rscale>
<asrwt>0</asrwt>
<pdfrwt beam="1">  1        2 0.23455079E+00 0.12438039E+04</pdfrwt>
<pdfrwt beam="2">  1       -2 0.21161671E+00 0.12438039E+04</pdfrwt>
<totfact> 0.15392500E+00</totfact>
</mgrwt>
</event>
<event>
 8    1  0.1373409E-005  0.1274960E+04  0.7818608E-02  0.8552157E-01
          2   -1    0    0  502    0  0.00000000000E+00  0.00000000000E+00  0.19493917767E+04  0.19493917767E+04  0.00000000000E+00 0.  1.
         -2   -1    0    0    0  501 -0.00000000000E+00 -0.00000000000E+00 -0.88898533394E+03  0.88898533394E+03  0.00000000000E+00 0. -1.
    9000010    2    1    2  502    0 -0.79761824353E+03  0.22506268394E+02  0.17626498528E+03  0.12857026584E+04  0.99260293485E+03 0.  0.
   -9000010    2    1    2    0  501  0.79761824353E+03 -0.22506268394E+02  0.88414145752E+03  0.15526744523E+04  0.99618795581E+03 0.  0.
        -13    1    3    3    0    0  0.21696403617E+03 -0.54009209966E+02 -0.78261143769E+02  0.23688648239E+03  0.10566000000E+00 0.  1.
          4    1    3    3  502    0 -0.10145822797E+04  0.76515478360E+02  0.25452612904E+03  0.10488161760E+04  0.00000000000E+00 0.  1.
         13    1    4    4    0    0  0.56432930897E+03  0.38712775474E+03  0.83365676893E+03  0.10785727083E+04  0.10566000000E+00 0. -1.
         -4    1    4    4    0  501  0.23328893456E+03 -0.40963402313E+03  0.50484688592E+02  0.47410174401E+03  0.00000000000E+00 0. -1.
<mgrwt>
<rscale>  2 0.12749600E+04</rscale>
<asrwt>0</asrwt>
<pdfrwt beam="1">  1        2 0.29990642E+00 0.12749600E+04</pdfrwt>
<pdfrwt beam="2">  1       -2 0.13676698E+00 0.12749600E+04</pdfrwt>
<totfact> 0.39006324E+00</totfact>
</mgrwt>
</event>
<event>
 8    1  0.1373409E-005  0.1150369E+04  0.7818608E-02  0.8644903E-01
          2   -1    0    0  502    0  0.00000000000E+00  0.00000000000E+00  0.15306725219E+04  0.15306725219E+04  0.00000000000E+00 0. -1.
         -2   -1    0    0    0  501 -0.00000000000E+00 -0.00000000000E+00 -0.11523736634E+04  0.11523736634E+04  0.00000000000E+00 0.  1.
    9000010    2    1    2  502    0 -0.53358573366E+03  0.44164416401E+02 -0.48161995738E+03  0.12446325350E+04  0.10151296139E+04 0.  0.
   -9000010    2    1    2    0  501  0.53358573366E+03 -0.44164416401E+02  0.85991881594E+03  0.14384136504E+04  0.10212292733E+04 0.  0.
        -13    1    3    3    0    0 -0.66403451339E+03  0.28501169404E+03 -0.38436247443E+02  0.72363724130E+03  0.10566000000E+00 0.  1.
          4    1    3    3  502    0  0.13044877974E+03 -0.24084727764E+03 -0.44318370993E+03  0.52099529367E+03  0.00000000000E+00 0.  1.
         13    1    4    4    0    0  0.42309318800E+03  0.43246283190E+03  0.24532701309E+03  0.65285320036E+03  0.10566000000E+00 0. -1.
         -4    1    4    4    0  501  0.11049254566E+03 -0.47662724830E+03  0.61459180285E+03  0.78556045000E+03  0.00000000000E+00 0. -1.
<mgrwt>
<rscale>  2 0.11503688E+04</rscale>
<asrwt>0</asrwt>
<pdfrwt beam="1">  1        2 0.23548808E+00 0.11503688E+04</pdfrwt>
<pdfrwt beam="2">  1       -2 0.17728825E+00 0.11503688E+04</pdfrwt>
<totfact> 0.29713724E+00</totfact>
</mgrwt>
</event>
<event>
 8    1  0.1373409E-005  0.1183594E+04  0.7818608E-02  0.8619020E-01
         -2   -1    0    0    0  501 -0.00000000000E+00  0.00000000000E+00  0.91815745682E+03  0.91815745682E+03  0.00000000000E+00 0. -1.
          2   -1    0    0  502    0  0.00000000000E+00 -0.00000000000E+00 -0.16851397958E+04  0.16851397958E+04  0.00000000000E+00 0.  1.
    9000010    2    1    2  502    0 -0.34401283146E+03 -0.43693324632E+03  0.23051121070E+02  0.11597711290E+04  0.10174881953E+04 0.  0.
   -9000010    2    1    2    0  501  0.34401283146E+03  0.43693324632E+03 -0.79003346002E+03  0.14435261236E+04  0.10725480462E+04 0.  0.
        -13    1    3    3    0    0 -0.22265076666E+03  0.28827940882E+03  0.18245767132E+03  0.40739316935E+03  0.10566000000E+00 0.  1.
          4    1    3    3  502    0 -0.12136206480E+03 -0.72521265514E+03 -0.15940655025E+03  0.75237795968E+03  0.00000000000E+00 0.  1.
         13    1    4    4    0    0  0.30030943792E+03  0.46049467827E+03  0.94305537719E+02  0.55779445392E+03  0.10566000000E+00 0. -1.
         -4    1    4    4    0  501  0.43703393543E+02 -0.23561431949E+02 -0.88433899774E+03  0.88573166964E+03  0.00000000000E+00 0. -1.
<mgrwt>
<rscale>  2 0.11835942E+04</rscale>
<asrwt>0</asrwt>
<pdfrwt beam="2">  1        2 0.25925227E+00 0.11835942E+04</pdfrwt>
<pdfrwt beam="1">  1       -2 0.14125499E+00 0.11835942E+04</pdfrwt>
<totfact> 0.49976653E+00</totfact>
</mgrwt>
</event>
<event>
 8    1  0.1373409E-005  0.1883548E+04  0.7818608E-02  0.8217526E-01
          2   -1    0    0  502    0  0.00000000000E+00  0.00000000000E+00  0.23895225005E+04  0.23895225005E+04  0.00000000000E+00 0.  1.
         -2   -1    0    0    0  501 -0.00000000000E+00 -0.00000000000E+00 -0.15295415801E+04  0.15295415801E+04  0.00000000000E+00 0. -1.
    9000010    2    1    2  502    0 -0.10389297772E+04  0.12251449257E+04  0.96250046248E+02  0.18934135775E+04  0.99769521051E+03 0.  0.
   -9000010    2    1    2    0  501  0.10389297772E+04 -0.12251449257E+04  0.76373087410E+03  0.20256505031E+04  0.96933995161E+03 0.  0.
        -13    1    3    3    0    0 -0.20504510968E+02  0.53090675919E+03 -0.28544177935E+03  0.60312473211E+03  0.10566000000E+00 0.  1.
          4    1    3    3  502    0 -0.10184252663E+04  0.69423816651E+03  0.38169182559E+03  0.12902888454E+04  0.00000000000E+00 0.  1.
         13    1    4    4    0    0 -0.26382847005E+02  0.11263498610E+03  0.18887538939E+03  0.22148728766E+03  0.10566000000E+00 0. -1.
         -4    1    4    4    0  501  0.10653126242E+04 -0.13377799118E+04  0.57485548470E+03  0.18041632155E+04  0.00000000000E+00 0. -1.
<mgrwt>
<rscale>  2 0.18835481E+04</rscale>
<asrwt>0</asrwt>
<pdfrwt beam="1">  1        2 0.36761885E+00 0.18835481E+04</pdfrwt>
<pdfrwt beam="2">  1       -2 0.23531409E+00 0.18835481E+04</pdfrwt>
<totfact> 0.31052301E-01</totfact>
</mgrwt>
</event>
<event>
 8    1  0.1373409E-005  0.1238980E+04  0.7818608E-02  0.8577774E-01
         -1   -1    0    0    0  501 -0.00000000000E+00  0.00000000000E+00  0.10175821015E+04  0.10175821015E+04  0.00000000000E+00 0.  1.
          1   -1    0    0  502    0  0.00000000000E+00 -0.00000000000E+00 -0.15123010947E+04  0.15123010947E+04  0.00000000000E+00 0. -1.
    9000010    2    1    2  502    0  0.67304996735E+03 -0.32090543817E+03 -0.18534114107E+03  0.12569939568E+04  0.99483964041E+03 0.  0.
   -9000010    2    1    2    0  501 -0.67304996735E+03  0.32090543817E+03 -0.30937785208E+03  0.12728892394E+04  0.98415232645E+03 0.  0.
        -13    1    3    3    0    0 -0.12437572800E+03  0.18322545173E+03  0.13655865912E+03  0.26017141739E+03  0.10566000000E+00 0.  1.
          4    1    3    3  502    0  0.79742569536E+03 -0.50413088990E+03 -0.32189980019E+03  0.99682253944E+03  0.00000000000E+00 0.  1.
         13    1    4    4    0    0 -0.25130047999E+03  0.41958535640E+03  0.26282925095E+03  0.55523240978E+03  0.10566000000E+00 0. -1.
         -4    1    4    4    0  501 -0.42174948736E+03 -0.98679918235E+02 -0.57220710303E+03  0.71765682963E+03  0.00000000000E+00 0. -1.
<mgrwt>
<rscale>  2 0.12389798E+04</rscale>
<asrwt>0</asrwt>
<pdfrwt beam="2">  1        1 0.23266171E+00 0.12389798E+04</pdfrwt>
<pdfrwt beam="1">  1       -1 0.15655109E+00 0.12389798E+04</pdfrwt>
<totfact> 0.27499347E+00</totfact>
</mgrwt>
</event>
<event>
 8    1  0.1373409E-005  0.1288580E+04  0.7818608E-02  0.8542687E-01
          1   -1    0    0  502    0  0.00000000000E+00  0.00000000000E+00  0.22954378448E+04  0.22954378448E+04  0.00000000000E+00 0. -1.
         -1   -1    0    0    0  501 -0.00000000000E+00 -0.00000000000E+00 -0.72582710610E+03  0.72582710610E+03  0.00000000000E+00 0.  1.
    9000010    2    1    2  502    0 -0.39596180272E+03  0.71789544869E+03  0.87807641289E+03  0.15675929590E+04  0.10070600149E+04 0.  0.
   -9000010    2    1    2    0  501  0.39596180272E+03 -0.71789544869E+03  0.69153432576E+03  0.14536719919E+04  0.98121501816E+03 0.  0.
        -13    1    3    3    0    0 -0.16906523286E+02 -0.21491170379E+03 -0.22469083272E+02  0.21674349315E+03  0.10566000000E+00 0.  1.
          4    1    3    3  502    0 -0.37905527944E+03  0.93280715249E+03  0.90054549616E+03  0.13508494658E+04  0.00000000000E+00 0.  1.
         13    1    4    4    0    0  0.54040991017E+03 -0.84873572712E+03  0.35913802845E+03  0.10683516931E+04  0.10566000000E+00 0. -1.
         -4    1    4    4    0  501 -0.14444810745E+03  0.13084027843E+03  0.33239629732E+03  0.38532029881E+03  0.00000000000E+00 0. -1.
<mgrwt>
<rscale>  2 0.12885795E+04</rscale>
<asrwt>0</asrwt>
<pdfrwt beam="1">  1        1 0.35314428E+00 0.12885795E+04</pdfrwt>
<pdfrwt beam="2">  1       -1 0.11166571E+00 0.12885795E+04</pdfrwt>
<totfact> 0.17016014E+00</totfact>
</mgrwt>
</event>
<event>
 8    1  0.1373409E-005  0.1778995E+04  0.7818608E-02  0.8264841E-01
          2   -1    0    0  502    0  0.00000000000E+00  0.00000000000E+00  0.19675636912E+04  0.19675636912E+04  0.00000000000E+00 0. -1.
         -2   -1    0    0    0  501 -0.00000000000E+00 -0.00000000000E+00 -0.16936586602E+04  0.16936586602E+04  0.00000000000E+00 0.  1.
    9000010    2    1    2  502    0  0.86501912807E+03  0.11886918668E+04  0.54823810393E+03  0.18756446762E+04  0.10277312327E+04 0.  0.
   -9000010    2    1    2    0  501 -0.86501912807E+03 -0.11886918668E+04 -0.27433307297E+03  0.17855776752E+04  0.97559343637E+03 0.  0.
        -13    1    3    3    0    0  0.55227962595E+03  0.10504041980E+04 -0.48655305664E+02  0.11877411816E+04  0.10566000000E+00 0.  1.
          4    1    3    3  502    0  0.31273950212E+03  0.13828766881E+03  0.59689340959E+03  0.68790349464E+03  0.00000000000E+00 0.  1.
         13    1    4    4    0    0 -0.10169940860E+04 -0.11498336415E+04 -0.39801907846E+03  0.15858163740E+04  0.10566000000E+00 0. -1.
         -4    1    4    4    0  501  0.15197495793E+03 -0.38858225374E+02  0.12368600549E+03  0.19976130124E+03  0.00000000000E+00 0. -1.
<mgrwt>
<rscale>  2 0.17789948E+04</rscale>
<asrwt>0</asrwt>
<pdfrwt beam="1">  1        2 0.30270211E+00 0.17789948E+04</pdfrwt>
<pdfrwt beam="2">  1       -2 0.26056287E+00 0.17789948E+04</pdfrwt>
<totfact> 0.34171771E-01</totfact>
</mgrwt>
</event>
<event>
 8    1  0.1373409E-005  0.1180285E+04  0.7818608E-02  0.8621558E-01
         -4   -1    0    0    0  501 -0.00000000000E+00  0.00000000000E+00  0.37103539346E+04  0.37103539346E+04  0.00000000000E+00 0. -1.
          4   -1    0    0  502    0  0.00000000000E+00 -0.00000000000E+00 -0.43879210950E+03  0.43879210950E+03  0.00000000000E+00 0.  1.
    9000010    2    1    2  502    0 -0.43244442726E+03 -0.22590007859E+03  0.91942121056E+03  0.15413445751E+04  0.11368239568E+04 0.  0.
   -9000010    2    1    2    0  501  0.43244442726E+03  0.22590007859E+03  0.23521406145E+04  0.26078014689E+04  0.10149009818E+04 0.  0.
        -13    1    3    3    0    0 -0.36619459618E+03 -0.68174684261E+03  0.52765603604E+03  0.93664195039E+03  0.10566000000E+00 0.  1.
          4    1    3    3  502    0 -0.66249831083E+02  0.45584676403E+03  0.39176517451E+03  0.60470262473E+03  0.00000000000E+00 0.  1.
         13    1    4    4    0    0  0.67705240259E+03  0.42961599596E+03  0.15580251782E+04  0.17522592065E+04  0.10566000000E+00 0. -1.
         -4    1    4    4    0  501 -0.24460797533E+03 -0.20371591738E+03  0.79411543628E+03  0.85554226239E+03  0.00000000000E+00 0. -1.
<mgrwt>
<rscale>  2 0.11802853E+04</rscale>
<asrwt>0</asrwt>
<pdfrwt beam="2">  1        4 0.67506481E-01 0.11802853E+04</pdfrwt>
<pdfrwt beam="1">  1       -4 0.57082366E+00 0.11802853E+04</pdfrwt>
<totfact> 0.48673640E-02</totfact>
</mgrwt>
</event>
<event>
 8    1  0.1373409E-005  0.1167429E+04  0.7818608E-02  0.8631501E-01
         -2   -1    0    0    0  501 -0.00000000000E+00  0.00000000000E+00  0.14861595698E+04  0.14861595698E+04  0.00000000000E+00 0.  1.
          2   -1    0    0  502    0  0.00000000000E+00 -0.00000000000E+00 -0.14172140652E+04  0.14172140652E+04  0.00000000000E+00 0. -1.
    9000010    2    1    2  502    0 -0.39588243338E+03 -0.47044087550E+03 -0.82801686986E+03  0.14261860344E+04  0.98506707873E+03 0.  0.
   -9000010    2    1    2    0  501  0.39588243338E+03  0.47044087550E+03  0.89696237447E+03  0.14771876007E+04  0.99975206323E+03 0.  0.
        -13    1    3    3    0    0 -0.49928133651E+02  0.30593937416E+03 -0.25093375956E+03  0.39882261978E+03  0.10566000000E+00 0.  1.
          4    1    3    3  502    0 -0.34595429973E+03 -0.77638024966E+03 -0.57708311029E+03  0.10273634146E+04  0.00000000000E+00 0.  1.
         13    1    4    4    0    0 -0.10078018596E+03  0.32464581487E+03 -0.99596183145E+02  0.35421880506E+03  0.10566000000E+00 0. -1.
         -4    1    4    4    0  501  0.49666261934E+03  0.14579506063E+03  0.99655855761E+03  0.11229687956E+04  0.00000000000E+00 0. -1.
<mgrwt>
<rscale>  2 0.11674289E+04</rscale>
<asrwt>0</asrwt>
<pdfrwt beam="2">  1        2 0.21803293E+00 0.11674289E+04</pdfrwt>
<pdfrwt beam="1">  1       -2 0.22863993E+00 0.11674289E+04</pdfrwt>
<totfact> 0.12943157E+00</totfact>
</mgrwt>
</event>
<event>
 8    1  0.1373409E-005  0.1289815E+04  0.7818608E-02  0.8541834E-01
          1   -1    0    0  502    0  0.00000000000E+00  0.00000000000E+00  0.39543301943E+04  0.39543301943E+04  0.00000000000E+00 0.  1.
         -1   -1    0    0    0  501 -0.00000000000E+00 -0.00000000000E+00 -0.42609554201E+03  0.42609554201E+03  0.00000000000E+00 0. -1.
    9000010    2    1    2  502    0 -0.81018199009E+03 -0.43550558175E+02  0.15109192921E+04  0.19831743627E+04  0.99589755377E+03 0.  0.
   -9000010    2    1    2    0  501  0.81018199009E+03  0.43550558175E+02  0.20173153602E+04  0.23972513736E+04  0.10094361681E+04 0.  0.
        -13    1    3    3    0    0 -0.98962459346E+03 -0.13840502183E+03  0.91965508602E+03  0.13580420739E+04  0.10566000000E+00 0.  1.
          4    1    3    3  502    0  0.17944260337E+03  0.94854463653E+02  0.59126420608E+03  0.62513228885E+03  0.00000000000E+00 0.  1.
         13    1    4    4    0    0 -0.38492628225E+02 -0.19638157746E+03  0.11249361009E+04  0.11425973257E+04  0.10566000000E+00 0. -1.
         -4    1    4    4    0  501  0.84867461831E+03  0.23993213563E+03  0.89237925932E+03  0.12546540479E+04  0.00000000000E+00 0. -1.
<mgrwt>
<rscale>  2 0.12898150E+04</rscale>
<asrwt>0</asrwt>
<pdfrwt beam="1">  1        1 0.60835847E+00 0.12898150E+04</pdfrwt>
<pdfrwt beam="2">  1       -1 0.65553163E-01 0.12898150E+04</pdfrwt>
<totfact> 0.13926126E-01</totfact>
</mgrwt>
</event>
<event>
 8    1  0.1373409E-005  0.1505830E+04  0.7818608E-02  0.8406152E-01
         -1   -1    0    0    0  501 -0.00000000000E+00  0.00000000000E+00  0.17456231717E+04  0.17456231717E+04  0.00000000000E+00 0.  1.
          1   -1    0    0  502    0  0.00000000000E+00 -0.00000000000E+00 -0.23292023404E+04  0.23292023404E+04  0.00000000000E+00 0. -1.
    9000010    2    1    2  502    0  0.34892784806E+03 -0.10707923893E+04 -0.16474649565E+04  0.22362908366E+04  0.10092120386E+04 0.  0.
   -9000010    2    1    2    0  501 -0.34892784806E+03  0.10707923893E+04  0.10638857878E+04  0.18385346755E+04  0.98995444307E+03 0.  0.
        -13    1    3    3    0    0 -0.55332009456E+02 -0.93304436748E+03 -0.61469350512E+03  0.11186963571E+04  0.10566000000E+00 0.  1.
          4    1    3    3  502    0  0.40425985752E+03 -0.13774802183E+03 -0.10327714514E+04  0.11175944795E+04  0.00000000000E+00 0.  1.
         13    1    4    4    0    0 -0.54195793413E+03  0.15779961610E+03  0.35749184233E+03  0.66814635350E+03  0.10566000000E+00 0. -1.
         -4    1    4    4    0  501  0.19303008607E+03  0.91299277321E+03  0.70639394545E+03  0.11703883220E+04  0.00000000000E+00 0. -1.
<mgrwt>
<rscale>  2 0.15058302E+04</rscale>
<asrwt>0</asrwt>
<pdfrwt beam="2">  1        1 0.35833882E+00 0.15058302E+04</pdfrwt>
<pdfrwt beam="1">  1       -1 0.26855741E+00 0.15058302E+04</pdfrwt>
<totfact> 0.57809005E-02</totfact>
</mgrwt>
</event>
<event>
 8    1  0.1373409E-005  0.1506864E+04  0.7818608E-02  0.8405560E-01
         -1   -1    0    0    0  501 -0.00000000000E+00  0.00000000000E+00  0.82812866905E+03  0.82812866905E+03  0.00000000000E+00 0. -1.
          1   -1    0    0  502    0  0.00000000000E+00 -0.00000000000E+00 -0.27429805742E+04  0.27429805742E+04  0.00000000000E+00 0.  1.
    9000010    2    1    2  502    0  0.96131358677E+03  0.57672245646E+03 -0.99639397786E+03  0.18122097586E+04  0.10171384596E+04 0.  0.
   -9000010    2    1    2    0  501 -0.96131358677E+03 -0.57672245646E+03 -0.91845792731E+03  0.17588994847E+04  0.99670950089E+03 0.  0.
        -13    1    3    3    0    0 -0.79902663104E+02 -0.17637422389E+03 -0.28164528009E+03  0.34178410932E+03  0.10566000000E+00 0.  1.
          4    1    3    3  502    0  0.10412162499E+04  0.75309668035E+03 -0.71474869777E+03  0.14704256492E+04  0.00000000000E+00 0.  1.
         13    1    4    4    0    0 -0.49606831312E+03 -0.28411488934E+03 -0.10484053764E+04  0.11941352042E+04  0.10566000000E+00 0. -1.
         -4    1    4    4    0  501 -0.46524527365E+03 -0.29260756712E+03  0.12994744905E+03  0.56476428048E+03  0.00000000000E+00 0. -1.
<mgrwt>
<rscale>  2 0.15068642E+04</rscale>
<asrwt>0</asrwt>
<pdfrwt beam="2">  1        1 0.42199701E+00 0.15068642E+04</pdfrwt>
<pdfrwt beam="1">  1       -1 0.12740441E+00 0.15068642E+04</pdfrwt>
<totfact> 0.46776309E-01</totfact>
</mgrwt>
</event>
<event>
 8    1  0.1373409E-005  0.1127056E+04  0.7818608E-02  0.8663613E-01
          2   -1    0    0  502    0  0.00000000000E+00  0.00000000000E+00  0.34481481039E+04  0.34481481039E+04  0.00000000000E+00 0. -1.
         -2   -1    0    0    0  501 -0.00000000000E+00 -0.00000000000E+00 -0.37898282641E+03  0.37898282641E+03  0.00000000000E+00 0.  1.
    9000010    2    1    2  502    0  0.50178595723E+03  0.12282051793E+03  0.18540826487E+04  0.21695871174E+04  0.10013050310E+04 0.  0.
   -9000010    2    1    2    0  501 -0.50178595723E+03 -0.12282051793E+03  0.12150826288E+04  0.16575438129E+04  0.10020736851E+04 0.  0.
        -13    1    3    3    0    0  0.61431003372E+03 -0.61547424325E+02  0.18534723124E+04  0.19535927229E+04  0.10566000000E+00 0.  1.
          4    1    3    3  502    0 -0.11252407649E+03  0.18436794226E+03  0.61033627302E+00  0.21599439445E+03  0.00000000000E+00 0.  1.
         13    1    4    4    0    0 -0.37303372510E+03 -0.44092451687E+03  0.11785163121E+04  0.13124287786E+04  0.10566000000E+00 0. -1.
         -4    1    4    4    0  501 -0.12875223213E+03  0.31810399894E+03  0.36566316625E+02  0.34511503435E+03  0.00000000000E+00 0. -1.
<mgrwt>
<rscale>  2 0.11270561E+04</rscale>
<asrwt>0</asrwt>
<pdfrwt beam="1">  1        2 0.53048430E+00 0.11270561E+04</pdfrwt>
<pdfrwt beam="2">  1       -2 0.58305052E-01 0.11270561E+04</pdfrwt>
<totfact> 0.37350367E+00</totfact>
</mgrwt>
</event>
<event>
 8    1  0.1373409E-005  0.1200952E+04  0.7818608E-02  0.8605846E-01
         -2   -1    0    0    0  501 -0.00000000000E+00  0.00000000000E+00  0.58728869567E+03  0.58728869567E+03  0.00000000000E+00 0.  1.
          2   -1    0    0  502    0  0.00000000000E+00 -0.00000000000E+00 -0.29411240067E+04  0.29411240067E+04  0.00000000000E+00 0. -1.
    9000010    2    1    2  502    0  0.48566015908E+03 -0.45862041283E+03 -0.45982064755E+03  0.12854310742E+04  0.99734625149E+03 0.  0.
   -9000010    2    1    2    0  501 -0.48566015908E+03  0.45862041283E+03 -0.18940146635E+04  0.22429816282E+04  0.99873748590E+03 0.  0.
        -13    1    3    3    0    0  0.99453546013E+01 -0.39869130195E+03 -0.65572220515E+03  0.76747982763E+03  0.10566000000E+00 0.  1.
          4    1    3    3  502    0  0.47571480448E+03 -0.59929110884E+02  0.19590155760E+03  0.51795124655E+03  0.00000000000E+00 0.  1.
         13    1    4    4    0    0  0.26480325579E+02 -0.25187430714E+03 -0.15789563717E+03  0.29845086303E+03  0.10566000000E+00 0. -1.
         -4    1    4    4    0  501 -0.51214048466E+03  0.71049471998E+03 -0.17361190263E+04  0.19445307652E+04  0.00000000000E+00 0. -1.
<mgrwt>
<rscale>  2 0.12009521E+04</rscale>
<asrwt>0</asrwt>
<pdfrwt beam="2">  1        2 0.45248063E+00 0.12009521E+04</pdfrwt>
<pdfrwt beam="1">  1       -2 0.90352105E-01 0.12009521E+04</pdfrwt>
<totfact> 0.31137109E+00</totfact>
</mgrwt>
</event>
<event>
 8    1  0.1373409E-005  0.1182084E+04  0.7818608E-02  0.8620177E-01
         -2   -1    0    0    0  501 -0.00000000000E+00  0.00000000000E+00  0.50331391750E+03  0.50331391750E+03  0.00000000000E+00 0.  1.
          2   -1    0    0  502    0  0.00000000000E+00 -0.00000000000E+00 -0.28834449941E+04  0.28834449941E+04  0.00000000000E+00 0. -1.
    9000010    2    1    2  502    0 -0.44200901022E+03 -0.42026355886E+03 -0.87913400148E+03  0.14855509477E+04  0.10305297675E+04 0.  0.
   -9000010    2    1    2    0  501  0.44200901022E+03  0.42026355886E+03 -0.15009970751E+04  0.19012079639E+04  0.99478946432E+03 0.  0.
        -13    1    3    3    0    0 -0.45788033910E+03 -0.48550984960E+03 -0.10823343452E+04  0.12715431039E+04  0.10566000000E+00 0.  1.
          4    1    3    3  502    0  0.15871328871E+02  0.65246290744E+02  0.20320034375E+03  0.21400784386E+03  0.00000000000E+00 0.  1.
         13    1    4    4    0    0 -0.32124682817E+03  0.14036257320E+03 -0.51997857840E+03  0.62711953384E+03  0.10566000000E+00 0. -1.
         -4    1    4    4    0  501  0.76325583840E+03  0.27990098565E+03 -0.98101849675E+03  0.12740884301E+04  0.00000000000E+00 0. -1.
<mgrwt>
<rscale>  2 0.11820844E+04</rscale>
<asrwt>0</asrwt>
<pdfrwt beam="2">  1        2 0.44360692E+00 0.11820844E+04</pdfrwt>
<pdfrwt beam="1">  1       -2 0.77432911E-01 0.11820844E+04</pdfrwt>
<totfact> 0.47784903E+00</totfact>
</mgrwt>
</event>
<event>
 8    1  0.1373409E-005  0.1553987E+04  0.7818608E-02  0.8379090E-01
         -2   -1    0    0    0  501 -0.00000000000E+00  0.00000000000E+00  0.71401468786E+03  0.71401468786E+03  0.00000000000E+00 0.  1.
          2   -1    0    0  502    0  0.00000000000E+00 -0.00000000000E+00 -0.34081829179E+04  0.34081829179E+04  0.00000000000E+00 0. -1.
    9000010    2    1    2  502    0 -0.45056692494E+03  0.11088780750E+04 -0.15230134330E+04  0.21723698345E+04  0.98336139931E+03 0.  0.
   -9000010    2    1    2    0  501  0.45056692494E+03 -0.11088780750E+04 -0.11711547971E+04  0.19498277713E+04  0.99880110137E+03 0.  0.
        -13    1    3    3    0    0 -0.20662424290E+03 -0.15660236434E+03 -0.22617072620E+03  0.34405099451E+03  0.10566000000E+00 0.  1.
          4    1    3    3  502    0 -0.24394268204E+03  0.12654804393E+04 -0.12968427068E+04  0.18283188400E+04  0.00000000000E+00 0.  1.
         13    1    4    4    0    0  0.24035005494E+03 -0.74294821501E+03 -0.86096211689E+02  0.78559071273E+03  0.10566000000E+00 0. -1.
         -4    1    4    4    0  501  0.21021687001E+03 -0.36592985996E+03 -0.10850585854E+04  0.11642370586E+04  0.00000000000E+00 0. -1.
<mgrwt>
<rscale>  2 0.15539866E+04</rscale>
<asrwt>0</asrwt>
<pdfrwt beam="2">  1        2 0.52433583E+00 0.15539866E+04</pdfrwt>
<pdfrwt beam="1">  1       -2 0.10984841E+00 0.15539866E+04</pdfrwt>
<totfact> 0.92558761E-01</totfact>
</mgrwt>
</event>
<event>
 8    1  0.1373409E-005  0.1101210E+04  0.7818608E-02  0.8684915E-01
         -2   -1    0    0    0  501 -0.00000000000E+00  0.00000000000E+00  0.48137008778E+03  0.48137008778E+03  0.00000000000E+00 0. -1.
          2   -1    0    0  502    0  0.00000000000E+00 -0.00000000000E+00 -0.25242856462E+04  0.25242856462E+04  0.00000000000E+00 0.  1.
    9000010    2    1    2  502    0  0.14223911269E+03  0.44035512796E+03 -0.10954206539E+04  0.15588847960E+04  0.10079835288E+04 0.  0.
   -9000010    2    1    2    0  501 -0.14223911269E+03 -0.44035512796E+03 -0.94749490461E+03  0.14467709381E+04  0.99058313586E+03 0.  0.
        -13    1    3    3    0    0  0.46692992223E+03  0.56719083911E+03 -0.57697133524E+03  0.93414395737E+03  0.10566000000E+00 0.  1.
          4    1    3    3  502    0 -0.32469080954E+03 -0.12683571115E+03 -0.51844931861E+03  0.62474083858E+03  0.00000000000E+00 0.  1.
         13    1    4    4    0    0  0.30191107339E+03 -0.31779606515E+03 -0.54239307877E+02  0.44168602982E+03  0.10566000000E+00 0. -1.
         -4    1    4    4    0  501 -0.44415018608E+03 -0.12255906281E+03 -0.89325559673E+03  0.10050849082E+04  0.00000000000E+00 0. -1.
<mgrwt>
<rscale>  2 0.11012097E+04</rscale>
<asrwt>0</asrwt>
<pdfrwt beam="2">  1        2 0.38835164E+00 0.11012097E+04</pdfrwt>
<pdfrwt beam="1">  1       -2 0.74056936E-01 0.11012097E+04</pdfrwt>
<totfact> 0.85912502E+00</totfact>
</mgrwt>
</event>
<event>
 8    1  0.1373409E-005  0.1121320E+04  0.7818608E-02  0.8668289E-01
          1   -1    0    0  502    0  0.00000000000E+00  0.00000000000E+00  0.23318079117E+04  0.23318079117E+04  0.00000000000E+00 0. -1.
         -1   -1    0    0    0  501 -0.00000000000E+00 -0.00000000000E+00 -0.82846997746E+03  0.82846997746E+03  0.00000000000E+00 0.  1.
    9000010    2    1    2  502    0 -0.30646380567E+03  0.44727173170E+03 -0.18940269247E+03  0.11199623226E+04  0.96149371183E+03 0.  0.
   -9000010    2    1    2    0  501  0.30646380567E+03 -0.44727173170E+03  0.16927406267E+04  0.20403155666E+04  0.10017707900E+04 0.  0.
        -13    1    3    3    0    0  0.34774409010E+03  0.18147603023E+03 -0.14668790456E+02  0.39252348506E+03  0.10566000000E+00 0.  1.
          4    1    3    3  502    0 -0.65420789577E+03  0.26579570147E+03 -0.17473390202E+03  0.72743883751E+03  0.00000000000E+00 0.  1.
         13    1    4    4    0    0  0.45012885498E+03 -0.35259731552E+03  0.17637987111E+04  0.18541647062E+04  0.10566000000E+00 0. -1.
         -4    1    4    4    0  501 -0.14366504931E+03 -0.94674416179E+02 -0.71058084428E+02  0.18615086042E+03  0.00000000000E+00 0. -1.
<mgrwt>
<rscale>  2 0.11213198E+04</rscale>
<asrwt>0</asrwt>
<pdfrwt beam="1">  1        1 0.35873968E+00 0.11213198E+04</pdfrwt>
<pdfrwt beam="2">  1       -1 0.12745692E+00 0.11213198E+04</pdfrwt>
<totfact> 0.11747109E+00</totfact>
</mgrwt>
</event>
<event>
 8    1  0.1373409E-005  0.1048718E+04  0.7818608E-02  0.8730116E-01
          2   -1    0    0  502    0  0.00000000000E+00  0.00000000000E+00  0.32713340078E+04  0.32713340078E+04  0.00000000000E+00 0.  1.
         -2   -1    0    0    0  501 -0.00000000000E+00 -0.00000000000E+00 -0.44403772063E+03  0.44403772063E+03  0.00000000000E+00 0. -1.
    9000010    2    1    2  502    0 -0.49237779904E+01  0.32736151050E+03  0.23367051869E+04  0.25643404382E+04  0.10042215643E+04 0.  0.
   -9000010    2    1    2    0  501  0.49237779904E+01 -0.32736151050E+03  0.49059110019E+03  0.11510312902E+04  0.98843492512E+03 0.  0.
        -13    1    3    3    0    0 -0.23309392322E+03  0.10607612512E+03  0.56713867103E+02  0.26230020063E+03  0.10566000000E+00 0.  1.
          4    1    3    3  502    0  0.22817014523E+03  0.22128538538E+03  0.22799913198E+04  0.23020402376E+04  0.00000000000E+00 0.  1.
         13    1    4    4    0    0  0.29793121275E+03 -0.58035919937E+03  0.34004071641E+03  0.73566806904E+03  0.10566000000E+00 0. -1.
         -4    1    4    4    0  501 -0.29300743476E+03  0.25299768888E+03  0.15055038378E+03  0.41536322112E+03  0.00000000000E+00 0. -1.
<mgrwt>
<rscale>  2 0.10487181E+04</rscale>
<asrwt>0</asrwt>
<pdfrwt beam="1">  1        2 0.50328214E+00 0.10487181E+04</pdfrwt>
<pdfrwt beam="2">  1       -2 0.68313498E-01 0.10487181E+04</pdfrwt>
<totfact> 0.36182247E+00</totfact>
</mgrwt>
</event>
<event>
 8    1  0.1373409E-005  0.1114785E+04  0.7818608E-02  0.8673652E-01
          2   -1    0    0  502    0  0.00000000000E+00  0.00000000000E+00  0.28795749991E+04  0.28795749991E+04  0.00000000000E+00 0.  1.
         -2   -1    0    0    0  501 -0.00000000000E+00 -0.00000000000E+00 -0.56816215533E+03  0.56816215533E+03  0.00000000000E+00 0. -1.
    9000010    2    1    2  502    0 -0.49431139311E+03  0.39004892063E+00  0.19927752393E+04  0.22784598104E+04  0.98786742432E+03 0.  0.
   -9000010    2    1    2    0  501  0.49431139311E+03 -0.39004892063E+00  0.31863760454E+03  0.11692773440E+04  0.10106115370E+04 0.  0.
        -13    1    3    3    0    0 -0.21537507484E+03  0.49133609012E+03  0.10618545016E+04  0.11896775067E+04  0.10566000000E+00 0.  1.
          4    1    3    3  502    0 -0.27893631827E+03 -0.49094604120E+03  0.93092073771E+03  0.10887823037E+04  0.00000000000E+00 0.  1.
         13    1    4    4    0    0 -0.12934953326E+02 -0.43171895183E+03  0.25214357422E+03  0.50012494396E+03  0.10566000000E+00 0. -1.
         -4    1    4    4    0  501  0.50724634644E+03  0.43132890291E+03  0.66494030314E+02  0.66915240008E+03  0.00000000000E+00 0. -1.
<mgrwt>
<rscale>  2 0.11147847E+04</rscale>
<asrwt>0</asrwt>
<pdfrwt beam="1">  1        2 0.44301153E+00 0.11147847E+04</pdfrwt>
<pdfrwt beam="2">  1       -2 0.87409564E-01 0.11147847E+04</pdfrwt>
<totfact> 0.37048025E+00</totfact>
</mgrwt>
</event>
<event>
 8    1  0.1373409E-005  0.1520724E+04  0.7818608E-02  0.8397671E-01
          2   -1    0    0  502    0  0.00000000000E+00  0.00000000000E+00  0.30018698775E+04  0.30018698775E+04  0.00000000000E+00 0. -1.
         -2   -1    0    0    0  501 -0.00000000000E+00 -0.00000000000E+00 -0.77128924689E+03  0.77128924689E+03  0.00000000000E+00 0.  1.
    9000010    2    1    2  502    0 -0.74930276182E+03  0.85342173227E+03  0.10462967095E+04  0.18402467820E+04  0.10009935726E+04 0.  0.
   -9000010    2    1    2    0  501  0.74930276182E+03 -0.85342173227E+03  0.11842839211E+04  0.19329123424E+04  0.10216841173E+04 0.  0.
        -13    1    3    3    0    0 -0.80680407592E+03  0.17828362550E+03  0.67931620872E+03  0.10696674206E+04  0.10566000000E+00 0.  1.
          4    1    3    3  502    0  0.57501314097E+02  0.67513810677E+03  0.36698050081E+03  0.77057936146E+03  0.00000000000E+00 0.  1.
         13    1    4    4    0    0 -0.12218980591E+03  0.12347303848E+03  0.95316434517E+01  0.17397357067E+03  0.10566000000E+00 0. -1.
         -4    1    4    4    0  501  0.87149256773E+03 -0.97689477075E+03  0.11747522776E+04  0.17589387717E+04  0.00000000000E+00 0. -1.
<mgrwt>
<rscale>  2 0.15207241E+04</rscale>
<asrwt>0</asrwt>
<pdfrwt beam="1">  1        2 0.46182613E+00 0.15207241E+04</pdfrwt>
<pdfrwt beam="2">  1       -2 0.11865989E+00 0.15207241E+04</pdfrwt>
<totfact> 0.14089768E+00</totfact>
</mgrwt>
</event>
<event>
 8    1  0.1373409E-005  0.1188283E+04  0.7818608E-02  0.8615438E-01
         -2   -1    0    0    0  501 -0.00000000000E+00  0.00000000000E+00  0.84251718615E+03  0.84251718615E+03  0.00000000000E+00 0. -1.
          2   -1    0    0  502    0  0.00000000000E+00 -0.00000000000E+00 -0.17942595902E+04  0.17942595902E+04  0.00000000000E+00 0.  1.
    9000010    2    1    2  502    0  0.40107753119E+03 -0.49420434305E+03 -0.81596047626E+03  0.14449527361E+04  0.10084620925E+04 0.  0.
   -9000010    2    1    2    0  501 -0.40107753119E+03  0.49420434305E+03 -0.13578192780E+03  0.11918240402E+04  0.99845214819E+03 0.  0.
        -13    1    3    3    0    0  0.28063726020E+03  0.48778444850E+02  0.15625692043E+03  0.32488897310E+03  0.10566000000E+00 0.  1.
          4    1    3    3  502    0  0.12044027099E+03 -0.54298278790E+03 -0.97221739669E+03  0.11200637630E+04  0.00000000000E+00 0.  1.
         13    1    4    4    0    0 -0.69983198734E+03  0.35868530407E+03  0.92994447196E+02  0.79187621269E+03  0.10566000000E+00 0. -1.
         -4    1    4    4    0  501  0.29875445615E+03  0.13551903898E+03 -0.22877637500E+03  0.39994782754E+03  0.00000000000E+00 0. -1.
<mgrwt>
<rscale>  2 0.11882831E+04</rscale>
<asrwt>0</asrwt>
<pdfrwt beam="2">  1        2 0.27603993E+00 0.11882831E+04</pdfrwt>
<pdfrwt beam="1">  1       -2 0.12961803E+00 0.11882831E+04</pdfrwt>
<totfact> 0.55638396E+00</totfact>
</mgrwt>
</event>
<event>
 8    1  0.1373409E-005  0.1062451E+04  0.7818608E-02  0.8718028E-01
          2   -1    0    0  502    0  0.00000000000E+00  0.00000000000E+00  0.28601355376E+04  0.28601355376E+04  0.00000000000E+00 0.  1.
         -2   -1    0    0    0  501 -0.00000000000E+00 -0.00000000000E+00 -0.47846055499E+03  0.47846055499E+03  0.00000000000E+00 0. -1.
    9000010    2    1    2  502    0  0.32944258823E+03 -0.13502470244E+03  0.48451616361E+03  0.11600105164E+04  0.99202036080E+03 0.  0.
   -9000010    2    1    2    0  501 -0.32944258823E+03  0.13502470244E+03  0.18971588190E+04  0.21785855761E+04  0.10100789271E+04 0.  0.
        -13    1    3    3    0    0  0.33396547324E+03  0.23115829802E+03 -0.14537976407E+03  0.43139585420E+03  0.10566000000E+00 0.  1.
          4    1    3    3  502    0 -0.45228850098E+01 -0.36618300046E+03  0.62989592768E+03  0.72861466223E+03  0.00000000000E+00 0.  1.
         13    1    4    4    0    0 -0.11428855262E+03 -0.39318345702E+03  0.12530553734E+04  0.13182575182E+04  0.10566000000E+00 0. -1.
         -4    1    4    4    0  501 -0.21515403561E+03  0.52820815946E+03  0.64410344554E+03  0.86032805796E+03  0.00000000000E+00 0. -1.
<mgrwt>
<rscale>  2 0.10624506E+04</rscale>
<asrwt>0</asrwt>
<pdfrwt beam="1">  1        2 0.44002084E+00 0.10624506E+04</pdfrwt>
<pdfrwt beam="2">  1       -2 0.73609318E-01 0.10624506E+04</pdfrwt>
<totfact> 0.55845363E+00</totfact>
</mgrwt>
</event>
<event>
 8    1  0.1373409E-005  0.1249513E+04  0.7818608E-02  0.8570182E-01
          2   -1    0    0  502    0  0.00000000000E+00  0.00000000000E+00  0.48521456242E+03  0.48521456242E+03  0.00000000000E+00 0. -1.
         -2   -1    0    0    0  501 -0.00000000000E+00 -0.00000000000E+00 -0.36234183427E+04  0.36234183427E+04  0.00000000000E+00 0.  1.
    9000010    2    1    2  502    0  0.50733083996E+03 -0.49153920489E+03 -0.22721662477E+04  0.26000845969E+04  0.10481913386E+04 0.  0.
   -9000010    2    1    2    0  501 -0.50733083996E+03  0.49153920489E+03 -0.86603753257E+03  0.15085483083E+04  0.10132628581E+04 0.  0.
        -13    1    3    3    0    0  0.69932764979E+03 -0.67270900962E+03 -0.15238877012E+04  0.18066074035E+04  0.10566000000E+00 0.  1.
          4    1    3    3  502    0 -0.19199680983E+03  0.18116980473E+03 -0.74827854656E+03  0.79347719335E+03  0.00000000000E+00 0.  1.
         13    1    4    4    0    0 -0.38298551788E+03  0.77867357039E+03 -0.42093444450E+03  0.96446682361E+03  0.10566000000E+00 0. -1.
         -4    1    4    4    0  501 -0.12434532207E+03 -0.28713436549E+03 -0.44510308808E+03  0.54408148469E+03  0.00000000000E+00 0. -1.
<mgrwt>
<rscale>  2 0.12495134E+04</rscale>
<asrwt>0</asrwt>
<pdfrwt beam="1">  1        2 0.74648393E-01 0.12495134E+04</pdfrwt>
<pdfrwt beam="2">  1       -2 0.55744898E+00 0.12495134E+04</pdfrwt>
<totfact> 0.36125891E-01</totfact>
</mgrwt>
</event>
<event>
 8    1  0.1373409E-005  0.1302649E+04  0.7818608E-02  0.8533031E-01
         -2   -1    0    0    0  501 -0.00000000000E+00  0.00000000000E+00  0.74214918539E+03  0.74214918539E+03  0.00000000000E+00 0.  1.
          2   -1    0    0  502    0  0.00000000000E+00 -0.00000000000E+00 -0.23205587394E+04  0.23205587394E+04  0.00000000000E+00 0. -1.
    9000010    2    1    2  502    0 -0.80700609945E+03  0.20474775029E+03 -0.60639498564E+03  0.14410522000E+04  0.10078373275E+04 0.  0.
   -9000010    2    1    2    0  501  0.80700609945E+03 -0.20474775029E+03 -0.97201456833E+03  0.16216557248E+04  0.99587874904E+03 0.  0.
        -13    1    3    3    0    0 -0.51681421814E+03  0.42294553528E+03 -0.78979321638E+03  0.10342887400E+04  0.10566000000E+00 0.  1.
          4    1    3    3  502    0 -0.29019188131E+03 -0.21819778498E+03  0.18339823074E+03  0.40676346000E+03  0.00000000000E+00 0.  1.
         13    1    4    4    0    0  0.95703589151E+02 -0.26158373839E+03 -0.85414745357E+03  0.89841700384E+03  0.10566000000E+00 0. -1.
         -4    1    4    4    0  501  0.71130251030E+03  0.56835988100E+02 -0.11786711476E+03  0.72323872093E+03  0.00000000000E+00 0. -1.
<mgrwt>
<rscale>  2 0.13026486E+04</rscale>
<asrwt>0</asrwt>
<pdfrwt beam="2">  1        2 0.35700904E+00 0.13026486E+04</pdfrwt>
<pdfrwt beam="1">  1       -2 0.11417680E+00 0.13026486E+04</pdfrwt>
<totfact> 0.39736568E+00</totfact>
</mgrwt>
</event>
<event>
 8    1  0.1373409E-005  0.1436887E+04  0.7818608E-02  0.8446774E-01
          2   -1    0    0  502    0  0.00000000000E+00  0.00000000000E+00  0.11057212824E+04  0.11057212824E+04  0.00000000000E+00 0. -1.
         -2   -1    0    0    0  501 -0.00000000000E+00 -0.00000000000E+00 -0.18693112593E+04  0.18693112593E+04  0.00000000000E+00 0.  1.
    9000010    2    1    2  502    0  0.97687942398E+03 -0.37709506479E+03 -0.42419763964E+03  0.14828574852E+04  0.96043145885E+03 0.  0.
   -9000010    2    1    2    0  501 -0.97687942398E+03  0.37709506479E+03 -0.33939233729E+03  0.14921750565E+04  0.10074250066E+04 0.  0.
        -13    1    3    3    0    0  0.41640120980E+02 -0.21685190640E+03 -0.48411887787E+03  0.53209937799E+03  0.10566000000E+00 0.  1.
          4    1    3    3  502    0  0.93523930300E+03 -0.16024315838E+03  0.59921238236E+02  0.95075810724E+03  0.00000000000E+00 0.  1.
         13    1    4    4    0    0 -0.31353356106E+03  0.56921798165E+03  0.12255573738E+03  0.66131106484E+03  0.10566000000E+00 0. -1.
         -4    1    4    4    0  501 -0.66334586292E+03 -0.19212291686E+03 -0.46194807466E+03  0.83086399171E+03  0.00000000000E+00 0. -1.
<mgrwt>
<rscale>  2 0.14368867E+04</rscale>
<asrwt>0</asrwt>
<pdfrwt beam="1">  1        2 0.17011097E+00 0.14368867E+04</pdfrwt>
<pdfrwt beam="2">  1       -2 0.28758634E+00 0.14368867E+04</pdfrwt>
<totfact> 0.66628542E-01</totfact>
</mgrwt>
</event>
<event>
 8    1  0.1373409E-005  0.1344428E+04  0.7818608E-02  0.8505080E-01
         -2   -1    0    0    0  501 -0.00000000000E+00  0.00000000000E+00  0.88449266967E+03  0.88449266967E+03  0.00000000000E+00 0. -1.
          2   -1    0    0  502    0  0.00000000000E+00 -0.00000000000E+00 -0.20570215849E+04  0.20570215849E+04  0.00000000000E+00 0.  1.
    9000010    2    1    2  502    0  0.86484279518E+03 -0.23287316024E+03 -0.46564846808E+03  0.14193812953E+04  0.99781350786E+03 0.  0.
   -9000010    2    1    2    0  501 -0.86484279518E+03  0.23287316024E+03 -0.70688044720E+03  0.15221329593E+04  0.10074848932E+04 0.  0.
        -13    1    3    3    0    0  0.94356125459E+03 -0.44696057988E+03 -0.54514806175E+03  0.11778234254E+04  0.10566000000E+00 0.  1.
          4    1    3    3  502    0 -0.78718459408E+02  0.21408741963E+03  0.79499593666E+02  0.24155786986E+03  0.00000000000E+00 0.  1.
         13    1    4    4    0    0 -0.56025559213E+03 -0.24838085438E+03 -0.72873231890E+03  0.95217129820E+03  0.10566000000E+00 0. -1.
         -4    1    4    4    0  501 -0.30458720305E+03  0.48125401462E+03  0.21851871701E+02  0.56996166112E+03  0.00000000000E+00 0. -1.
<mgrwt>
<rscale>  2 0.13444277E+04</rscale>
<asrwt>0</asrwt>
<pdfrwt beam="2">  1        2 0.31646486E+00 0.13444277E+04</pdfrwt>
<pdfrwt beam="1">  1       -2 0.13607580E+00 0.13444277E+04</pdfrwt>
<totfact> 0.34317270E+00</totfact>
</mgrwt>
</event>
<event>
 8    1  0.1373409E-005  0.1166012E+04  0.7818608E-02  0.8632605E-01
         -2   -1    0    0    0  501 -0.00000000000E+00  0.00000000000E+00  0.32899654704E+03  0.32899654704E+03  0.00000000000E+00 0.  1.
          2   -1    0    0  502    0  0.00000000000E+00 -0.00000000000E+00 -0.41383939129E+04  0.41383939129E+04  0.00000000000E+00 0. -1.
    9000010    2    1    2  502    0  0.47188020640E+03  0.47150621457E+03 -0.18241850292E+04  0.21422153408E+04  0.90357429480E+03 0.  0.
   -9000010    2    1    2    0  501 -0.47188020640E+03 -0.47150621457E+03 -0.19852123366E+04  0.23251751191E+04  0.10101397296E+04 0.  0.
        -13    1    3    3    0    0  0.28060990495E+03  0.73963735842E+03 -0.12185255953E+04  0.14527938526E+04  0.10566000000E+00 0.  1.
          4    1    3    3  502    0  0.19127030145E+03 -0.26813114385E+03 -0.60565943391E+03  0.68942148821E+03  0.00000000000E+00 0.  1.
         13    1    4    4    0    0  0.30193641539E+02  0.24149674464E+03 -0.13159489164E+03  0.27667591209E+03  0.10566000000E+00 0. -1.
         -4    1    4    4    0  501 -0.50207384794E+03 -0.71300295920E+03 -0.18536174450E+04  0.20484992070E+04  0.00000000000E+00 0. -1.
<mgrwt>
<rscale>  2 0.11660124E+04</rscale>
<asrwt>0</asrwt>
<pdfrwt beam="2">  1        2 0.63667603E+00 0.11660124E+04</pdfrwt>
<pdfrwt beam="1">  1       -2 0.50614850E-01 0.11660124E+04</pdfrwt>
<totfact> 0.13149266E+00</totfact>
</mgrwt>
</event>
<event>
 8    1  0.1373409E-005  0.1265779E+04  0.7818608E-02  0.8558609E-01
          2   -1    0    0  502    0  0.00000000000E+00  0.00000000000E+00  0.93153068866E+03  0.93153068866E+03  0.00000000000E+00 0. -1.
         -2   -1    0    0    0  501 -0.00000000000E+00 -0.00000000000E+00 -0.19629241006E+04  0.19629241006E+04  0.00000000000E+00 0.  1.
    9000010    2    1    2  502    0  0.73350074227E+03  0.75186552745E+02 -0.10164732828E+04  0.16066035485E+04  0.10021380497E+04 0.  0.
   -9000010    2    1    2    0  501 -0.73350074227E+03 -0.75186552745E+02 -0.14920129198E+02  0.12878512408E+04  0.10557754741E+04 0.  0.
        -13    1    3    3    0    0  0.41265533886E+03 -0.17924342167E+03  0.60929024472E+02  0.45400990087E+03  0.10566000000E+00 0.  1.
          4    1    3    3  502    0  0.32084540341E+03  0.25442997441E+03 -0.10774023073E+04  0.11525936476E+04  0.00000000000E+00 0.  1.
         13    1    4    4    0    0 -0.76143509204E+03 -0.46793034607E+03 -0.23271234050E+02  0.89402671641E+03  0.10566000000E+00 0. -1.
         -4    1    4    4    0  501  0.27934349767E+02  0.39274379332E+03  0.83511048521E+01  0.39382452443E+03  0.00000000000E+00 0. -1.
<mgrwt>
<rscale>  2 0.12657793E+04</rscale>
<asrwt>0</asrwt>
<pdfrwt beam="1">  1        2 0.14331241E+00 0.12657793E+04</pdfrwt>
<pdfrwt beam="2">  1       -2 0.30198832E+00 0.12657793E+04</pdfrwt>
<totfact> 0.69013959E-01</totfact>
</mgrwt>
</event>
<event>
 8    1  0.1373409E-005  0.1445226E+04  0.7818608E-02  0.8441737E-01
         -2   -1    0    0    0  501 -0.00000000000E+00  0.00000000000E+00  0.13791071064E+04  0.13791071064E+04  0.00000000000E+00 0. -1.
          2   -1    0    0  502    0  0.00000000000E+00 -0.00000000000E+00 -0.18745828455E+04  0.18745828455E+04  0.00000000000E+00 0.  1.
    9000010    2    1    2  502    0  0.29168509038E+03  0.99127415380E+03 -0.96162081160E+03  0.17414992215E+04  0.10200001535E+04 0.  0.
   -9000010    2    1    2    0  501 -0.29168509038E+03 -0.99127415380E+03  0.46614507254E+03  0.15121907304E+04  0.10008620966E+04 0.  0.
        -13    1    3    3    0    0  0.55497134490E+03  0.88810787024E+03 -0.10096297755E+04  0.14546755919E+04  0.10566000000E+00 0.  1.
          4    1    3    3  502    0 -0.26328625452E+03  0.10316628357E+03  0.48008963935E+02  0.28682362961E+03  0.00000000000E+00 0.  1.
         13    1    4    4    0    0 -0.31287556911E+03 -0.29173020910E+03  0.65951557403E+03  0.78610332667E+03  0.10566000000E+00 0. -1.
         -4    1    4    4    0  501  0.21190478731E+02 -0.69954394470E+03 -0.19337050149E+03  0.72608740369E+03  0.00000000000E+00 0. -1.
<mgrwt>
<rscale>  2 0.14452258E+04</rscale>
<asrwt>0</asrwt>
<pdfrwt beam="2">  1        2 0.28839736E+00 0.14452258E+04</pdfrwt>
<pdfrwt beam="1">  1       -2 0.21217033E+00 0.14452258E+04</pdfrwt>
<totfact> 0.95936240E-01</totfact>
</mgrwt>
</event>
<event>
 8    1  0.1373409E-005  0.1187237E+04  0.7818608E-02  0.8616235E-01
         -2   -1    0    0    0  501 -0.00000000000E+00  0.00000000000E+00  0.89870510934E+03  0.89870510934E+03  0.00000000000E+00 0.  1.
          2   -1    0    0  502    0  0.00000000000E+00 -0.00000000000E+00 -0.27408998857E+04  0.27408998857E+04  0.00000000000E+00 0. -1.
    9000010    2    1    2  502    0 -0.44386357528E+03  0.46034942427E+03  0.27004821105E+03  0.12155611088E+04  0.99786086553E+03 0.  0.
   -9000010    2    1    2    0  501  0.44386357528E+03 -0.46034942427E+03 -0.21122429875E+04  0.24240438863E+04  0.10027371834E+04 0.  0.
        -13    1    3    3    0    0 -0.28892651487E+03  0.32166139961E+02 -0.34445402740E+03  0.45073471101E+03  0.10566000000E+00 0.  1.
          4    1    3    3  502    0 -0.15493706041E+03  0.42818328431E+03  0.61450223844E+03  0.76482639775E+03  0.00000000000E+00 0.  1.
         13    1    4    4    0    0  0.97646461659E+02  0.24065909833E+03 -0.11757147879E+04  0.12040585146E+04  0.10566000000E+00 0. -1.
         -4    1    4    4    0  501  0.34621711362E+03 -0.70100852260E+03 -0.93652819959E+03  0.12199853717E+04  0.00000000000E+00 0. -1.
<mgrwt>
<rscale>  2 0.11872372E+04</rscale>
<asrwt>0</asrwt>
<pdfrwt beam="2">  1        2 0.42167690E+00 0.11872372E+04</pdfrwt>
<pdfrwt beam="1">  1       -2 0.13826232E+00 0.11872372E+04</pdfrwt>
<totfact> 0.13847202E+00</totfact>
</mgrwt>
</event>
<event>
 8    1  0.1373409E-005  0.1238204E+04  0.7818608E-02  0.8578336E-01
          2   -1    0    0  502    0  0.00000000000E+00  0.00000000000E+00  0.42944434398E+04  0.42944434398E+04  0.00000000000E+00 0.  1.
         -2   -1    0    0    0  501 -0.00000000000E+00 -0.00000000000E+00 -0.36327879663E+03  0.36327879663E+03  0.00000000000E+00 0. -1.
    9000010    2    1    2  502    0 -0.72118222660E+03  0.17376755538E+03  0.22800946395E+04  0.25972831258E+04  0.99837322846E+03 0.  0.
   -9000010    2    1    2    0  501  0.72118222660E+03 -0.17376755538E+03  0.16510700037E+04  0.20604391106E+04  0.98441769809E+03 0.  0.
        -13    1    3    3    0    0 -0.97338646081E+03  0.17032080382E+03  0.17353933940E+04  0.19970179322E+04  0.10566000000E+00 0.  1.
          4    1    3    3  502    0  0.25220423422E+03  0.34467515646E+01  0.54470124546E+03  0.60026519361E+03  0.00000000000E+00 0.  1.
         13    1    4    4    0    0 -0.23039820392E+03  0.69550745756E+02  0.43623562586E+03  0.49821899907E+03  0.10566000000E+00 0. -1.
         -4    1    4    4    0  501  0.95158043052E+03 -0.24331830114E+03  0.12148343778E+04  0.15622201116E+04  0.00000000000E+00 0. -1.
<mgrwt>
<rscale>  2 0.12382044E+04</rscale>
<asrwt>0</asrwt>
<pdfrwt beam="1">  1        2 0.66068357E+00 0.12382044E+04</pdfrwt>
<pdfrwt beam="2">  1       -2 0.55889049E-01 0.12382044E+04</pdfrwt>
<totfact> 0.77568752E-01</totfact>
</mgrwt>
</event>
<event>
 8    1  0.1373409E-005  0.1185087E+04  0.7818608E-02  0.8617878E-01
         -1   -1    0    0    0  501 -0.00000000000E+00  0.00000000000E+00  0.93794123069E+03  0.93794123069E+03  0.00000000000E+00 0. -1.
          1   -1    0    0  502    0  0.00000000000E+00 -0.00000000000E+00 -0.14977931899E+04  0.14977931899E+04  0.00000000000E+00 0.  1.
    9000010    2    1    2  502    0  0.66292078398E+03 -0.21635315349E+03 -0.30118357345E+03  0.12251824735E+04  0.96129490561E+03 0.  0.
   -9000010    2    1    2    0  501 -0.66292078398E+03  0.21635315349E+03 -0.25866838579E+03  0.12105519471E+04  0.95511990350E+03 0.  0.
        -13    1    3    3    0    0  0.72367297768E+03 -0.51148533049E+03 -0.21844152164E+03  0.91270834962E+03  0.10566000000E+00 0.  1.
          4    1    3    3  502    0 -0.60752193700E+02  0.29513217701E+03 -0.82742051805E+02  0.31247412386E+03  0.00000000000E+00 0.  1.
         13    1    4    4    0    0 -0.29892464940E+03 -0.36039828345E+03 -0.24488410407E+03  0.52840430006E+03  0.10566000000E+00 0. -1.
         -4    1    4    4    0  501 -0.36399613458E+03  0.57675143693E+03 -0.13784281721E+02  0.68214764708E+03  0.00000000000E+00 0. -1.
<mgrwt>
<rscale>  2 0.11850870E+04</rscale>
<asrwt>0</asrwt>
<pdfrwt beam="2">  1        1 0.23042972E+00 0.11850870E+04</pdfrwt>
<pdfrwt beam="1">  1       -1 0.14429865E+00 0.11850870E+04</pdfrwt>
<totfact> 0.36208603E+00</totfact>
</mgrwt>
</event>
<event>
 8    1  0.1373409E-005  0.1107504E+04  0.7818608E-02  0.8679671E-01
          1   -1    0    0  502    0  0.00000000000E+00  0.00000000000E+00  0.14665645708E+04  0.14665645708E+04  0.00000000000E+00 0. -1.
         -1   -1    0    0    0  501 -0.00000000000E+00 -0.00000000000E+00 -0.88884039112E+03  0.88884039112E+03  0.00000000000E+00 0.  1.
    9000010    2    1    2  502    0  0.34935481482E+03 -0.34057607656E+03  0.57373260575E+03  0.12427271799E+04  0.98851448663E+03 0.  0.
   -9000010    2    1    2    0  501 -0.34935481482E+03  0.34057607656E+03  0.39915739755E+01  0.11126777820E+04  0.99999753171E+03 0.  0.
        -13    1    3    3    0    0  0.61405203491E+03 -0.48314390257E+03  0.51665583601E+03  0.93670763646E+03  0.10566000000E+00 0.  1.
          4    1    3    3  502    0 -0.26469722009E+03  0.14256782601E+03  0.57076769741E+02  0.30601954346E+03  0.00000000000E+00 0.  1.
         13    1    4    4    0    0 -0.57562370656E+02  0.66995966934E+03 -0.79361118326E+01  0.67247481595E+03  0.10566000000E+00 0. -1.
         -4    1    4    4    0  501 -0.29179244416E+03 -0.32938359278E+03  0.11927685808E+02  0.44020296609E+03  0.00000000000E+00 0. -1.
<mgrwt>
<rscale>  2 0.11075043E+04</rscale>
<asrwt>0</asrwt>
<pdfrwt beam="1">  1        1 0.22562532E+00 0.11075043E+04</pdfrwt>
<pdfrwt beam="2">  1       -1 0.13674467E+00 0.11075043E+04</pdfrwt>
<totfact> 0.44869384E+00</totfact>
</mgrwt>
</event>
<event>
 8    1  0.1373409E-005  0.1308419E+04  0.7818608E-02  0.8529106E-01
          1   -1    0    0  502    0  0.00000000000E+00  0.00000000000E+00  0.25278680619E+04  0.25278680619E+04  0.00000000000E+00 0. -1.
         -1   -1    0    0    0  501 -0.00000000000E+00 -0.00000000000E+00 -0.81976702693E+03  0.81976702693E+03  0.00000000000E+00 0.  1.
    9000010    2    1    2  502    0 -0.78896870380E+03  0.24850735443E+03  0.16187798683E+03  0.13288258887E+04  0.10273004620E+04 0.  0.
   -9000010    2    1    2    0  501  0.78896870380E+03 -0.24850735443E+03  0.15462230481E+04  0.20188092001E+04  0.10002786367E+04 0.  0.
        -13    1    3    3    0    0 -0.19051612535E+02 -0.39655818058E+02 -0.35502759107E+03  0.35774313331E+03  0.10566000000E+00 0.  1.
          4    1    3    3  502    0 -0.76991709126E+03  0.28816317249E+03  0.51690557790E+03  0.97108275542E+03  0.00000000000E+00 0.  1.
         13    1    4    4    0    0  0.47549261263E+03  0.16506718584E+03  0.13877372626E+04  0.14761961664E+04  0.10566000000E+00 0. -1.
         -4    1    4    4    0  501  0.31347609117E+03 -0.41357454027E+03  0.15848578551E+03  0.54261303366E+03  0.00000000000E+00 0. -1.
<mgrwt>
<rscale>  2 0.13084190E+04</rscale>
<asrwt>0</asrwt>
<pdfrwt beam="1">  1        1 0.38890278E+00 0.13084190E+04</pdfrwt>
<pdfrwt beam="2">  1       -1 0.12611801E+00 0.13084190E+04</pdfrwt>
<totfact> 0.78754517E-01</totfact>
</mgrwt>
</event>
<event>
 8    1  0.1373409E-005  0.1271592E+04  0.7818608E-02  0.8554517E-01
          2   -1    0    0  502    0  0.00000000000E+00  0.00000000000E+00  0.27644855822E+04  0.27644855822E+04  0.00000000000E+00 0.  1.
         -2   -1    0    0    0  501 -0.00000000000E+00 -0.00000000000E+00 -0.61264344357E+03  0.61264344357E+03  0.00000000000E+00 0. -1.
    9000010    2    1    2  502    0 -0.65439863232E+03  0.47778281965E+03  0.71868098421E+03  0.14628728385E+04  0.98335171324E+03 0.  0.
   -9000010    2    1    2    0  501  0.65439863232E+03 -0.47778281965E+03  0.14331611544E+04  0.19142561873E+04  0.97668411631E+03 0.  0.
        -13    1    3    3    0    0 -0.18957157943E+03  0.40760119967E+03 -0.15104869195E+03  0.47422762489E+03  0.10566000000E+00 0.  1.
          4    1    3    3  502    0 -0.46482705289E+03  0.70181619983E+02  0.86972967617E+03  0.98864521366E+03  0.00000000000E+00 0.  1.
         13    1    4    4    0    0  0.53012725411E+03  0.11478950687E+03  0.27675824392E+03  0.60893897328E+03  0.10566000000E+00 0. -1.
         -4    1    4    4    0  501  0.12427137821E+03 -0.59257232653E+03  0.11564029105E+04  0.13053172140E+04  0.00000000000E+00 0. -1.
<mgrwt>
<rscale>  2 0.12715923E+04</rscale>
<asrwt>0</asrwt>
<pdfrwt beam="1">  1        2 0.42530547E+00 0.12715923E+04</pdfrwt>
<pdfrwt beam="2">  1       -2 0.94252839E-01 0.12715923E+04</pdfrwt>
<totfact> 0.35740072E+00</totfact>
</mgrwt>
</event>
<event>
 8    1  0.1373409E-005  0.1044149E+04  0.7818608E-02  0.8734180E-01
         -2   -1    0    0    0  501 -0.00000000000E+00  0.00000000000E+00  0.77244164164E+03  0.77244164164E+03  0.00000000000E+00 0. -1.
          2   -1    0    0  502    0  0.00000000000E+00 -0.00000000000E+00 -0.14132062993E+04  0.14132062993E+04  0.00000000000E+00 0.  1.
    9000010    2    1    2  502    0 -0.27193682652E+03 -0.54678800673E+02 -0.28480071320E+03  0.10896488522E+04  0.10145362320E+04 0.  0.
   -9000010    2    1    2    0  501  0.27193682652E+03  0.54678800673E+02 -0.35596394448E+03  0.10959990888E+04  0.99878138948E+03 0.  0.
        -13    1    3    3    0    0 -0.31110946005E+03  0.66741077076E+02 -0.63863760443E+03  0.71351346761E+03  0.10566000000E+00 0.  1.
          4    1    3    3  502    0  0.39172633525E+02 -0.12141987775E+03  0.35383689123E+03  0.37613538457E+03  0.00000000000E+00 0.  1.
         13    1    4    4    0    0 -0.27689460079E+03 -0.18371087144E+03  0.96268279025E+02  0.34595938626E+03  0.10566000000E+00 0. -1.
         -4    1    4    4    0  501  0.54883142731E+03  0.23838967212E+03 -0.45223222351E+03  0.75003970252E+03  0.00000000000E+00 0. -1.
<mgrwt>
<rscale>  2 0.10441495E+04</rscale>
<asrwt>0</asrwt>
<pdfrwt beam="2">  1        2 0.21741635E+00 0.10441495E+04</pdfrwt>
<pdfrwt beam="1">  1       -2 0.11883718E+00 0.10441495E+04</pdfrwt>
<totfact> 0.11516812E+01</totfact>
</mgrwt>
</event>
<event>
 8    1  0.1373409E-005  0.1435371E+04  0.7818608E-02  0.8447693E-01
         -2   -1    0    0    0  501 -0.00000000000E+00  0.00000000000E+00  0.99191240350E+03  0.99191240350E+03  0.00000000000E+00 0.  1.
          2   -1    0    0  502    0  0.00000000000E+00 -0.00000000000E+00 -0.22054349781E+04  0.22054349781E+04  0.00000000000E+00 0. -1.
    9000010    2    1    2  502    0  0.10960769589E+04  0.69103419814E+01 -0.10076380751E+04  0.17932264740E+04  0.99944696915E+03 0.  0.
   -9000010    2    1    2    0  501 -0.10960769589E+04 -0.69103419814E+01 -0.20588449950E+03  0.14041209076E+04  0.85307364470E+03 0.  0.
        -13    1    3    3    0    0  0.12668443464E+04 -0.79240253735E+02 -0.97183613276E+03  0.15986366366E+04  0.10566000000E+00 0.  1.
          4    1    3    3  502    0 -0.17076738747E+03  0.86150595716E+02 -0.35801942338E+02  0.19458983745E+03  0.00000000000E+00 0.  1.
         13    1    4    4    0    0 -0.48387273325E+03 -0.37621481976E+03 -0.30102223050E+03  0.68285050122E+03  0.10566000000E+00 0. -1.
         -4    1    4    4    0  501 -0.61220422564E+03  0.36930447778E+03  0.95137731006E+02  0.72127040634E+03  0.00000000000E+00 0. -1.
<mgrwt>
<rscale>  2 0.14353713E+04</rscale>
<asrwt>0</asrwt>
<pdfrwt beam="2">  1        2 0.33929769E+00 0.14353713E+04</pdfrwt>
<pdfrwt beam="1">  1       -2 0.15260191E+00 0.14353713E+04</pdfrwt>
<totfact> 0.20042292E+00</totfact>
</mgrwt>
</event>
<event>
 8    1  0.1373409E-005  0.1052790E+04  0.7818608E-02  0.8726511E-01
          1   -1    0    0  502    0  0.00000000000E+00  0.00000000000E+00  0.25996484219E+04  0.25996484219E+04  0.00000000000E+00 0. -1.
         -1   -1    0    0    0  501 -0.00000000000E+00 -0.00000000000E+00 -0.58939861732E+03  0.58939861732E+03  0.00000000000E+00 0.  1.
    9000010    2    1    2  502    0  0.10694243073E+02  0.31337236938E+03  0.16667163716E+03  0.10661844990E+04  0.10053125596E+04 0.  0.
   -9000010    2    1    2    0  501 -0.10694243073E+02 -0.31337236938E+03  0.18435781674E+04  0.21228625402E+04  0.10047130419E+04 0.  0.
        -13    1    3    3    0    0 -0.33296196464E+02  0.67608686110E+03  0.18047277444E+03  0.70055157835E+03  0.10566000000E+00 0.  1.
          4    1    3    3  502    0  0.43990439537E+02 -0.36271449173E+03 -0.13801137289E+02  0.36563292066E+03  0.00000000000E+00 0.  1.
         13    1    4    4    0    0 -0.15535656823E+03  0.22789854087E+03  0.10313956202E+03  0.29446763598E+03  0.10566000000E+00 0. -1.
         -4    1    4    4    0  501  0.14466232516E+03 -0.54127091025E+03  0.17404386054E+04  0.18283949042E+04  0.00000000000E+00 0. -1.
<mgrwt>
<rscale>  2 0.10527902E+04</rscale>
<asrwt>0</asrwt>
<pdfrwt beam="1">  1        1 0.39994590E+00 0.10527902E+04</pdfrwt>
<pdfrwt beam="2">  1       -1 0.90676712E-01 0.10527902E+04</pdfrwt>
<totfact> 0.14899514E+00</totfact>
</mgrwt>
</event>
<event>
 8    1  0.1373409E-005  0.1479697E+04  0.7818608E-02  0.8421280E-01
         -1   -1    0    0    0  501 -0.00000000000E+00  0.00000000000E+00  0.14760187632E+04  0.14760187632E+04  0.00000000000E+00 0.  1.
          1   -1    0    0  502    0  0.00000000000E+00 -0.00000000000E+00 -0.14836929166E+04  0.14836929166E+04  0.00000000000E+00 0. -1.
    9000010    2    1    2  502    0  0.94274144581E+03 -0.55282085052E+03 -0.23784593020E+02  0.14724115021E+04  0.98643681921E+03 0.  0.
   -9000010    2    1    2    0  501 -0.94274144581E+03  0.55282085052E+03  0.16110439551E+02  0.14873001777E+04  0.10086773249E+04 0.  0.
        -13    1    3    3    0    0  0.42258209514E+02  0.94580354124E+02 -0.31014296363E+03  0.32698603748E+03  0.10566000000E+00 0.  1.
          4    1    3    3  502    0  0.90048323629E+03 -0.64740120464E+03  0.28635837061E+03  0.11454254646E+04  0.00000000000E+00 0.  1.
         13    1    4    4    0    0 -0.79357358435E+02 -0.10998002689E+03 -0.32047483750E+03  0.34799041551E+03  0.10566000000E+00 0. -1.
         -4    1    4    4    0  501 -0.86338408737E+03  0.66280087740E+03  0.33658527705E+03  0.11393097622E+04  0.00000000000E+00 0. -1.
<mgrwt>
<rscale>  2 0.14796972E+04</rscale>
<asrwt>0</asrwt>
<pdfrwt beam="2">  1        1 0.22826045E+00 0.14796972E+04</pdfrwt>
<pdfrwt beam="1">  1       -1 0.22707981E+00 0.14796972E+04</pdfrwt>
<totfact> 0.65865011E-01</totfact>
</mgrwt>
</event>
<event>
 8    1  0.1373409E-005  0.1429286E+04  0.7818608E-02  0.8451395E-01
         -4   -1    0    0    0  501 -0.00000000000E+00  0.00000000000E+00  0.30295731312E+04  0.30295731312E+04  0.00000000000E+00 0. -1.
          4   -1    0    0  502    0  0.00000000000E+00 -0.00000000000E+00 -0.85790618982E+03  0.85790618982E+03  0.00000000000E+00 0.  1.
    9000010    2    1    2  502    0  0.86378694989E+03  0.34433053547E+03  0.23567185049E+03  0.15227146402E+04  0.11825511583E+04 0.  0.
   -9000010    2    1    2    0  501 -0.86378694989E+03 -0.34433053547E+03  0.19359950909E+04  0.23647646808E+04  0.98961790160E+03 0.  0.
        -13    1    3    3    0    0 -0.13228827699E+03  0.33248880955E+03  0.37329696725E+03  0.51710698471E+03  0.10566000000E+00 0.  1.
          4    1    3    3  502    0  0.99607522688E+03  0.11841725916E+02 -0.13762511676E+03  0.10056076555E+04  0.00000000000E+00 0.  1.
         13    1    4    4    0    0 -0.41261841403E+03 -0.33081065355E+03  0.18248113764E+04  0.18999016329E+04  0.10566000000E+00 0. -1.
         -4    1    4    4    0  501 -0.45116853586E+03 -0.13519881917E+02  0.11118371453E+03  0.46486304793E+03  0.00000000000E+00 0. -1.
<mgrwt>
<rscale>  2 0.14292859E+04</rscale>
<asrwt>0</asrwt>
<pdfrwt beam="2">  1        4 0.13198557E+00 0.14292859E+04</pdfrwt>
<pdfrwt beam="1">  1       -4 0.46608817E+00 0.14292859E+04</pdfrwt>
<totfact> 0.42769994E-02</totfact>
</mgrwt>
</event>
<event>
 8    1  0.1373409E-005  0.1434399E+04  0.7818608E-02  0.8448283E-01
          2   -1    0    0  502    0  0.00000000000E+00  0.00000000000E+00  0.28355796616E+04  0.28355796616E+04  0.00000000000E+00 0.  1.
         -2   -1    0    0    0  501 -0.00000000000E+00 -0.00000000000E+00 -0.73152025082E+03  0.73152025082E+03  0.00000000000E+00 0. -1.
    9000010    2    1    2  502    0 -0.53390268680E+02 -0.10379915970E+04  0.12144365325E+04  0.18815680174E+04  0.99255480273E+03 0.  0.
   -9000010    2    1    2    0  501  0.53390268680E+02  0.10379915970E+04  0.88962287830E+03  0.16855318950E+04  0.98453635139E+03 0.  0.
        -13    1    3    3    0    0 -0.21310299845E+03 -0.80182139843E+03  0.23618940456E+03  0.86262152125E+03  0.10566000000E+00 0.  1.
          4    1    3    3  502    0  0.15971272977E+03 -0.23617019860E+03  0.97824712792E+03  0.10189464962E+04  0.00000000000E+00 0.  1.
         13    1    4    4    0    0 -0.35960514286E+03  0.13836186232E+03  0.47674318923E+03  0.61297956194E+03  0.10566000000E+00 0. -1.
         -4    1    4    4    0  501  0.41299541154E+03  0.89962973470E+03  0.41287968906E+03  0.10725523331E+04  0.00000000000E+00 0. -1.
<mgrwt>
<rscale>  2 0.14343989E+04</rscale>
<asrwt>0</asrwt>
<pdfrwt beam="1">  1        2 0.43624302E+00 0.14343989E+04</pdfrwt>
<pdfrwt beam="2">  1       -2 0.11254158E+00 0.14343989E+04</pdfrwt>
<totfact> 0.20635871E+00</totfact>
</mgrwt>
</event>
<event>
 8    1  0.1373409E-005  0.1099304E+04  0.7818608E-02  0.8686509E-01
          2   -1    0    0  502    0  0.00000000000E+00  0.00000000000E+00  0.25524700510E+04  0.25524700510E+04  0.00000000000E+00 0. -1.
         -2   -1    0    0    0  501 -0.00000000000E+00 -0.00000000000E+00 -0.53623444844E+03  0.53623444844E+03  0.00000000000E+00 0.  1.
    9000010    2    1    2  502    0 -0.39501853148E+03 -0.29097004363E+02  0.15070027217E+04  0.18458940902E+04  0.98963706126E+03 0.  0.
   -9000010    2    1    2    0  501  0.39501853148E+03  0.29097004363E+02  0.50923288081E+03  0.12428104092E+04  0.10622491753E+04 0.  0.
        -13    1    3    3    0    0 -0.13837122055E+03 -0.24358402916E+03 -0.21744395169E+02  0.28098505979E+03  0.10566000000E+00 0.  1.
          4    1    3    3  502    0 -0.25664731093E+03  0.21448702480E+03  0.15287471169E+04  0.15649090304E+04  0.00000000000E+00 0.  1.
         13    1    4    4    0    0  0.36515264813E+03  0.80897723602E+02 -0.27000314615E+03  0.46128365266E+03  0.10566000000E+00 0. -1.
         -4    1    4    4    0  501  0.29865883352E+02 -0.51800719240E+02  0.77923602696E+03  0.78152675656E+03  0.00000000000E+00 0. -1.
<mgrwt>
<rscale>  2 0.10993042E+04</rscale>
<asrwt>0</asrwt>
<pdfrwt beam="1">  1        2 0.39268769E+00 0.10993042E+04</pdfrwt>
<pdfrwt beam="2">  1       -2 0.82497609E-01 0.10993042E+04</pdfrwt>
<totfact> 0.65573905E+00</totfact>
</mgrwt>
</event>
<event>
 8    1  0.1373409E-005  0.1194841E+04  0.7818608E-02  0.8610457E-01
         -2   -1    0    0    0  501 -0.00000000000E+00  0.00000000000E+00  0.15394849353E+04  0.15394849353E+04  0.00000000000E+00 0.  1.
          2   -1    0    0  502    0  0.00000000000E+00 -0.00000000000E+00 -0.93034333504E+03  0.93034333504E+03  0.00000000000E+00 0. -1.
    9000010    2    1    2  502    0 -0.38695386251E+03  0.52913074343E+03  0.23565822941E+03  0.12216804370E+04  0.10036212700E+04 0.  0.
   -9000010    2    1    2    0  501  0.38695386251E+03 -0.52913074343E+03  0.37348337084E+03  0.12481478334E+04  0.99431913907E+03 0.  0.
        -13    1    3    3    0    0 -0.22916232761E+03  0.26896345461E+03 -0.38981012846E+03  0.52612608729E+03  0.10566000000E+00 0.  1.
          4    1    3    3  502    0 -0.15779153490E+03  0.26016728882E+03  0.62546835787E+03  0.69555434967E+03  0.00000000000E+00 0.  1.
         13    1    4    4    0    0  0.42293108940E+03 -0.77102547431E+03  0.10608138476E+03  0.88577890005E+03  0.10566000000E+00 0. -1.
         -4    1    4    4    0  501 -0.35977226888E+02  0.24189473088E+03  0.26740198608E+03  0.36236893333E+03  0.00000000000E+00 0. -1.
<mgrwt>
<rscale>  2 0.11948412E+04</rscale>
<asrwt>0</asrwt>
<pdfrwt beam="2">  1        2 0.14312974E+00 0.11948412E+04</pdfrwt>
<pdfrwt beam="1">  1       -2 0.23684384E+00 0.11948412E+04</pdfrwt>
<totfact> 0.21256259E+00</totfact>
</mgrwt>
</event>
<event>
 8    1  0.1373409E-005  0.1321237E+04  0.7818608E-02  0.8520463E-01
         -2   -1    0    0    0  501 -0.00000000000E+00  0.00000000000E+00  0.82829752812E+03  0.82829752812E+03  0.00000000000E+00 0.  1.
          2   -1    0    0  502    0  0.00000000000E+00 -0.00000000000E+00 -0.24818412369E+04  0.24818412369E+04  0.00000000000E+00 0. -1.
    9000010    2    1    2  502    0  0.39197002058E+03  0.76975647433E+03 -0.18308102591E+03  0.13320997119E+04  0.99739934511E+03 0.  0.
   -9000010    2    1    2    0  501 -0.39197002058E+03 -0.76975647433E+03 -0.14704626828E+04  0.19780390531E+04  0.10021040201E+04 0.  0.
        -13    1    3    3    0    0 -0.11113499101E+03  0.88983569830E+01 -0.38248859126E+03  0.39840645150E+03  0.10566000000E+00 0.  1.
          4    1    3    3  502    0  0.50310501159E+03  0.76085811735E+03  0.19940756536E+03  0.93369326041E+03  0.00000000000E+00 0.  1.
         13    1    4    4    0    0 -0.38822781546E+03 -0.53809469410E+03 -0.15859512793E+04  0.17191591573E+04  0.10566000000E+00 0. -1.
         -4    1    4    4    0  501 -0.37422051219E+01 -0.23166178023E+03  0.11548859650E+03  0.25887989578E+03  0.00000000000E+00 0. -1.
<mgrwt>
<rscale>  2 0.13212374E+04</rscale>
<asrwt>0</asrwt>
<pdfrwt beam="2">  1        2 0.38182173E+00 0.13212374E+04</pdfrwt>
<pdfrwt beam="1">  1       -2 0.12743039E+00 0.13212374E+04</pdfrwt>
<totfact> 0.24132910E+00</totfact>
</mgrwt>
</event>
<event>
 8    1  0.1373409E-005  0.1093276E+04  0.7818608E-02  0.8691576E-01
          4   -1    0    0  502    0  0.00000000000E+00  0.00000000000E+00  0.35789449112E+04  0.35789449112E+04  0.00000000000E+00 0. -1.
         -4   -1    0    0    0  501 -0.00000000000E+00 -0.00000000000E+00 -0.37936264741E+03  0.37936264741E+03  0.00000000000E+00 0.  1.
    9000010    2    1    2  502    0 -0.40782000220E+03  0.10182357414E+03  0.90966139750E+03  0.14189292250E+04  0.10045850353E+04 0.  0.
   -9000010    2    1    2    0  501  0.40782000220E+03 -0.10182357414E+03  0.22899208663E+04  0.25393783336E+04  0.10139129907E+04 0.  0.
        -13    1    3    3    0    0 -0.23164512302E+03  0.41375592747E+03  0.37038150634E+02  0.47563143957E+03  0.10566000000E+00 0.  1.
          4    1    3    3  502    0 -0.17617487918E+03 -0.31193235333E+03  0.87262324687E+03  0.94329778547E+03  0.00000000000E+00 0.  1.
         13    1    4    4    0    0  0.48014385063E+03  0.63337482079E+02  0.23079136704E+04  0.23581805010E+04  0.10566000000E+00 0. -1.
         -4    1    4    4    0  501 -0.72323848427E+02 -0.16516105622E+03 -0.17992804114E+02  0.18119783261E+03  0.00000000000E+00 0. -1.
<mgrwt>
<rscale>  2 0.10932765E+04</rscale>
<asrwt>0</asrwt>
<pdfrwt beam="1">  1        4 0.55060689E+00 0.10932765E+04</pdfrwt>
<pdfrwt beam="2">  1       -4 0.58363487E-01 0.10932765E+04</pdfrwt>
<totfact> 0.86626041E-02</totfact>
</mgrwt>
</event>
<event>
 8    1  0.1373409E-005  0.1095841E+04  0.7818608E-02  0.8689416E-01
          2   -1    0    0  502    0  0.00000000000E+00  0.00000000000E+00  0.12315612758E+04  0.12315612758E+04  0.00000000000E+00 0.  1.
         -2   -1    0    0    0  501 -0.00000000000E+00 -0.00000000000E+00 -0.10402704794E+04  0.10402704794E+04  0.00000000000E+00 0. -1.
    9000010    2    1    2  502    0  0.45955171197E+02  0.43898517960E+03  0.37964455407E+03  0.11559141949E+04  0.99859289642E+03 0.  0.
   -9000010    2    1    2    0  501 -0.45955171197E+02 -0.43898517960E+03 -0.18835375770E+03  0.11159175603E+04  0.10074596755E+04 0.  0.
        -13    1    3    3    0    0 -0.17383964707E+03  0.48162905196E+03 -0.18819342756E+03  0.54553051604E+03  0.10566000000E+00 0.  1.
          4    1    3    3  502    0  0.21979481827E+03 -0.42643872360E+02  0.56783798164E+03  0.61038367883E+03  0.00000000000E+00 0.  1.
         13    1    4    4    0    0  0.46670344638E+02 -0.18318907048E+03 -0.59631783408E+03  0.62556480641E+03  0.10566000000E+00 0. -1.
         -4    1    4    4    0  501 -0.92625515835E+02 -0.25579610912E+03  0.40796407638E+03  0.49035275388E+03  0.00000000000E+00 0. -1.
<mgrwt>
<rscale>  2 0.10958414E+04</rscale>
<asrwt>0</asrwt>
<pdfrwt beam="1">  1        2 0.18947097E+00 0.10958414E+04</pdfrwt>
<pdfrwt beam="2">  1       -2 0.16004161E+00 0.10958414E+04</pdfrwt>
<totfact> 0.61210595E+00</totfact>
</mgrwt>
</event>
<event>
 8    1  0.1373409E-005  0.1306562E+04  0.7818608E-02  0.8530367E-01
         -2   -1    0    0    0  501 -0.00000000000E+00  0.00000000000E+00  0.17997187660E+04  0.17997187660E+04  0.00000000000E+00 0. -1.
          2   -1    0    0  502    0  0.00000000000E+00 -0.00000000000E+00 -0.10625742412E+04  0.10625742412E+04  0.00000000000E+00 0.  1.
    9000010    2    1    2  502    0 -0.78786030290E+03  0.31623613345E+03  0.83766609883E+03  0.15528859877E+04  0.99450552973E+03 0.  0.
   -9000010    2    1    2    0  501  0.78786030290E+03 -0.31623613345E+03 -0.10052157405E+03  0.13094070196E+04  0.99182307247E+03 0.  0.
        -13    1    3    3    0    0 -0.83573614661E+03  0.29719673335E+03  0.19503875286E+03  0.90819652683E+03  0.10566000000E+00 0.  1.
          4    1    3    3  502    0  0.47875843708E+02  0.19039400100E+02  0.64262734597E+03  0.64468946087E+03  0.00000000000E+00 0.  1.
         13    1    4    4    0    0  0.87821401405E+03 -0.24107140166E+03  0.24612890645E+03  0.94337411715E+03  0.10566000000E+00 0. -1.
         -4    1    4    4    0  501 -0.90353711147E+02 -0.75164731795E+02 -0.34665048050E+03  0.36603290242E+03  0.00000000000E+00 0. -1.
<mgrwt>
<rscale>  2 0.13065620E+04</rscale>
<asrwt>0</asrwt>
<pdfrwt beam="2">  1        2 0.16347296E+00 0.13065620E+04</pdfrwt>
<pdfrwt beam="1">  1       -2 0.27687981E+00 0.13065620E+04</pdfrwt>
<totfact> 0.85703787E-01</totfact>
</mgrwt>
</event>
<event>
 8    1  0.1373409E-005  0.1038027E+04  0.7818608E-02  0.8739660E-01
         -4   -1    0    0    0  501 -0.00000000000E+00  0.00000000000E+00  0.57632137365E+03  0.57632137365E+03  0.00000000000E+00 0. -1.
          4   -1    0    0  502    0  0.00000000000E+00 -0.00000000000E+00 -0.19156841740E+04  0.19156841740E+04  0.00000000000E+00 0.  1.
    9000010    2    1    2  502    0 -0.30643641255E+03  0.14191951287E+03 -0.85477051692E+03  0.13354404539E+04  0.96887777671E+03 0.  0.
   -9000010    2    1    2    0  501  0.30643641255E+03 -0.14191951287E+03 -0.48459228342E+03  0.11565650937E+04  0.99436849903E+03 0.  0.
        -13    1    3    3    0    0  0.19605712555E+03  0.25894148095E+03  0.13916122899E+02  0.32508884428E+03  0.10566000000E+00 0.  1.
          4    1    3    3  502    0 -0.50249353809E+03 -0.11702196808E+03 -0.86868663982E+03  0.10103516096E+04  0.00000000000E+00 0.  1.
         13    1    4    4    0    0  0.43236606367E+03  0.26378550455E+03  0.74274472581E+01  0.50653566859E+03  0.10566000000E+00 0. -1.
         -4    1    4    4    0  501 -0.12592965112E+03 -0.40570501742E+03 -0.49201973068E+03  0.65002942516E+03  0.00000000000E+00 0. -1.
<mgrwt>
<rscale>  2 0.10380271E+04</rscale>
<asrwt>0</asrwt>
<pdfrwt beam="2">  1        4 0.29472064E+00 0.10380271E+04</pdfrwt>
<pdfrwt beam="1">  1       -4 0.88664827E-01 0.10380271E+04</pdfrwt>
<totfact> 0.39309630E-01</totfact>
</mgrwt>
</event>
<event>
 8    1  0.1373409E-005  0.1236258E+04  0.7818608E-02  0.8579748E-01
         -2   -1    0    0    0  501 -0.00000000000E+00  0.00000000000E+00  0.16478461896E+04  0.16478461896E+04  0.00000000000E+00 0.  1.
          2   -1    0    0  502    0  0.00000000000E+00 -0.00000000000E+00 -0.92940490883E+03  0.92940490883E+03  0.00000000000E+00 0. -1.
    9000010    2    1    2  502    0  0.51755267808E+03 -0.53455236858E+03  0.29985421967E+03  0.12698460220E+04  0.98437257034E+03 0.  0.
   -9000010    2    1    2    0  501 -0.51755267808E+03  0.53455236858E+03  0.41858706108E+03  0.13074050764E+04  0.99019487816E+03 0.  0.
        -13    1    3    3    0    0  0.77426944442E+03 -0.41673825724E+03  0.30930344809E+02  0.87984126125E+03  0.10566000000E+00 0.  1.
          4    1    3    3  502    0 -0.25671676634E+03 -0.11781411134E+03  0.26892387486E+03  0.39000476077E+03  0.00000000000E+00 0.  1.
         13    1    4    4    0    0 -0.37900085303E+03  0.81435496275E+03  0.42810490853E+03  0.99503239938E+03  0.10566000000E+00 0. -1.
         -4    1    4    4    0  501 -0.13855182505E+03 -0.27980259416E+03 -0.95178474495E+01  0.31237267702E+03  0.00000000000E+00 0. -1.
<mgrwt>
<rscale>  2 0.12362580E+04</rscale>
<asrwt>0</asrwt>
<pdfrwt beam="2">  1        2 0.14298537E+00 0.12362580E+04</pdfrwt>
<pdfrwt beam="1">  1       -2 0.25351480E+00 0.12362580E+04</pdfrwt>
<totfact> 0.15734903E+00</totfact>
</mgrwt>
</event>
<event>
 8    1  0.1373409E-005  0.1183711E+04  0.7818608E-02  0.8618930E-01
          2   -1    0    0  502    0  0.00000000000E+00  0.00000000000E+00  0.14982940582E+04  0.14982940582E+04  0.00000000000E+00 0. -1.
         -2   -1    0    0    0  501 -0.00000000000E+00 -0.00000000000E+00 -0.10654542879E+04  0.10654542879E+04  0.00000000000E+00 0.  1.
    9000010    2    1    2  502    0  0.47484151610E+03  0.36961104837E+03 -0.23016521107E+03  0.12153224086E+04  0.10305075157E+04 0.  0.
   -9000010    2    1    2    0  501 -0.47484151610E+03 -0.36961104837E+03  0.66300498139E+03  0.13484259375E+04  0.10082609341E+04 0.  0.
        -13    1    3    3    0    0  0.15806166691E+03 -0.26291919116E+03 -0.38387415492E+03  0.49139532925E+03  0.10566000000E+00 0.  1.
          4    1    3    3  502    0  0.31677984919E+03  0.63253023953E+03  0.15370894385E+03  0.72392707934E+03  0.00000000000E+00 0.  1.
         13    1    4    4    0    0 -0.22253416684E+03 -0.67897303948E+03  0.21023190909E+03  0.74479749632E+03  0.10566000000E+00 0. -1.
         -4    1    4    4    0  501 -0.25230734926E+03  0.30936199111E+03  0.45277307230E+03  0.60362844121E+03  0.00000000000E+00 0. -1.
<mgrwt>
<rscale>  2 0.11837108E+04</rscale>
<asrwt>0</asrwt>
<pdfrwt beam="1">  1        2 0.23050678E+00 0.11837108E+04</pdfrwt>
<pdfrwt beam="2">  1       -2 0.16391604E+00 0.11837108E+04</pdfrwt>
<totfact> 0.39937317E+00</totfact>
</mgrwt>
</event>
<event>
 8    1  0.1373409E-005  0.1162671E+04  0.7818608E-02  0.8635215E-01
         -2   -1    0    0    0  501 -0.00000000000E+00  0.00000000000E+00  0.87746704344E+03  0.87746704344E+03  0.00000000000E+00 0.  1.
          2   -1    0    0  502    0  0.00000000000E+00 -0.00000000000E+00 -0.22745424577E+04  0.22745424577E+04  0.00000000000E+00 0. -1.
    9000010    2    1    2  502    0 -0.11013993990E+03  0.62445487201E+03 -0.15958852536E+04  0.19775699611E+04  0.98074385789E+03 0.  0.
   -9000010    2    1    2    0  501  0.11013993990E+03 -0.62445487201E+03  0.19880983937E+03  0.11744395400E+04  0.96835333810E+03 0.  0.
        -13    1    3    3    0    0  0.29131920582E+03  0.31837831519E+03 -0.13475551386E+04  0.14149687255E+04  0.10566000000E+00 0.  1.
          4    1    3    3  502    0 -0.40145914571E+03  0.30607655682E+03 -0.24833011498E+03  0.56260123562E+03  0.00000000000E+00 0.  1.
         13    1    4    4    0    0  0.17358785016E+03 -0.35086889709E+03  0.58074527225E+03  0.70036191149E+03  0.10566000000E+00 0. -1.
         -4    1    4    4    0  501 -0.63447910261E+02 -0.27358597492E+03 -0.38193543287E+03  0.47407762853E+03  0.00000000000E+00 0. -1.
<mgrwt>
<rscale>  2 0.11626711E+04</rscale>
<asrwt>0</asrwt>
<pdfrwt beam="2">  1        2 0.34992960E+00 0.11626711E+04</pdfrwt>
<pdfrwt beam="1">  1       -2 0.13499493E+00 0.11626711E+04</pdfrwt>
<totfact> 0.27230654E+00</totfact>
</mgrwt>
</event>
<event>
 8    1  0.1373409E-005  0.1359767E+04  0.7818608E-02  0.8495079E-01
         -2   -1    0    0    0  501 -0.00000000000E+00  0.00000000000E+00  0.16520981814E+04  0.16520981814E+04  0.00000000000E+00 0. -1.
          2   -1    0    0  502    0  0.00000000000E+00 -0.00000000000E+00 -0.11731954324E+04  0.11731954324E+04  0.00000000000E+00 0.  1.
    9000010    2    1    2  502    0  0.36650616566E+03  0.79356906815E+03 -0.59238065981E+02  0.13828732737E+04  0.10699302348E+04 0.  0.
   -9000010    2    1    2    0  501 -0.36650616566E+03 -0.79356906815E+03  0.53814081492E+03  0.14424203400E+04  0.10133618629E+04 0.  0.
        -13    1    3    3    0    0  0.63942359492E+03  0.65183353755E+03  0.25004958153E+03  0.94671764471E+03  0.10566000000E+00 0.  1.
          4    1    3    3  502    0 -0.27291742927E+03  0.14173553059E+03 -0.30928764751E+03  0.43615562903E+03  0.00000000000E+00 0.  1.
         13    1    4    4    0    0 -0.19725331253E+03  0.16514781000E+03 -0.10257831981E+03  0.27695665963E+03  0.10566000000E+00 0. -1.
         -4    1    4    4    0  501 -0.16925285312E+03 -0.95871687814E+03  0.64071913473E+03  0.11654636804E+04  0.00000000000E+00 0. -1.
<mgrwt>
<rscale>  2 0.13597671E+04</rscale>
<asrwt>0</asrwt>
<pdfrwt beam="2">  1        2 0.18049160E+00 0.13597671E+04</pdfrwt>
<pdfrwt beam="1">  1       -2 0.25416895E+00 0.13597671E+04</pdfrwt>
<totfact> 0.10977560E+00</totfact>
</mgrwt>
</event>
<event>
 8    1  0.1373409E-005  0.1218230E+04  0.7818608E-02  0.8592960E-01
          2   -1    0    0  502    0  0.00000000000E+00  0.00000000000E+00  0.32626322794E+04  0.32626322794E+04  0.00000000000E+00 0.  1.
         -2   -1    0    0    0  501 -0.00000000000E+00 -0.00000000000E+00 -0.54118842641E+03  0.54118842641E+03  0.00000000000E+00 0. -1.
    9000010    2    1    2  502    0  0.44689092608E+03  0.53574121597E+03  0.59665951881E+03  0.13521626924E+04  0.99277953993E+03 0.  0.
   -9000010    2    1    2    0  501 -0.44689092608E+03 -0.53574121597E+03  0.21247843342E+04  0.24516580135E+04  0.10045836938E+04 0.  0.
        -13    1    3    3    0    0 -0.24195798198E+03  0.45208945462E+02  0.42217775597E+03  0.48869375133E+03  0.10566000000E+00 0.  1.
          4    1    3    3  502    0  0.68884890806E+03  0.49053227051E+03  0.17448176284E+03  0.86346894102E+03  0.00000000000E+00 0.  1.
         13    1    4    4    0    0  0.28254533019E+02 -0.42669968839E+03  0.18357884772E+04  0.18849377409E+04  0.10566000000E+00 0. -1.
         -4    1    4    4    0  501 -0.47514545910E+03 -0.10904152758E+03  0.28899585698E+03  0.56672027261E+03  0.00000000000E+00 0. -1.
<mgrwt>
<rscale>  2 0.12182295E+04</rscale>
<asrwt>0</asrwt>
<pdfrwt beam="1">  1        2 0.50194342E+00 0.12182295E+04</pdfrwt>
<pdfrwt beam="2">  1       -2 0.83259760E-01 0.12182295E+04</pdfrwt>
<totfact> 0.23430509E+00</totfact>
</mgrwt>
</event>
<event>
 8    1  0.1373409E-005  0.1029138E+04  0.7818608E-02  0.8747685E-01
         -1   -1    0    0    0  501 -0.00000000000E+00  0.00000000000E+00  0.35391860995E+04  0.35391860995E+04  0.00000000000E+00 0. -1.
          1   -1    0    0  502    0  0.00000000000E+00 -0.00000000000E+00 -0.41712851569E+03  0.41712851569E+03  0.00000000000E+00 0.  1.
    9000010    2    1    2  502    0 -0.22607037427E+03 -0.21190393550E+03  0.48845491725E+03  0.11213976370E+04  0.96069420843E+03 0.  0.
   -9000010    2    1    2    0  501  0.22607037427E+03  0.21190393550E+03  0.26336026666E+04  0.28349169782E+04  0.10024371182E+04 0.  0.
        -13    1    3    3    0    0 -0.42007726361E+03 -0.11562582993E+03  0.69619378123E+03  0.82129168517E+03  0.10566000000E+00 0.  1.
          4    1    3    3  502    0  0.19400688934E+03 -0.96278105579E+02 -0.20773886398E+03  0.30010595185E+03  0.00000000000E+00 0.  1.
         13    1    4    4    0    0 -0.15661985512E+03  0.12337287967E+03  0.23298721313E+04  0.23383872232E+04  0.10566000000E+00 0. -1.
         -4    1    4    4    0  501  0.38269022939E+03  0.88531055835E+02  0.30373053534E+03  0.49652975502E+03  0.00000000000E+00 0. -1.
<mgrwt>
<rscale>  2 0.10291383E+04</rscale>
<asrwt>0</asrwt>
<pdfrwt beam="2">  1        1 0.64173620E-01 0.10291383E+04</pdfrwt>
<pdfrwt beam="1">  1       -1 0.54449015E+00 0.10291383E+04</pdfrwt>
<totfact> 0.50888870E-01</totfact>
</mgrwt>
</event>
<event>
 8    1  0.1373409E-005  0.1052126E+04  0.7818608E-02  0.8727098E-01
          2   -1    0    0  502    0  0.00000000000E+00  0.00000000000E+00  0.19674206965E+04  0.19674206965E+04  0.00000000000E+00 0.  1.
         -2   -1    0    0    0  501 -0.00000000000E+00 -0.00000000000E+00 -0.56333928678E+03  0.56333928678E+03  0.00000000000E+00 0. -1.
    9000010    2    1    2  502    0  0.30907273793E+03 -0.50655705325E+02  0.65981344542E+03  0.12443346085E+04  0.10074338079E+04 0.  0.
   -9000010    2    1    2    0  501 -0.30907273793E+03  0.50655705325E+02  0.74426796431E+03  0.12864253748E+04  0.10014307187E+04 0.  0.
        -13    1    3    3    0    0  0.46285061383E+02 -0.51289771511E+03  0.40256736685E+03  0.65365653755E+03  0.10566000000E+00 0.  1.
          4    1    3    3  502    0  0.26278767655E+03  0.46224200978E+03  0.25724607857E+03  0.59067807094E+03  0.00000000000E+00 0.  1.
         13    1    4    4    0    0  0.14257277968E+03 -0.35382651829E+03  0.85135833480E+02  0.39085588631E+03  0.10566000000E+00 0. -1.
         -4    1    4    4    0  501 -0.45164551762E+03  0.40448222362E+03  0.65913213083E+03  0.89556948848E+03  0.00000000000E+00 0. -1.
<mgrwt>
<rscale>  2 0.10521258E+04</rscale>
<asrwt>0</asrwt>
<pdfrwt beam="1">  1        2 0.30268010E+00 0.10521258E+04</pdfrwt>
<pdfrwt beam="2">  1       -2 0.86667583E-01 0.10521258E+04</pdfrwt>
<totfact> 0.12367287E+01</totfact>
</mgrwt>
</event>
<event>
 8    1  0.1373409E-005  0.1422286E+04  0.7818608E-02  0.8455677E-01
         -4   -1    0    0    0  501 -0.00000000000E+00  0.00000000000E+00  0.12140011625E+04  0.12140011625E+04  0.00000000000E+00 0. -1.
          4   -1    0    0  502    0  0.00000000000E+00 -0.00000000000E+00 -0.17012599904E+04  0.17012599904E+04  0.00000000000E+00 0.  1.
    9000010    2    1    2  502    0 -0.97793461189E+03  0.21026579792E+03 -0.45263123970E+03  0.14929594516E+04  0.10116743913E+04 0.  0.
   -9000010    2    1    2    0  501  0.97793461189E+03 -0.21026579792E+03 -0.34627588253E+02  0.14223017013E+04  0.10105321612E+04 0.  0.
        -13    1    3    3    0    0 -0.86563926678E+03  0.34651645922E+03  0.76107313061E+02  0.93551981859E+03  0.10566000000E+00 0.  1.
          4    1    3    3  502    0 -0.11229534511E+03 -0.13625066130E+03 -0.52873855277E+03  0.55743963298E+03  0.00000000000E+00 0.  1.
         13    1    4    4    0    0 -0.14856691440E+03  0.12544155350E+03  0.13210884950E+03  0.23507545742E+03  0.10566000000E+00 0. -1.
         -4    1    4    4    0  501  0.11265015263E+04 -0.33570735141E+03 -0.16673643776E+03  0.11872262439E+04  0.00000000000E+00 0. -1.
<mgrwt>
<rscale>  2 0.14222861E+04</rscale>
<asrwt>0</asrwt>
<pdfrwt beam="2">  1        4 0.26173231E+00 0.14222861E+04</pdfrwt>
<pdfrwt beam="1">  1       -4 0.18676941E+00 0.14222861E+04</pdfrwt>
<totfact> 0.13736197E-01</totfact>
</mgrwt>
</event>
<event>
 8    1  0.1373409E-005  0.1093759E+04  0.7818608E-02  0.8691169E-01
         -1   -1    0    0    0  501 -0.00000000000E+00  0.00000000000E+00  0.79793718450E+03  0.79793718450E+03  0.00000000000E+00 0. -1.
          1   -1    0    0  502    0  0.00000000000E+00 -0.00000000000E+00 -0.15008793039E+04  0.15008793039E+04  0.00000000000E+00 0.  1.
    9000010    2    1    2  502    0 -0.34328628573E+03  0.26693206179E+03 -0.31580506029E+03  0.11437020951E+04  0.10095659695E+04 0.  0.
   -9000010    2    1    2    0  501  0.34328628573E+03 -0.26693206179E+03 -0.38713705910E+03  0.11551143933E+04  0.99765523074E+03 0.  0.
        -13    1    3    3    0    0 -0.27427096951E+03 -0.22366176662E+02 -0.64427932006E+03  0.70058594333E+03  0.10566000000E+00 0.  1.
          4    1    3    3  502    0 -0.69015316216E+02  0.28929823845E+03  0.32847425977E+03  0.44311615179E+03  0.00000000000E+00 0.  1.
         13    1    4    4    0    0  0.30214696349E+03 -0.40821675992E+03  0.20297625035E+03  0.54693059888E+03  0.10566000000E+00 0. -1.
         -4    1    4    4    0  501  0.41139322239E+02  0.14128469813E+03 -0.59011330945E+03  0.60818379439E+03  0.00000000000E+00 0. -1.
<mgrwt>
<rscale>  2 0.10937587E+04</rscale>
<asrwt>0</asrwt>
<pdfrwt beam="2">  1        1 0.23090451E+00 0.10937587E+04</pdfrwt>
<pdfrwt beam="1">  1       -1 0.12275957E+00 0.10937587E+04</pdfrwt>
<totfact> 0.56256387E+00</totfact>
</mgrwt>
</event>
<event>
 8    1  0.1373409E-005  0.1187700E+04  0.7818608E-02  0.8615882E-01
          1   -1    0    0  502    0  0.00000000000E+00  0.00000000000E+00  0.88182270347E+03  0.88182270347E+03  0.00000000000E+00 0.  1.
         -1   -1    0    0    0  501 -0.00000000000E+00 -0.00000000000E+00 -0.16431164651E+04  0.16431164651E+04  0.00000000000E+00 0. -1.
    9000010    2    1    2  502    0  0.47358533656E+03 -0.44120004087E+03 -0.58670279749E+03  0.13270219189E+04  0.99891263560E+03 0.  0.
   -9000010    2    1    2    0  501 -0.47358533656E+03  0.44120004087E+03 -0.17459096411E+03  0.11979172496E+04  0.99276542304E+03 0.  0.
        -13    1    3    3    0    0 -0.24898822511E+03 -0.27354916915E+03  0.17511238741E+02  0.37031194800E+03  0.10566000000E+00 0.  1.
          4    1    3    3  502    0  0.72257356167E+03 -0.16765087172E+03 -0.60421403623E+03  0.95670997088E+03  0.00000000000E+00 0.  1.
         13    1    4    4    0    0 -0.33930310904E+02  0.65903524446E+03  0.42713310667E+02  0.66128901209E+03  0.10566000000E+00 0. -1.
         -4    1    4    4    0  501 -0.43965502565E+03 -0.21783520359E+03 -0.21730427477E+03  0.53662823756E+03  0.00000000000E+00 0. -1.
<mgrwt>
<rscale>  2 0.11877003E+04</rscale>
<asrwt>0</asrwt>
<pdfrwt beam="1">  1        1 0.13566503E+00 0.11877003E+04</pdfrwt>
<pdfrwt beam="2">  1       -1 0.25278714E+00 0.11877003E+04</pdfrwt>
<totfact> 0.11458280E+00</totfact>
</mgrwt>
</event>
<event>
 8    1  0.1373409E-005  0.1379010E+04  0.7818608E-02  0.8482723E-01
         -2   -1    0    0    0  501 -0.00000000000E+00  0.00000000000E+00  0.16462967736E+04  0.16462967736E+04  0.00000000000E+00 0.  1.
          2   -1    0    0  502    0  0.00000000000E+00 -0.00000000000E+00 -0.12843700302E+04  0.12843700302E+04  0.00000000000E+00 0. -1.
    9000010    2    1    2  502    0 -0.79361800004E+03  0.48831294524E+03 -0.28437056961E+03  0.14037799042E+04  0.10106692515E+04 0.  0.
   -9000010    2    1    2    0  501  0.79361800004E+03 -0.48831294524E+03  0.64629731300E+03  0.15268868997E+04  0.10224501578E+04 0.  0.
        -13    1    3    3    0    0 -0.33562845248E+03  0.28952521555E+03 -0.64872771237E+03  0.78569648371E+03  0.10566000000E+00 0.  1.
          4    1    3    3  502    0 -0.45798954756E+03  0.19878772969E+03  0.36435714276E+03  0.61808342045E+03  0.00000000000E+00 0.  1.
         13    1    4    4    0    0  0.42410336916E+03  0.10446808712E+03 -0.15536834627E+03  0.46359096534E+03  0.10566000000E+00 0. -1.
         -4    1    4    4    0  501  0.36951463088E+03 -0.59278103236E+03  0.80166565927E+03  0.10632959343E+04  0.00000000000E+00 0. -1.
<mgrwt>
<rscale>  2 0.13790104E+04</rscale>
<asrwt>0</asrwt>
<pdfrwt beam="2">  1        2 0.19759539E+00 0.13790104E+04</pdfrwt>
<pdfrwt beam="1">  1       -2 0.25327643E+00 0.13790104E+04</pdfrwt>
<totfact> 0.96157471E-01</totfact>
</mgrwt>
</event>
<event>
 8    1  0.1373409E-005  0.1210912E+04  0.7818608E-02  0.8598390E-01
         -2   -1    0    0    0  501 -0.00000000000E+00  0.00000000000E+00  0.59703892655E+03  0.59703892655E+03  0.00000000000E+00 0. -1.
          2   -1    0    0  502    0  0.00000000000E+00 -0.00000000000E+00 -0.27814109664E+04  0.27814109664E+04  0.00000000000E+00 0.  1.
    9000010    2    1    2  502    0  0.63572201009E+03  0.34100954451E+03 -0.16681635825E+04  0.20599787074E+04  0.96969714518E+03 0.  0.
   -9000010    2    1    2    0  501 -0.63572201009E+03 -0.34100954451E+03 -0.51620845728E+03  0.13184711855E+04  0.97543073156E+03 0.  0.
        -13    1    3    3    0    0  0.65728921954E+03  0.10632280217E+03 -0.16966163369E+04  0.18225917432E+04  0.10566000000E+00 0.  1.
          4    1    3    3  502    0 -0.21567209451E+02  0.23468674234E+03  0.28452754407E+02  0.23738696423E+03  0.00000000000E+00 0.  1.
         13    1    4    4    0    0 -0.68287589337E+03  0.12609651683E+03 -0.12119245003E+03  0.70491661806E+03  0.10566000000E+00 0. -1.
         -4    1    4    4    0  501  0.47153883280E+02 -0.46710606134E+03 -0.39501600725E+03  0.61355456744E+03  0.00000000000E+00 0. -1.
<mgrwt>
<rscale>  2 0.12109121E+04</rscale>
<asrwt>0</asrwt>
<pdfrwt beam="2">  1        2 0.42790938E+00 0.12109121E+04</pdfrwt>
<pdfrwt beam="1">  1       -2 0.91852143E-01 0.12109121E+04</pdfrwt>
<totfact> 0.37365035E+00</totfact>
</mgrwt>
</event>
<event>
 8    1  0.1373409E-005  0.1171139E+04  0.7818608E-02  0.8628618E-01
          2   -1    0    0  502    0  0.00000000000E+00  0.00000000000E+00  0.20066394747E+04  0.20066394747E+04  0.00000000000E+00 0. -1.
         -2   -1    0    0    0  501 -0.00000000000E+00 -0.00000000000E+00 -0.94198484996E+03  0.94198484996E+03  0.00000000000E+00 0.  1.
    9000010    2    1    2  502    0  0.11491473661E+03 -0.59851191270E+03 -0.23819251482E+03  0.12002703122E+04  0.10062262380E+04 0.  0.
   -9000010    2    1    2    0  501 -0.11491473661E+03  0.59851191270E+03  0.13028471396E+04  0.17483540124E+04  0.99393620389E+03 0.  0.
        -13    1    3    3    0    0 -0.12459230387E+03 -0.70816669188E+03 -0.46195051210E+03  0.85464705725E+03  0.10566000000E+00 0.  1.
          4    1    3    3  502    0  0.23950704048E+03  0.10965477918E+03  0.22375799727E+03  0.34562325497E+03  0.00000000000E+00 0.  1.
         13    1    4    4    0    0 -0.28948304528E+03 -0.97385690705E+02  0.57014582386E+02  0.31070094951E+03  0.10566000000E+00 0. -1.
         -4    1    4    4    0  501  0.17456830867E+03  0.69589760340E+03  0.12458325572E+04  0.14376530629E+04  0.00000000000E+00 0. -1.
<mgrwt>
<rscale>  2 0.11711392E+04</rscale>
<asrwt>0</asrwt>
<pdfrwt beam="1">  1        2 0.30871377E+00 0.11711392E+04</pdfrwt>
<pdfrwt beam="2">  1       -2 0.14492075E+00 0.11711392E+04</pdfrwt>
<totfact> 0.31026039E+00</totfact>
</mgrwt>
</event>
<event>
 8    1  0.1373409E-005  0.1125671E+04  0.7818608E-02  0.8664739E-01
          2   -1    0    0  502    0  0.00000000000E+00  0.00000000000E+00  0.13483686570E+04  0.13483686570E+04  0.00000000000E+00 0.  1.
         -2   -1    0    0    0  501 -0.00000000000E+00 -0.00000000000E+00 -0.10052851539E+04  0.10052851539E+04  0.00000000000E+00 0. -1.
    9000010    2    1    2  502    0  0.18979567086E+03  0.48797589787E+03  0.47116558290E+03  0.12152385831E+04  0.99028527899E+03 0.  0.
   -9000010    2    1    2    0  501 -0.18979567086E+03 -0.48797589787E+03 -0.12808207979E+03  0.11384152278E+04  0.10027169781E+04 0.  0.
        -13    1    3    3    0    0 -0.17796565611E+03 -0.12348500694E+03 -0.15464453118E+03  0.26614895056E+03  0.10566000000E+00 0.  1.
          4    1    3    3  502    0  0.36776132697E+03  0.61146090481E+03  0.62581011408E+03  0.94908963255E+03  0.00000000000E+00 0.  1.
         13    1    4    4    0    0  0.37793261359E+02  0.14882228000E+03 -0.38540521820E+03  0.41486575541E+03  0.10566000000E+00 0. -1.
         -4    1    4    4    0  501 -0.22758893222E+03 -0.63679817787E+03  0.25732313841E+03  0.72354947237E+03  0.00000000000E+00 0. -1.
<mgrwt>
<rscale>  2 0.11256711E+04</rscale>
<asrwt>0</asrwt>
<pdfrwt beam="1">  1        2 0.20744133E+00 0.11256711E+04</pdfrwt>
<pdfrwt beam="2">  1       -2 0.15465925E+00 0.11256711E+04</pdfrwt>
<totfact> 0.58475350E+00</totfact>
</mgrwt>
</event>
<event>
 8    1  0.1373409E-005  0.1216755E+04  0.7818608E-02  0.8594051E-01
         -1   -1    0    0    0  501 -0.00000000000E+00  0.00000000000E+00  0.78936225256E+03  0.78936225256E+03  0.00000000000E+00 0. -1.
          1   -1    0    0  502    0  0.00000000000E+00 -0.00000000000E+00 -0.20613911479E+04  0.20613911479E+04  0.00000000000E+00 0.  1.
    9000010    2    1    2  502    0 -0.50296135480E+03  0.45862811682E+03 -0.10621330467E+04  0.16122347262E+04  0.10039244641E+04 0.  0.
   -9000010    2    1    2    0  501  0.50296135480E+03 -0.45862811682E+03 -0.20989584862E+03  0.12385186742E+04  0.10131941399E+04 0.  0.
        -13    1    3    3    0    0 -0.78106039874E+03  0.47175329622E+03 -0.93404544020E+03  0.13057746415E+04  0.10566000000E+00 0.  1.
          4    1    3    3  502    0  0.27809904394E+03 -0.13125179393E+02 -0.12808760649E+03  0.30646008470E+03  0.00000000000E+00 0.  1.
         13    1    4    4    0    0  0.30622516225E+03  0.28853109692E+03 -0.19992842234E+03  0.46582768178E+03  0.10566000000E+00 0. -1.
         -4    1    4    4    0  501  0.19673619255E+03 -0.74715921375E+03 -0.99674262754E+01  0.77269099240E+03  0.00000000000E+00 0. -1.
<mgrwt>
<rscale>  2 0.12167554E+04</rscale>
<asrwt>0</asrwt>
<pdfrwt beam="2">  1        1 0.31713709E+00 0.12167554E+04</pdfrwt>
<pdfrwt beam="1">  1       -1 0.12144035E+00 0.12167554E+04</pdfrwt>
<totfact> 0.21613139E+00</totfact>
</mgrwt>
</event>
<event>
 8    1  0.1373409E-005  0.1106585E+04  0.7818608E-02  0.8680435E-01
         -1   -1    0    0    0  501 -0.00000000000E+00  0.00000000000E+00  0.57514600919E+03  0.57514600919E+03  0.00000000000E+00 0.  1.
          1   -1    0    0  502    0  0.00000000000E+00 -0.00000000000E+00 -0.21438784885E+04  0.21438784885E+04  0.00000000000E+00 0. -1.
    9000010    2    1    2  502    0  0.13440979182E+03  0.46466223887E+03 -0.90020125536E+03  0.14298039524E+04  0.10000000270E+04 0.  0.
   -9000010    2    1    2    0  501 -0.13440979182E+03 -0.46466223887E+03 -0.66853122391E+03  0.12892205452E+04  0.99054461206E+03 0.  0.
        -13    1    3    3    0    0  0.40888968708E+03  0.65741851396E+03 -0.59666431426E+03  0.97744472672E+03  0.10566000000E+00 0.  1.
          4    1    3    3  502    0 -0.27447989527E+03 -0.19275627510E+03 -0.30353694110E+03  0.45235922573E+03  0.00000000000E+00 0.  1.
         13    1    4    4    0    0  0.41928327338E+02 -0.47215472020E+03 -0.88859693534E+03  0.10071209407E+04  0.10566000000E+00 0. -1.
         -4    1    4    4    0  501 -0.17633811915E+03  0.74924813353E+01  0.22006571143E+03  0.28209960456E+03  0.00000000000E+00 0. -1.
<mgrwt>
<rscale>  2 0.11065849E+04</rscale>
<asrwt>0</asrwt>
<pdfrwt beam="2">  1        1 0.32982745E+00 0.11065849E+04</pdfrwt>
<pdfrwt beam="1">  1       -1 0.88484003E-01 0.11065849E+04</pdfrwt>
<totfact> 0.38294500E+00</totfact>
</mgrwt>
</event>
<event>
 8    1  0.1373409E-005  0.1042066E+04  0.7818608E-02  0.8736041E-01
          2   -1    0    0  502    0  0.00000000000E+00  0.00000000000E+00  0.76384018743E+03  0.76384018743E+03  0.00000000000E+00 0.  1.
         -2   -1    0    0    0  501 -0.00000000000E+00 -0.00000000000E+00 -0.14331125328E+04  0.14331125328E+04  0.00000000000E+00 0. -1.
    9000010    2    1    2  502    0  0.15803312698E+03  0.27821017084E+03 -0.43424914298E+03  0.11330283512E+04  0.99639628562E+03 0.  0.
   -9000010    2    1    2    0  501 -0.15803312698E+03 -0.27821017084E+03 -0.23502320238E+03  0.10639243691E+04  0.98707841078E+03 0.  0.
        -13    1    3    3    0    0  0.19344295769E+03 -0.28359314950E+03 -0.45470526031E+03  0.56973865697E+03  0.10566000000E+00 0.  1.
          4    1    3    3  502    0 -0.35409830706E+02  0.56180332034E+03  0.20456117329E+02  0.56328969420E+03  0.00000000000E+00 0.  1.
         13    1    4    4    0    0  0.22403683576E+03 -0.24428408438E+02  0.28967043961E+03  0.36701256882E+03  0.10566000000E+00 0. -1.
         -4    1    4    4    0  501 -0.38206996275E+03 -0.25378176240E+03 -0.52469364200E+03  0.69691180024E+03  0.00000000000E+00 0. -1.
<mgrwt>
<rscale>  2 0.10420656E+04</rscale>
<asrwt>0</asrwt>
<pdfrwt beam="1">  1        2 0.11751388E+00 0.10420656E+04</pdfrwt>
<pdfrwt beam="2">  1       -2 0.22047885E+00 0.10420656E+04</pdfrwt>
<totfact> 0.37709801E+00</totfact>
</mgrwt>
</event>
<event>
 8    1  0.1373409E-005  0.1136675E+04  0.7818608E-02  0.8655836E-01
         -1   -1    0    0    0  501 -0.00000000000E+00  0.00000000000E+00  0.10885287343E+04  0.10885287343E+04  0.00000000000E+00 0. -1.
          1   -1    0    0  502    0  0.00000000000E+00 -0.00000000000E+00 -0.16214648682E+04  0.16214648682E+04  0.00000000000E+00 0.  1.
    9000010    2    1    2  502    0  0.54713744650E+03 -0.61796584314E+02 -0.97164072205E+03  0.15148963853E+04  0.10235463655E+04 0.  0.
   -9000010    2    1    2    0  501 -0.54713744650E+03  0.61796584314E+02  0.43870458816E+03  0.11950972172E+04  0.96572120185E+03 0.  0.
        -13    1    3    3    0    0  0.97339117216E+02 -0.32922790354E+03 -0.92836826398E+03  0.98981491247E+03  0.10566000000E+00 0.  1.
          4    1    3    3  502    0  0.44979832929E+03  0.26743131922E+03 -0.43272458072E+02  0.52508147288E+03  0.00000000000E+00 0.  1.
         13    1    4    4    0    0  0.16646780595E+03  0.26012426515E+03  0.32048436471E+03  0.44506898670E+03  0.10566000000E+00 0. -1.
         -4    1    4    4    0  501 -0.71360525246E+03 -0.19832768083E+03  0.11822022345E+03  0.75002823050E+03  0.00000000000E+00 0. -1.
<mgrwt>
<rscale>  2 0.11366754E+04</rscale>
<asrwt>0</asrwt>
<pdfrwt beam="2">  1        1 0.24945613E+00 0.11366754E+04</pdfrwt>
<pdfrwt beam="1">  1       -1 0.16746596E+00 0.11366754E+04</pdfrwt>
<totfact> 0.18594844E+00</totfact>
</mgrwt>
</event>
<event>
 8    1  0.1373409E-005  0.1315030E+04  0.7818608E-02  0.8524636E-01
          2   -1    0    0  502    0  0.00000000000E+00  0.00000000000E+00  0.21022370298E+04  0.21022370298E+04  0.00000000000E+00 0.  1.
         -2   -1    0    0    0  501 -0.00000000000E+00 -0.00000000000E+00 -0.82717748482E+03  0.82717748482E+03  0.00000000000E+00 0. -1.
    9000010    2    1    2  502    0 -0.71834859778E+03 -0.60452225633E+03  0.55300494757E+03  0.14596661302E+04  0.97125633764E+03 0.  0.
   -9000010    2    1    2    0  501  0.71834859778E+03  0.60452225633E+03  0.72205459746E+03  0.14697483844E+04  0.87024456647E+03 0.  0.
        -13    1    3    3    0    0 -0.85959548707E+03 -0.27500276394E+03  0.14091208685E+03  0.91344794540E+03  0.10566000000E+00 0.  1.
          4    1    3    3  502    0  0.14124688929E+03 -0.32951949239E+03  0.41209286072E+03  0.54621818484E+03  0.00000000000E+00 0.  1.
         13    1    4    4    0    0  0.54168213448E+03  0.54129060950E+03  0.44917687560E+02  0.76709365046E+03  0.10566000000E+00 0. -1.
         -4    1    4    4    0  501  0.17666646330E+03  0.63231646823E+02  0.67713690989E+03  0.70265473396E+03  0.00000000000E+00 0. -1.
<mgrwt>
<rscale>  2 0.13150304E+04</rscale>
<asrwt>0</asrwt>
<pdfrwt beam="1">  1        2 0.32342108E+00 0.13150304E+04</pdfrwt>
<pdfrwt beam="2">  1       -2 0.12725808E+00 0.13150304E+04</pdfrwt>
<totfact> 0.39241066E+00</totfact>
</mgrwt>
</event>
<event>
 8    1  0.1373409E-005  0.1430645E+04  0.7818608E-02  0.8450566E-01
          1   -1    0    0  502    0  0.00000000000E+00  0.00000000000E+00  0.21697802782E+04  0.21697802782E+04  0.00000000000E+00 0. -1.
         -1   -1    0    0    0  501 -0.00000000000E+00 -0.00000000000E+00 -0.10894696345E+04  0.10894696345E+04  0.00000000000E+00 0.  1.
    9000010    2    1    2  502    0 -0.98049790337E+03  0.33397229896E+03  0.11375087867E+04  0.18287972679E+04  0.98876669262E+03 0.  0.
   -9000010    2    1    2    0  501  0.98049790337E+03 -0.33397229896E+03 -0.57198142989E+02  0.14304526448E+04  0.98489060636E+03 0.  0.
        -13    1    3    3    0    0 -0.52965945142E+03 -0.33387301913E+03  0.50814101113E+03  0.80636072929E+03  0.10566000000E+00 0.  1.
          4    1    3    3  502    0 -0.45083845195E+03  0.66784531809E+03  0.62936777556E+03  0.10224365387E+04  0.00000000000E+00 0.  1.
         13    1    4    4    0    0  0.11748764392E+04 -0.33262756824E+03  0.20212735097E+02  0.12212224664E+04  0.10566000000E+00 0. -1.
         -4    1    4    4    0  501 -0.19437853587E+03 -0.13447307270E+01 -0.77410878086E+02  0.20923017840E+03  0.00000000000E+00 0. -1.
<mgrwt>
<rscale>  2 0.14306448E+04</rscale>
<asrwt>0</asrwt>
<pdfrwt beam="1">  1        1 0.33381235E+00 0.14306448E+04</pdfrwt>
<pdfrwt beam="2">  1       -1 0.16761071E+00 0.14306448E+04</pdfrwt>
<totfact> 0.68316253E-01</totfact>
</mgrwt>
</event>
<event>
 8    1  0.1373409E-005  0.1683126E+04  0.7818608E-02  0.8311260E-01
         -1   -1    0    0    0  501 -0.00000000000E+00  0.00000000000E+00  0.12142216455E+04  0.12142216455E+04  0.00000000000E+00 0.  1.
          1   -1    0    0  502    0  0.00000000000E+00 -0.00000000000E+00 -0.23736288466E+04  0.23736288466E+04  0.00000000000E+00 0. -1.
    9000010    2    1    2  502    0 -0.11332700000E+04 -0.71569910790E+03 -0.80965572142E+03  0.18569261100E+04  0.99805114333E+03 0.  0.
   -9000010    2    1    2    0  501  0.11332700000E+04  0.71569910790E+03 -0.34975147971E+03  0.17309243821E+04  0.10379051079E+04 0.  0.
        -13    1    3    3    0    0 -0.94493680168E+03 -0.34874192736E+03 -0.98493204850E+03  0.14087645802E+04  0.10566000000E+00 0.  1.
          4    1    3    3  502    0 -0.18833319833E+03 -0.36695718054E+03  0.17527632708E+03  0.44816152979E+03  0.00000000000E+00 0.  1.
         13    1    4    4    0    0  0.80245789220E+03  0.96460607934E+03 -0.12795529614E+03  0.12612597377E+04  0.10566000000E+00 0. -1.
         -4    1    4    4    0  501  0.33081210781E+03 -0.24890697144E+03 -0.22179618357E+03  0.46966464435E+03  0.00000000000E+00 0. -1.
<mgrwt>
<rscale>  2 0.16831257E+04</rscale>
<asrwt>0</asrwt>
<pdfrwt beam="2">  1        1 0.36517367E+00 0.16831257E+04</pdfrwt>
<pdfrwt beam="1">  1       -1 0.18680333E+00 0.16831257E+04</pdfrwt>
<totfact> 0.30345172E-01</totfact>
</mgrwt>
</event>
<event>
 8    1  0.1373409E-005  0.1197197E+04  0.7818608E-02  0.8608676E-01
          1   -1    0    0  502    0  0.00000000000E+00  0.00000000000E+00  0.12777707412E+04  0.12777707412E+04  0.00000000000E+00 0.  1.
         -1   -1    0    0    0  501 -0.00000000000E+00 -0.00000000000E+00 -0.11218107078E+04  0.11218107078E+04  0.00000000000E+00 0. -1.
    9000010    2    1    2  502    0 -0.56308867891E+03 -0.32495930175E+03  0.66332543326E+02  0.11969784563E+04  0.10028409697E+04 0.  0.
   -9000010    2    1    2    0  501  0.56308867891E+03  0.32495930175E+03  0.89627490021E+02  0.12026029926E+04  0.10077467255E+04 0.  0.
        -13    1    3    3    0    0 -0.11307113371E+03 -0.11579585202E+03 -0.45157187168E+03  0.47969878787E+03  0.10566000000E+00 0.  1.
          4    1    3    3  502    0 -0.45001754520E+03 -0.20916344973E+03  0.51790441501E+03  0.71727966845E+03  0.00000000000E+00 0.  1.
         13    1    4    4    0    0 -0.18977698103E+03 -0.12989623457E+03  0.21413467545E+03  0.31423240552E+03  0.10566000000E+00 0. -1.
         -4    1    4    4    0  501  0.75286565994E+03  0.45485553632E+03 -0.12450718542E+03  0.88837058712E+03  0.00000000000E+00 0. -1.
<mgrwt>
<rscale>  2 0.11971970E+04</rscale>
<asrwt>0</asrwt>
<pdfrwt beam="1">  1        1 0.19658011E+00 0.11971970E+04</pdfrwt>
<pdfrwt beam="2">  1       -1 0.17258626E+00 0.11971970E+04</pdfrwt>
<totfact> 0.30053445E+00</totfact>
</mgrwt>
</event>
<event>
 8    1  0.1373409E-005  0.1091052E+04  0.7818608E-02  0.8693454E-01
          1   -1    0    0  502    0  0.00000000000E+00  0.00000000000E+00  0.15163241584E+04  0.15163241584E+04  0.00000000000E+00 0.  1.
         -1   -1    0    0    0  501 -0.00000000000E+00 -0.00000000000E+00 -0.10596280996E+04  0.10596280996E+04  0.00000000000E+00 0. -1.
    9000010    2    1    2  502    0  0.40629658478E+03  0.13076202504E+03 -0.42608034366E+03  0.11782425088E+04  0.10121933256E+04 0.  0.
   -9000010    2    1    2    0  501 -0.40629658478E+03 -0.13076202504E+03  0.88277640247E+03  0.13977097492E+04  0.99605358500E+03 0.  0.
        -13    1    3    3    0    0 -0.11276870228E+03  0.43508138307E+03 -0.15341770266E+02  0.44971988080E+03  0.10566000000E+00 0.  1.
          4    1    3    3  502    0  0.51906528706E+03 -0.30431935802E+03 -0.41073857340E+03  0.72852262804E+03  0.00000000000E+00 0.  1.
         13    1    4    4    0    0 -0.11786618100E+03 -0.13064477562E+03 -0.20626562110E+03  0.27111992112E+03  0.10566000000E+00 0. -1.
         -4    1    4    4    0  501 -0.28843040378E+03 -0.11724942384E+00  0.10890420236E+04  0.11265898281E+04  0.00000000000E+00 0. -1.
<mgrwt>
<rscale>  2 0.10910519E+04</rscale>
<asrwt>0</asrwt>
<pdfrwt beam="1">  1        1 0.23328064E+00 0.10910519E+04</pdfrwt>
<pdfrwt beam="2">  1       -1 0.16301971E+00 0.10910519E+04</pdfrwt>
<totfact> 0.24485533E+00</totfact>
</mgrwt>
</event>
<event>
 8    1  0.1373409E-005  0.1107383E+04  0.7818608E-02  0.8679772E-01
         -1   -1    0    0    0  501 -0.00000000000E+00  0.00000000000E+00  0.89118235507E+03  0.89118235507E+03  0.00000000000E+00 0.  1.
          1   -1    0    0  502    0  0.00000000000E+00 -0.00000000000E+00 -0.13793662628E+04  0.13793662628E+04  0.00000000000E+00 0. -1.
    9000010    2    1    2  502    0  0.46380613957E+03 -0.13112137033E+03 -0.18821014100E+03  0.11229185417E+04  0.99660124683E+03 0.  0.
   -9000010    2    1    2    0  501 -0.46380613957E+03  0.13112137033E+03 -0.29997376669E+03  0.11476300762E+04  0.99737735195E+03 0.  0.
        -13    1    3    3    0    0 -0.27041360575E+03  0.11327680687E+03 -0.18949564321E+03  0.34908990692E+03  0.10566000000E+00 0.  1.
          4    1    3    3  502    0  0.73421974532E+03 -0.24439817720E+03  0.12855022099E+01  0.77382863475E+03  0.00000000000E+00 0.  1.
         13    1    4    4    0    0 -0.44178839421E+02  0.25408831752E+03  0.30611075233E+03  0.40027046707E+03  0.10566000000E+00 0. -1.
         -4    1    4    4    0  501 -0.41962730015E+03 -0.12296694719E+03 -0.60608451902E+03  0.74735960911E+03  0.00000000000E+00 0. -1.
<mgrwt>
<rscale>  2 0.11073827E+04</rscale>
<asrwt>0</asrwt>
<pdfrwt beam="2">  1        1 0.21221019E+00 0.11073827E+04</pdfrwt>
<pdfrwt beam="1">  1       -1 0.13710498E+00 0.11073827E+04</pdfrwt>
<totfact> 0.51738521E+00</totfact>
</mgrwt>
</event>
<event>
 8    1  0.1373409E-005  0.1510136E+04  0.7818608E-02  0.8403690E-01
         -2   -1    0    0    0  501 -0.00000000000E+00  0.00000000000E+00  0.55832168183E+03  0.55832168183E+03  0.00000000000E+00 0. -1.
          2   -1    0    0  502    0  0.00000000000E+00 -0.00000000000E+00 -0.41735496613E+04  0.41735496613E+04  0.00000000000E+00 0.  1.
    9000010    2    1    2  502    0 -0.10801515076E+04 -0.36847275370E+03 -0.21626422566E+04  0.26425458718E+04  0.10017622994E+04 0.  0.
   -9000010    2    1    2    0  501  0.10801515076E+04  0.36847275370E+03 -0.14525857228E+04  0.20893254713E+04  0.97610255266E+03 0.  0.
        -13    1    3    3    0    0 -0.89788314917E+03 -0.16635532475E+03 -0.68887983596E+03  0.11438634898E+04  0.10566000000E+00 0.  1.
          4    1    3    3  502    0 -0.18226835847E+03 -0.20211742895E+03 -0.14737624207E+04  0.14986823820E+04  0.00000000000E+00 0.  1.
         13    1    4    4    0    0  0.47568030220E+03  0.40374186371E+03 -0.13334763077E+04  0.14722222376E+04  0.10566000000E+00 0. -1.
         -4    1    4    4    0  501  0.60447120544E+03 -0.35269110011E+02 -0.11910941508E+03  0.61710323373E+03  0.00000000000E+00 0. -1.
<mgrwt>
<rscale>  2 0.15101358E+04</rscale>
<asrwt>0</asrwt>
<pdfrwt beam="2">  1        2 0.64208455E+00 0.15101358E+04</pdfrwt>
<pdfrwt beam="1">  1       -2 0.85895646E-01 0.15101358E+04</pdfrwt>
<totfact> 0.38892840E-01</totfact>
</mgrwt>
</event>
<event>
 8    1  0.1373409E-005  0.1329413E+04  0.7818608E-02  0.8515003E-01
         -4   -1    0    0    0  501 -0.00000000000E+00  0.00000000000E+00  0.12598851012E+04  0.12598851012E+04  0.00000000000E+00 0. -1.
          4   -1    0    0  502    0  0.00000000000E+00 -0.00000000000E+00 -0.14085359139E+04  0.14085359139E+04  0.00000000000E+00 0.  1.
    9000010    2    1    2  502    0 -0.86730757729E+03  0.95905406675E+02 -0.15942469831E+03  0.13360599888E+04  0.99910949277E+03 0.  0.
   -9000010    2    1    2    0  501  0.86730757729E+03 -0.95905406675E+02  0.10773885653E+02  0.13323610264E+04  0.10068016425E+04 0.  0.
        -13    1    3    3    0    0 -0.41087983755E+03  0.25357535922E+03 -0.53768544616E+03  0.72265368877E+03  0.10566000000E+00 0.  1.
          4    1    3    3  502    0 -0.45642773974E+03 -0.15766995255E+03  0.37826074785E+03  0.61340630002E+03  0.00000000000E+00 0.  1.
         13    1    4    4    0    0  0.14925294054E+03  0.29644052276E+03 -0.30935773846E+03  0.45371317515E+03  0.10566000000E+00 0. -1.
         -4    1    4    4    0  501  0.71805463675E+03 -0.39234592944E+03  0.32013162412E+03  0.87864785122E+03  0.00000000000E+00 0. -1.
<mgrwt>
<rscale>  2 0.13294127E+04</rscale>
<asrwt>0</asrwt>
<pdfrwt beam="2">  1        4 0.21669783E+00 0.13294127E+04</pdfrwt>
<pdfrwt beam="1">  1       -4 0.19382848E+00 0.13294127E+04</pdfrwt>
<totfact> 0.16949412E-01</totfact>
</mgrwt>
</event>
<event>
 8    1  0.1373409E-005  0.1590424E+04  0.7818608E-02  0.8359280E-01
          1   -1    0    0  502    0  0.00000000000E+00  0.00000000000E+00  0.24247025760E+04  0.24247025760E+04  0.00000000000E+00 0. -1.
         -1   -1    0    0    0  501 -0.00000000000E+00 -0.00000000000E+00 -0.10433313439E+04  0.10433313439E+04  0.00000000000E+00 0.  1.
    9000010    2    1    2  502    0 -0.38762739236E+03 -0.11322191847E+04  0.67183935566E+03  0.17143766968E+04  0.10273967399E+04 0.  0.
   -9000010    2    1    2    0  501  0.38762739236E+03  0.11322191847E+04  0.70953187645E+03  0.17536572231E+04  0.10675686838E+04 0.  0.
        -13    1    3    3    0    0 -0.58810876705E+03 -0.12175375799E+04  0.51939872771E+03  0.14484628852E+04  0.10566000000E+00 0.  1.
          4    1    3    3  502    0  0.20048137469E+03  0.85318395143E+02  0.15244062795E+03  0.26591381160E+03  0.00000000000E+00 0.  1.
         13    1    4    4    0    0  0.54537022914E+03  0.12140036301E+04  0.80149500168E+03  0.15535854498E+04  0.10566000000E+00 0. -1.
         -4    1    4    4    0  501 -0.15774283678E+03 -0.81784445407E+02 -0.91963125234E+02  0.20007177329E+03  0.00000000000E+00 0. -1.
<mgrwt>
<rscale>  2 0.15904241E+04</rscale>
<asrwt>0</asrwt>
<pdfrwt beam="1">  1        1 0.37303117E+00 0.15904241E+04</pdfrwt>
<pdfrwt beam="2">  1       -1 0.16051251E+00 0.15904241E+04</pdfrwt>
<totfact> 0.47008617E-01</totfact>
</mgrwt>
</event>
<event>
 8    1  0.1373409E-005  0.1197649E+04  0.7818608E-02  0.8608335E-01
          2   -1    0    0  502    0  0.00000000000E+00  0.00000000000E+00  0.21957329153E+04  0.21957329153E+04  0.00000000000E+00 0. -1.
         -2   -1    0    0    0  501 -0.00000000000E+00 -0.00000000000E+00 -0.65340860639E+03  0.65340860639E+03  0.00000000000E+00 0.  1.
    9000010    2    1    2  502    0  0.38388034721E+03  0.54086394029E+03  0.78716558305E+03  0.14273286759E+04  0.98880714551E+03 0.  0.
   -9000010    2    1    2    0  501 -0.38388034721E+03 -0.54086394029E+03  0.75515872587E+03  0.14218128458E+04  0.10056784498E+04 0.  0.
        -13    1    3    3    0    0  0.56245189003E+03 -0.50289337026E+02  0.46085339929E+03  0.72888065746E+03  0.10566000000E+00 0.  1.
          4    1    3    3  502    0 -0.17857154282E+03  0.59115327731E+03  0.32631218376E+03  0.69844801843E+03  0.00000000000E+00 0.  1.
         13    1    4    4    0    0 -0.69706044632E+03 -0.55199011551E+03  0.52027845395E+03  0.10301825247E+04  0.10566000000E+00 0. -1.
         -4    1    4    4    0  501  0.31318009911E+03  0.11126175225E+02  0.23488027192E+03  0.39163032108E+03  0.00000000000E+00 0. -1.
<mgrwt>
<rscale>  2 0.11976492E+04</rscale>
<asrwt>0</asrwt>
<pdfrwt beam="1">  1        2 0.33780506E+00 0.11976492E+04</pdfrwt>
<pdfrwt beam="2">  1       -2 0.10052440E+00 0.11976492E+04</pdfrwt>
<totfact> 0.64596633E+00</totfact>
</mgrwt>
</event>
<event>
 8    1  0.1373409E-005  0.1011647E+04  0.7818608E-02  0.8763725E-01
          1   -1    0    0  502    0  0.00000000000E+00  0.00000000000E+00  0.32091163290E+03  0.32091163290E+03  0.00000000000E+00 0. -1.
         -1   -1    0    0    0  501 -0.00000000000E+00 -0.00000000000E+00 -0.32224883754E+04  0.32224883754E+04  0.00000000000E+00 0.  1.
    9000010    2    1    2  502    0 -0.45982484787E+03 -0.15957560095E+03 -0.16540275948E+04  0.19932981423E+04  0.10002634337E+04 0.  0.
   -9000010    2    1    2    0  501  0.45982484787E+03  0.15957560095E+03 -0.12475491478E+04  0.15501018660E+04  0.78072636425E+03 0.  0.
        -13    1    3    3    0    0 -0.31425296056E+03  0.29134660495E+03 -0.21735115658E+03  0.48049901546E+03  0.10566000000E+00 0.  1.
          4    1    3    3  502    0 -0.14557188731E+03 -0.45092220589E+03 -0.14366764382E+04  0.15127991268E+04  0.00000000000E+00 0.  1.
         13    1    4    4    0    0  0.47874416390E+03  0.12790885113E+03 -0.13516689309E+04  0.14396407742E+04  0.10566000000E+00 0. -1.
         -4    1    4    4    0  501 -0.18919316036E+02  0.31666749820E+02  0.10411978317E+03  0.11046109184E+03  0.00000000000E+00 0. -1.
<mgrwt>
<rscale>  2 0.10116466E+04</rscale>
<asrwt>0</asrwt>
<pdfrwt beam="1">  1        1 0.49371020E-01 0.10116466E+04</pdfrwt>
<pdfrwt beam="2">  1       -1 0.49576744E+00 0.10116466E+04</pdfrwt>
<totfact> 0.11071771E+00</totfact>
</mgrwt>
</event>
<event>
 8    1  0.1373409E-005  0.1264229E+04  0.7818608E-02  0.8559705E-01
         -2   -1    0    0    0  501 -0.00000000000E+00  0.00000000000E+00  0.66875452797E+03  0.66875452797E+03  0.00000000000E+00 0.  1.
          2   -1    0    0  502    0  0.00000000000E+00 -0.00000000000E+00 -0.24317584347E+04  0.24317584347E+04  0.00000000000E+00 0. -1.
    9000010    2    1    2  502    0 -0.71183554945E+03  0.21981927413E+03 -0.10735617046E+04  0.16470733548E+04  0.10026392870E+04 0.  0.
   -9000010    2    1    2    0  501  0.71183554945E+03 -0.21981927413E+03 -0.68944220214E+03  0.14534396078E+04  0.10402527485E+04 0.  0.
        -13    1    3    3    0    0 -0.74234598981E+03  0.27260067795E+03 -0.26179682048E+03  0.83302237940E+03  0.10566000000E+00 0.  1.
          4    1    3    3  502    0  0.30510440358E+02 -0.52781403816E+02 -0.81176488409E+03  0.81405097543E+03  0.00000000000E+00 0.  1.
         13    1    4    4    0    0  0.48982881083E+03  0.36392855526E+03 -0.53149916872E+03  0.80923892316E+03  0.10566000000E+00 0. -1.
         -4    1    4    4    0  501  0.22200673862E+03 -0.58374782939E+03 -0.15794303342E+03  0.64420068466E+03  0.00000000000E+00 0. -1.
<mgrwt>
<rscale>  2 0.12642287E+04</rscale>
<asrwt>0</asrwt>
<pdfrwt beam="2">  1        2 0.37411668E+00 0.12642287E+04</pdfrwt>
<pdfrwt beam="1">  1       -2 0.10288531E+00 0.12642287E+04</pdfrwt>
<totfact> 0.44969879E+00</totfact>
</mgrwt>
</event>
<event>
 8    1  0.1373409E-005  0.1143361E+04  0.7818608E-02  0.8650478E-01
         -1   -1    0    0    0  501 -0.00000000000E+00  0.00000000000E+00  0.55846778105E+03  0.55846778105E+03  0.00000000000E+00 0. -1.
          1   -1    0    0  502    0  0.00000000000E+00 -0.00000000000E+00 -0.23970662005E+04  0.23970662005E+04  0.00000000000E+00 0.  1.
    9000010    2    1    2  502    0  0.52055617727E+03  0.17490134317E+03 -0.11357609227E+04  0.16031894938E+04  0.98928987971E+03 0.  0.
   -9000010    2    1    2    0  501 -0.52055617727E+03 -0.17490134317E+03 -0.70283749677E+03  0.13523444877E+04  0.10165066911E+04 0.  0.
        -13    1    3    3    0    0  0.40054252823E+03  0.27604263449E+03 -0.12927241767E+04  0.13812203521E+04  0.10566000000E+00 0.  1.
          4    1    3    3  502    0  0.12001364904E+03 -0.10114129132E+03  0.15696325400E+03  0.22196914171E+03  0.00000000000E+00 0.  1.
         13    1    4    4    0    0 -0.76588030931E+03 -0.29096401406E+03 -0.31235366003E+03  0.87681099775E+03  0.10566000000E+00 0. -1.
         -4    1    4    4    0  501  0.24532413204E+03  0.11606267089E+03 -0.39048383674E+03  0.47553348998E+03  0.00000000000E+00 0. -1.
<mgrwt>
<rscale>  2 0.11433610E+04</rscale>
<asrwt>0</asrwt>
<pdfrwt beam="2">  1        1 0.36877942E+00 0.11433610E+04</pdfrwt>
<pdfrwt beam="1">  1       -1 0.85918120E-01 0.11433610E+04</pdfrwt>
<totfact> 0.24909069E+00</totfact>
</mgrwt>
</event>
<event>
 8    1  0.1373409E-005  0.1170333E+04  0.7818608E-02  0.8629244E-01
         -1   -1    0    0    0  501 -0.00000000000E+00  0.00000000000E+00  0.61313686496E+03  0.61313686496E+03  0.00000000000E+00 0. -1.
          1   -1    0    0  502    0  0.00000000000E+00 -0.00000000000E+00 -0.22999655825E+04  0.22999655825E+04  0.00000000000E+00 0.  1.
    9000010    2    1    2  502    0  0.19804114758E+03 -0.58264440826E+03 -0.60272083258E+03  0.13240250381E+04  0.10055223005E+04 0.  0.
   -9000010    2    1    2    0  501 -0.19804114758E+03  0.58264440826E+03 -0.10841078849E+04  0.15890774094E+04  0.98548582142E+03 0.  0.
        -13    1    3    3    0    0 -0.22577567705E+03 -0.54456435602E+03 -0.67086831831E+03  0.89307855526E+03  0.10566000000E+00 0.  1.
          4    1    3    3  502    0  0.42381682463E+03 -0.38080052231E+02  0.68147485728E+02  0.43094648279E+03  0.00000000000E+00 0.  1.
         13    1    4    4    0    0 -0.16487497809E+03  0.16636881199E+03  0.15541687950E+03  0.28109919530E+03  0.10566000000E+00 0. -1.
         -4    1    4    4    0  501 -0.33166169487E+02  0.41627559627E+03 -0.12395247644E+04  0.13079782141E+04  0.00000000000E+00 0. -1.
<mgrwt>
<rscale>  2 0.11703325E+04</rscale>
<asrwt>0</asrwt>
<pdfrwt beam="2">  1        1 0.35384085E+00 0.11703325E+04</pdfrwt>
<pdfrwt beam="1">  1       -1 0.94328750E-01 0.11703325E+04</pdfrwt>
<totfact> 0.24857532E+00</totfact>
</mgrwt>
</event>
<event>
 8    1  0.1373409E-005  0.1238345E+04  0.7818608E-02  0.8578234E-01
          2   -1    0    0  502    0  0.00000000000E+00  0.00000000000E+00  0.31695051975E+04  0.31695051975E+04  0.00000000000E+00 0.  1.
         -2   -1    0    0    0  501 -0.00000000000E+00 -0.00000000000E+00 -0.48555200832E+03  0.48555200832E+03  0.00000000000E+00 0. -1.
    9000010    2    1    2  502    0 -0.72244184877E+03 -0.15987725048E+03  0.14502501236E+04  0.19066680675E+04  0.99230778404E+03 0.  0.
   -9000010    2    1    2    0  501  0.72244184877E+03  0.15987725048E+03  0.12337030656E+04  0.17483891384E+04  0.99365907896E+03 0.  0.
        -13    1    3    3    0    0 -0.59763112342E+03 -0.53430206608E+03  0.72443708871E+03  0.10804863554E+04  0.10566000000E+00 0.  1.
          4    1    3    3  502    0 -0.12481072535E+03  0.37442481560E+03  0.72581303493E+03  0.82618171208E+03  0.00000000000E+00 0.  1.
         13    1    4    4    0    0  0.36960411524E+03  0.63650480880E+01 -0.81088728929E+02  0.37844829100E+03  0.10566000000E+00 0. -1.
         -4    1    4    4    0  501  0.35283773352E+03  0.15351220239E+03  0.13147917945E+04  0.13699408474E+04  0.00000000000E+00 0. -1.
<mgrwt>
<rscale>  2 0.12383452E+04</rscale>
<asrwt>0</asrwt>
<pdfrwt beam="1">  1        2 0.48761617E+00 0.12383452E+04</pdfrwt>
<pdfrwt beam="2">  1       -2 0.74700311E-01 0.12383452E+04</pdfrwt>
<totfact> 0.34027055E+00</totfact>
</mgrwt>
</event>
<event>
 8    1  0.1373409E-005  0.1177096E+04  0.7818608E-02  0.8624012E-01
         -1   -1    0    0    0  501 -0.00000000000E+00  0.00000000000E+00  0.70377724152E+03  0.70377724152E+03  0.00000000000E+00 0.  1.
          1   -1    0    0  502    0  0.00000000000E+00 -0.00000000000E+00 -0.27027762142E+04  0.27027762142E+04  0.00000000000E+00 0. -1.
    9000010    2    1    2  502    0  0.58576972002E+03 -0.16349882535E+03 -0.18826785443E+04  0.22166093324E+04  0.99951008019E+03 0.  0.
   -9000010    2    1    2    0  501 -0.58576972002E+03  0.16349882535E+03 -0.11632042840E+03  0.11899441234E+04  0.10161587198E+04 0.  0.
        -13    1    3    3    0    0 -0.26904358461E+03 -0.11554776682E+03 -0.31289920843E+03  0.42853431909E+03  0.10566000000E+00 0.  1.
          4    1    3    3  502    0  0.85481330463E+03 -0.47951058530E+02 -0.15697793359E+04  0.17880750133E+04  0.00000000000E+00 0.  1.
         13    1    4    4    0    0 -0.77280786551E+03  0.21562702130E+03 -0.35914052672E+03  0.87903864443E+03  0.10566000000E+00 0. -1.
         -4    1    4    4    0  501  0.18703814549E+03 -0.52128195949E+02  0.24282009832E+03  0.31090547893E+03  0.00000000000E+00 0. -1.
<mgrwt>
<rscale>  2 0.11770964E+04</rscale>
<asrwt>0</asrwt>
<pdfrwt beam="2">  1        1 0.41581173E+00 0.11770964E+04</pdfrwt>
<pdfrwt beam="1">  1       -1 0.10827342E+00 0.11770964E+04</pdfrwt>
<totfact> 0.79599315E-01</totfact>
</mgrwt>
</event>
<event>
 8    1  0.1373409E-005  0.1393367E+04  0.7818608E-02  0.8473639E-01
          2   -1    0    0  502    0  0.00000000000E+00  0.00000000000E+00  0.12538761348E+04  0.12538761348E+04  0.00000000000E+00 0.  1.
         -2   -1    0    0    0  501 -0.00000000000E+00 -0.00000000000E+00 -0.16820594495E+04  0.16820594495E+04  0.00000000000E+00 0. -1.
    9000010    2    1    2  502    0 -0.77124431152E+03  0.53200337386E+03  0.20147522343E+03  0.13940079870E+04  0.10123342453E+04 0.  0.
   -9000010    2    1    2    0  501  0.77124431152E+03 -0.53200337386E+03 -0.62965853806E+03  0.15419275973E+04  0.10503454017E+04 0.  0.
        -13    1    3    3    0    0 -0.12030580511E+03  0.57000218110E+02 -0.37846365527E+03  0.40119479201E+03  0.10566000000E+00 0.  1.
          4    1    3    3  502    0 -0.65093850640E+03  0.47500315575E+03  0.57993887870E+03  0.99281319498E+03  0.00000000000E+00 0.  1.
         13    1    4    4    0    0  0.46860947028E+03  0.42331429532E+02  0.18032624477E+03  0.50388922521E+03  0.10566000000E+00 0. -1.
         -4    1    4    4    0  501  0.30263484123E+03 -0.57433480340E+03 -0.80998478283E+03  0.10380383721E+04  0.00000000000E+00 0. -1.
<mgrwt>
<rscale>  2 0.13933674E+04</rscale>
<asrwt>0</asrwt>
<pdfrwt beam="1">  1        2 0.19290402E+00 0.13933674E+04</pdfrwt>
<pdfrwt beam="2">  1       -2 0.25877837E+00 0.13933674E+04</pdfrwt>
<totfact> 0.90726935E-01</totfact>
</mgrwt>
</event>
<event>
 8    1  0.1373409E-005  0.1330038E+04  0.7818608E-02  0.8514588E-01
          1   -1    0    0  502    0  0.00000000000E+00  0.00000000000E+00  0.30849230359E+04  0.30849230359E+04  0.00000000000E+00 0.  1.
         -1   -1    0    0    0  501 -0.00000000000E+00 -0.00000000000E+00 -0.67528044562E+03  0.67528044562E+03  0.00000000000E+00 0. -1.
    9000010    2    1    2  502    0  0.69428632921E+03  0.55882260843E+03  0.19424755225E+04  0.23598333255E+04  0.10006427703E+04 0.  0.
   -9000010    2    1    2    0  501 -0.69428632921E+03 -0.55882260843E+03  0.46716706779E+03  0.14003701561E+04  0.97389696079E+03 0.  0.
        -13    1    3    3    0    0  0.68139897993E+03  0.82643080882E+03  0.15171415718E+04  0.18571513163E+04  0.10566000000E+00 0.  1.
          4    1    3    3  502    0  0.12887349284E+02 -0.26760820039E+03  0.42533395076E+03  0.50268200918E+03  0.00000000000E+00 0.  1.
         13    1    4    4    0    0 -0.62294223287E+03 -0.80245072608E+03  0.51977340077E+03  0.11411172563E+04  0.10566000000E+00 0. -1.
         -4    1    4    4    0  501 -0.71344096344E+02  0.24362811765E+03 -0.52606332982E+02  0.25925289981E+03  0.00000000000E+00 0. -1.
<mgrwt>
<rscale>  2 0.13300375E+04</rscale>
<asrwt>0</asrwt>
<pdfrwt beam="1">  1        1 0.47460354E+00 0.13300375E+04</pdfrwt>
<pdfrwt beam="2">  1       -1 0.10388930E+00 0.13300375E+04</pdfrwt>
<totfact> 0.34152692E-01</totfact>
</mgrwt>
</event>
<event>
 8    1  0.1373409E-005  0.1593080E+04  0.7818608E-02  0.8357858E-01
         -2   -1    0    0    0  501 -0.00000000000E+00  0.00000000000E+00  0.11782309518E+04  0.11782309518E+04  0.00000000000E+00 0.  1.
          2   -1    0    0  502    0  0.00000000000E+00 -0.00000000000E+00 -0.21573790043E+04  0.21573790043E+04  0.00000000000E+00 0. -1.
    9000010    2    1    2  502    0 -0.57288480526E+03  0.11031728295E+04 -0.42247555586E+03  0.16445253575E+04  0.99034880946E+03 0.  0.
   -9000010    2    1    2    0  501  0.57288480526E+03 -0.11031728295E+04 -0.55667249665E+03  0.16910845985E+04  0.10023450299E+04 0.  0.
        -13    1    3    3    0    0 -0.92719847373E+01  0.96837116202E+03 -0.44238303595E+03  0.10646743346E+04  0.10566000000E+00 0.  1.
          4    1    3    3  502    0 -0.56361282052E+03  0.13480166749E+03  0.19907480082E+02  0.57985102291E+03  0.00000000000E+00 0.  1.
         13    1    4    4    0    0 -0.13942456252E+03  0.11742585105E+03 -0.42137302330E+02  0.18709249728E+03  0.10566000000E+00 0. -1.
         -4    1    4    4    0  501  0.71230936777E+03 -0.12205986806E+04 -0.51453519432E+03  0.15039921012E+04  0.00000000000E+00 0. -1.
<mgrwt>
<rscale>  2 0.15930795E+04</rscale>
<asrwt>0</asrwt>
<pdfrwt beam="2">  1        2 0.33190446E+00 0.15930795E+04</pdfrwt>
<pdfrwt beam="1">  1       -2 0.18126630E+00 0.15930795E+04</pdfrwt>
<totfact> 0.11933029E+00</totfact>
</mgrwt>
</event>
<event>
 8    1  0.1373409E-005  0.1261980E+04  0.7818608E-02  0.8561296E-01
          1   -1    0    0  502    0  0.00000000000E+00  0.00000000000E+00  0.15273435751E+04  0.15273435751E+04  0.00000000000E+00 0.  1.
         -1   -1    0    0    0  501 -0.00000000000E+00 -0.00000000000E+00 -0.10681907287E+04  0.10681907287E+04  0.00000000000E+00 0. -1.
    9000010    2    1    2  502    0  0.72476721002E+03  0.23000633516E+03  0.29134199581E+02  0.12620401430E+04  0.10068297264E+04 0.  0.
   -9000010    2    1    2    0  501 -0.72476721002E+03 -0.23000633516E+03  0.43001864678E+03  0.13334941608E+04  0.10075218198E+04 0.  0.
        -13    1    3    3    0    0  0.37511491392E+03 -0.18991581819E+02 -0.47134670666E+03  0.60269362687E+03  0.10566000000E+00 0.  1.
          4    1    3    3  502    0  0.34965229610E+03  0.24899791698E+03  0.50048090624E+03  0.65934651613E+03  0.00000000000E+00 0.  1.
         13    1    4    4    0    0 -0.91986065871E+03  0.43272147038E+02  0.25861067093E+03  0.95650175140E+03  0.10566000000E+00 0. -1.
         -4    1    4    4    0  501  0.19509344869E+03 -0.27327848220E+03  0.17140797584E+03  0.37699240939E+03  0.00000000000E+00 0. -1.
<mgrwt>
<rscale>  2 0.12619800E+04</rscale>
<asrwt>0</asrwt>
<pdfrwt beam="1">  1        1 0.23497593E+00 0.12619800E+04</pdfrwt>
<pdfrwt beam="2">  1       -1 0.16433704E+00 0.12619800E+04</pdfrwt>
<totfact> 0.22879810E+00</totfact>
</mgrwt>
</event>
<event>
 8    1  0.1373409E-005  0.1087724E+04  0.7818608E-02  0.8696272E-01
         -2   -1    0    0    0  501 -0.00000000000E+00  0.00000000000E+00  0.45286469526E+03  0.45286469526E+03  0.00000000000E+00 0. -1.
          2   -1    0    0  502    0  0.00000000000E+00 -0.00000000000E+00 -0.28841707355E+04  0.28841707355E+04  0.00000000000E+00 0.  1.
    9000010    2    1    2  502    0 -0.50678218390E+03 -0.37000048059E-01 -0.17866645015E+04  0.21295524757E+04  0.10421110894E+04 0.  0.
   -9000010    2    1    2    0  501  0.50678218390E+03  0.37000048059E-01 -0.64464153875E+03  0.12074829551E+04  0.88635443814E+03 0.  0.
        -13    1    3    3    0    0 -0.18487706965E+03 -0.50963094796E+03 -0.10114956279E+04  0.11476178155E+04  0.10566000000E+00 0.  1.
          4    1    3    3  502    0 -0.32190511425E+03  0.50959394791E+03 -0.77516887358E+03  0.98193466019E+03  0.00000000000E+00 0.  1.
         13    1    4    4    0    0  0.30574920211E+03 -0.41404954699E+03 -0.51763471792E+03  0.72997624230E+03  0.10566000000E+00 0. -1.
         -4    1    4    4    0  501  0.20103298179E+03  0.41408654704E+03 -0.12700682082E+03  0.47750671277E+03  0.00000000000E+00 0. -1.
<mgrwt>
<rscale>  2 0.10877242E+04</rscale>
<asrwt>0</asrwt>
<pdfrwt beam="2">  1        2 0.44371856E+00 0.10877242E+04</pdfrwt>
<pdfrwt beam="1">  1       -2 0.69671494E-01 0.10877242E+04</pdfrwt>
<totfact> 0.60446088E+00</totfact>
</mgrwt>
</event>
<event>
 8    1  0.1373409E-005  0.1252983E+04  0.7818608E-02  0.8567698E-01
         -2   -1    0    0    0  501 -0.00000000000E+00  0.00000000000E+00  0.15853744199E+04  0.15853744199E+04  0.00000000000E+00 0.  1.
          2   -1    0    0  502    0  0.00000000000E+00 -0.00000000000E+00 -0.99637406365E+03  0.99637406365E+03  0.00000000000E+00 0. -1.
    9000010    2    1    2  502    0 -0.12497327285E+03  0.75087443679E+03  0.39542806055E+03  0.13138273342E+04  0.99516238585E+03 0.  0.
   -9000010    2    1    2    0  501  0.12497327285E+03 -0.75087443679E+03  0.19357229567E+03  0.12679211493E+04  0.99535072640E+03 0.  0.
        -13    1    3    3    0    0 -0.48231117596E+02  0.76246113479E+03 -0.13665753875E+03  0.77611114979E+03  0.10566000000E+00 0.  1.
          4    1    3    3  502    0 -0.76742155257E+02 -0.11586697997E+02  0.53208559931E+03  0.53771618439E+03  0.00000000000E+00 0.  1.
         13    1    4    4    0    0  0.43495549810E+03 -0.81905954993E+03  0.20714275488E+03  0.95023837206E+03  0.10566000000E+00 0. -1.
         -4    1    4    4    0  501 -0.30998222525E+03  0.68185113141E+02 -0.13570459206E+02  0.31768277729E+03  0.00000000000E+00 0. -1.
<mgrwt>
<rscale>  2 0.12529830E+04</rscale>
<asrwt>0</asrwt>
<pdfrwt beam="2">  1        2 0.15328832E+00 0.12529830E+04</pdfrwt>
<pdfrwt beam="1">  1       -2 0.24390376E+00 0.12529830E+04</pdfrwt>
<totfact> 0.16911959E+00</totfact>
</mgrwt>
</event>
<event>
 8    1  0.1373409E-005  0.1191975E+04  0.7818608E-02  0.8612630E-01
          1   -1    0    0  502    0  0.00000000000E+00  0.00000000000E+00  0.14620542637E+04  0.14620542637E+04  0.00000000000E+00 0. -1.
         -1   -1    0    0    0  501 -0.00000000000E+00 -0.00000000000E+00 -0.10656470291E+04  0.10656470291E+04  0.00000000000E+00 0.  1.
    9000010    2    1    2  502    0  0.52261817617E+03 -0.34974284490E+03  0.57344362265E+03  0.13236747228E+04  0.10138182124E+04 0.  0.
   -9000010    2    1    2    0  501 -0.52261817617E+03  0.34974284490E+03 -0.17703638798E+03  0.12040265701E+04  0.10113793962E+04 0.  0.
        -13    1    3    3    0    0 -0.11312169500E+03 -0.12639775165E+03 -0.22315565205E+03  0.28030584316E+03  0.10566000000E+00 0.  1.
          4    1    3    3  502    0  0.63573987117E+03 -0.22334509325E+03  0.79659927470E+03  0.10433688796E+04  0.00000000000E+00 0.  1.
         13    1    4    4    0    0  0.35272643388E+02  0.37008173503E+03 -0.44909511063E+03  0.58300178347E+03  0.10566000000E+00 0. -1.
         -4    1    4    4    0  501 -0.55789081956E+03 -0.20338890132E+02  0.27205872265E+03  0.62102478660E+03  0.00000000000E+00 0. -1.
<mgrwt>
<rscale>  2 0.11919755E+04</rscale>
<asrwt>0</asrwt>
<pdfrwt beam="1">  1        1 0.22493143E+00 0.11919755E+04</pdfrwt>
<pdfrwt beam="2">  1       -1 0.16394570E+00 0.11919755E+04</pdfrwt>
<totfact> 0.26019613E+00</totfact>
</mgrwt>
</event>
<event>
 8    1  0.1373409E-005  0.1060054E+04  0.7818608E-02  0.8720124E-01
          2   -1    0    0  502    0  0.00000000000E+00  0.00000000000E+00  0.10898223770E+04  0.10898223770E+04  0.00000000000E+00 0.  1.
         -2   -1    0    0    0  501 -0.00000000000E+00 -0.00000000000E+00 -0.10774582465E+04  0.10774582465E+04  0.00000000000E+00 0. -1.
    9000010    2    1    2  502    0  0.14930984818E+03  0.33505162577E+03  0.23093329405E+03  0.10897553685E+04  0.99984176460E+03 0.  0.
   -9000010    2    1    2    0  501 -0.14930984818E+03 -0.33505162577E+03 -0.21856916359E+03  0.10775252550E+04  0.98931045337E+03 0.  0.
        -13    1    3    3    0    0  0.34585924004E+03 -0.25156313266E+03  0.19504642290E+03  0.47004865906E+03  0.10566000000E+00 0.  1.
          4    1    3    3  502    0 -0.19654939186E+03  0.58661475842E+03  0.35886871151E+02  0.61970670947E+03  0.00000000000E+00 0.  1.
         13    1    4    4    0    0 -0.24818386317E+03  0.20786607063E+03  0.20384481084E+03  0.38256535563E+03  0.10566000000E+00 0. -1.
         -4    1    4    4    0  501  0.98874014986E+02 -0.54291769640E+03 -0.42241397443E+03  0.69495989934E+03  0.00000000000E+00 0. -1.
<mgrwt>
<rscale>  2 0.10600536E+04</rscale>
<asrwt>0</asrwt>
<pdfrwt beam="1">  1        2 0.16766498E+00 0.10600536E+04</pdfrwt>
<pdfrwt beam="2">  1       -2 0.16576281E+00 0.10600536E+04</pdfrwt>
<totfact> 0.66235754E+00</totfact>
</mgrwt>
</event>
<event>
 8    1  0.1373409E-005  0.1286684E+04  0.7818608E-02  0.8543998E-01
          2   -1    0    0  502    0  0.00000000000E+00  0.00000000000E+00  0.21347376466E+04  0.21347376466E+04  0.00000000000E+00 0. -1.
         -2   -1    0    0    0  501 -0.00000000000E+00 -0.00000000000E+00 -0.86393366277E+03  0.86393366277E+03  0.00000000000E+00 0.  1.
    9000010    2    1    2  502    0  0.57148325877E+03  0.54906444546E+03  0.11097185198E+04  0.16904517555E+04  0.99904307416E+03 0.  0.
   -9000010    2    1    2    0  501 -0.57148325877E+03 -0.54906444546E+03  0.16108546402E+03  0.13082195539E+04  0.10283117203E+04 0.  0.
        -13    1    3    3    0    0  0.80590912305E+03  0.41770926452E+03  0.10936102242E+04  0.14212508145E+04  0.10566000000E+00 0.  1.
          4    1    3    3  502    0 -0.23442586428E+03  0.13135518093E+03  0.16108295649E+02  0.26920094092E+03  0.00000000000E+00 0.  1.
         13    1    4    4    0    0 -0.12771975655E+03 -0.72746111423E+03  0.31901668149E+03  0.80453941057E+03  0.10566000000E+00 0. -1.
         -4    1    4    4    0  501 -0.44376350221E+03  0.17839666877E+03 -0.15793121747E+03  0.50368014332E+03  0.00000000000E+00 0. -1.
<mgrwt>
<rscale>  2 0.12866838E+04</rscale>
<asrwt>0</asrwt>
<pdfrwt beam="1">  1        2 0.32842117E+00 0.12866838E+04</pdfrwt>
<pdfrwt beam="2">  1       -2 0.13291287E+00 0.12866838E+04</pdfrwt>
<totfact> 0.33462836E+00</totfact>
</mgrwt>
</event>
<event>
 8    1  0.1373409E-005  0.1307468E+04  0.7818608E-02  0.8529752E-01
         -1   -1    0    0    0  501 -0.00000000000E+00  0.00000000000E+00  0.76453776437E+03  0.76453776437E+03  0.00000000000E+00 0. -1.
          1   -1    0    0  502    0  0.00000000000E+00 -0.00000000000E+00 -0.23183441867E+04  0.23183441867E+04  0.00000000000E+00 0.  1.
    9000010    2    1    2  502    0  0.35255268789E+03  0.73862893967E+03 -0.10763488390E+04  0.17064536556E+04  0.10409568421E+04 0.  0.
   -9000010    2    1    2    0  501 -0.35255268789E+03 -0.73862893967E+03 -0.47745758334E+03  0.13764282955E+04  0.99836015576E+03 0.  0.
        -13    1    3    3    0    0 -0.26751658386E+02  0.20187879916E+02  0.19490943143E+03  0.19776981405E+03  0.10566000000E+00 0.  1.
          4    1    3    3  502    0  0.37930434627E+03  0.71844105976E+03 -0.12712582704E+04  0.15086838415E+04  0.00000000000E+00 0.  1.
         13    1    4    4    0    0 -0.58444271902E+03 -0.38672117265E+03 -0.61574269315E+03  0.93288028842E+03  0.10566000000E+00 0. -1.
         -4    1    4    4    0  501  0.23189003113E+03 -0.35190776702E+03  0.13828510981E+03  0.44354800712E+03  0.00000000000E+00 0. -1.
<mgrwt>
<rscale>  2 0.13074676E+04</rscale>
<asrwt>0</asrwt>
<pdfrwt beam="2">  1        1 0.35666833E+00 0.13074676E+04</pdfrwt>
<pdfrwt beam="1">  1       -1 0.11762120E+00 0.13074676E+04</pdfrwt>
<totfact> 0.14354833E+00</totfact>
</mgrwt>
</event>
<event>
 8    1  0.1373409E-005  0.1027779E+04  0.7818608E-02  0.8748920E-01
         -2   -1    0    0    0  501 -0.00000000000E+00  0.00000000000E+00  0.43107804573E+03  0.43107804573E+03  0.00000000000E+00 0. -1.
          2   -1    0    0  502    0  0.00000000000E+00 -0.00000000000E+00 -0.31680149467E+04  0.31680149467E+04  0.00000000000E+00 0.  1.
    9000010    2    1    2  502    0 -0.19688252071E+03  0.28183742915E+02 -0.22274261587E+04  0.24541360471E+04  0.10108409346E+04 0.  0.
   -9000010    2    1    2    0  501  0.19688252071E+03 -0.28183742915E+02 -0.50951074225E+03  0.11449569453E+04  0.10058668698E+04 0.  0.
        -13    1    3    3    0    0 -0.39176044083E+03  0.40144329902E+03 -0.16254362296E+04  0.17194987389E+04  0.10566000000E+00 0.  1.
          4    1    3    3  502    0  0.19487792012E+03 -0.37325955610E+03 -0.60198992908E+03  0.73463730826E+03  0.00000000000E+00 0.  1.
         13    1    4    4    0    0 -0.35520325413E+03 -0.54876524670E+02 -0.46880771225E+03  0.59072960560E+03  0.10566000000E+00 0. -1.
         -4    1    4    4    0  501  0.55208577484E+03  0.26692781755E+02 -0.40703030003E+02  0.55422733966E+03  0.00000000000E+00 0. -1.
<mgrwt>
<rscale>  2 0.10277786E+04</rscale>
<asrwt>0</asrwt>
<pdfrwt beam="2">  1        2 0.48738693E+00 0.10277786E+04</pdfrwt>
<pdfrwt beam="1">  1       -2 0.66319698E-01 0.10277786E+04</pdfrwt>
<totfact> 0.45036336E+00</totfact>
</mgrwt>
</event>
<event>
 8    1  0.1373409E-005  0.1409736E+04  0.7818608E-02  0.8463418E-01
         -2   -1    0    0    0  501 -0.00000000000E+00  0.00000000000E+00  0.82879120307E+03  0.82879120307E+03  0.00000000000E+00 0. -1.
          2   -1    0    0  502    0  0.00000000000E+00 -0.00000000000E+00 -0.24308193898E+04  0.24308193898E+04  0.00000000000E+00 0.  1.
    9000010    2    1    2  502    0 -0.98064322704E+03 -0.19300781280E+03 -0.61288757806E+03  0.15396989378E+04  0.99806236338E+03 0.  0.
   -9000010    2    1    2    0  501  0.98064322704E+03  0.19300781280E+03 -0.98914060863E+03  0.17199116550E+04  0.99034529480E+03 0.  0.
        -13    1    3    3    0    0  0.60270705088E+02  0.28811389058E+02 -0.45960085640E+03  0.46443041718E+03  0.10566000000E+00 0.  1.
          4    1    3    3  502    0 -0.10409139321E+04 -0.22181920185E+03 -0.15328672166E+03  0.10752685206E+04  0.00000000000E+00 0.  1.
         13    1    4    4    0    0  0.56004858589E+03  0.59639523107E+03 -0.49799064063E+03  0.95777679003E+03  0.10566000000E+00 0. -1.
         -4    1    4    4    0  501  0.42059464115E+03 -0.40338741827E+03 -0.49114996800E+03  0.76213486500E+03  0.00000000000E+00 0. -1.
<mgrwt>
<rscale>  2 0.14097356E+04</rscale>
<asrwt>0</asrwt>
<pdfrwt beam="2">  1        2 0.37397222E+00 0.14097356E+04</pdfrwt>
<pdfrwt beam="1">  1       -2 0.12750634E+00 0.14097356E+04</pdfrwt>
<totfact> 0.25483080E+00</totfact>
</mgrwt>
</event>
<event>
 8    1  0.1373409E-005  0.1432616E+04  0.7818608E-02  0.8449367E-01
         -4   -1    0    0    0  501 -0.00000000000E+00  0.00000000000E+00  0.22439495130E+04  0.22439495130E+04  0.00000000000E+00 0. -1.
          4   -1    0    0  502    0  0.00000000000E+00 -0.00000000000E+00 -0.99363078728E+03  0.99363078728E+03  0.00000000000E+00 0.  1.
    9000010    2    1    2  502    0 -0.27662993905E+02 -0.10312249049E+04  0.17346303419E+03  0.14544157537E+04  0.10104680672E+04 0.  0.
   -9000010    2    1    2    0  501  0.27662993905E+02  0.10312249049E+04  0.10768556915E+04  0.17831645465E+04  0.97768480293E+03 0.  0.
        -13    1    3    3    0    0  0.39904316295E+03 -0.39206777678E+03 -0.20750289773E+03  0.59666577849E+03  0.10566000000E+00 0.  1.
          4    1    3    3  502    0 -0.42670615686E+03 -0.63915712814E+03  0.38096593192E+03  0.85774997525E+03  0.00000000000E+00 0.  1.
         13    1    4    4    0    0  0.10382674996E+03  0.53615227919E+03  0.11536824551E+04  0.12764099964E+04  0.10566000000E+00 0. -1.
         -4    1    4    4    0  501 -0.76163756051E+02  0.49507262573E+03 -0.76826763598E+02  0.50675455014E+03  0.00000000000E+00 0. -1.
<mgrwt>
<rscale>  2 0.14326158E+04</rscale>
<asrwt>0</asrwt>
<pdfrwt beam="2">  1        4 0.15286627E+00 0.14326158E+04</pdfrwt>
<pdfrwt beam="1">  1       -4 0.34522300E+00 0.14326158E+04</pdfrwt>
<totfact> 0.10746667E-01</totfact>
</mgrwt>
</event>
<event>
 8    1  0.1373409E-005  0.1156322E+04  0.7818608E-02  0.8640199E-01
          2   -1    0    0  502    0  0.00000000000E+00  0.00000000000E+00  0.89209624645E+03  0.89209624645E+03  0.00000000000E+00 0. -1.
         -2   -1    0    0    0  501 -0.00000000000E+00 -0.00000000000E+00 -0.15461094057E+04  0.15461094057E+04  0.00000000000E+00 0.  1.
    9000010    2    1    2  502    0 -0.11743651277E+03 -0.55718557944E+03 -0.54736142983E+03  0.13254601079E+04  0.10644213725E+04 0.  0.
   -9000010    2    1    2    0  501  0.11743651277E+03  0.55718557944E+03 -0.10665172937E+03  0.11127455442E+04  0.95004260448E+03 0.  0.
        -13    1    3    3    0    0 -0.17977945711E+03 -0.85248086959E+03 -0.53709313436E+03  0.10234809878E+04  0.10566000000E+00 0.  1.
          4    1    3    3  502    0  0.62342944336E+02  0.29529529015E+03 -0.10268295473E+02  0.30197912012E+03  0.00000000000E+00 0.  1.
         13    1    4    4    0    0 -0.20653833793E+03  0.64825339079E+03  0.14111923288E+03  0.69484184730E+03  0.10566000000E+00 0. -1.
         -4    1    4    4    0  501  0.32397485071E+03 -0.91067811351E+02 -0.24777096226E+03  0.41790369691E+03  0.00000000000E+00 0. -1.
<mgrwt>
<rscale>  2 0.11563217E+04</rscale>
<asrwt>0</asrwt>
<pdfrwt beam="1">  1        2 0.13724558E+00 0.11563217E+04</pdfrwt>
<pdfrwt beam="2">  1       -2 0.23786299E+00 0.11563217E+04</pdfrwt>
<totfact> 0.22157634E+00</totfact>
</mgrwt>
</event>
<event>
 8    1  0.1373409E-005  0.1359964E+04  0.7818608E-02  0.8494952E-01
         -2   -1    0    0    0  501 -0.00000000000E+00  0.00000000000E+00  0.15140616925E+04  0.15140616925E+04  0.00000000000E+00 0.  1.
          2   -1    0    0  502    0  0.00000000000E+00 -0.00000000000E+00 -0.13517722531E+04  0.13517722531E+04  0.00000000000E+00 0. -1.
    9000010    2    1    2  502    0  0.56900901670E+03 -0.72810361083E+03  0.52534470627E+03  0.14500311754E+04  0.98625413569E+03 0.  0.
   -9000010    2    1    2    0  501 -0.56900901670E+03  0.72810361083E+03 -0.36305526684E+03  0.14158027701E+04  0.10093474268E+04 0.  0.
        -13    1    3    3    0    0 -0.28325077620E+03 -0.21586514950E+03  0.11369561872E+03  0.37383882873E+03  0.10566000000E+00 0.  1.
          4    1    3    3  502    0  0.85225979289E+03 -0.51223846132E+03  0.41164908755E+03  0.10761923467E+04  0.00000000000E+00 0.  1.
         13    1    4    4    0    0 -0.39381382495E+02  0.16704161262E+03 -0.58767104439E+03  0.61221814839E+03  0.10566000000E+00 0. -1.
         -4    1    4    4    0  501 -0.52962763420E+03  0.56106199821E+03  0.22461577755E+03  0.80358462172E+03  0.00000000000E+00 0. -1.
<mgrwt>
<rscale>  2 0.13599641E+04</rscale>
<asrwt>0</asrwt>
<pdfrwt beam="2">  1        2 0.20796496E+00 0.13599641E+04</pdfrwt>
<pdfrwt beam="1">  1       -2 0.23293257E+00 0.13599641E+04</pdfrwt>
<totfact> 0.12731424E+00</totfact>
</mgrwt>
</event>
<event>
 8    1  0.1373409E-005  0.1161889E+04  0.7818608E-02  0.8635827E-01
         -2   -1    0    0    0  501 -0.00000000000E+00  0.00000000000E+00  0.10195570987E+04  0.10195570987E+04  0.00000000000E+00 0.  1.
          2   -1    0    0  502    0  0.00000000000E+00 -0.00000000000E+00 -0.13278785053E+04  0.13278785053E+04  0.00000000000E+00 0. -1.
    9000010    2    1    2  502    0  0.48694558901E+03  0.35108245235E+03 -0.21727771404E+03  0.11864932870E+04  0.10000909059E+04 0.  0.
   -9000010    2    1    2    0  501 -0.48694558901E+03 -0.35108245235E+03 -0.91043692617E+02  0.11609423171E+04  0.98950655107E+03 0.  0.
        -13    1    3    3    0    0  0.23515881713E+03  0.69586569096E+03 -0.18993260130E+03  0.75868513451E+03  0.10566000000E+00 0.  1.
          4    1    3    3  502    0  0.25178677188E+03 -0.34478323860E+03 -0.27345112740E+02  0.42780815245E+03  0.00000000000E+00 0.  1.
         13    1    4    4    0    0  0.27492905411E+03 -0.21334172905E+03 -0.16125168266E+03  0.38353982124E+03  0.10566000000E+00 0. -1.
         -4    1    4    4    0  501 -0.76187464312E+03 -0.13774072330E+03  0.70207990047E+02  0.77740249584E+03  0.00000000000E+00 0. -1.
<mgrwt>
<rscale>  2 0.11618891E+04</rscale>
<asrwt>0</asrwt>
<pdfrwt beam="2">  1        2 0.20428900E+00 0.11618891E+04</pdfrwt>
<pdfrwt beam="1">  1       -2 0.15685494E+00 0.11618891E+04</pdfrwt>
<totfact> 0.57208233E+00</totfact>
</mgrwt>
</event>
<event>
 8    1  0.1373409E-005  0.1143041E+04  0.7818608E-02  0.8650734E-01
         -2   -1    0    0    0  501 -0.00000000000E+00  0.00000000000E+00  0.19862087635E+04  0.19862087635E+04  0.00000000000E+00 0. -1.
          2   -1    0    0  502    0  0.00000000000E+00 -0.00000000000E+00 -0.65883136967E+03  0.65883136967E+03  0.00000000000E+00 0.  1.
    9000010    2    1    2  502    0  0.34940295663E+03 -0.46298833919E+03  0.60662636678E+03  0.12839722561E+04  0.97167308143E+03 0.  0.
   -9000010    2    1    2    0  501 -0.34940295663E+03  0.46298833919E+03  0.72075102709E+03  0.13610678771E+04  0.99829008547E+03 0.  0.
        -13    1    3    3    0    0  0.47374685088E+03  0.14793978703E+03  0.36174086764E+03  0.61414878148E+03  0.10566000000E+00 0.  1.
          4    1    3    3  502    0 -0.12434389425E+03 -0.61092812622E+03  0.24488549914E+03  0.66982347461E+03  0.00000000000E+00 0.  1.
         13    1    4    4    0    0 -0.20297147093E+03  0.63757143093E+03  0.86333999351E+03  0.10922686039E+04  0.10566000000E+00 0. -1.
         -4    1    4    4    0  501 -0.14643148570E+03 -0.17458309174E+03 -0.14258896642E+03  0.26879927320E+03  0.00000000000E+00 0. -1.
<mgrwt>
<rscale>  2 0.11430413E+04</rscale>
<asrwt>0</asrwt>
<pdfrwt beam="2">  1        2 0.10135867E+00 0.11430413E+04</pdfrwt>
<pdfrwt beam="1">  1       -2 0.30557058E+00 0.11430413E+04</pdfrwt>
<totfact> 0.10296978E+00</totfact>
</mgrwt>
</event>
<event>
 8    1  0.1373409E-005  0.1557101E+04  0.7818608E-02  0.8377375E-01
         -2   -1    0    0    0  501 -0.00000000000E+00  0.00000000000E+00  0.11196436938E+04  0.11196436938E+04  0.00000000000E+00 0.  1.
          2   -1    0    0  502    0  0.00000000000E+00 -0.00000000000E+00 -0.23004284307E+04  0.23004284307E+04  0.00000000000E+00 0. -1.
    9000010    2    1    2  502    0 -0.84639314576E+03  0.82072189688E+03 -0.17672105659E+03  0.15685081480E+04  0.10193241336E+04 0.  0.
   -9000010    2    1    2    0  501  0.84639314576E+03 -0.82072189688E+03 -0.10040636804E+04  0.18515639765E+04  0.10149775839E+04 0.  0.
        -13    1    3    3    0    0  0.16031963036E+03 -0.30850583537E+02  0.13699604494E+03  0.21312454076E+03  0.10566000000E+00 0.  1.
          4    1    3    3  502    0 -0.10067127761E+04  0.85157248042E+03 -0.31371710153E+03  0.13553836072E+04  0.00000000000E+00 0.  1.
         13    1    4    4    0    0  0.38856543422E+03 -0.22075509809E+03  0.15107490166E+03  0.47174097456E+03  0.10566000000E+00 0. -1.
         -4    1    4    4    0  501  0.45782771154E+03 -0.59996679879E+03 -0.11551385820E+04  0.13798230020E+04  0.00000000000E+00 0. -1.
<mgrwt>
<rscale>  2 0.15571006E+04</rscale>
<asrwt>0</asrwt>
<pdfrwt beam="2">  1        2 0.35391206E+00 0.15571006E+04</pdfrwt>
<pdfrwt beam="1">  1       -2 0.17225288E+00 0.15571006E+04</pdfrwt>
<totfact> 0.11877994E+00</totfact>
</mgrwt>
</event>
<event>
 8    1  0.1373409E-005  0.1262364E+04  0.7818608E-02  0.8561024E-01
         -2   -1    0    0    0  501 -0.00000000000E+00  0.00000000000E+00  0.57560615480E+03  0.57560615480E+03  0.00000000000E+00 0. -1.
          2   -1    0    0  502    0  0.00000000000E+00 -0.00000000000E+00 -0.27960381444E+04  0.27960381444E+04  0.00000000000E+00 0.  1.
    9000010    2    1    2  502    0 -0.55452079658E+03 -0.55816187369E+03 -0.95760152688E+03  0.15968635679E+04  0.10069431857E+04 0.  0.
   -9000010    2    1    2    0  501  0.55452079658E+03  0.55816187369E+03 -0.12628304627E+04  0.17747807313E+04  0.96750600800E+03 0.  0.
        -13    1    3    3    0    0 -0.51036915183E+03  0.17120204432E+03 -0.31442732517E+03  0.62341909266E+03  0.10566000000E+00 0.  1.
          4    1    3    3  502    0 -0.44151644753E+02 -0.72936391802E+03 -0.64317420170E+03  0.97344447524E+03  0.00000000000E+00 0.  1.
         13    1    4    4    0    0  0.61592389521E+03  0.25183813730E+03 -0.12997563544E+04  0.14601887837E+04  0.10566000000E+00 0. -1.
         -4    1    4    4    0  501 -0.61403098628E+02  0.30632373640E+03  0.36925891698E+02  0.31459194758E+03  0.00000000000E+00 0. -1.
<mgrwt>
<rscale>  2 0.12623643E+04</rscale>
<asrwt>0</asrwt>
<pdfrwt beam="2">  1        2 0.43015971E+00 0.12623643E+04</pdfrwt>
<pdfrwt beam="1">  1       -2 0.88554793E-01 0.12623643E+04</pdfrwt>
<totfact> 0.39622206E+00</totfact>
</mgrwt>
</event>
<event>
 8    1  0.1373409E-005  0.1031194E+04  0.7818608E-02  0.8745822E-01
         -1   -1    0    0    0  501 -0.00000000000E+00  0.00000000000E+00  0.34608294849E+04  0.34608294849E+04  0.00000000000E+00 0.  1.
          1   -1    0    0  502    0  0.00000000000E+00 -0.00000000000E+00 -0.31261332756E+03  0.31261332756E+03  0.00000000000E+00 0. -1.
    9000010    2    1    2  502    0 -0.21006900169E+03  0.20789133779E+03  0.13264784901E+04  0.16798869423E+04  0.98748527089E+03 0.  0.
   -9000010    2    1    2    0  501  0.21006900169E+03 -0.20789133779E+03  0.18217376672E+04  0.20935558702E+04  0.98838264842E+03 0.  0.
        -13    1    3    3    0    0  0.97751226347E+02  0.35498344640E+03  0.12844115421E+04  0.13361442924E+04  0.10566000000E+00 0.  1.
          4    1    3    3  502    0 -0.30782022804E+03 -0.14709210861E+03  0.42066947997E+02  0.34374264984E+03  0.00000000000E+00 0.  1.
         13    1    4    4    0    0  0.55238893383E+03  0.13031673887E+02  0.65058069618E+03  0.85355644931E+03  0.10566000000E+00 0. -1.
         -4    1    4    4    0  501 -0.34231993214E+03 -0.22092301167E+03  0.11711569710E+04  0.12399994209E+04  0.00000000000E+00 0. -1.
<mgrwt>
<rscale>  2 0.10311940E+04</rscale>
<asrwt>0</asrwt>
<pdfrwt beam="2">  1        1 0.48094361E-01 0.10311940E+04</pdfrwt>
<pdfrwt beam="1">  1       -1 0.53243528E+00 0.10311940E+04</pdfrwt>
<totfact> 0.86634313E-01</totfact>
</mgrwt>
</event>
<event>
 8    1  0.1373409E-005  0.1230585E+04  0.7818608E-02  0.8583880E-01
         -2   -1    0    0    0  501 -0.00000000000E+00  0.00000000000E+00  0.72386266512E+03  0.72386266512E+03  0.00000000000E+00 0. -1.
          2   -1    0    0  502    0  0.00000000000E+00 -0.00000000000E+00 -0.21767027746E+04  0.21767027746E+04  0.00000000000E+00 0.  1.
    9000010    2    1    2  502    0 -0.48709460962E+03  0.53810034299E+03 -0.99644549782E+03  0.15639283038E+04  0.96236945678E+03 0.  0.
   -9000010    2    1    2    0  501  0.48709460962E+03 -0.53810034299E+03 -0.45639461161E+03  0.13366371359E+04  0.10254216956E+04 0.  0.
        -13    1    3    3    0    0 -0.64153194696E+03  0.51797417862E+02 -0.77580970321E+03  0.10080312090E+04  0.10566000000E+00 0.  1.
          4    1    3    3  502    0  0.15443733734E+03  0.48630292513E+03 -0.22063579461E+03  0.55589709481E+03  0.00000000000E+00 0.  1.
         13    1    4    4    0    0  0.15149969290E+03 -0.80778159875E+03 -0.24896670441E+03  0.85874775068E+03  0.10566000000E+00 0. -1.
         -4    1    4    4    0  501  0.33559491672E+03  0.26968125575E+03 -0.20742790720E+03  0.47788938523E+03  0.00000000000E+00 0. -1.
<mgrwt>
<rscale>  2 0.12305850E+04</rscale>
<asrwt>0</asrwt>
<pdfrwt beam="2">  1        2 0.33487734E+00 0.12305850E+04</pdfrwt>
<pdfrwt beam="1">  1       -2 0.11136349E+00 0.12305850E+04</pdfrwt>
<totfact> 0.51200292E+00</totfact>
</mgrwt>
</event>
<event>
 8    1  0.1373409E-005  0.1436012E+04  0.7818608E-02  0.8447304E-01
         -2   -1    0    0    0  501 -0.00000000000E+00  0.00000000000E+00  0.92317977897E+03  0.92317977897E+03  0.00000000000E+00 0.  1.
          2   -1    0    0  502    0  0.00000000000E+00 -0.00000000000E+00 -0.23761264094E+04  0.23761264094E+04  0.00000000000E+00 0. -1.
    9000010    2    1    2  502    0  0.88531054630E+03 -0.52080590363E+03 -0.11289194756E+04  0.18243507673E+04  0.99939130821E+03 0.  0.
   -9000010    2    1    2    0  501 -0.88531054630E+03  0.52080590363E+03 -0.32402715480E+03  0.14749554211E+04  0.10077134238E+04 0.  0.
        -13    1    3    3    0    0  0.66511415665E+03 -0.39263507631E+03 -0.13037476888E+04  0.15153538173E+04  0.10566000000E+00 0.  1.
          4    1    3    3  502    0  0.22019638965E+03 -0.12817082732E+03  0.17482821311E+03  0.30899694997E+03  0.00000000000E+00 0.  1.
         13    1    4    4    0    0 -0.10404915175E+04  0.27337125251E+03 -0.53954661926E+02  0.10771562358E+04  0.10566000000E+00 0. -1.
         -4    1    4    4    0  501  0.15518097120E+03  0.24743465112E+03 -0.27007249287E+03  0.39779918527E+03  0.00000000000E+00 0. -1.
<mgrwt>
<rscale>  2 0.14360123E+04</rscale>
<asrwt>0</asrwt>
<pdfrwt beam="2">  1        2 0.36555791E+00 0.14360123E+04</pdfrwt>
<pdfrwt beam="1">  1       -2 0.14202766E+00 0.14360123E+04</pdfrwt>
<totfact> 0.20044267E+00</totfact>
</mgrwt>
</event>
<event>
 8    1  0.1373409E-005  0.1172777E+04  0.7818608E-02  0.8627349E-01
         -2   -1    0    0    0  501 -0.00000000000E+00  0.00000000000E+00  0.70737006383E+03  0.70737006383E+03  0.00000000000E+00 0. -1.
          2   -1    0    0  502    0  0.00000000000E+00 -0.00000000000E+00 -0.27003043185E+04  0.27003043185E+04  0.00000000000E+00 0.  1.
    9000010    2    1    2  502    0 -0.26590149059E+03 -0.56293674071E+03 -0.96804534886E+02  0.11797178339E+04  0.99737739740E+03 0.  0.
   -9000010    2    1    2    0  501  0.26590149059E+03  0.56293674071E+03 -0.18961297198E+04  0.22279565485E+04  0.99039441178E+03 0.  0.
        -13    1    3    3    0    0 -0.49324039227E+03 -0.73867102579E+03 -0.82127775450E+02  0.89200109393E+03  0.10566000000E+00 0.  1.
          4    1    3    3  502    0  0.22733890168E+03  0.17573428508E+03 -0.14676759436E+02  0.28771673994E+03  0.00000000000E+00 0.  1.
         13    1    4    4    0    0 -0.88315659145E+02  0.29264759933E+03 -0.17230543444E+04  0.17499595875E+04  0.10566000000E+00 0. -1.
         -4    1    4    4    0  501  0.35421714974E+03  0.27028914137E+03 -0.17307537538E+03  0.47799696095E+03  0.00000000000E+00 0. -1.
<mgrwt>
<rscale>  2 0.11727767E+04</rscale>
<asrwt>0</asrwt>
<pdfrwt beam="2">  1        2 0.41543143E+00 0.11727767E+04</pdfrwt>
<pdfrwt beam="1">  1       -2 0.10882616E+00 0.11727767E+04</pdfrwt>
<totfact> 0.27841541E+00</totfact>
</mgrwt>
</event>
<event>
 8    1  0.1373409E-005  0.1068495E+04  0.7818608E-02  0.8712768E-01
         -2   -1    0    0    0  501 -0.00000000000E+00  0.00000000000E+00  0.78818692588E+03  0.78818692588E+03  0.00000000000E+00 0. -1.
          2   -1    0    0  502    0  0.00000000000E+00 -0.00000000000E+00 -0.15411841957E+04  0.15411841957E+04  0.00000000000E+00 0.  1.
    9000010    2    1    2  502    0  0.27522062103E+03 -0.22818979492E+03 -0.66381599322E+03  0.12623920384E+04  0.10125043275E+04 0.  0.
   -9000010    2    1    2    0  501 -0.27522062103E+03  0.22818979492E+03 -0.89181276642E+02  0.10669790832E+04  0.10013361529E+04 0.  0.
        -13    1    3    3    0    0  0.22565486016E+03 -0.59083402494E+02  0.24404125891E+03  0.33759015326E+03  0.10566000000E+00 0.  1.
          4    1    3    3  502    0  0.49565760870E+02 -0.16910639242E+03 -0.90785725213E+03  0.92480188519E+03  0.00000000000E+00 0.  1.
         13    1    4    4    0    0 -0.48923847811E+03  0.50422780495E+03  0.14215836897E+02  0.70271051574E+03  0.10566000000E+00 0. -1.
         -4    1    4    4    0  501  0.21401785708E+03 -0.27603801003E+03 -0.10339711354E+03  0.36426856743E+03  0.00000000000E+00 0. -1.
<mgrwt>
<rscale>  2 0.10684948E+04</rscale>
<asrwt>0</asrwt>
<pdfrwt beam="2">  1        2 0.23710526E+00 0.10684948E+04</pdfrwt>
<pdfrwt beam="1">  1       -2 0.12125953E+00 0.10684948E+04</pdfrwt>
<totfact> 0.92717314E+00</totfact>
</mgrwt>
</event>
<event>
 8    1  0.1373409E-005  0.1671484E+04  0.7818608E-02  0.8317113E-01
          1   -1    0    0  502    0  0.00000000000E+00  0.00000000000E+00  0.99630107220E+03  0.99630107220E+03  0.00000000000E+00 0.  1.
         -1   -1    0    0    0  501 -0.00000000000E+00 -0.00000000000E+00 -0.28146393364E+04  0.28146393364E+04  0.00000000000E+00 0. -1.
    9000010    2    1    2  502    0  0.70855649711E+03 -0.11281381964E+04 -0.10281511244E+04  0.19676103891E+04  0.10196312122E+04 0.  0.
   -9000010    2    1    2    0  501 -0.70855649711E+03  0.11281381964E+04 -0.79018713983E+03  0.18433300195E+04  0.99936066826E+03 0.  0.
        -13    1    3    3    0    0  0.68381467905E+03 -0.96412830009E+03 -0.12303141683E+04  0.17061122056E+04  0.10566000000E+00 0.  1.
          4    1    3    3  502    0  0.24741818055E+02 -0.16400989628E+03  0.20216304389E+03  0.26149818346E+03  0.00000000000E+00 0.  1.
         13    1    4    4    0    0 -0.85586237886E+03  0.63243652449E+03 -0.24523524192E+03  0.10920699172E+04  0.10566000000E+00 0. -1.
         -4    1    4    4    0  501  0.14730588175E+03  0.49570167188E+03 -0.54495189791E+03  0.75126010232E+03  0.00000000000E+00 0. -1.
<mgrwt>
<rscale>  2 0.16714838E+04</rscale>
<asrwt>0</asrwt>
<pdfrwt beam="1">  1        1 0.15327709E+00 0.16714838E+04</pdfrwt>
<pdfrwt beam="2">  1       -1 0.43302143E+00 0.16714838E+04</pdfrwt>
<totfact> 0.22604425E-01</totfact>
</mgrwt>
</event>
<event>
 8    1  0.1373409E-005  0.1117344E+04  0.7818608E-02  0.8671547E-01
         -4   -1    0    0    0  501 -0.00000000000E+00  0.00000000000E+00  0.46570671237E+03  0.46570671237E+03  0.00000000000E+00 0. -1.
          4   -1    0    0  502    0  0.00000000000E+00 -0.00000000000E+00 -0.27885016085E+04  0.27885016085E+04  0.00000000000E+00 0.  1.
    9000010    2    1    2  502    0 -0.64812224816E+02 -0.48147858969E+03 -0.83697312854E+03  0.13923090128E+04  0.10009885676E+04 0.  0.
   -9000010    2    1    2    0  501  0.64812224816E+02  0.48147858969E+03 -0.14858217676E+04  0.18618993080E+04  0.10114249608E+04 0.  0.
        -13    1    3    3    0    0  0.46754333583E+03 -0.26933734424E+03 -0.40935708035E+03  0.67728325409E+03  0.10566000000E+00 0.  1.
          4    1    3    3  502    0 -0.53235556064E+03 -0.21214124545E+03 -0.42761604820E+03  0.71502575873E+03  0.00000000000E+00 0.  1.
         13    1    4    4    0    0 -0.45992453991E+03  0.33847959451E+03 -0.65604322119E+03  0.86976533475E+03  0.10566000000E+00 0. -1.
         -4    1    4    4    0  501  0.52473676473E+03  0.14299899518E+03 -0.82977854638E+03  0.99213397327E+03  0.00000000000E+00 0. -1.
<mgrwt>
<rscale>  2 0.11173439E+04</rscale>
<asrwt>0</asrwt>
<pdfrwt beam="2">  1        4 0.42900025E+00 0.11173439E+04</pdfrwt>
<pdfrwt beam="1">  1       -4 0.71647186E-01 0.11173439E+04</pdfrwt>
<totfact> 0.20824779E-01</totfact>
</mgrwt>
</event>
<event>
 8    1  0.1373409E-005  0.1255814E+04  0.7818608E-02  0.8565678E-01
          1   -1    0    0  502    0  0.00000000000E+00  0.00000000000E+00  0.16642996448E+04  0.16642996448E+04  0.00000000000E+00 0.  1.
         -1   -1    0    0    0  501 -0.00000000000E+00 -0.00000000000E+00 -0.10362360098E+04  0.10362360098E+04  0.00000000000E+00 0. -1.
    9000010    2    1    2  502    0  0.44236991952E+03  0.59820980054E+03  0.71054149214E+03  0.14491958380E+04  0.10206631441E+04 0.  0.
   -9000010    2    1    2    0  501 -0.44236991952E+03 -0.59820980054E+03 -0.82477857135E+02  0.12513398166E+04  0.10027475397E+04 0.  0.
        -13    1    3    3    0    0 -0.18517809683E+03 -0.81134127951E+02 -0.94397231388E+02  0.22312445568E+03  0.10566000000E+00 0.  1.
          4    1    3    3  502    0  0.62754801635E+03  0.67934392849E+03  0.80493872353E+03  0.12260713824E+04  0.00000000000E+00 0.  1.
         13    1    4    4    0    0 -0.58015103268E+03  0.65498432381E+01  0.13206170309E+03  0.59502808820E+03  0.10566000000E+00 0. -1.
         -4    1    4    4    0  501  0.13778111315E+03 -0.60475964378E+03 -0.21453956023E+03  0.65631172837E+03  0.00000000000E+00 0. -1.
<mgrwt>
<rscale>  2 0.12558144E+04</rscale>
<asrwt>0</asrwt>
<pdfrwt beam="1">  1        1 0.25604610E+00 0.12558144E+04</pdfrwt>
<pdfrwt beam="2">  1       -1 0.15942092E+00 0.12558144E+04</pdfrwt>
<totfact> 0.19983098E+00</totfact>
</mgrwt>
</event>
<event>
 8    1  0.1373409E-005  0.1114875E+04  0.7818608E-02  0.8673577E-01
         -1   -1    0    0    0  501 -0.00000000000E+00  0.00000000000E+00  0.87398578451E+03  0.87398578451E+03  0.00000000000E+00 0.  1.
          1   -1    0    0  502    0  0.00000000000E+00 -0.00000000000E+00 -0.14826010339E+04  0.14826010339E+04  0.00000000000E+00 0. -1.
    9000010    2    1    2  502    0  0.52128675697E+03  0.14076042365E+03 -0.74773574321E+02  0.11435610166E+04  0.10052797279E+04 0.  0.
   -9000010    2    1    2    0  501 -0.52128675697E+03 -0.14076042365E+03 -0.53384167511E+03  0.12130258019E+04  0.94598693545E+03 0.  0.
        -13    1    3    3    0    0  0.76836830789E+03  0.10921399812E+03 -0.27562669050E+03  0.82358219847E+03  0.10566000000E+00 0.  1.
          4    1    3    3  502    0 -0.24708155092E+03  0.31546425527E+02  0.20085311618E+03  0.31997881812E+03  0.00000000000E+00 0.  1.
         13    1    4    4    0    0 -0.22594752708E+03 -0.46049006612E+03  0.14242777960E+02  0.51313375827E+03  0.10566000000E+00 0. -1.
         -4    1    4    4    0  501 -0.29533922989E+03  0.31972964247E+03 -0.54808445307E+03  0.69989204359E+03  0.00000000000E+00 0. -1.
<mgrwt>
<rscale>  2 0.11148754E+04</rscale>
<asrwt>0</asrwt>
<pdfrwt beam="2">  1        1 0.22809246E+00 0.11148754E+04</pdfrwt>
<pdfrwt beam="1">  1       -1 0.13445935E+00 0.11148754E+04</pdfrwt>
<totfact> 0.45664682E+00</totfact>
</mgrwt>
</event>
<event>
 8    1  0.1373409E-005  0.1094124E+04  0.7818608E-02  0.8690861E-01
          2   -1    0    0  502    0  0.00000000000E+00  0.00000000000E+00  0.26336459386E+04  0.26336459386E+04  0.00000000000E+00 0. -1.
         -2   -1    0    0    0  501 -0.00000000000E+00 -0.00000000000E+00 -0.64417795711E+03  0.64417795711E+03  0.00000000000E+00 0.  1.
    9000010    2    1    2  502    0  0.27515071278E+03  0.35950901088E+03  0.18810284183E+04  0.21738231156E+04  0.99110261022E+03 0.  0.
   -9000010    2    1    2    0  501 -0.27515071278E+03 -0.35950901088E+03  0.10843956325E+03  0.11040007801E+04  0.10010514173E+04 0.  0.
        -13    1    3    3    0    0 -0.19338525918E+03  0.39319830672E+03  0.15184886907E+04  0.15804463552E+04  0.10566000000E+00 0.  1.
          4    1    3    3  502    0  0.46853597196E+03 -0.33689295846E+02  0.36253972757E+03  0.59337676037E+03  0.00000000000E+00 0.  1.
         13    1    4    4    0    0  0.14053053685E+03 -0.27912916661E+03 -0.35723294532E+03  0.47463387134E+03  0.10566000000E+00 0. -1.
         -4    1    4    4    0  501 -0.41568124962E+03 -0.80379844266E+02  0.46567250856E+03  0.62936690879E+03  0.00000000000E+00 0. -1.
<mgrwt>
<rscale>  2 0.10941242E+04</rscale>
<asrwt>0</asrwt>
<pdfrwt beam="1">  1        2 0.40517629E+00 0.10941242E+04</pdfrwt>
<pdfrwt beam="2">  1       -2 0.99104302E-01 0.10941242E+04</pdfrwt>
<totfact> 0.38634356E+00</totfact>
</mgrwt>
</event>
<event>
 8    1  0.1373409E-005  0.1411310E+04  0.7818608E-02  0.8462442E-01
          2   -1    0    0  502    0  0.00000000000E+00  0.00000000000E+00  0.21253488189E+04  0.21253488189E+04  0.00000000000E+00 0. -1.
         -2   -1    0    0    0  501 -0.00000000000E+00 -0.00000000000E+00 -0.12045865625E+04  0.12045865625E+04  0.00000000000E+00 0.  1.
    9000010    2    1    2  502    0 -0.96720747340E+03 -0.25212315843E+03  0.12449700595E+04  0.18822424259E+04  0.99691008482E+03 0.  0.
   -9000010    2    1    2    0  501  0.96720747340E+03  0.25212315843E+03 -0.32420780305E+03  0.14476929555E+04  0.99581514858E+03 0.  0.
        -13    1    3    3    0    0 -0.71885523239E+03 -0.18037175405E+03  0.13976613195E+04  0.15820063179E+04  0.10566000000E+00 0.  1.
          4    1    3    3  502    0 -0.24835224102E+03 -0.71751404380E+02 -0.15269126000E+03  0.30023610797E+03  0.00000000000E+00 0.  1.
         13    1    4    4    0    0 -0.26143292130E+02 -0.27051793482E+03  0.23043435765E+02  0.27275343422E+03  0.10566000000E+00 0. -1.
         -4    1    4    4    0  501  0.99335076553E+03  0.52264109325E+03 -0.34725123881E+03  0.11749395213E+04  0.00000000000E+00 0. -1.
<mgrwt>
<rscale>  2 0.14113096E+04</rscale>
<asrwt>0</asrwt>
<pdfrwt beam="1">  1        2 0.32697674E+00 0.14113096E+04</pdfrwt>
<pdfrwt beam="2">  1       -2 0.18532101E+00 0.14113096E+04</pdfrwt>
<totfact> 0.11714553E+00</totfact>
</mgrwt>
</event>
<event>
 8    1  0.1373409E-005  0.1110437E+04  0.7818608E-02  0.8677240E-01
         -2   -1    0    0    0  501 -0.00000000000E+00  0.00000000000E+00  0.31545280086E+04  0.31545280086E+04  0.00000000000E+00 0. -1.
          2   -1    0    0  502    0  0.00000000000E+00 -0.00000000000E+00 -0.40440355054E+03  0.40440355054E+03  0.00000000000E+00 0.  1.
    9000010    2    1    2  502    0  0.16213258363E+03  0.46611127153E+03  0.10330683031E+04  0.15060454445E+04  0.97846618228E+03 0.  0.
   -9000010    2    1    2    0  501 -0.16213258363E+03 -0.46611127153E+03  0.17170561550E+04  0.20528861147E+04  0.10111937838E+04 0.  0.
        -13    1    3    3    0    0  0.34431598797E+03 -0.25906190548E+02  0.90117139607E+03  0.96505674783E+03  0.10566000000E+00 0.  1.
          4    1    3    3  502    0 -0.18218340434E+03  0.49201746208E+03  0.13189690701E+03  0.54098869663E+03  0.00000000000E+00 0.  1.
         13    1    4    4    0    0  0.10090306416E+03  0.21798079489E+03  0.99666943226E+03  0.10252058445E+04  0.10566000000E+00 0. -1.
         -4    1    4    4    0  501 -0.26303564778E+03 -0.68409206642E+03  0.72038672271E+03  0.10276802701E+04  0.00000000000E+00 0. -1.
<mgrwt>
<rscale>  2 0.11104375E+04</rscale>
<asrwt>0</asrwt>
<pdfrwt beam="2">  1        2 0.62215933E-01 0.11104375E+04</pdfrwt>
<pdfrwt beam="1">  1       -2 0.48531199E+00 0.11104375E+04</pdfrwt>
<totfact> 0.30146863E-01</totfact>
</mgrwt>
</event>
<event>
 8    1  0.1373409E-005  0.1592486E+04  0.7818608E-02  0.8358175E-01
          2   -1    0    0  502    0  0.00000000000E+00  0.00000000000E+00  0.20447831945E+04  0.20447831945E+04  0.00000000000E+00 0. -1.
         -2   -1    0    0    0  501 -0.00000000000E+00 -0.00000000000E+00 -0.12487539858E+04  0.12487539858E+04  0.00000000000E+00 0.  1.
    9000010    2    1    2  502    0 -0.12337335732E+04  0.11058684273E+03  0.26192338045E+03  0.16135679338E+04  0.10003347640E+04 0.  0.
   -9000010    2    1    2    0  501  0.12337335732E+04 -0.11058684273E+03  0.53410582821E+03  0.16799692466E+04  0.10013489173E+04 0.  0.
        -13    1    3    3    0    0 -0.98707475204E+03  0.34169075292E+03  0.54000385766E+03  0.11758713000E+04  0.10566000000E+00 0.  1.
          4    1    3    3  502    0 -0.24665882121E+03 -0.23110391019E+03 -0.27808047721E+03  0.43769663374E+03  0.00000000000E+00 0.  1.
         13    1    4    4    0    0  0.67832982219E+03 -0.41226028292E+03  0.66379920862E+03  0.10347556664E+04  0.10566000000E+00 0. -1.
         -4    1    4    4    0  501  0.55540375106E+03  0.30167344019E+03 -0.12969338040E+03  0.64521358024E+03  0.00000000000E+00 0. -1.
<mgrwt>
<rscale>  2 0.15924862E+04</rscale>
<asrwt>0</asrwt>
<pdfrwt beam="1">  1        2 0.31458203E+00 0.15924862E+04</pdfrwt>
<pdfrwt beam="2">  1       -2 0.19211600E+00 0.15924862E+04</pdfrwt>
<totfact> 0.11173447E+00</totfact>
</mgrwt>
</event>
<event>
 8    1  0.1373409E-005  0.1108890E+04  0.7818608E-02  0.8678521E-01
          2   -1    0    0  502    0  0.00000000000E+00  0.00000000000E+00  0.23988938588E+04  0.23988938588E+04  0.00000000000E+00 0.  1.
         -2   -1    0    0    0  501 -0.00000000000E+00 -0.00000000000E+00 -0.63227687362E+03  0.63227687362E+03  0.00000000000E+00 0. -1.
    9000010    2    1    2  502    0  0.42625035442E+03  0.21993752749E+03  0.21925155012E+03  0.11232192572E+04  0.99170982489E+03 0.  0.
   -9000010    2    1    2    0  501 -0.42625035442E+03 -0.21993752749E+03  0.15473654351E+04  0.19079514753E+04  0.10079073180E+04 0.  0.
        -13    1    3    3    0    0  0.54183529594E+03 -0.17952960918E+03 -0.12386451585E+03  0.58408800532E+03  0.10566000000E+00 0.  1.
          4    1    3    3  502    0 -0.11558494152E+03  0.39946713667E+03  0.34311606597E+03  0.53913125184E+03  0.00000000000E+00 0.  1.
         13    1    4    4    0    0 -0.41907309418E+03  0.33757618514E+03  0.94255722953E+03  0.10853543574E+04  0.10566000000E+00 0. -1.
         -4    1    4    4    0  501 -0.71772602444E+01 -0.55751371263E+03  0.60480820554E+03  0.82259711786E+03  0.00000000000E+00 0. -1.
<mgrwt>
<rscale>  2 0.11088904E+04</rscale>
<asrwt>0</asrwt>
<pdfrwt beam="1">  1        2 0.36906059E+00 0.11088904E+04</pdfrwt>
<pdfrwt beam="2">  1       -2 0.97273366E-01 0.11088904E+04</pdfrwt>
<totfact> 0.54637462E+00</totfact>
</mgrwt>
</event>
<event>
 8    1  0.1373409E-005  0.1149772E+04  0.7818608E-02  0.8645376E-01
          2   -1    0    0  502    0  0.00000000000E+00  0.00000000000E+00  0.25263100613E+04  0.25263100613E+04  0.00000000000E+00 0.  1.
         -2   -1    0    0    0  501 -0.00000000000E+00 -0.00000000000E+00 -0.55264414403E+03  0.55264414403E+03  0.00000000000E+00 0. -1.
    9000010    2    1    2  502    0  0.31930587570E+03 -0.48467834174E+03  0.67933971792E+03  0.13799774173E+04  0.10516491253E+04 0.  0.
   -9000010    2    1    2    0  501 -0.31930587570E+03  0.48467834174E+03  0.12943261993E+04  0.16989767880E+04  0.93507886232E+03 0.  0.
        -13    1    3    3    0    0  0.28942456126E+03 -0.80419434179E+03  0.61428321279E+03  0.10525393070E+04  0.10566000000E+00 0.  1.
          4    1    3    3  502    0  0.29881314441E+02  0.31951600005E+03  0.65056505124E+02  0.32743811033E+03  0.00000000000E+00 0.  1.
         13    1    4    4    0    0 -0.21007137135E+02 -0.27909821479E+03  0.30311138472E+03  0.41256955295E+03  0.10566000000E+00 0. -1.
         -4    1    4    4    0  501 -0.29829873856E+03  0.76377655653E+03  0.99121481462E+03  0.12864072351E+04  0.00000000000E+00 0. -1.
<mgrwt>
<rscale>  2 0.11497724E+04</rscale>
<asrwt>0</asrwt>
<pdfrwt beam="1">  1        2 0.38866308E+00 0.11497724E+04</pdfrwt>
<pdfrwt beam="2">  1       -2 0.85022178E-01 0.11497724E+04</pdfrwt>
<totfact> 0.63054697E+00</totfact>
</mgrwt>
</event>
<event>
 8    1  0.1373409E-005  0.1123181E+04  0.7818608E-02  0.8666769E-01
          2   -1    0    0  502    0  0.00000000000E+00  0.00000000000E+00  0.93608239485E+03  0.93608239485E+03  0.00000000000E+00 0. -1.
         -2   -1    0    0    0  501 -0.00000000000E+00 -0.00000000000E+00 -0.13536734051E+04  0.13536734051E+04  0.00000000000E+00 0.  1.
    9000010    2    1    2  502    0  0.42027104652E+02  0.64093891262E+03 -0.23105028391E+03  0.12221543913E+04  0.10137594169E+04 0.  0.
   -9000010    2    1    2    0  501 -0.42027104652E+02 -0.64093891262E+03 -0.18654072630E+03  0.10676014086E+04  0.83210958281E+03 0.  0.
        -13    1    3    3    0    0 -0.32901289613E+02  0.49309235110E+03  0.35799600093E+03  0.61023250439E+03  0.10566000000E+00 0.  1.
          4    1    3    3  502    0  0.74928394264E+02  0.14784656152E+03 -0.58904628485E+03  0.61192188694E+03  0.00000000000E+00 0.  1.
         13    1    4    4    0    0 -0.27099473369E+03 -0.30082327200E+03  0.24427646424E+03  0.47286762293E+03  0.10566000000E+00 0. -1.
         -4    1    4    4    0  501  0.22896762904E+03 -0.34011564062E+03 -0.43081719053E+03  0.59473378566E+03  0.00000000000E+00 0. -1.
<mgrwt>
<rscale>  2 0.11231808E+04</rscale>
<asrwt>0</asrwt>
<pdfrwt beam="1">  1        2 0.14401268E+00 0.11231808E+04</pdfrwt>
<pdfrwt beam="2">  1       -2 0.20825745E+00 0.11231808E+04</pdfrwt>
<totfact> 0.36149768E+00</totfact>
</mgrwt>
</event>
<event>
 8    1  0.1373409E-005  0.1062244E+04  0.7818608E-02  0.8718209E-01
          2   -1    0    0  502    0  0.00000000000E+00  0.00000000000E+00  0.14064306762E+04  0.14064306762E+04  0.00000000000E+00 0.  1.
         -2   -1    0    0    0  501 -0.00000000000E+00 -0.00000000000E+00 -0.91460004692E+03  0.91460004692E+03  0.00000000000E+00 0. -1.
    9000010    2    1    2  502    0 -0.34593981862E+03 -0.12532506079E+03 -0.16090581411E+03  0.10736560586E+04  0.99572381826E+03 0.  0.
   -9000010    2    1    2    0  501  0.34593981862E+03  0.12532506079E+03  0.65273644337E+03  0.12473746645E+04  0.99724518555E+03 0.  0.
        -13    1    3    3    0    0 -0.25105325035E+03 -0.35311396141E+03 -0.49530902235E+03  0.65806401135E+03  0.10566000000E+00 0.  1.
          4    1    3    3  502    0 -0.94886568272E+02  0.22778890062E+03  0.33440320823E+03  0.41559204728E+03  0.00000000000E+00 0.  1.
         13    1    4    4    0    0  0.40259970777E+03  0.52370316513E+03  0.40655566890E+03  0.77565395180E+03  0.10566000000E+00 0. -1.
         -4    1    4    4    0  501 -0.56659889142E+02 -0.39837810434E+03  0.24618077447E+03  0.47172071268E+03  0.00000000000E+00 0. -1.
<mgrwt>
<rscale>  2 0.10622437E+04</rscale>
<asrwt>0</asrwt>
<pdfrwt beam="1">  1        2 0.21637395E+00 0.10622437E+04</pdfrwt>
<pdfrwt beam="2">  1       -2 0.14070770E+00 0.10622437E+04</pdfrwt>
<totfact> 0.72700335E+00</totfact>
</mgrwt>
</event>
<event>
 8    1  0.1373409E-005  0.1461950E+04  0.7818608E-02  0.8431740E-01
          2   -1    0    0  502    0  0.00000000000E+00  0.00000000000E+00  0.76039471024E+03  0.76039471024E+03  0.00000000000E+00 0.  1.
         -2   -1    0    0    0  501 -0.00000000000E+00 -0.00000000000E+00 -0.33105461967E+04  0.33105461967E+04  0.00000000000E+00 0. -1.
    9000010    2    1    2  502    0  0.25353360746E+01  0.10662773725E+04 -0.20689337934E+04  0.25356911842E+04  0.10061256767E+04 0.  0.
   -9000010    2    1    2    0  501 -0.25353360746E+01 -0.10662773725E+04 -0.48121769298E+03  0.15352497226E+04  0.99421696823E+03 0.  0.
        -13    1    3    3    0    0  0.93225840897E+02  0.35062320674E+03 -0.19864211454E+02  0.36334871484E+03  0.10566000000E+00 0.  1.
          4    1    3    3  502    0 -0.90690504823E+02  0.71565416572E+03 -0.20490695820E+04  0.21723424694E+04  0.00000000000E+00 0.  1.
         13    1    4    4    0    0  0.28137933805E+03 -0.10756867312E+04 -0.55364035838E+03  0.12420925623E+04  0.10566000000E+00 0. -1.
         -4    1    4    4    0  501 -0.28391467413E+03  0.94093587804E+01  0.72422665406E+02  0.29315716038E+03  0.00000000000E+00 0. -1.
<mgrwt>
<rscale>  2 0.14619503E+04</rscale>
<asrwt>0</asrwt>
<pdfrwt beam="1">  1        2 0.11698380E+00 0.14619503E+04</pdfrwt>
<pdfrwt beam="2">  1       -2 0.50931479E+00 0.14619503E+04</pdfrwt>
<totfact> 0.14520942E-01</totfact>
</mgrwt>
</event>
<event>
 8    1  0.1373409E-005  0.1476554E+04  0.7818608E-02  0.8423122E-01
         -2   -1    0    0    0  501 -0.00000000000E+00  0.00000000000E+00  0.16908217265E+04  0.16908217265E+04  0.00000000000E+00 0.  1.
          2   -1    0    0  502    0  0.00000000000E+00 -0.00000000000E+00 -0.16458264162E+04  0.16458264162E+04  0.00000000000E+00 0. -1.
    9000010    2    1    2  502    0 -0.56098326784E+03  0.93303423089E+03  0.79881251252E+03  0.16774086780E+04  0.99515995707E+03 0.  0.
   -9000010    2    1    2    0  501  0.56098326784E+03 -0.93303423089E+03 -0.75381720223E+03  0.16592394646E+04  0.99979003982E+03 0.  0.
        -13    1    3    3    0    0 -0.43448737438E+03  0.91134827519E+03  0.15562909902E+03  0.10215455863E+04  0.10566000000E+00 0.  1.
          4    1    3    3  502    0 -0.12649589346E+03  0.21685955701E+02  0.64318341350E+03  0.65586309177E+03  0.00000000000E+00 0.  1.
         13    1    4    4    0    0 -0.82945171192E+02 -0.12027099951E+03  0.20179102842E+03  0.24912776854E+03  0.10566000000E+00 0. -1.
         -4    1    4    4    0  501  0.64392843903E+03 -0.81276323139E+03 -0.95560823065E+03  0.14101116961E+04  0.00000000000E+00 0. -1.
<mgrwt>
<rscale>  2 0.14765541E+04</rscale>
<asrwt>0</asrwt>
<pdfrwt beam="2">  1        2 0.25320406E+00 0.14765541E+04</pdfrwt>
<pdfrwt beam="1">  1       -2 0.26012642E+00 0.14765541E+04</pdfrwt>
<totfact> 0.53245766E-01</totfact>
</mgrwt>
</event>
<event>
 8    1  0.1373409E-005  0.1255245E+04  0.7818608E-02  0.8566084E-01
          2   -1    0    0  502    0  0.00000000000E+00  0.00000000000E+00  0.52031496139E+03  0.52031496139E+03  0.00000000000E+00 0.  1.
         -2   -1    0    0    0  501 -0.00000000000E+00 -0.00000000000E+00 -0.38117216611E+04  0.38117216611E+04  0.00000000000E+00 0. -1.
    9000010    2    1    2  502    0 -0.68272978112E+03 -0.19715803058E+02 -0.63582598551E+03  0.13825992765E+04  0.10201947895E+04 0.  0.
   -9000010    2    1    2    0  501  0.68272978112E+03  0.19715803058E+02 -0.26555807142E+04  0.29494373460E+04  0.10865371883E+04 0.  0.
        -13    1    3    3    0    0 -0.41883041189E+03  0.23512404042E+03  0.16001865320E+03  0.50626890962E+03  0.10566000000E+00 0.  1.
          4    1    3    3  502    0 -0.26389936923E+03 -0.25483984348E+03 -0.79584463871E+03  0.87633036685E+03  0.00000000000E+00 0.  1.
         13    1    4    4    0    0 -0.20801045518E+03  0.65495119740E+02 -0.13548174231E+04  0.13722566164E+04  0.10566000000E+00 0. -1.
         -4    1    4    4    0  501  0.89074023630E+03 -0.45779316681E+02 -0.13007632911E+04  0.15771807296E+04  0.00000000000E+00 0. -1.
<mgrwt>
<rscale>  2 0.12552450E+04</rscale>
<asrwt>0</asrwt>
<pdfrwt beam="1">  1        2 0.80048457E-01 0.12552450E+04</pdfrwt>
<pdfrwt beam="2">  1       -2 0.58641871E+00 0.12552450E+04</pdfrwt>
<totfact> 0.40985497E-01</totfact>
</mgrwt>
</event>
<event>
 8    1  0.1373409E-005  0.1273077E+04  0.7818608E-02  0.8553476E-01
          2   -1    0    0  502    0  0.00000000000E+00  0.00000000000E+00  0.18215420176E+04  0.18215420176E+04  0.00000000000E+00 0.  1.
         -2   -1    0    0    0  501 -0.00000000000E+00 -0.00000000000E+00 -0.89076301886E+03  0.89076301886E+03  0.00000000000E+00 0. -1.
    9000010    2    1    2  502    0  0.46998622999E+03  0.63684697571E+03  0.42205445449E+03  0.13462698394E+04  0.10039180201E+04 0.  0.
   -9000010    2    1    2    0  501 -0.46998622999E+03 -0.63684697571E+03  0.50872454430E+03  0.13660351971E+04  0.99034861085E+03 0.  0.
        -13    1    3    3    0    0  0.70647821780E+03  0.69355193858E+03  0.18596573682E+03  0.10073276677E+04  0.10566000000E+00 0.  1.
          4    1    3    3  502    0 -0.23649198781E+03 -0.56704962876E+02  0.23608871767E+03  0.33894217165E+03  0.00000000000E+00 0.  1.
         13    1    4    4    0    0 -0.23298216497E+03  0.24324721743E+03  0.34463216990E+02  0.33858178107E+03  0.10566000000E+00 0. -1.
         -4    1    4    4    0  501 -0.23700406502E+03 -0.88009419313E+03  0.47426132731E+03  0.10274534161E+04  0.00000000000E+00 0. -1.
<mgrwt>
<rscale>  2 0.12730772E+04</rscale>
<asrwt>0</asrwt>
<pdfrwt beam="1">  1        2 0.28023723E+00 0.12730772E+04</pdfrwt>
<pdfrwt beam="2">  1       -2 0.13704046E+00 0.12730772E+04</pdfrwt>
<totfact> 0.45542628E+00</totfact>
</mgrwt>
</event>
<event>
 8    1  0.1373409E-005  0.1210516E+04  0.7818608E-02  0.8598686E-01
         -2   -1    0    0    0  501 -0.00000000000E+00  0.00000000000E+00  0.89018177964E+03  0.89018177964E+03  0.00000000000E+00 0. -1.
          2   -1    0    0  502    0  0.00000000000E+00 -0.00000000000E+00 -0.19933018546E+04  0.19933018546E+04  0.00000000000E+00 0.  1.
    9000010    2    1    2  502    0 -0.45350897870E+02  0.69221856622E+03 -0.11484685917E+04  0.16597970266E+04  0.97709918430E+03 0.  0.
   -9000010    2    1    2    0  501  0.45350897870E+02 -0.69221856622E+03  0.45348516771E+02  0.12236866076E+04  0.10070398097E+04 0.  0.
        -13    1    3    3    0    0  0.11304211240E+03  0.31043083374E+02  0.15222415544E+03  0.19213119701E+03  0.10566000000E+00 0.  1.
          4    1    3    3  502    0 -0.15839301027E+03  0.66117548284E+03 -0.13006927471E+04  0.14676658296E+04  0.00000000000E+00 0.  1.
         13    1    4    4    0    0  0.12134233079E+03 -0.91750063471E+03  0.19082385316E+03  0.94495773981E+03  0.10566000000E+00 0. -1.
         -4    1    4    4    0  501 -0.75991432915E+02  0.22528206849E+03 -0.14547533639E+03  0.27872886782E+03  0.00000000000E+00 0. -1.
<mgrwt>
<rscale>  2 0.12105157E+04</rscale>
<asrwt>0</asrwt>
<pdfrwt beam="2">  1        2 0.30666182E+00 0.12105157E+04</pdfrwt>
<pdfrwt beam="1">  1       -2 0.13695104E+00 0.12105157E+04</pdfrwt>
<totfact> 0.37030158E+00</totfact>
</mgrwt>
</event>
<event>
 8    1  0.1373409E-005  0.1023568E+04  0.7818608E-02  0.8752757E-01
          2   -1    0    0  502    0  0.00000000000E+00  0.00000000000E+00  0.25385881799E+04  0.25385881799E+04  0.00000000000E+00 0.  1.
         -2   -1    0    0    0  501 -0.00000000000E+00 -0.00000000000E+00 -0.42176557575E+03  0.42176557575E+03  0.00000000000E+00 0. -1.
    9000010    2    1    2  502    0 -0.43735879330E+03 -0.18235284372E+02  0.79314474647E+03  0.12269651977E+04  0.82749608320E+03 0.  0.
   -9000010    2    1    2    0  501  0.43735879330E+03  0.18235284372E+02  0.13236778576E+04  0.17333885580E+04  0.10299988264E+04 0.  0.
        -13    1    3    3    0    0  0.12341353676E+03  0.20167819302E+03  0.50842004398E+03  0.56071021649E+03  0.10566000000E+00 0.  1.
          4    1    3    3  502    0 -0.56077233007E+03 -0.21991347739E+03  0.28472470250E+03  0.66625498116E+03  0.00000000000E+00 0.  1.
         13    1    4    4    0    0  0.25367521380E+03 -0.46680953255E+03  0.36879990575E+03  0.64674232537E+03  0.10566000000E+00 0. -1.
         -4    1    4    4    0  501  0.18368357950E+03  0.48504481692E+03  0.95487795189E+03  0.10866462326E+04  0.00000000000E+00 0. -1.
<mgrwt>
<rscale>  2 0.10235682E+04</rscale>
<asrwt>0</asrwt>
<pdfrwt beam="1">  1        2 0.39055202E+00 0.10235682E+04</pdfrwt>
<pdfrwt beam="2">  1       -2 0.64887013E-01 0.10235682E+04</pdfrwt>
<totfact> 0.11220780E+01</totfact>
</mgrwt>
</event>
<event>
 8    1  0.1373409E-005  0.9573572E+03  0.7818608E-02  0.8815723E-01
          2   -1    0    0  502    0  0.00000000000E+00  0.00000000000E+00  0.29457498659E+04  0.29457498659E+04  0.00000000000E+00 0. -1.
         -2   -1    0    0    0  501 -0.00000000000E+00 -0.00000000000E+00 -0.37342105935E+03  0.37342105935E+03  0.00000000000E+00 0.  1.
    9000010    2    1    2  502    0  0.13627356926E+03 -0.37772317230E+03  0.76241348572E+03  0.13189056690E+04  0.99849514762E+03 0.  0.
   -9000010    2    1    2    0  501 -0.13627356926E+03  0.37772317230E+03  0.18099153208E+04  0.20002652563E+04  0.75101421186E+03 0.  0.
        -13    1    3    3    0    0  0.41304535242E+03 -0.12046113006E+03  0.83014015937E+03  0.93501339155E+03  0.10566000000E+00 0.  1.
          4    1    3    3  502    0 -0.27677178316E+03 -0.25726204224E+03 -0.67726673651E+02  0.38389227741E+03  0.00000000000E+00 0.  1.
         13    1    4    4    0    0 -0.37632488022E+03  0.44240434063E+03  0.10398492063E+04  0.11910618788E+04  0.10566000000E+00 0. -1.
         -4    1    4    4    0  501  0.24005131096E+03 -0.64681168333E+02  0.77006611456E+03  0.80920337754E+03  0.00000000000E+00 0. -1.
<mgrwt>
<rscale>  2 0.95735721E+03</rscale>
<asrwt>0</asrwt>
<pdfrwt beam="1">  1        2 0.45319227E+00 0.95735721E+03</pdfrwt>
<pdfrwt beam="2">  1       -2 0.57449396E-01 0.95735721E+03</pdfrwt>
<totfact> 0.83660259E+00</totfact>
</mgrwt>
</event>
<event>
 8    1  0.1373409E-005  0.1310598E+04  0.7818608E-02  0.8527630E-01
         -1   -1    0    0    0  501 -0.00000000000E+00  0.00000000000E+00  0.12728011600E+04  0.12728011600E+04  0.00000000000E+00 0.  1.
          1   -1    0    0  502    0  0.00000000000E+00 -0.00000000000E+00 -0.15692212268E+04  0.15692212268E+04  0.00000000000E+00 0. -1.
    9000010    2    1    2  502    0 -0.41910595563E+03 -0.71266453459E+03  0.38549150697E+03  0.13361554376E+04  0.97630277606E+03 0.  0.
   -9000010    2    1    2    0  501  0.41910595563E+03  0.71266453459E+03 -0.68191157374E+03  0.15058669492E+04  0.10578711327E+04 0.  0.
        -13    1    3    3    0    0 -0.64847595774E+03 -0.17716588818E+03  0.33591093467E+03  0.75149516758E+03  0.10566000000E+00 0.  1.
          4    1    3    3  502    0  0.22937000211E+03 -0.53549864642E+03  0.49580572303E+02  0.58466027001E+03  0.00000000000E+00 0.  1.
         13    1    4    4    0    0 -0.20460182300E+03 -0.15451868304E+03 -0.39586361587E+02  0.25943211168E+03  0.10566000000E+00 0. -1.
         -4    1    4    4    0  501  0.62370777863E+03  0.86718321763E+03 -0.64232521216E+03  0.12464348375E+04  0.00000000000E+00 0. -1.
<mgrwt>
<rscale>  2 0.13105981E+04</rscale>
<asrwt>0</asrwt>
<pdfrwt beam="2">  1        1 0.24141865E+00 0.13105981E+04</pdfrwt>
<pdfrwt beam="1">  1       -1 0.19581556E+00 0.13105981E+04</pdfrwt>
<totfact> 0.11215500E+00</totfact>
</mgrwt>
</event>
<event>
 8    1  0.1373409E-005  0.1252231E+04  0.7818608E-02  0.8568236E-01
          2   -1    0    0  502    0  0.00000000000E+00  0.00000000000E+00  0.79626395017E+03  0.79626395017E+03  0.00000000000E+00 0.  1.
         -2   -1    0    0    0  501 -0.00000000000E+00 -0.00000000000E+00 -0.20727745068E+04  0.20727745068E+04  0.00000000000E+00 0. -1.
    9000010    2    1    2  502    0  0.95549408118E+02  0.77997416289E+03 -0.31188306859E+03  0.12781433616E+04  0.95858751306E+03 0.  0.
   -9000010    2    1    2    0  501 -0.95549408118E+02 -0.77997416289E+03 -0.96462748800E+03  0.15908950953E+04  0.99143917088E+03 0.  0.
        -13    1    3    3    0    0  0.47102998305E+02  0.88497687826E+03  0.60427491685E+02  0.88828726233E+03  0.10566000000E+00 0.  1.
          4    1    3    3  502    0  0.48446409813E+02 -0.10500271536E+03 -0.37231056028E+03  0.38985609929E+03  0.00000000000E+00 0.  1.
         13    1    4    4    0    0  0.11749156931E+03  0.10791576262E+03 -0.57749650294E+03  0.59912628281E+03  0.10566000000E+00 0. -1.
         -4    1    4    4    0  501 -0.21304097743E+03 -0.88788992551E+03 -0.38713098506E+03  0.99176881252E+03  0.00000000000E+00 0. -1.
<mgrwt>
<rscale>  2 0.12522312E+04</rscale>
<asrwt>0</asrwt>
<pdfrwt beam="1">  1        2 0.12250215E+00 0.12522312E+04</pdfrwt>
<pdfrwt beam="2">  1       -2 0.31888838E+00 0.12522312E+04</pdfrwt>
<totfact> 0.65304309E-01</totfact>
</mgrwt>
</event>
<event>
 8    1  0.1373409E-005  0.1404706E+04  0.7818608E-02  0.8466543E-01
         -2   -1    0    0    0  501 -0.00000000000E+00  0.00000000000E+00  0.11696555857E+04  0.11696555857E+04  0.00000000000E+00 0.  1.
          2   -1    0    0  502    0  0.00000000000E+00 -0.00000000000E+00 -0.17053924659E+04  0.17053924659E+04  0.00000000000E+00 0. -1.
    9000010    2    1    2  502    0 -0.92181442998E+03 -0.13886677481E+03 -0.11623959355E+03  0.13760482713E+04  0.10054707242E+04 0.  0.
   -9000010    2    1    2    0  501  0.92181442998E+03  0.13886677481E+03 -0.41949728665E+03  0.14989997804E+04  0.10963560296E+04 0.  0.
        -13    1    3    3    0    0 -0.88472072402E+03 -0.11483628785E+03  0.31230831654E+03  0.94522728921E+03  0.10566000000E+00 0.  1.
          4    1    3    3  502    0 -0.37093705962E+02 -0.24030486963E+02 -0.42854791009E+03  0.43082098205E+03  0.00000000000E+00 0.  1.
         13    1    4    4    0    0  0.76742106915E+02 -0.19217423187E+03 -0.54481563291E+03  0.58279016069E+03  0.10566000000E+00 0. -1.
         -4    1    4    4    0  501  0.84507232306E+03  0.33104100668E+03  0.12531834626E+03  0.91620961970E+03  0.00000000000E+00 0. -1.
<mgrwt>
<rscale>  2 0.14047062E+04</rscale>
<asrwt>0</asrwt>
<pdfrwt beam="2">  1        2 0.26236807E+00 0.14047062E+04</pdfrwt>
<pdfrwt beam="1">  1       -2 0.17994701E+00 0.14047062E+04</pdfrwt>
<totfact> 0.22058390E+00</totfact>
</mgrwt>
</event>
<event>
 8    1  0.1373409E-005  0.1209869E+04  0.7818608E-02  0.8599167E-01
          2   -1    0    0  502    0  0.00000000000E+00  0.00000000000E+00  0.80108464573E+03  0.80108464573E+03  0.00000000000E+00 0.  1.
         -2   -1    0    0    0  501 -0.00000000000E+00 -0.00000000000E+00 -0.22779830091E+04  0.22779830091E+04  0.00000000000E+00 0. -1.
    9000010    2    1    2  502    0  0.50949398499E+03 -0.47441696867E+03 -0.49961431609E+02  0.12032916923E+04  0.98018323349E+03 0.  0.
   -9000010    2    1    2    0  501 -0.50949398499E+03  0.47441696867E+03 -0.14269369318E+04  0.18757759626E+04  0.99886479240E+03 0.  0.
        -13    1    3    3    0    0 -0.70102184148E+02 -0.49770190005E+03  0.23750406639E+03  0.55590438949E+03  0.10566000000E+00 0.  1.
          4    1    3    3  502    0  0.57959616914E+03  0.23284931371E+02 -0.28746549800E+03  0.64738730282E+03  0.00000000000E+00 0.  1.
         13    1    4    4    0    0 -0.25869099003E+03 -0.30035304548E+03 -0.37707989283E+03  0.54710349751E+03  0.10566000000E+00 0. -1.
         -4    1    4    4    0  501 -0.25080299496E+03  0.77477001415E+03 -0.10498570390E+04  0.13286724651E+04  0.00000000000E+00 0. -1.
<mgrwt>
<rscale>  2 0.12098694E+04</rscale>
<asrwt>0</asrwt>
<pdfrwt beam="1">  1        2 0.12324379E+00 0.12098694E+04</pdfrwt>
<pdfrwt beam="2">  1       -2 0.35045892E+00 0.12098694E+04</pdfrwt>
<totfact> 0.40328399E-01</totfact>
</mgrwt>
</event>
<event>
 8    1  0.1373409E-005  0.1342836E+04  0.7818608E-02  0.8506126E-01
         -1   -1    0    0    0  501 -0.00000000000E+00  0.00000000000E+00  0.72391371211E+03  0.72391371211E+03  0.00000000000E+00 0.  1.
          1   -1    0    0  502    0  0.00000000000E+00 -0.00000000000E+00 -0.26868884191E+04  0.26868884191E+04  0.00000000000E+00 0. -1.
    9000010    2    1    2  502    0 -0.18899588577E+03  0.87457325836E+03 -0.14432585086E+04  0.19725574159E+04  0.10036881027E+04 0.  0.
   -9000010    2    1    2    0  501  0.18899588577E+03 -0.87457325836E+03 -0.51971619837E+03  0.14382447152E+04  0.99892197143E+03 0.  0.
        -13    1    3    3    0    0  0.15633452247E+03  0.34685364205E+03  0.18133256930E+02  0.38088943027E+03  0.10566000000E+00 0.  1.
          4    1    3    3  502    0 -0.34533040824E+03  0.52771961630E+03 -0.14613917655E+04  0.15916679857E+04  0.00000000000E+00 0.  1.
         13    1    4    4    0    0  0.30682159451E+03  0.69977033569E+02 -0.35120475731E+03  0.47157297293E+03  0.10566000000E+00 0. -1.
         -4    1    4    4    0  501 -0.11782570874E+03 -0.94455029192E+03 -0.16851144107E+03  0.96667174231E+03  0.00000000000E+00 0. -1.
<mgrwt>
<rscale>  2 0.13428362E+04</rscale>
<asrwt>0</asrwt>
<pdfrwt beam="2">  1        1 0.41336746E+00 0.13428362E+04</pdfrwt>
<pdfrwt beam="1">  1       -1 0.11137134E+00 0.13428362E+04</pdfrwt>
<totfact> 0.75445050E-01</totfact>
</mgrwt>
</event>
<event>
 8    1  0.1373409E-005  0.1042967E+04  0.7818608E-02  0.8735236E-01
         -2   -1    0    0    0  501 -0.00000000000E+00  0.00000000000E+00  0.29700816111E+03  0.29700816111E+03  0.00000000000E+00 0.  1.
          2   -1    0    0  502    0  0.00000000000E+00 -0.00000000000E+00 -0.36810273777E+04  0.36810273777E+04  0.00000000000E+00 0. -1.
    9000010    2    1    2  502    0 -0.13240070652E+02 -0.43540691420E+03 -0.18734863130E+04  0.21741199402E+04  0.10134555090E+04 0.  0.
   -9000010    2    1    2    0  501  0.13240070652E+02  0.43540691420E+03 -0.15105329036E+04  0.18039155986E+04  0.88467358601E+03 0.  0.
        -13    1    3    3    0    0 -0.34091558126E+03 -0.48365967633E+02 -0.14646997486E+03  0.37418733954E+03  0.10566000000E+00 0.  1.
          4    1    3    3  502    0  0.32767551061E+03 -0.38704094656E+03 -0.17270163381E+04  0.17999326006E+04  0.00000000000E+00 0.  1.
         13    1    4    4    0    0  0.16456329084E+03 -0.84808468966E+02  0.14312022548E+02  0.18568359716E+03  0.10566000000E+00 0. -1.
         -4    1    4    4    0  501 -0.15132322019E+03  0.52021538316E+03 -0.15248449261E+04  0.16182320014E+04  0.00000000000E+00 0. -1.
<mgrwt>
<rscale>  2 0.10429666E+04</rscale>
<asrwt>0</asrwt>
<pdfrwt beam="2">  1        2 0.56631195E+00 0.10429666E+04</pdfrwt>
<pdfrwt beam="1">  1       -2 0.45693560E-01 0.10429666E+04</pdfrwt>
<totfact> 0.40274835E+00</totfact>
</mgrwt>
</event>
<event>
 8    1  0.1373409E-005  0.1290563E+04  0.7818608E-02  0.8541318E-01
          2   -1    0    0  502    0  0.00000000000E+00  0.00000000000E+00  0.16060902131E+04  0.16060902131E+04  0.00000000000E+00 0. -1.
         -2   -1    0    0    0  501 -0.00000000000E+00 -0.00000000000E+00 -0.19413411576E+04  0.19413411576E+04  0.00000000000E+00 0.  1.
    9000010    2    1    2  502    0  0.71733679506E+03 -0.38766202420E+03 -0.13784064459E+04  0.18903036029E+04  0.10041859681E+04 0.  0.
   -9000010    2    1    2    0  501 -0.71733679506E+03  0.38766202420E+03  0.10431555013E+04  0.16571277678E+04  0.99651649071E+03 0.  0.
        -13    1    3    3    0    0  0.40736891078E+03  0.16421288812E+03 -0.11264195818E+04  0.12090229061E+04  0.10566000000E+00 0.  1.
          4    1    3    3  502    0  0.30996788427E+03 -0.55187491232E+03 -0.25198686407E+03  0.68128069678E+03  0.00000000000E+00 0.  1.
         13    1    4    4    0    0 -0.25821263539E+03  0.25849293063E+03  0.11163290032E+04  0.11745990017E+04  0.10566000000E+00 0. -1.
         -4    1    4    4    0  501 -0.45912415967E+03  0.12916909358E+03 -0.73173501859E+02  0.48252876609E+03  0.00000000000E+00 0. -1.
<mgrwt>
<rscale>  2 0.12905633E+04</rscale>
<asrwt>0</asrwt>
<pdfrwt beam="1">  1        2 0.24709080E+00 0.12905633E+04</pdfrwt>
<pdfrwt beam="2">  1       -2 0.29866787E+00 0.12905633E+04</pdfrwt>
<totfact> 0.29718469E-01</totfact>
</mgrwt>
</event>
<event>
 8    1  0.1373409E-005  0.1307872E+04  0.7818608E-02  0.8529477E-01
          2   -1    0    0  502    0  0.00000000000E+00  0.00000000000E+00  0.24289408033E+04  0.24289408033E+04  0.00000000000E+00 0.  1.
         -2   -1    0    0    0  501 -0.00000000000E+00 -0.00000000000E+00 -0.70903786352E+03  0.70903786352E+03  0.00000000000E+00 0. -1.
    9000010    2    1    2  502    0 -0.82600107960E+03  0.16009584501E+03  0.73259998482E+03  0.15015146648E+04  0.10049552665E+04 0.  0.
   -9000010    2    1    2    0  501  0.82600107960E+03 -0.16009584501E+03  0.98730295492E+03  0.16364640020E+04  0.99766669885E+03 0.  0.
        -13    1    3    3    0    0 -0.61346955985E+03 -0.34953269789E+03  0.61636776223E+03  0.93724449171E+03  0.10566000000E+00 0.  1.
          4    1    3    3  502    0 -0.21253151976E+03  0.50962854290E+03  0.11623222259E+03  0.56427017305E+03  0.00000000000E+00 0.  1.
         13    1    4    4    0    0 -0.15013201030E+03  0.20623461939E+03  0.12815126758E+03  0.28547346163E+03  0.10566000000E+00 0. -1.
         -4    1    4    4    0  501  0.97613308990E+03 -0.36633046439E+03  0.85915168735E+03  0.13509905404E+04  0.00000000000E+00 0. -1.
<mgrwt>
<rscale>  2 0.13078723E+04</rscale>
<asrwt>0</asrwt>
<pdfrwt beam="1">  1        2 0.37368319E+00 0.13078723E+04</pdfrwt>
<pdfrwt beam="2">  1       -2 0.10908275E+00 0.13078723E+04</pdfrwt>
<totfact> 0.38874799E+00</totfact>
</mgrwt>
</event>
<event>
 8    1  0.1373409E-005  0.1151687E+04  0.7818608E-02  0.8643859E-01
         -2   -1    0    0    0  501 -0.00000000000E+00  0.00000000000E+00  0.47825489840E+03  0.47825489840E+03  0.00000000000E+00 0.  1.
          2   -1    0    0  502    0  0.00000000000E+00 -0.00000000000E+00 -0.29714836808E+04  0.29714836808E+04  0.00000000000E+00 0. -1.
    9000010    2    1    2  502    0  0.40773189028E+03  0.42069860708E+03 -0.79718680418E+03  0.13973397116E+04  0.98682260638E+03 0.  0.
   -9000010    2    1    2    0  501 -0.40773189028E+03 -0.42069860708E+03 -0.16960419783E+04  0.20523988677E+04  0.99626809022E+03 0.  0.
        -13    1    3    3    0    0  0.47410581587E+03  0.57456382918E+03 -0.92422901121E+03  0.11870548407E+04  0.10566000000E+00 0.  1.
          4    1    3    3  502    0 -0.66373925587E+02 -0.15386522210E+03  0.12704220702E+03  0.21028487091E+03  0.00000000000E+00 0.  1.
         13    1    4    4    0    0 -0.31342831829E+02  0.30900967974E+03 -0.29423683440E+03  0.42783721339E+03  0.10566000000E+00 0. -1.
         -4    1    4    4    0  501 -0.37638905845E+03 -0.72970828682E+03 -0.14018051439E+04  0.16245616543E+04  0.00000000000E+00 0. -1.
<mgrwt>
<rscale>  2 0.11516875E+04</rscale>
<asrwt>0</asrwt>
<pdfrwt beam="2">  1        2 0.45715134E+00 0.11516875E+04</pdfrwt>
<pdfrwt beam="1">  1       -2 0.73577675E-01 0.11516875E+04</pdfrwt>
<totfact> 0.47263578E+00</totfact>
</mgrwt>
</event>
<event>
 8    1  0.1373409E-005  0.1222215E+04  0.7818608E-02  0.8590019E-01
         -2   -1    0    0    0  501 -0.00000000000E+00  0.00000000000E+00  0.86868777917E+03  0.86868777917E+03  0.00000000000E+00 0.  1.
          2   -1    0    0  502    0  0.00000000000E+00 -0.00000000000E+00 -0.17436456854E+04  0.17436456854E+04  0.00000000000E+00 0. -1.
    9000010    2    1    2  502    0  0.39726772750E+02  0.68958994904E+03 -0.28252489703E+03  0.12497488758E+04  0.10024666681E+04 0.  0.
   -9000010    2    1    2    0  501 -0.39726772750E+02 -0.68958994904E+03 -0.59243300921E+03  0.13625845888E+04  0.10141732480E+04 0.  0.
        -13    1    3    3    0    0 -0.31920487569E+03  0.55201344304E+03 -0.49799799650E+03  0.80908133685E+03  0.10566000000E+00 0.  1.
          4    1    3    3  502    0  0.35893164844E+03  0.13757650600E+03  0.21547309946E+03  0.44066753890E+03  0.00000000000E+00 0.  1.
         13    1    4    4    0    0  0.13559704053E+03 -0.72336284984E+02  0.25614440661E+03  0.29871234277E+03  0.10566000000E+00 0. -1.
         -4    1    4    4    0  501 -0.17532381328E+03 -0.61725366406E+03 -0.84857741582E+03  0.10638722461E+04  0.00000000000E+00 0. -1.
<mgrwt>
<rscale>  2 0.12222149E+04</rscale>
<asrwt>0</asrwt>
<pdfrwt beam="2">  1        2 0.26825318E+00 0.12222149E+04</pdfrwt>
<pdfrwt beam="1">  1       -2 0.13364427E+00 0.12222149E+04</pdfrwt>
<totfact> 0.54202965E+00</totfact>
</mgrwt>
</event>
<event>
 8    1  0.1373409E-005  0.1565813E+04  0.7818608E-02  0.8372599E-01
         -4   -1    0    0    0  501 -0.00000000000E+00  0.00000000000E+00  0.31251636613E+04  0.31251636613E+04  0.00000000000E+00 0. -1.
          4   -1    0    0  502    0  0.00000000000E+00 -0.00000000000E+00 -0.10066951166E+04  0.10066951166E+04  0.00000000000E+00 0.  1.
    9000010    2    1    2  502    0  0.99233333527E+03 -0.69733366399E+03  0.85282495259E+02  0.15615967069E+04  0.97995483770E+03 0.  0.
   -9000010    2    1    2    0  501 -0.99233333527E+03  0.69733366399E+03  0.20331860494E+04  0.25702620710E+04  0.10007007119E+04 0.  0.
        -13    1    3    3    0    0  0.97595119272E+03 -0.73238510882E+03 -0.23192542719E+03  0.12420378791E+04  0.10566000000E+00 0.  1.
          4    1    3    3  502    0  0.16382142545E+02  0.35051444835E+02  0.31720792245E+03  0.31955882783E+03  0.00000000000E+00 0.  1.
         13    1    4    4    0    0 -0.11918817507E+03  0.22508813710E+03 -0.52811047437E+02  0.26011441412E+03  0.10566000000E+00 0. -1.
         -4    1    4    4    0  501 -0.87314516020E+03  0.47224552689E+03  0.20859970968E+04  0.23101476569E+04  0.00000000000E+00 0. -1.
<mgrwt>
<rscale>  2 0.15658130E+04</rscale>
<asrwt>0</asrwt>
<pdfrwt beam="2">  1        4 0.15487617E+00 0.15658130E+04</pdfrwt>
<pdfrwt beam="1">  1       -4 0.48079440E+00 0.15658130E+04</pdfrwt>
<totfact> 0.28294123E-02</totfact>
</mgrwt>
</event>
<event>
 8    1  0.1373409E-005  0.1266361E+04  0.7818608E-02  0.8558199E-01
          1   -1    0    0  502    0  0.00000000000E+00  0.00000000000E+00  0.16803049384E+04  0.16803049384E+04  0.00000000000E+00 0. -1.
         -1   -1    0    0    0  501 -0.00000000000E+00 -0.00000000000E+00 -0.95449147138E+03  0.95449147138E+03  0.00000000000E+00 0.  1.
    9000010    2    1    2  502    0 -0.25311312962E+03 -0.74517783998E+03  0.37655550815E+03  0.13266383409E+04  0.99940930912E+03 0.  0.
   -9000010    2    1    2    0  501  0.25311312962E+03  0.74517783998E+03  0.34925795892E+03  0.13081580689E+04  0.98485539137E+03 0.  0.
        -13    1    3    3    0    0  0.22102017261E+02 -0.29153297618E+03 -0.33138656704E+03  0.44192425069E+03  0.10566000000E+00 0.  1.
          4    1    3    3  502    0 -0.27521514688E+03 -0.45364486380E+03  0.70794207519E+03  0.88471409017E+03  0.00000000000E+00 0.  1.
         13    1    4    4    0    0  0.32975612334E+03  0.79026848169E+03  0.59770490170E+03  0.10442770393E+04  0.10566000000E+00 0. -1.
         -4    1    4    4    0  501 -0.76642993725E+02 -0.45090641707E+02 -0.24844694278E+03  0.26388102970E+03  0.00000000000E+00 0. -1.
<mgrwt>
<rscale>  2 0.12663613E+04</rscale>
<asrwt>0</asrwt>
<pdfrwt beam="1">  1        1 0.25850845E+00 0.12663613E+04</pdfrwt>
<pdfrwt beam="2">  1       -1 0.14684484E+00 0.12663613E+04</pdfrwt>
<totfact> 0.24933343E+00</totfact>
</mgrwt>
</event>
<event>
 8    1  0.1373409E-005  0.1152329E+04  0.7818608E-02  0.8643351E-01
         -1   -1    0    0    0  501 -0.00000000000E+00  0.00000000000E+00  0.43994667835E+03  0.43994667835E+03  0.00000000000E+00 0. -1.
          1   -1    0    0  502    0  0.00000000000E+00 -0.00000000000E+00 -0.35621703817E+04  0.35621703817E+04  0.00000000000E+00 0.  1.
    9000010    2    1    2  502    0 -0.99288406487E+00  0.57967157166E+03 -0.78248285638E+03  0.13952731603E+04  0.99924354111E+03 0.  0.
   -9000010    2    1    2    0  501  0.99288406487E+00 -0.57967157166E+03 -0.23397408470E+04  0.26068438998E+04  0.99258640432E+03 0.  0.
        -13    1    3    3    0    0  0.14613872027E+03  0.60377583057E+03 -0.23361297773E+02  0.62164904933E+03  0.10566000000E+00 0.  1.
          4    1    3    3  502    0 -0.14713160433E+03 -0.24104258907E+02 -0.75912155861E+03  0.77362411094E+03  0.00000000000E+00 0.  1.
         13    1    4    4    0    0  0.15697124212E+03 -0.36204643534E+03 -0.18551581533E+03  0.43604325600E+03  0.10566000000E+00 0. -1.
         -4    1    4    4    0  501 -0.15597835805E+03 -0.21762513632E+03 -0.21542250316E+04  0.21708006438E+04  0.00000000000E+00 0. -1.
<mgrwt>
<rscale>  2 0.11523286E+04</rscale>
<asrwt>0</asrwt>
<pdfrwt beam="2">  1        1 0.54802619E+00 0.11523286E+04</pdfrwt>
<pdfrwt beam="1">  1       -1 0.67684107E-01 0.11523286E+04</pdfrwt>
<totfact> 0.23215463E-01</totfact>
</mgrwt>
</event>
<event>
 8    1  0.1373409E-005  0.1520475E+04  0.7818608E-02  0.8397812E-01
          2   -1    0    0  502    0  0.00000000000E+00  0.00000000000E+00  0.19968857880E+04  0.19968857880E+04  0.00000000000E+00 0. -1.
         -2   -1    0    0    0  501 -0.00000000000E+00 -0.00000000000E+00 -0.11614528925E+04  0.11614528925E+04  0.00000000000E+00 0.  1.
    9000010    2    1    2  502    0 -0.27339152713E+03  0.11034052051E+04  0.32627418364E+03  0.15463257035E+04  0.99620397742E+03 0.  0.
   -9000010    2    1    2    0  501  0.27339152713E+03 -0.11034052051E+04  0.50915871188E+03  0.16120129771E+04  0.10232777095E+04 0.  0.
        -13    1    3    3    0    0  0.98566702063E+00  0.95332766099E+03 -0.16149285126E+03  0.96690979565E+03  0.10566000000E+00 0.  1.
          4    1    3    3  502    0 -0.27437719415E+03  0.15007754409E+03  0.48776703490E+03  0.57941590783E+03  0.00000000000E+00 0.  1.
         13    1    4    4    0    0  0.63540445194E+03 -0.78931215460E+03  0.17635966779E+03  0.10285208984E+04  0.10566000000E+00 0. -1.
         -4    1    4    4    0  501 -0.36201292481E+03 -0.31409305047E+03  0.33279904410E+03  0.58349207864E+03  0.00000000000E+00 0. -1.
<mgrwt>
<rscale>  2 0.15204750E+04</rscale>
<asrwt>0</asrwt>
<pdfrwt beam="1">  1        2 0.30721320E+00 0.15204750E+04</pdfrwt>
<pdfrwt beam="2">  1       -2 0.17868506E+00 0.15204750E+04</pdfrwt>
<totfact> 0.15475464E+00</totfact>
</mgrwt>
</event>
<event>
 8    1  0.1373409E-005  0.1158575E+04  0.7818608E-02  0.8638427E-01
          2   -1    0    0  502    0  0.00000000000E+00  0.00000000000E+00  0.63667290686E+03  0.63667290686E+03  0.00000000000E+00 0.  1.
         -2   -1    0    0    0  501 -0.00000000000E+00 -0.00000000000E+00 -0.21611973039E+04  0.21611973039E+04  0.00000000000E+00 0. -1.
    9000010    2    1    2  502    0  0.61331585069E+03 -0.17373090971E+02 -0.54260657677E+03  0.12782215225E+04  0.98131045358E+03 0.  0.
   -9000010    2    1    2    0  501 -0.61331585069E+03  0.17373090971E+02 -0.98191782028E+03  0.15196486883E+04  0.98423136157E+03 0.  0.
        -13    1    3    3    0    0 -0.12781243959E+03  0.23734150592E+03 -0.39895065678E+03  0.48148587503E+03  0.10566000000E+00 0.  1.
          4    1    3    3  502    0  0.74112829028E+03 -0.25471459690E+03 -0.14365592000E+03  0.79673564743E+03  0.00000000000E+00 0.  1.
         13    1    4    4    0    0  0.19802646233E+03 -0.23007746801E+03 -0.34070836471E+03  0.45632479882E+03  0.10566000000E+00 0. -1.
         -4    1    4    4    0  501 -0.81134231303E+03  0.24745055898E+03 -0.64120945557E+03  0.10633238895E+04  0.00000000000E+00 0. -1.
<mgrwt>
<rscale>  2 0.11585749E+04</rscale>
<asrwt>0</asrwt>
<pdfrwt beam="1">  1        2 0.97949678E-01 0.11585749E+04</pdfrwt>
<pdfrwt beam="2">  1       -2 0.33249189E+00 0.11585749E+04</pdfrwt>
<totfact> 0.71682058E-01</totfact>
</mgrwt>
</event>
<event>
 8    1  0.1373409E-005  0.1295277E+04  0.7818608E-02  0.8538074E-01
          2   -1    0    0  502    0  0.00000000000E+00  0.00000000000E+00  0.31735683070E+04  0.31735683070E+04  0.00000000000E+00 0. -1.
         -2   -1    0    0    0  501 -0.00000000000E+00 -0.00000000000E+00 -0.53861793867E+03  0.53861793867E+03  0.00000000000E+00 0.  1.
    9000010    2    1    2  502    0  0.73516884807E+03 -0.29175682952E+03  0.15476361709E+04  0.20051501089E+04  0.99992697687E+03 0.  0.
   -9000010    2    1    2    0  501 -0.73516884807E+03  0.29175682952E+03  0.10873141974E+04  0.17070361367E+04  0.10517247385E+04 0.  0.
        -13    1    3    3    0    0  0.27170830058E+03  0.35200837118E+03  0.79909708032E+03  0.91448972051E+03  0.10566000000E+00 0.  1.
          4    1    3    3  502    0  0.46346054749E+03 -0.64376520070E+03  0.74853909062E+03  0.10906603884E+04  0.00000000000E+00 0.  1.
         13    1    4    4    0    0 -0.54769530264E+03 -0.83713484722E+02  0.13603917062E+02  0.55422303253E+03  0.10566000000E+00 0. -1.
         -4    1    4    4    0  501 -0.18747354543E+03  0.37547031424E+03  0.10737102804E+04  0.11528131042E+04  0.00000000000E+00 0. -1.
<mgrwt>
<rscale>  2 0.12952774E+04</rscale>
<asrwt>0</asrwt>
<pdfrwt beam="1">  1        2 0.48824127E+00 0.12952774E+04</pdfrwt>
<pdfrwt beam="2">  1       -2 0.82864300E-01 0.12952774E+04</pdfrwt>
<totfact> 0.26803980E+00</totfact>
</mgrwt>
</event>
<event>
 8    1  0.1373409E-005  0.1537191E+04  0.7818608E-02  0.8388411E-01
          4   -1    0    0  502    0  0.00000000000E+00  0.00000000000E+00  0.14086299433E+04  0.14086299433E+04  0.00000000000E+00 0.  1.
         -4   -1    0    0    0  501 -0.00000000000E+00 -0.00000000000E+00 -0.21063183043E+04  0.21063183043E+04  0.00000000000E+00 0. -1.
    9000010    2    1    2  502    0 -0.40346940495E+03  0.10970662919E+04  0.44539963307E+03  0.15935894674E+04  0.98732190693E+03 0.  0.
   -9000010    2    1    2    0  501  0.40346940495E+03 -0.10970662919E+04 -0.11430879940E+04  0.19213587802E+04  0.10092707222E+04 0.  0.
        -13    1    3    3    0    0  0.10768938369E+03 -0.12340466681E+03  0.18125210137E+03  0.24429091380E+03  0.10566000000E+00 0.  1.
          4    1    3    3  502    0 -0.51115878863E+03  0.12204709587E+04  0.26414753170E+03  0.13492985536E+04  0.00000000000E+00 0.  1.
         13    1    4    4    0    0  0.49236053461E+03 -0.56649134601E+02 -0.30046311915E+03  0.57957408295E+03  0.10566000000E+00 0. -1.
         -4    1    4    4    0  501 -0.88891129662E+02 -0.10404171573E+04 -0.84262487484E+03  0.13417846973E+04  0.00000000000E+00 0. -1.
<mgrwt>
<rscale>  2 0.15371911E+04</rscale>
<asrwt>0</asrwt>
<pdfrwt beam="1">  1        4 0.21671230E+00 0.15371911E+04</pdfrwt>
<pdfrwt beam="2">  1       -4 0.32404897E+00 0.15371911E+04</pdfrwt>
<totfact> 0.76505693E-02</totfact>
</mgrwt>
</event>
<event>
 8    1  0.1373409E-005  0.1382021E+04  0.7818608E-02  0.8480809E-01
          2   -1    0    0  502    0  0.00000000000E+00  0.00000000000E+00  0.29336608578E+04  0.29336608578E+04  0.00000000000E+00 0.  1.
         -2   -1    0    0    0  501 -0.00000000000E+00 -0.00000000000E+00 -0.66399528231E+03  0.66399528231E+03  0.00000000000E+00 0. -1.
    9000010    2    1    2  502    0  0.73303902943E+03 -0.59338408459E+03  0.13913306692E+04  0.19659574695E+04  0.10196748749E+04 0.  0.
   -9000010    2    1    2    0  501 -0.73303902943E+03  0.59338408459E+03  0.87833490624E+03  0.16316986705E+04  0.10007584391E+04 0.  0.
        -13    1    3    3    0    0  0.34350542894E+03 -0.53379153506E+03  0.14353455532E+04  0.15694413817E+04  0.10566000000E+00 0.  1.
          4    1    3    3  502    0  0.38953360049E+03 -0.59592549533E+02 -0.44014883940E+02  0.39651608779E+03  0.00000000000E+00 0.  1.
         13    1    4    4    0    0 -0.76736193148E+03  0.66226696120E+03  0.10402443710E+04  0.14524290772E+04  0.10566000000E+00 0. -1.
         -4    1    4    4    0  501  0.34322902052E+02 -0.68882876605E+02 -0.16190946479E+03  0.17926959330E+03  0.00000000000E+00 0. -1.
<mgrwt>
<rscale>  2 0.13820211E+04</rscale>
<asrwt>0</asrwt>
<pdfrwt beam="1">  1        2 0.45133243E+00 0.13820211E+04</pdfrwt>
<pdfrwt beam="2">  1       -2 0.10215312E+00 0.13820211E+04</pdfrwt>
<totfact> 0.23023458E+00</totfact>
</mgrwt>
</event>
<event>
 8    1  0.1373409E-005  0.1283372E+04  0.7818608E-02  0.8546294E-01
         -2   -1    0    0    0  501 -0.00000000000E+00  0.00000000000E+00  0.98440748064E+03  0.98440748064E+03  0.00000000000E+00 0. -1.
          2   -1    0    0  502    0  0.00000000000E+00 -0.00000000000E+00 -0.17668649702E+04  0.17668649702E+04  0.00000000000E+00 0.  1.
    9000010    2    1    2  502    0  0.62445600414E+03 -0.49468648950E+03 -0.70899127910E+03  0.14690251236E+04  0.10103000326E+04 0.  0.
   -9000010    2    1    2    0  501 -0.62445600414E+03  0.49468648950E+03 -0.73466210411E+02  0.12822473272E+04  0.10020483522E+04 0.  0.
        -13    1    3    3    0    0  0.53769143824E+03  0.11062111113E+03 -0.65578394396E+03  0.85522026713E+03  0.10566000000E+00 0.  1.
          4    1    3    3  502    0  0.86764565896E+02 -0.60530760064E+03 -0.53207335145E+02  0.61380485645E+03  0.00000000000E+00 0.  1.
         13    1    4    4    0    0 -0.54303841713E+03  0.70063273113E+03 -0.32771155229E+03  0.94507767885E+03  0.10566000000E+00 0. -1.
         -4    1    4    4    0  501 -0.81417587011E+02 -0.20594624162E+03  0.25424534188E+03  0.33716964837E+03  0.00000000000E+00 0. -1.
<mgrwt>
<rscale>  2 0.12833716E+04</rscale>
<asrwt>0</asrwt>
<pdfrwt beam="2">  1        2 0.27182538E+00 0.12833716E+04</pdfrwt>
<pdfrwt beam="1">  1       -2 0.15144731E+00 0.12833716E+04</pdfrwt>
<totfact> 0.36207494E+00</totfact>
</mgrwt>
</event>
<event>
 8    1  0.1373409E-005  0.1136758E+04  0.7818608E-02  0.8655770E-01
          2   -1    0    0  502    0  0.00000000000E+00  0.00000000000E+00  0.34373840467E+04  0.34373840467E+04  0.00000000000E+00 0. -1.
         -2   -1    0    0    0  501 -0.00000000000E+00 -0.00000000000E+00 -0.42087905699E+03  0.42087905699E+03  0.00000000000E+00 0.  1.
    9000010    2    1    2  502    0 -0.50756977894E+03  0.17956385107E+03  0.21428771154E+04  0.24273989944E+04  0.10052230048E+04 0.  0.
   -9000010    2    1    2    0  501  0.50756977894E+03 -0.17956385107E+03  0.87362787437E+03  0.14308641093E+04  0.99713398265E+03 0.  0.
        -13    1    3    3    0    0 -0.76618817199E+03  0.19682064218E+03  0.19499002430E+04  0.21042560797E+04  0.10566000000E+00 0.  1.
          4    1    3    3  502    0  0.25861839305E+03 -0.17256791104E+02  0.19297687236E+03  0.32314291471E+03  0.00000000000E+00 0.  1.
         13    1    4    4    0    0  0.62329760050E+03  0.15465890154E+03  0.86465967064E+03  0.10770587875E+04  0.10566000000E+00 0. -1.
         -4    1    4    4    0  501 -0.11572782156E+03 -0.33422275261E+03  0.89682037349E+01  0.35380532179E+03  0.00000000000E+00 0. -1.
<mgrwt>
<rscale>  2 0.11367584E+04</rscale>
<asrwt>0</asrwt>
<pdfrwt beam="1">  1        2 0.52882830E+00 0.11367584E+04</pdfrwt>
<pdfrwt beam="2">  1       -2 0.64750626E-01 0.11367584E+04</pdfrwt>
<totfact> 0.30689231E+00</totfact>
</mgrwt>
</event>
<event>
 8    1  0.1373409E-005  0.1249222E+04  0.7818608E-02  0.8570391E-01
         -1   -1    0    0    0  501 -0.00000000000E+00  0.00000000000E+00  0.11452643180E+04  0.11452643180E+04  0.00000000000E+00 0.  1.
          1   -1    0    0  502    0  0.00000000000E+00 -0.00000000000E+00 -0.18684219773E+04  0.18684219773E+04  0.00000000000E+00 0. -1.
    9000010    2    1    2  502    0 -0.10322938670E+03  0.74538352733E+03 -0.11463571674E+04  0.16982110442E+04  0.10017649855E+04 0.  0.
   -9000010    2    1    2    0  501  0.10322938670E+03 -0.74538352733E+03  0.42319950802E+03  0.13154752511E+04  0.99253433372E+03 0.  0.
        -13    1    3    3    0    0 -0.25817590640E+02 -0.24621678365E+03 -0.14533779739E+03  0.28707549364E+03  0.10566000000E+00 0.  1.
          4    1    3    3  502    0 -0.77411796055E+02  0.99160031098E+03 -0.10010193700E+04  0.14111355505E+04  0.00000000000E+00 0.  1.
         13    1    4    4    0    0 -0.34525765769E+03 -0.33222112774E+02 -0.49233134674E+02  0.35032909055E+03  0.10566000000E+00 0. -1.
         -4    1    4    4    0  501  0.44848704439E+03 -0.71216141456E+03  0.47243264270E+03  0.96514616056E+03  0.00000000000E+00 0. -1.
<mgrwt>
<rscale>  2 0.12492216E+04</rscale>
<asrwt>0</asrwt>
<pdfrwt beam="2">  1        1 0.28744953E+00 0.12492216E+04</pdfrwt>
<pdfrwt beam="1">  1       -1 0.17619451E+00 0.12492216E+04</pdfrwt>
<totfact> 0.10044799E+00</totfact>
</mgrwt>
</event>
<event>
 8    1  0.1373409E-005  0.1101963E+04  0.7818608E-02  0.8684286E-01
         -4   -1    0    0    0  501 -0.00000000000E+00  0.00000000000E+00  0.21022585189E+04  0.21022585189E+04  0.00000000000E+00 0. -1.
          4   -1    0    0  502    0  0.00000000000E+00 -0.00000000000E+00 -0.85471730968E+03  0.85471730968E+03  0.00000000000E+00 0.  1.
    9000010    2    1    2  502    0 -0.31163446545E+03 -0.25809965476E+03 -0.23013267822E+03  0.10924486918E+04  0.98830745353E+03 0.  0.
   -9000010    2    1    2    0  501  0.31163446545E+03  0.25809965476E+03  0.14776738875E+04  0.18645271369E+04  0.10626428631E+04 0.  0.
        -13    1    3    3    0    0  0.32396391928E+03 -0.28516543408E+03 -0.10251541802E+03  0.44360045975E+03  0.10566000000E+00 0.  1.
          4    1    3    3  502    0 -0.63559838473E+03  0.27065779323E+02 -0.12761726020E+03  0.64884823201E+03  0.00000000000E+00 0.  1.
         13    1    4    4    0    0  0.28686070978E+03  0.65558670956E+03  0.11208084900E+04  0.13297724177E+04  0.10566000000E+00 0. -1.
         -4    1    4    4    0  501  0.24773755666E+02 -0.39748705480E+03  0.35686539753E+03  0.53475471915E+03  0.00000000000E+00 0. -1.
<mgrwt>
<rscale>  2 0.11019628E+04</rscale>
<asrwt>0</asrwt>
<pdfrwt beam="2">  1        4 0.13149497E+00 0.11019628E+04</pdfrwt>
<pdfrwt beam="1">  1       -4 0.32342439E+00 0.11019628E+04</pdfrwt>
<totfact> 0.16009141E-01</totfact>
</mgrwt>
</event>
<event>
 8    1  0.1373409E-005  0.1471326E+04  0.7818608E-02  0.8426195E-01
          1   -1    0    0  502    0  0.00000000000E+00  0.00000000000E+00  0.23177944927E+04  0.23177944927E+04  0.00000000000E+00 0. -1.
         -1   -1    0    0    0  501 -0.00000000000E+00 -0.00000000000E+00 -0.94287589132E+03  0.94287589132E+03  0.00000000000E+00 0.  1.
    9000010    2    1    2  502    0 -0.11892444534E+03  0.10916835636E+04  0.52412352595E+03  0.15504336976E+04  0.96084502045E+03 0.  0.
   -9000010    2    1    2    0  501  0.11892444534E+03 -0.10916835636E+04  0.85079507543E+03  0.17102366864E+04  0.99756766007E+03 0.  0.
        -13    1    3    3    0    0  0.37286426261E+03  0.30599297062E+03  0.37638613611E+03  0.61182186216E+03  0.10566000000E+00 0.  1.
          4    1    3    3  502    0 -0.49178870795E+03  0.78569059302E+03  0.14773738984E+03  0.93861183542E+03  0.00000000000E+00 0.  1.
         13    1    4    4    0    0 -0.37925100282E+03 -0.68165071460E+03  0.69897239304E+03  0.10473974591E+04  0.10566000000E+00 0. -1.
         -4    1    4    4    0  501  0.49817544816E+03 -0.41003284904E+03  0.15182268238E+03  0.66283922736E+03  0.00000000000E+00 0. -1.
<mgrwt>
<rscale>  2 0.14713258E+04</rscale>
<asrwt>0</asrwt>
<pdfrwt beam="1">  1        1 0.35658377E+00 0.14713258E+04</pdfrwt>
<pdfrwt beam="2">  1       -1 0.14505783E+00 0.14713258E+04</pdfrwt>
<totfact> 0.80630767E-01</totfact>
</mgrwt>
</event>
<event>
 8    1  0.1373409E-005  0.1112035E+04  0.7818608E-02  0.8675920E-01
         -2   -1    0    0    0  501 -0.00000000000E+00  0.00000000000E+00  0.82262637837E+03  0.82262637837E+03  0.00000000000E+00 0. -1.
          2   -1    0    0  502    0  0.00000000000E+00 -0.00000000000E+00 -0.15668630310E+04  0.15668630310E+04  0.00000000000E+00 0.  1.
    9000010    2    1    2  502    0  0.15473556938E+03 -0.45849323957E+03 -0.13157455195E+03  0.11203098278E+04  0.10018099123E+04 0.  0.
   -9000010    2    1    2    0  501 -0.15473556938E+03  0.45849323957E+03 -0.61266210064E+03  0.12691795815E+04  0.10006511947E+04 0.  0.
        -13    1    3    3    0    0  0.40197622644E+03 -0.63858197711E+03  0.63964257137E+02  0.75727357373E+03  0.10566000000E+00 0.  1.
          4    1    3    3  502    0 -0.24724065706E+03  0.18008873755E+03 -0.19553880909E+03  0.36303625405E+03  0.00000000000E+00 0.  1.
         13    1    4    4    0    0 -0.28193698244E+03  0.24427120835E+03 -0.84802402216E+03  0.92644570192E+03  0.10566000000E+00 0. -1.
         -4    1    4    4    0  501  0.12720141305E+03  0.21422203122E+03  0.23536192152E+03  0.34273387963E+03  0.00000000000E+00 0. -1.
<mgrwt>
<rscale>  2 0.11120349E+04</rscale>
<asrwt>0</asrwt>
<pdfrwt beam="2">  1        2 0.24105585E+00 0.11120349E+04</pdfrwt>
<pdfrwt beam="1">  1       -2 0.12655791E+00 0.11120349E+04</pdfrwt>
<totfact> 0.79653633E+00</totfact>
</mgrwt>
</event>
<event>
 8    1  0.1373409E-005  0.1573731E+04  0.7818608E-02  0.8368287E-01
         -2   -1    0    0    0  501 -0.00000000000E+00  0.00000000000E+00  0.10608009642E+04  0.10608009642E+04  0.00000000000E+00 0.  1.
          2   -1    0    0  502    0  0.00000000000E+00 -0.00000000000E+00 -0.24450741706E+04  0.24450741706E+04  0.00000000000E+00 0. -1.
    9000010    2    1    2  502    0 -0.11960795642E+04 -0.18623528978E+03 -0.10656591932E+04  0.19026850500E+04  0.10095994137E+04 0.  0.
   -9000010    2    1    2    0  501  0.11960795642E+04  0.18623528978E+03 -0.31861401323E+03  0.16031900848E+04  0.10017053716E+04 0.  0.
        -13    1    3    3    0    0 -0.27402257533E+03  0.13747018143E+03  0.15134345311E+03  0.34189365969E+03  0.10566000000E+00 0.  1.
          4    1    3    3  502    0 -0.92205698892E+03 -0.32370547121E+03 -0.12170026463E+04  0.15607913903E+04  0.00000000000E+00 0.  1.
         13    1    4    4    0    0 -0.26478586590E+02 -0.14931000528E+03  0.18486713210E+03  0.23910345234E+03  0.10566000000E+00 0. -1.
         -4    1    4    4    0  501  0.12225581508E+04  0.33554529506E+03 -0.50348114533E+03  0.13640866325E+04  0.00000000000E+00 0. -1.
<mgrwt>
<rscale>  2 0.15737311E+04</rscale>
<asrwt>0</asrwt>
<pdfrwt beam="2">  1        2 0.37616525E+00 0.15737311E+04</pdfrwt>
<pdfrwt beam="1">  1       -2 0.16320015E+00 0.15737311E+04</pdfrwt>
<totfact> 0.11767589E+00</totfact>
</mgrwt>
</event>
<event>
 8    1  0.1373409E-005  0.1608845E+04  0.7818608E-02  0.8349473E-01
          2   -1    0    0  502    0  0.00000000000E+00  0.00000000000E+00  0.39469736296E+04  0.39469736296E+04  0.00000000000E+00 0. -1.
         -2   -1    0    0    0  501 -0.00000000000E+00 -0.00000000000E+00 -0.81410291834E+03  0.81410291834E+03  0.00000000000E+00 0.  1.
    9000010    2    1    2  502    0  0.11514788172E+04  0.52901913092E+03  0.51951269749E+03  0.16940892164E+04  0.99713596015E+03 0.  0.
   -9000010    2    1    2    0  501 -0.11514788172E+04 -0.52901913092E+03  0.26133580138E+04  0.30669873315E+04  0.98539660860E+03 0.  0.
        -13    1    3    3    0    0  0.38670670462E+03 -0.21725189894E+03  0.43651315905E+03  0.62232163082E+03  0.10566000000E+00 0.  1.
          4    1    3    3  502    0  0.76477211257E+03  0.74627102986E+03  0.82999538438E+02  0.10717675856E+04  0.00000000000E+00 0.  1.
         13    1    4    4    0    0 -0.10811938960E+04 -0.99806989474E+01  0.17367619554E+04  0.20458303830E+04  0.10566000000E+00 0. -1.
         -4    1    4    4    0  501 -0.70284921238E+02 -0.51903843197E+03  0.87659605838E+03  0.10211569486E+04  0.00000000000E+00 0. -1.
<mgrwt>
<rscale>  2 0.16088449E+04</rscale>
<asrwt>0</asrwt>
<pdfrwt beam="1">  1        2 0.60722670E+00 0.16088449E+04</pdfrwt>
<pdfrwt beam="2">  1       -2 0.12524660E+00 0.16088449E+04</pdfrwt>
<totfact> 0.24269198E-01</totfact>
</mgrwt>
</event>
<event>
 8    1  0.1373409E-005  0.1371926E+04  0.7818608E-02  0.8487248E-01
         -2   -1    0    0    0  501 -0.00000000000E+00  0.00000000000E+00  0.64129866391E+03  0.64129866391E+03  0.00000000000E+00 0.  1.
          2   -1    0    0  502    0  0.00000000000E+00 -0.00000000000E+00 -0.29360014952E+04  0.29360014952E+04  0.00000000000E+00 0. -1.
    9000010    2    1    2  502    0  0.91001846921E+03 -0.15172245937E+03 -0.11073150899E+04  0.17538131205E+04  0.99927995794E+03 0.  0.
   -9000010    2    1    2    0  501 -0.91001846921E+03  0.15172245937E+03 -0.11873877414E+04  0.18234870386E+04  0.10315338155E+04 0.  0.
        -13    1    3    3    0    0  0.79414403135E+01  0.32270520712E+03 -0.39608313698E+03  0.51096338395E+03  0.10566000000E+00 0.  1.
          4    1    3    3  502    0  0.90207702889E+03 -0.47442766649E+03 -0.71123195295E+03  0.12428497366E+04  0.00000000000E+00 0.  1.
         13    1    4    4    0    0  0.12789945006E+03 -0.24078866207E+03 -0.27001930263E+03  0.38372892003E+03  0.10566000000E+00 0. -1.
         -4    1    4    4    0  501 -0.10379179193E+04  0.39251112144E+03 -0.91736843875E+03  0.14397581186E+04  0.00000000000E+00 0. -1.
<mgrwt>
<rscale>  2 0.13719255E+04</rscale>
<asrwt>0</asrwt>
<pdfrwt beam="2">  1        2 0.45169254E+00 0.13719255E+04</pdfrwt>
<pdfrwt beam="1">  1       -2 0.98661332E-01 0.13719255E+04</pdfrwt>
<totfact> 0.24988670E+00</totfact>
</mgrwt>
</event>
<event>
 8    1  0.1373409E-005  0.1835968E+04  0.7818608E-02  0.8238657E-01
         -2   -1    0    0    0  501 -0.00000000000E+00  0.00000000000E+00  0.22973278952E+04  0.22973278952E+04  0.00000000000E+00 0.  1.
          2   -1    0    0  502    0  0.00000000000E+00 -0.00000000000E+00 -0.15030711707E+04  0.15030711707E+04  0.00000000000E+00 0. -1.
    9000010    2    1    2  502    0  0.14233543071E+04 -0.55996002462E+03  0.68846698203E+03  0.19527162284E+04  0.99981056733E+03 0.  0.
   -9000010    2    1    2    0  501 -0.14233543071E+04  0.55996002462E+03  0.10578974253E+03  0.18476828375E+04  0.10311390234E+04 0.  0.
        -13    1    3    3    0    0 -0.10694918731E+03 -0.15292619124E+02  0.24677985609E+03  0.26939246724E+03  0.10566000000E+00 0.  1.
          4    1    3    3  502    0  0.15303034944E+04 -0.54466740549E+03  0.44168712594E+03  0.16833237611E+04  0.00000000000E+00 0.  1.
         13    1    4    4    0    0 -0.13147055023E+04  0.58672458797E+03 -0.26192604411E+03  0.14633186816E+04  0.10566000000E+00 0. -1.
         -4    1    4    4    0  501 -0.10864880474E+03 -0.26764563359E+02  0.36771578664E+03  0.38436415593E+03  0.00000000000E+00 0. -1.
<mgrwt>
<rscale>  2 0.18359676E+04</rscale>
<asrwt>0</asrwt>
<pdfrwt beam="2">  1        2 0.23124172E+00 0.18359676E+04</pdfrwt>
<pdfrwt beam="1">  1       -2 0.35343506E+00 0.18359676E+04</pdfrwt>
<totfact> 0.13980066E-01</totfact>
</mgrwt>
</event>
<event>
 8    1  0.1373409E-005  0.1189248E+04  0.7818608E-02  0.8614703E-01
          2   -1    0    0  502    0  0.00000000000E+00  0.00000000000E+00  0.95847515114E+03  0.95847515114E+03  0.00000000000E+00 0. -1.
         -2   -1    0    0    0  501 -0.00000000000E+00 -0.00000000000E+00 -0.14759866255E+04  0.14759866255E+04  0.00000000000E+00 0.  1.
    9000010    2    1    2  502    0 -0.60595735076E+03 -0.20778958097E+03 -0.23896252861E+03  0.12141286321E+04  0.10033167119E+04 0.  0.
   -9000010    2    1    2    0  501  0.60595735076E+03  0.20778958097E+03 -0.27854894573E+03  0.12203331445E+04  0.10006311246E+04 0.  0.
        -13    1    3    3    0    0  0.16013944086E+03 -0.18969040165E+03  0.21071847723E+03  0.32562152387E+03  0.10566000000E+00 0.  1.
          4    1    3    3  502    0 -0.76609679162E+03 -0.18099179318E+02 -0.44968100585E+03  0.88850710827E+03  0.00000000000E+00 0.  1.
         13    1    4    4    0    0  0.22181056627E+03 -0.10097712980E+03  0.34695078828E+03  0.42399430268E+03  0.10566000000E+00 0. -1.
         -4    1    4    4    0  501  0.38414678450E+03  0.30876671077E+03 -0.62549973401E+03  0.79633884181E+03  0.00000000000E+00 0. -1.
<mgrwt>
<rscale>  2 0.11892484E+04</rscale>
<asrwt>0</asrwt>
<pdfrwt beam="1">  1        2 0.14745772E+00 0.11892484E+04</pdfrwt>
<pdfrwt beam="2">  1       -2 0.22707486E+00 0.11892484E+04</pdfrwt>
<totfact> 0.24430694E+00</totfact>
</mgrwt>
</event>
<event>
 8    1  0.1373409E-005  0.1357384E+04  0.7818608E-02  0.8496624E-01
         -2   -1    0    0    0  501 -0.00000000000E+00  0.00000000000E+00  0.95890910927E+03  0.95890910927E+03  0.00000000000E+00 0.  1.
          2   -1    0    0  502    0  0.00000000000E+00 -0.00000000000E+00 -0.19360841799E+04  0.19360841799E+04  0.00000000000E+00 0. -1.
    9000010    2    1    2  502    0  0.58387880555E+03  0.69549209528E+03 -0.61005420947E+03  0.14783518375E+04  0.99435119690E+03 0.  0.
   -9000010    2    1    2    0  501 -0.58387880555E+03 -0.69549209528E+03 -0.36712086112E+03  0.14166414516E+04  0.10234605814E+04 0.  0.
        -13    1    3    3    0    0  0.80980963209E+03  0.76071606415E+03 -0.51672984967E+03  0.12253531406E+04  0.10566000000E+00 0.  1.
          4    1    3    3  502    0 -0.22593082654E+03 -0.65223968870E+02 -0.93324359796E+02  0.25299869689E+03  0.00000000000E+00 0.  1.
         13    1    4    4    0    0 -0.41701004270E+03 -0.60815014803E+03 -0.71114330530E+03  0.10244358399E+04  0.10566000000E+00 0. -1.
         -4    1    4    4    0  501 -0.16686876285E+03 -0.87341947249E+02  0.34402244418E+03  0.39220561172E+03  0.00000000000E+00 0. -1.
<mgrwt>
<rscale>  2 0.13573845E+04</rscale>
<asrwt>0</asrwt>
<pdfrwt beam="2">  1        2 0.29785910E+00 0.13573845E+04</pdfrwt>
<pdfrwt beam="1">  1       -2 0.14752448E+00 0.13573845E+04</pdfrwt>
<totfact> 0.31490330E+00</totfact>
</mgrwt>
</event>
<event>
 8    1  0.1373409E-005  0.1300802E+04  0.7818608E-02  0.8534291E-01
          2   -1    0    0  502    0  0.00000000000E+00  0.00000000000E+00  0.13218256172E+04  0.13218256172E+04  0.00000000000E+00 0. -1.
         -2   -1    0    0    0  501 -0.00000000000E+00 -0.00000000000E+00 -0.15403191940E+04  0.15403191940E+04  0.00000000000E+00 0.  1.
    9000010    2    1    2  502    0  0.61832580325E+03  0.48769252206E+03  0.48015237938E+03  0.13566858607E+04  0.99492684264E+03 0.  0.
   -9000010    2    1    2    0  501 -0.61832580325E+03 -0.48769252206E+03 -0.69864595625E+03  0.15054589505E+04  0.10761643389E+04 0.  0.
        -13    1    3    3    0    0  0.25418370789E+03  0.62896849552E+03  0.64189149542E+03  0.93393545215E+03  0.10566000000E+00 0.  1.
          4    1    3    3  502    0  0.36414209536E+03 -0.14127597347E+03 -0.16173911604E+03  0.42275040857E+03  0.00000000000E+00 0.  1.
         13    1    4    4    0    0 -0.40014467953E+03 -0.56337204620E+03 -0.94310677402E+03  0.11691681767E+04  0.10566000000E+00 0. -1.
         -4    1    4    4    0  501 -0.21818112372E+03  0.75679524146E+02  0.24446081778E+03  0.33629077381E+03  0.00000000000E+00 0. -1.
<mgrwt>
<rscale>  2 0.13008018E+04</rscale>
<asrwt>0</asrwt>
<pdfrwt beam="1">  1        2 0.20335779E+00 0.13008018E+04</pdfrwt>
<pdfrwt beam="2">  1       -2 0.23697218E+00 0.13008018E+04</pdfrwt>
<totfact> 0.12362257E+00</totfact>
</mgrwt>
</event>
<event>
 8    1  0.1373409E-005  0.1338466E+04  0.7818608E-02  0.8509004E-01
         -2   -1    0    0    0  501 -0.00000000000E+00  0.00000000000E+00  0.86651179286E+03  0.86651179286E+03  0.00000000000E+00 0.  1.
          2   -1    0    0  502    0  0.00000000000E+00 -0.00000000000E+00 -0.21192991396E+04  0.21192991396E+04  0.00000000000E+00 0. -1.
    9000010    2    1    2  502    0  0.15608782362E+02  0.89795450849E+03 -0.39640052312E+03  0.14029311665E+04  0.10022557307E+04 0.  0.
   -9000010    2    1    2    0  501 -0.15608782362E+02 -0.89795450849E+03 -0.85638682362E+03  0.15828797660E+04  0.98262099941E+03 0.  0.
        -13    1    3    3    0    0 -0.71718973569E+02  0.11031571425E+04 -0.24193714832E+03  0.11316505146E+04  0.10566000000E+00 0.  1.
          4    1    3    3  502    0  0.87327755931E+02 -0.20520263399E+03 -0.15446337480E+03  0.27128065193E+03  0.00000000000E+00 0.  1.
         13    1    4    4    0    0  0.33125170268E+03 -0.28984372162E+03  0.44000946241E+02  0.44234959922E+03  0.10566000000E+00 0. -1.
         -4    1    4    4    0  501 -0.34686048504E+03 -0.60811078687E+03 -0.90038776986E+03  0.11405301668E+04  0.00000000000E+00 0. -1.
<mgrwt>
<rscale>  2 0.13384656E+04</rscale>
<asrwt>0</asrwt>
<pdfrwt beam="2">  1        2 0.32604602E+00 0.13384656E+04</pdfrwt>
<pdfrwt beam="1">  1       -2 0.13330951E+00 0.13384656E+04</pdfrwt>
<totfact> 0.33651531E+00</totfact>
</mgrwt>
</event>
<event>
 8    1  0.1373409E-005  0.1268994E+04  0.7818608E-02  0.8556344E-01
          4   -1    0    0  502    0  0.00000000000E+00  0.00000000000E+00  0.61766072904E+03  0.61766072904E+03  0.00000000000E+00 0.  1.
         -4   -1    0    0    0  501 -0.00000000000E+00 -0.00000000000E+00 -0.26942022065E+04  0.26942022065E+04  0.00000000000E+00 0. -1.
    9000010    2    1    2  502    0  0.18192837815E+03 -0.76098388197E+03 -0.74160400086E+03  0.14708476752E+04  0.10006108065E+04 0.  0.
   -9000010    2    1    2    0  501 -0.18192837815E+03  0.76098388197E+03 -0.13349374766E+04  0.18410152604E+04  0.99753933205E+03 0.  0.
        -13    1    3    3    0    0  0.14944843555E+03  0.11558295726E+03  0.13386353460E+03  0.23154634947E+03  0.10566000000E+00 0.  1.
          4    1    3    3  502    0  0.32479942600E+02 -0.87656683923E+03 -0.87546753546E+03  0.12393013257E+04  0.00000000000E+00 0.  1.
         13    1    4    4    0    0  0.61450080858E+02  0.37978415799E+03  0.46410905416E+02  0.38751271257E+03  0.10566000000E+00 0. -1.
         -4    1    4    4    0  501 -0.24337845901E+03  0.38119972398E+03 -0.13813483820E+04  0.14535025478E+04  0.00000000000E+00 0. -1.
<mgrwt>
<rscale>  2 0.12689936E+04</rscale>
<asrwt>0</asrwt>
<pdfrwt beam="1">  1        4 0.95024727E-01 0.12689936E+04</pdfrwt>
<pdfrwt beam="2">  1       -4 0.41449265E+00 0.12689936E+04</pdfrwt>
<totfact> 0.13318458E-01</totfact>
</mgrwt>
</event>
<event>
 8    1  0.1373409E-005  0.1539522E+04  0.7818608E-02  0.8387110E-01
          2   -1    0    0  502    0  0.00000000000E+00  0.00000000000E+00  0.27556208942E+04  0.27556208942E+04  0.00000000000E+00 0. -1.
         -2   -1    0    0    0  501 -0.00000000000E+00 -0.00000000000E+00 -0.12037277333E+04  0.12037277333E+04  0.00000000000E+00 0.  1.
    9000010    2    1    2  502    0  0.43472452549E+03 -0.10742392272E+04 -0.28525597260E+03  0.15560508948E+04  0.99847287742E+03 0.  0.
   -9000010    2    1    2    0  501 -0.43472452549E+03  0.10742392272E+04  0.18371491335E+04  0.24032977327E+04  0.10284686300E+04 0.  0.
        -13    1    3    3    0    0  0.32330493995E+03 -0.43999509322E+03  0.35236079383E+03  0.64983067521E+03  0.10566000000E+00 0.  1.
          4    1    3    3  502    0  0.11141958554E+03 -0.63424413401E+03 -0.63761676643E+03  0.90622021959E+03  0.00000000000E+00 0.  1.
         13    1    4    4    0    0 -0.38510132846E+03 -0.32190559078E+02  0.22440609359E+03  0.44687511821E+03  0.10566000000E+00 0. -1.
         -4    1    4    4    0  501 -0.49623197036E+02  0.11064297863E+04  0.16127430399E+04  0.19564226145E+04  0.00000000000E+00 0. -1.
<mgrwt>
<rscale>  2 0.15395221E+04</rscale>
<asrwt>0</asrwt>
<pdfrwt beam="1">  1        2 0.42394167E+00 0.15395221E+04</pdfrwt>
<pdfrwt beam="2">  1       -2 0.18518888E+00 0.15395221E+04</pdfrwt>
<totfact> 0.51108207E-01</totfact>
</mgrwt>
</event>
<event>
 8    1  0.1373409E-005  0.1200636E+04  0.7818608E-02  0.8606083E-01
         -2   -1    0    0    0  501 -0.00000000000E+00  0.00000000000E+00  0.48220554416E+03  0.48220554416E+03  0.00000000000E+00 0.  1.
          2   -1    0    0  502    0  0.00000000000E+00 -0.00000000000E+00 -0.31475611581E+04  0.31475611581E+04  0.00000000000E+00 0. -1.
    9000010    2    1    2  502    0 -0.63377405901E+03 -0.11993687168E+02 -0.17595780655E+04  0.21417081755E+04  0.10435446967E+04 0.  0.
   -9000010    2    1    2    0  501  0.63377405901E+03  0.11993687168E+02 -0.90577754849E+03  0.14880585268E+04  0.99602801442E+03 0.  0.
        -13    1    3    3    0    0 -0.16803938482E+03 -0.46792428719E+03 -0.11344763250E+04  0.12386391389E+04  0.10566000000E+00 0.  1.
          4    1    3    3  502    0 -0.46573467419E+03  0.45593060002E+03 -0.62510174049E+03  0.90306903653E+03  0.00000000000E+00 0.  1.
         13    1    4    4    0    0  0.90319716578E+03  0.37988830954E+02 -0.63159468296E+03  0.11027783668E+04  0.10566000000E+00 0. -1.
         -4    1    4    4    0  501 -0.26942310677E+03 -0.25995143786E+02 -0.27418286553E+03  0.38528016003E+03  0.00000000000E+00 0. -1.
<mgrwt>
<rscale>  2 0.12006364E+04</rscale>
<asrwt>0</asrwt>
<pdfrwt beam="2">  1        2 0.48424019E+00 0.12006364E+04</pdfrwt>
<pdfrwt beam="1">  1       -2 0.74185467E-01 0.12006364E+04</pdfrwt>
<totfact> 0.35831202E+00</totfact>
</mgrwt>
</event>
<event>
 8    1  0.1373409E-005  0.1043108E+04  0.7818608E-02  0.8735110E-01
          1   -1    0    0  502    0  0.00000000000E+00  0.00000000000E+00  0.11904048227E+04  0.11904048227E+04  0.00000000000E+00 0.  1.
         -1   -1    0    0    0  501 -0.00000000000E+00 -0.00000000000E+00 -0.91505070899E+03  0.91505070899E+03  0.00000000000E+00 0. -1.
    9000010    2    1    2  502    0  0.11760716767E+03 -0.29273324661E+03  0.10259066169E+03  0.10478491778E+04  0.99395113363E+03 0.  0.
   -9000010    2    1    2    0  501 -0.11760716767E+03  0.29273324661E+03  0.17276345202E+03  0.10576063539E+04  0.99456512598E+03 0.  0.
        -13    1    3    3    0    0 -0.38516491199E+03 -0.28977061283E+03 -0.12198657065E+03  0.49719186645E+03  0.10566000000E+00 0.  1.
          4    1    3    3  502    0  0.50277207966E+03 -0.29626337810E+01  0.22457723234E+03  0.55065731137E+03  0.00000000000E+00 0.  1.
         13    1    4    4    0    0 -0.11475266051E+03  0.43642719651E+03  0.51600412227E+03  0.68549043488E+03  0.10566000000E+00 0. -1.
         -4    1    4    4    0  501 -0.28545071610E+01 -0.14369394990E+03 -0.34324067025E+03  0.37211591898E+03  0.00000000000E+00 0. -1.
<mgrwt>
<rscale>  2 0.10431075E+04</rscale>
<asrwt>0</asrwt>
<pdfrwt beam="1">  1        1 0.18313920E+00 0.10431075E+04</pdfrwt>
<pdfrwt beam="2">  1       -1 0.14077703E+00 0.10431075E+04</pdfrwt>
<totfact> 0.67347979E+00</totfact>
</mgrwt>
</event>
<event>
 8    1  0.1373409E-005  0.1795784E+04  0.7818608E-02  0.8257021E-01
          2   -1    0    0  502    0  0.00000000000E+00  0.00000000000E+00  0.42854355134E+04  0.42854355134E+04  0.00000000000E+00 0. -1.
         -2   -1    0    0    0  501 -0.00000000000E+00 -0.00000000000E+00 -0.10823409290E+04  0.10823409290E+04  0.00000000000E+00 0.  1.
    9000010    2    1    2  502    0 -0.81476302130E+03 -0.12499016803E+04  0.30844885816E+04  0.35702648419E+04  0.10033086464E+04 0.  0.
   -9000010    2    1    2    0  501  0.81476302130E+03  0.12499016803E+04  0.11860600285E+03  0.17975116005E+04  0.99543336222E+03 0.  0.
        -13    1    3    3    0    0  0.90980203328E+02 -0.70934068569E+03  0.94708596440E+03  0.11867659588E+04  0.10566000000E+00 0.  1.
          4    1    3    3  502    0 -0.90574322462E+03 -0.54056099460E+03  0.21374026172E+04  0.23834988831E+04  0.00000000000E+00 0.  1.
         13    1    4    4    0    0 -0.17854291024E+03  0.24778195803E+03  0.22970898032E+03  0.38215140497E+03  0.10566000000E+00 0. -1.
         -4    1    4    4    0  501  0.99330593153E+03  0.10021197223E+04 -0.11110297747E+03  0.14153601955E+04  0.00000000000E+00 0. -1.
<mgrwt>
<rscale>  2 0.17957843E+04</rscale>
<asrwt>0</asrwt>
<pdfrwt beam="1">  1        2 0.65929776E+00 0.17957843E+04</pdfrwt>
<pdfrwt beam="2">  1       -2 0.16651399E+00 0.17957843E+04</pdfrwt>
<totfact> 0.49885838E-02</totfact>
</mgrwt>
</event>
<event>
 8    1  0.1373409E-005  0.1225377E+04  0.7818608E-02  0.8587694E-01
         -2   -1    0    0    0  501 -0.00000000000E+00  0.00000000000E+00  0.96255052575E+03  0.96255052575E+03  0.00000000000E+00 0.  1.
          2   -1    0    0  502    0  0.00000000000E+00 -0.00000000000E+00 -0.15619015911E+04  0.15619015911E+04  0.00000000000E+00 0. -1.
    9000010    2    1    2  502    0 -0.55604280620E+03 -0.44025078175E+03 -0.25479238213E+03  0.12493741856E+04  0.99650004737E+03 0.  0.
   -9000010    2    1    2    0  501  0.55604280620E+03  0.44025078175E+03 -0.34455868325E+03  0.12750779313E+04  0.10020472502E+04 0.  0.
        -13    1    3    3    0    0 -0.83507474257E+03 -0.34764949845E+03 -0.81758393608E+02  0.90823699855E+03  0.10566000000E+00 0.  1.
          4    1    3    3  502    0  0.27903193636E+03 -0.92601283297E+02 -0.17303398852E+03  0.34113718701E+03  0.00000000000E+00 0.  1.
         13    1    4    4    0    0 -0.15884371178E+03  0.47537988235E+03 -0.22504148390E+03  0.54941881835E+03  0.10566000000E+00 0. -1.
         -4    1    4    4    0  501  0.71488651798E+03 -0.35129100598E+02 -0.11951719936E+03  0.72565911297E+03  0.00000000000E+00 0. -1.
<mgrwt>
<rscale>  2 0.12253773E+04</rscale>
<asrwt>0</asrwt>
<pdfrwt beam="2">  1        2 0.24029255E+00 0.12253773E+04</pdfrwt>
<pdfrwt beam="1">  1       -2 0.14808470E+00 0.12253773E+04</pdfrwt>
<totfact> 0.50478559E+00</totfact>
</mgrwt>
</event>
<event>
 8    1  0.1373409E-005  0.1350654E+04  0.7818608E-02  0.8501004E-01
         -1   -1    0    0    0  501 -0.00000000000E+00  0.00000000000E+00  0.13531856436E+04  0.13531856436E+04  0.00000000000E+00 0. -1.
          1   -1    0    0  502    0  0.00000000000E+00 -0.00000000000E+00 -0.16229967125E+04  0.16229967125E+04  0.00000000000E+00 0.  1.
    9000010    2    1    2  502    0  0.71451081705E+03  0.95742118470E+02 -0.74288239682E+03  0.16554013267E+04  0.12918154032E+04 0.  0.
   -9000010    2    1    2    0  501 -0.71451081705E+03 -0.95742118470E+02  0.47307132792E+03  0.13207810294E+04  0.10004867743E+04 0.  0.
        -13    1    3    3    0    0  0.56672588918E+03  0.60014112498E+03 -0.11001814187E+03  0.83273741724E+03  0.10566000000E+00 0.  1.
          4    1    3    3  502    0  0.14778492787E+03 -0.50439900651E+03 -0.63286425495E+03  0.82266390943E+03  0.00000000000E+00 0.  1.
         13    1    4    4    0    0  0.24704484725E+03 -0.96669140040E+02  0.48588468924E+02  0.26969784884E+03  0.10566000000E+00 0. -1.
         -4    1    4    4    0  501 -0.96155566431E+03  0.92702156939E+00  0.42448285899E+03  0.10510831806E+04  0.00000000000E+00 0. -1.
<mgrwt>
<rscale>  2 0.13506539E+04</rscale>
<asrwt>0</asrwt>
<pdfrwt beam="2">  1        1 0.24969180E+00 0.13506539E+04</pdfrwt>
<pdfrwt beam="1">  1       -1 0.20818241E+00 0.13506539E+04</pdfrwt>
<totfact> 0.78693051E-01</totfact>
</mgrwt>
</event>
<event>
 8    1  0.1373409E-005  0.1264699E+04  0.7818608E-02  0.8559373E-01
          1   -1    0    0  502    0  0.00000000000E+00  0.00000000000E+00  0.99434084418E+03  0.99434084418E+03  0.00000000000E+00 0. -1.
         -1   -1    0    0    0  501 -0.00000000000E+00 -0.00000000000E+00 -0.17991433114E+04  0.17991433114E+04  0.00000000000E+00 0.  1.
    9000010    2    1    2  502    0 -0.72649482344E+03  0.32054438650E+03 -0.85759085819E+03  0.15298127940E+04  0.98707733866E+03 0.  0.
   -9000010    2    1    2    0  501  0.72649482344E+03 -0.32054438650E+03  0.52788391016E+02  0.12636713615E+04  0.98159832085E+03 0.  0.
        -13    1    3    3    0    0 -0.79191352235E+03 -0.13263035653E+03 -0.47339134142E+03  0.93210364856E+03  0.10566000000E+00 0.  1.
          4    1    3    3  502    0  0.65418698909E+02  0.45317474303E+03 -0.38419951677E+03  0.59770914547E+03  0.00000000000E+00 0.  1.
         13    1    4    4    0    0  0.79887943314E+03 -0.24926813195E+02 -0.24690448521E+03  0.83653543301E+03  0.10566000000E+00 0. -1.
         -4    1    4    4    0  501 -0.72384609693E+02 -0.29561757330E+03  0.29969287622E+03  0.42713592851E+03  0.00000000000E+00 0. -1.
<mgrwt>
<rscale>  2 0.12646987E+04</rscale>
<asrwt>0</asrwt>
<pdfrwt beam="1">  1        1 0.15297552E+00 0.12646987E+04</pdfrwt>
<pdfrwt beam="2">  1       -1 0.27679128E+00 0.12646987E+04</pdfrwt>
<totfact> 0.52968590E-01</totfact>
</mgrwt>
</event>
<event>
 8    1  0.1373409E-005  0.1164505E+04  0.7818608E-02  0.8633781E-01
          2   -1    0    0  502    0  0.00000000000E+00  0.00000000000E+00  0.23285972133E+04  0.23285972133E+04  0.00000000000E+00 0. -1.
         -2   -1    0    0    0  501 -0.00000000000E+00 -0.00000000000E+00 -0.58456980554E+03  0.58456980554E+03  0.00000000000E+00 0.  1.
    9000010    2    1    2  502    0 -0.58627799082E+03 -0.18580877599E+03  0.77792487489E+03  0.13951023847E+04  0.98127303492E+03 0.  0.
   -9000010    2    1    2    0  501  0.58627799082E+03  0.18580877599E+03  0.96610253283E+03  0.15180646341E+04  0.99645338357E+03 0.  0.
        -13    1    3    3    0    0 -0.51496738004E+03 -0.29226278346E+03  0.98635548760E+03  0.11504373500E+04  0.10566000000E+00 0.  1.
          4    1    3    3  502    0 -0.71310610777E+02  0.10645400747E+03 -0.20843061270E+03  0.24466503475E+03  0.00000000000E+00 0.  1.
         13    1    4    4    0    0  0.64532265426E+03  0.52170416134E+03  0.69337959303E+03  0.10813842200E+04  0.10566000000E+00 0. -1.
         -4    1    4    4    0  501 -0.59044663439E+02 -0.33589538535E+03  0.27272293980E+03  0.43668041412E+03  0.00000000000E+00 0. -1.
<mgrwt>
<rscale>  2 0.11645049E+04</rscale>
<asrwt>0</asrwt>
<pdfrwt beam="1">  1        2 0.35824572E+00 0.11645049E+04</pdfrwt>
<pdfrwt beam="2">  1       -2 0.89933818E-01 0.11645049E+04</pdfrwt>
<totfact> 0.71245530E+00</totfact>
</mgrwt>
</event>
<event>
 8    1  0.1373409E-005  0.1124023E+04  0.7818608E-02  0.8666082E-01
          2   -1    0    0  502    0  0.00000000000E+00  0.00000000000E+00  0.10084885442E+04  0.10084885442E+04  0.00000000000E+00 0. -1.
         -2   -1    0    0    0  501 -0.00000000000E+00 -0.00000000000E+00 -0.14482529573E+04  0.14482529573E+04  0.00000000000E+00 0.  1.
    9000010    2    1    2  502    0 -0.30856725394E+03 -0.40341263362E+03 -0.66921827015E+03  0.12991346509E+04  0.99092998987E+03 0.  0.
   -9000010    2    1    2    0  501  0.30856725394E+03  0.40341263362E+03  0.22945385701E+03  0.11576068507E+04  0.10146176842E+04 0.  0.
        -13    1    3    3    0    0 -0.61421676434E+03 -0.10935243708E+03 -0.60702806952E+03  0.87046153128E+03  0.10566000000E+00 0.  1.
          4    1    3    3  502    0  0.30564951040E+03 -0.29406019654E+03 -0.62190200623E+02  0.42867311958E+03  0.00000000000E+00 0.  1.
         13    1    4    4    0    0  0.18846571058E+03  0.19974729185E+03  0.63293859957E+03  0.68994897395E+03  0.10566000000E+00 0. -1.
         -4    1    4    4    0  501  0.12010154336E+03  0.20366534177E+03 -0.40348474257E+03  0.46765787670E+03  0.00000000000E+00 0. -1.
<mgrwt>
<rscale>  2 0.11240231E+04</rscale>
<asrwt>0</asrwt>
<pdfrwt beam="1">  1        2 0.15515208E+00 0.11240231E+04</pdfrwt>
<pdfrwt beam="2">  1       -2 0.22280815E+00 0.11240231E+04</pdfrwt>
<totfact> 0.24808855E+00</totfact>
</mgrwt>
</event>
<event>
 8    1  0.1373409E-005  0.1316016E+04  0.7818608E-02  0.8523972E-01
         -2   -1    0    0    0  501 -0.00000000000E+00  0.00000000000E+00  0.61978564662E+03  0.61978564662E+03  0.00000000000E+00 0.  1.
          2   -1    0    0  502    0  0.00000000000E+00 -0.00000000000E+00 -0.28437626112E+04  0.28437626112E+04  0.00000000000E+00 0. -1.
    9000010    2    1    2  502    0 -0.46928439627E+03  0.73054492007E+03 -0.87295307302E+03  0.15677770903E+04  0.97054325632E+03 0.  0.
   -9000010    2    1    2    0  501  0.46928439627E+03 -0.73054492007E+03 -0.13510238915E+04  0.18957711675E+04  0.10073524900E+04 0.  0.
        -13    1    3    3    0    0 -0.65861337112E+03  0.73837310779E+03 -0.41643027050E+03  0.10734899162E+04  0.10566000000E+00 0.  1.
          4    1    3    3  502    0  0.18932897484E+03 -0.78281877142E+01 -0.45652280251E+03  0.49428717407E+03  0.00000000000E+00 0.  1.
         13    1    4    4    0    0  0.27612003910E+03 -0.93883634455E+03 -0.75665510812E+03  0.12370056272E+04  0.10566000000E+00 0. -1.
         -4    1    4    4    0  501  0.19316435718E+03  0.20829142448E+03 -0.59436878342E+03  0.65876554031E+03  0.00000000000E+00 0. -1.
<mgrwt>
<rscale>  2 0.13160159E+04</rscale>
<asrwt>0</asrwt>
<pdfrwt beam="2">  1        2 0.43750194E+00 0.13160159E+04</pdfrwt>
<pdfrwt beam="1">  1       -2 0.95351639E-01 0.13160159E+04</pdfrwt>
<totfact> 0.31037752E+00</totfact>
</mgrwt>
</event>
<event>
 8    1  0.1373409E-005  0.1283423E+04  0.7818608E-02  0.8546258E-01
          2   -1    0    0  502    0  0.00000000000E+00  0.00000000000E+00  0.27197442292E+04  0.27197442292E+04  0.00000000000E+00 0.  1.
         -2   -1    0    0    0  501 -0.00000000000E+00 -0.00000000000E+00 -0.75033697101E+03  0.75033697101E+03  0.00000000000E+00 0. -1.
    9000010    2    1    2  502    0 -0.81195321819E+03 -0.11143589665E+02  0.22472069158E+03  0.13060378669E+04  0.99791949192E+03 0.  0.
   -9000010    2    1    2    0  501  0.81195321819E+03  0.11143589665E+02  0.17446865666E+04  0.21640433333E+04  0.98982833096E+03 0.  0.
        -13    1    3    3    0    0 -0.20351291784E+03 -0.34624749521E+03 -0.24226386898E+03  0.46903798252E+03  0.10566000000E+00 0.  1.
          4    1    3    3  502    0 -0.60844030035E+03  0.33510390555E+03  0.46698456056E+03  0.83699988435E+03  0.00000000000E+00 0.  1.
         13    1    4    4    0    0  0.34451731745E+03  0.95163573876E+02  0.16079829542E+01  0.35742255747E+03  0.10566000000E+00 0. -1.
         -4    1    4    4    0  501  0.46743590074E+03 -0.84019984211E+02  0.17430785836E+04  0.18066207759E+04  0.00000000000E+00 0. -1.
<mgrwt>
<rscale>  2 0.12834229E+04</rscale>
<asrwt>0</asrwt>
<pdfrwt beam="1">  1        2 0.41842219E+00 0.12834229E+04</pdfrwt>
<pdfrwt beam="2">  1       -2 0.11543646E+00 0.12834229E+04</pdfrwt>
<totfact> 0.23031634E+00</totfact>
</mgrwt>
</event>
<event>
 8    1  0.1373409E-005  0.1036673E+04  0.7818608E-02  0.8740877E-01
         -2   -1    0    0    0  501 -0.00000000000E+00  0.00000000000E+00  0.32745504915E+03  0.32745504915E+03  0.00000000000E+00 0. -1.
          2   -1    0    0  502    0  0.00000000000E+00 -0.00000000000E+00 -0.33424811423E+04  0.33424811423E+04  0.00000000000E+00 0.  1.
    9000010    2    1    2  502    0  0.27491079070E+03  0.15123340724E+03 -0.12716739307E+04  0.16454658169E+04  0.99596971958E+03 0.  0.
   -9000010    2    1    2    0  501 -0.27491079070E+03 -0.15123340724E+03 -0.17433521625E+04  0.20244703746E+04  0.98018164069E+03 0.  0.
        -13    1    3    3    0    0  0.37572933106E+03 -0.26715338941E+03 -0.10801268022E+04  0.11744008616E+04  0.10566000000E+00 0.  1.
          4    1    3    3  502    0 -0.10081854036E+03  0.41838679665E+03 -0.19154712846E+03  0.47106495531E+03  0.00000000000E+00 0.  1.
         13    1    4    4    0    0  0.43123291465E+02 -0.49658328485E+03 -0.12385880241E+04  0.13351235455E+04  0.10566000000E+00 0. -1.
         -4    1    4    4    0  501 -0.31803408216E+03  0.34534987761E+03 -0.50476413839E+03  0.68934682910E+03  0.00000000000E+00 0. -1.
<mgrwt>
<rscale>  2 0.10366726E+04</rscale>
<asrwt>0</asrwt>
<pdfrwt beam="2">  1        2 0.51422786E+00 0.10366726E+04</pdfrwt>
<pdfrwt beam="1">  1       -2 0.50377701E-01 0.10366726E+04</pdfrwt>
<totfact> 0.59669094E+00</totfact>
</mgrwt>
</event>
<event>
 8    1  0.1373409E-005  0.1291302E+04  0.7818608E-02  0.8540809E-01
          2   -1    0    0  502    0  0.00000000000E+00  0.00000000000E+00  0.18099328712E+04  0.18099328712E+04  0.00000000000E+00 0. -1.
         -2   -1    0    0    0  501 -0.00000000000E+00 -0.00000000000E+00 -0.11020011636E+04  0.11020011636E+04  0.00000000000E+00 0.  1.
    9000010    2    1    2  502    0 -0.78060962766E+03 -0.27124508328E+03 -0.23558905621E+03  0.13128313381E+04  0.99252135141E+03 0.  0.
   -9000010    2    1    2    0  501  0.78060962766E+03  0.27124508328E+03  0.94352076390E+03  0.15991026967E+04  0.99195398913E+03 0.  0.
        -13    1    3    3    0    0 -0.94448705230E+03 -0.79263312321E+02 -0.38101215997E+03  0.10215227564E+04  0.10566000000E+00 0.  1.
          4    1    3    3  502    0  0.16387742464E+03 -0.19198177096E+03  0.14542310376E+03  0.29130858174E+03  0.00000000000E+00 0.  1.
         13    1    4    4    0    0  0.44284766573E+03  0.45981116841E+03  0.68085208199E+02  0.64200932422E+03  0.10566000000E+00 0. -1.
         -4    1    4    4    0  501  0.33776196193E+03 -0.18856608513E+03  0.87543555570E+03  0.95709337244E+03  0.00000000000E+00 0. -1.
<mgrwt>
<rscale>  2 0.12913020E+04</rscale>
<asrwt>0</asrwt>
<pdfrwt beam="1">  1        2 0.27845121E+00 0.12913020E+04</pdfrwt>
<pdfrwt beam="2">  1       -2 0.16953864E+00 0.12913020E+04</pdfrwt>
<totfact> 0.23920892E+00</totfact>
</mgrwt>
</event>
<event>
 8    1  0.1373409E-005  0.1103573E+04  0.7818608E-02  0.8682942E-01
          2   -1    0    0  502    0  0.00000000000E+00  0.00000000000E+00  0.31558842189E+04  0.31558842189E+04  0.00000000000E+00 0. -1.
         -2   -1    0    0    0  501 -0.00000000000E+00 -0.00000000000E+00 -0.39471253110E+03  0.39471253110E+03  0.00000000000E+00 0.  1.
    9000010    2    1    2  502    0  0.20739028934E+03 -0.47664492585E+03  0.16768873263E+04  0.20236017122E+04  0.10063854466E+04 0.  0.
   -9000010    2    1    2    0  501 -0.20739028934E+03  0.47664492585E+03  0.10842843615E+04  0.15269950378E+04  0.94119081561E+03 0.  0.
        -13    1    3    3    0    0  0.17394861304E+03 -0.66830497703E+03  0.16929551283E+04  0.18283836414E+04  0.10566000000E+00 0.  1.
          4    1    3    3  502    0  0.33441676304E+02  0.19166005118E+03 -0.16067802021E+02  0.19521807087E+03  0.00000000000E+00 0.  1.
         13    1    4    4    0    0 -0.48677350920E+03  0.11261874416E+03  0.90612667409E+03  0.10347448920E+04  0.10566000000E+00 0. -1.
         -4    1    4    4    0  501  0.27938321985E+03  0.36402618169E+03  0.17815768744E+03  0.49225014585E+03  0.00000000000E+00 0. -1.
<mgrwt>
<rscale>  2 0.11035730E+04</rscale>
<asrwt>0</asrwt>
<pdfrwt beam="1">  1        2 0.48552063E+00 0.11035730E+04</pdfrwt>
<pdfrwt beam="2">  1       -2 0.60725007E-01 0.11035730E+04</pdfrwt>
<totfact> 0.54316618E+00</totfact>
</mgrwt>
</event>
<event>
 8    1  0.1373409E-005  0.1076673E+04  0.7818608E-02  0.8705709E-01
         -2   -1    0    0    0  501 -0.00000000000E+00  0.00000000000E+00  0.57849946649E+03  0.57849946649E+03  0.00000000000E+00 0.  1.
          2   -1    0    0  502    0  0.00000000000E+00 -0.00000000000E+00 -0.20199294246E+04  0.20199294246E+04  0.00000000000E+00 0. -1.
    9000010    2    1    2  502    0  0.30258428237E+03 -0.42494668653E+03 -0.60694734951E+03  0.12387247924E+04  0.94547188842E+03 0.  0.
   -9000010    2    1    2    0  501 -0.30258428237E+03  0.42494668653E+03 -0.83448260863E+03  0.13597040988E+04  0.93824148158E+03 0.  0.
        -13    1    3    3    0    0  0.54916754035E+03 -0.54019399395E+03 -0.58187283912E+03  0.96538621833E+03  0.10566000000E+00 0.  1.
          4    1    3    3  502    0 -0.24658325797E+03  0.11524730742E+03 -0.25074510386E+02  0.27333857403E+03  0.00000000000E+00 0.  1.
         13    1    4    4    0    0 -0.56209815580E+03  0.51343051901E+03 -0.44001134800E+03  0.87930383380E+03  0.10566000000E+00 0. -1.
         -4    1    4    4    0  501  0.25951387343E+03 -0.88483832477E+02 -0.39447126063E+03  0.48040026496E+03  0.00000000000E+00 0. -1.
<mgrwt>
<rscale>  2 0.10766727E+04</rscale>
<asrwt>0</asrwt>
<pdfrwt beam="2">  1        2 0.31075838E+00 0.10766727E+04</pdfrwt>
<pdfrwt beam="1">  1       -2 0.88999917E-01 0.10766727E+04</pdfrwt>
<totfact> 0.10869108E+01</totfact>
</mgrwt>
</event>
<event>
 8    1  0.1373409E-005  0.1049374E+04  0.7818608E-02  0.8729534E-01
          2   -1    0    0  502    0  0.00000000000E+00  0.00000000000E+00  0.22273476632E+04  0.22273476632E+04  0.00000000000E+00 0. -1.
         -2   -1    0    0    0  501 -0.00000000000E+00 -0.00000000000E+00 -0.50581077257E+03  0.50581077257E+03  0.00000000000E+00 0.  1.
    9000010    2    1    2  502    0 -0.43067650106E+02  0.31732314806E+03  0.62082880615E+03  0.11632232311E+04  0.93011347480E+03 0.  0.
   -9000010    2    1    2    0  501  0.43067650106E+02 -0.31732314806E+03  0.11007080845E+04  0.15699352047E+04  0.10726553300E+04 0.  0.
        -13    1    3    3    0    0 -0.16021113170E+03  0.37452975326E+03  0.82551252841E+03  0.92054934062E+03  0.10566000000E+00 0.  1.
          4    1    3    3  502    0  0.11714348159E+03 -0.57206605199E+02 -0.20468372225E+03  0.24267389047E+03  0.00000000000E+00 0.  1.
         13    1    4    4    0    0  0.54069635715E+03 -0.28005134317E+03  0.71549271540E+03  0.93952708444E+03  0.10566000000E+00 0. -1.
         -4    1    4    4    0  501 -0.49762870705E+03 -0.37271804892E+02  0.38521536910E+03  0.63040812028E+03  0.00000000000E+00 0. -1.
<mgrwt>
<rscale>  2 0.10493743E+04</rscale>
<asrwt>0</asrwt>
<pdfrwt beam="1">  1        2 0.34266886E+00 0.10493743E+04</pdfrwt>
<pdfrwt beam="2">  1       -2 0.77817043E-01 0.10493743E+04</pdfrwt>
<totfact> 0.11330216E+01</totfact>
</mgrwt>
</event>
<event>
 8    1  0.1373409E-005  0.1098619E+04  0.7818608E-02  0.8687084E-01
         -1   -1    0    0    0  501 -0.00000000000E+00  0.00000000000E+00  0.11182630135E+04  0.11182630135E+04  0.00000000000E+00 0. -1.
          1   -1    0    0  502    0  0.00000000000E+00 -0.00000000000E+00 -0.21182924612E+04  0.21182924612E+04  0.00000000000E+00 0.  1.
    9000010    2    1    2  502    0  0.27300852843E+03 -0.32416135811E+03 -0.16177103050E+04  0.19247639144E+04  0.95295081343E+03 0.  0.
   -9000010    2    1    2    0  501 -0.27300852843E+03  0.32416135811E+03  0.61768085728E+03  0.13117915603E+04  0.10768719578E+04 0.  0.
        -13    1    3    3    0    0 -0.13923915677E+03 -0.24356305704E+03 -0.14426758447E+04  0.14697020479E+04  0.10566000000E+00 0.  1.
          4    1    3    3  502    0  0.41224768520E+03 -0.80598301077E+02 -0.17503446025E+03  0.45506186652E+03  0.00000000000E+00 0.  1.
         13    1    4    4    0    0 -0.97030562874E+02  0.41869686522E+03 -0.19713414704E+03  0.47284656938E+03  0.10566000000E+00 0. -1.
         -4    1    4    4    0  501 -0.17597796555E+03 -0.94535507110E+02  0.81481500431E+03  0.83894499088E+03  0.00000000000E+00 0. -1.
<mgrwt>
<rscale>  2 0.10986189E+04</rscale>
<asrwt>0</asrwt>
<pdfrwt beam="2">  1        1 0.32589115E+00 0.10986189E+04</pdfrwt>
<pdfrwt beam="1">  1       -1 0.17204046E+00 0.10986189E+04</pdfrwt>
<totfact> 0.72066375E-01</totfact>
</mgrwt>
</event>
<event>
 8    1  0.1373409E-005  0.1260296E+04  0.7818608E-02  0.8562490E-01
          2   -1    0    0  502    0  0.00000000000E+00  0.00000000000E+00  0.34299486128E+04  0.34299486128E+04  0.00000000000E+00 0.  1.
         -2   -1    0    0    0  501 -0.00000000000E+00 -0.00000000000E+00 -0.46459440128E+03  0.46459440128E+03  0.00000000000E+00 0. -1.
    9000010    2    1    2  502    0 -0.41270056802E+03 -0.63112593571E+03  0.13766759695E+04  0.18692741392E+04  0.10150405791E+04 0.  0.
   -9000010    2    1    2    0  501  0.41270056802E+03  0.63112593571E+03  0.15886782421E+04  0.20252688749E+04  0.10045764048E+04 0.  0.
        -13    1    3    3    0    0 -0.42793710274E+03 -0.89927714192E+03  0.10820144589E+04  0.14705729640E+04  0.10566000000E+00 0.  1.
          4    1    3    3  502    0  0.15236534718E+02  0.26815120621E+03  0.29466151052E+03  0.39870117527E+03  0.00000000000E+00 0.  1.
         13    1    4    4    0    0 -0.18316738937E+03  0.89615555613E+02  0.10183719546E+04  0.10385868714E+04  0.10566000000E+00 0. -1.
         -4    1    4    4    0  501  0.59586795739E+03  0.54151038010E+03  0.57030628744E+03  0.98668200343E+03  0.00000000000E+00 0. -1.
<mgrwt>
<rscale>  2 0.12602964E+04</rscale>
<asrwt>0</asrwt>
<pdfrwt beam="1">  1        2 0.52768439E+00 0.12602964E+04</pdfrwt>
<pdfrwt beam="2">  1       -2 0.71476064E-01 0.12602964E+04</pdfrwt>
<totfact> 0.24862769E+00</totfact>
</mgrwt>
</event>
<event>
 8    1  0.1373409E-005  0.2081485E+04  0.7818608E-02  0.8135998E-01
          2   -1    0    0  502    0  0.00000000000E+00  0.00000000000E+00  0.32570189517E+04  0.32570189517E+04  0.00000000000E+00 0. -1.
         -2   -1    0    0    0  501 -0.00000000000E+00 -0.00000000000E+00 -0.15384939373E+04  0.15384939373E+04  0.00000000000E+00 0.  1.
    9000010    2    1    2  502    0 -0.12703790436E+04  0.13255157773E+04 -0.29216450853E+02  0.20634848326E+04  0.94141439489E+03 0.  0.
   -9000010    2    1    2    0  501  0.12703790436E+04 -0.13255157773E+04  0.17477414653E+04  0.27320280564E+04  0.10190790357E+04 0.  0.
        -13    1    3    3    0    0 -0.63374628422E+03  0.10896029680E+04 -0.35626376906E+03  0.13098827676E+04  0.10566000000E+00 0.  1.
          4    1    3    3  502    0 -0.63663275943E+03  0.23591280932E+03  0.32704731821E+03  0.75360206497E+03  0.00000000000E+00 0.  1.
         13    1    4    4    0    0  0.75205789320E+03 -0.97307048442E+03  0.48447013435E+03  0.13218050403E+04  0.10566000000E+00 0. -1.
         -4    1    4    4    0  501  0.51832115044E+03 -0.35244529288E+03  0.12632713310E+04  0.14102230161E+04  0.00000000000E+00 0. -1.
<mgrwt>
<rscale>  2 0.20814845E+04</rscale>
<asrwt>0</asrwt>
<pdfrwt beam="1">  1        2 0.50107984E+00 0.20814845E+04</pdfrwt>
<pdfrwt beam="2">  1       -2 0.23669138E+00 0.20814845E+04</pdfrwt>
<totfact> 0.88459072E-02</totfact>
</mgrwt>
</event>
<event>
 8    1  0.1373409E-005  0.1151079E+04  0.7818608E-02  0.8644340E-01
          2   -1    0    0  502    0  0.00000000000E+00  0.00000000000E+00  0.18325160566E+04  0.18325160566E+04  0.00000000000E+00 0.  1.
         -2   -1    0    0    0  501 -0.00000000000E+00 -0.00000000000E+00 -0.86242662790E+03  0.86242662790E+03  0.00000000000E+00 0. -1.
    9000010    2    1    2  502    0  0.46710335786E+03  0.35041206221E+03  0.10223463410E+04  0.15306472633E+04  0.97811801098E+03 0.  0.
   -9000010    2    1    2    0  501 -0.46710335786E+03 -0.35041206221E+03 -0.52256912290E+02  0.11642954212E+04  0.10059219069E+04 0.  0.
        -13    1    3    3    0    0  0.63788383535E+03  0.15054851117E+02  0.27682827733E+03  0.69552594648E+03  0.10566000000E+00 0.  1.
          4    1    3    3  502    0 -0.17078047749E+03  0.33535721109E+03  0.74551806368E+03  0.83512131681E+03  0.00000000000E+00 0.  1.
         13    1    4    4    0    0  0.25828726975E+03 -0.34952590879E+03 -0.60917020192E+02  0.43885255969E+03  0.10566000000E+00 0. -1.
         -4    1    4    4    0  501 -0.72539062760E+03 -0.88615341514E+00  0.86601079011E+01  0.72544286154E+03  0.00000000000E+00 0. -1.
<mgrwt>
<rscale>  2 0.11510795E+04</rscale>
<asrwt>0</asrwt>
<pdfrwt beam="1">  1        2 0.28192555E+00 0.11510795E+04</pdfrwt>
<pdfrwt beam="2">  1       -2 0.13268102E+00 0.11510795E+04</pdfrwt>
<totfact> 0.49903017E+00</totfact>
</mgrwt>
</event>
<event>
 8    1  0.1373409E-005  0.1163741E+04  0.7818608E-02  0.8634378E-01
         -1   -1    0    0    0  501 -0.00000000000E+00  0.00000000000E+00  0.57219581553E+03  0.57219581553E+03  0.00000000000E+00 0. -1.
          1   -1    0    0  502    0  0.00000000000E+00 -0.00000000000E+00 -0.23980877008E+04  0.23980877008E+04  0.00000000000E+00 0.  1.
    9000010    2    1    2  502    0  0.50526158231E+03 -0.19588396620E+02 -0.11076009696E+04  0.16407168434E+04  0.10997721948E+04 0.  0.
   -9000010    2    1    2    0  501 -0.50526158231E+03  0.19588396620E+02 -0.71829091572E+03  0.13295666730E+04  0.99806449012E+03 0.  0.
        -13    1    3    3    0    0 -0.30785916365E+03  0.86127772092E+02 -0.86567115557E+02  0.33119349998E+03  0.10566000000E+00 0.  1.
          4    1    3    3  502    0  0.81312074596E+03 -0.10571616871E+03 -0.10210338540E+04  0.13095233434E+04  0.00000000000E+00 0.  1.
         13    1    4    4    0    0 -0.42027138392E+03 -0.41345444724E+03 -0.14686322741E+03  0.60757010691E+03  0.10566000000E+00 0. -1.
         -4    1    4    4    0  501 -0.84990198389E+02  0.43304284386E+03 -0.57142768831E+03  0.72199656606E+03  0.00000000000E+00 0. -1.
<mgrwt>
<rscale>  2 0.11637411E+04</rscale>
<asrwt>0</asrwt>
<pdfrwt beam="2">  1        1 0.36893657E+00 0.11637411E+04</pdfrwt>
<pdfrwt beam="1">  1       -1 0.88030126E-01 0.11637411E+04</pdfrwt>
<totfact> 0.23598092E+00</totfact>
</mgrwt>
</event>
<event>
 8    1  0.1373409E-005  0.1154074E+04  0.7818608E-02  0.8641972E-01
         -2   -1    0    0    0  501 -0.00000000000E+00  0.00000000000E+00  0.87519232856E+03  0.87519232856E+03  0.00000000000E+00 0.  1.
          2   -1    0    0  502    0  0.00000000000E+00 -0.00000000000E+00 -0.15548143299E+04  0.15548143299E+04  0.00000000000E+00 0. -1.
    9000010    2    1    2  502    0  0.13025715654E+03  0.56260695713E+03 -0.51456358034E+03  0.12570473353E+04  0.99090807339E+03 0.  0.
   -9000010    2    1    2    0  501 -0.13025715654E+03 -0.56260695713E+03 -0.16505842096E+03  0.11729593231E+04  0.10075196159E+04 0.  0.
        -13    1    3    3    0    0 -0.12992841505E+03  0.72219239774E+03 -0.97517540476E+02  0.74023843068E+03  0.10566000000E+00 0.  1.
          4    1    3    3  502    0  0.26018557159E+03 -0.15958544061E+03 -0.41704603987E+03  0.51680890461E+03  0.00000000000E+00 0.  1.
         13    1    4    4    0    0 -0.99128552866E+02  0.12109919294E+03 -0.41563113564E+03  0.44411793096E+03  0.10566000000E+00 0. -1.
         -4    1    4    4    0  501 -0.31128603675E+02 -0.68370615007E+03  0.25057271468E+03  0.72884139218E+03  0.00000000000E+00 0. -1.
<mgrwt>
<rscale>  2 0.11540743E+04</rscale>
<asrwt>0</asrwt>
<pdfrwt beam="2">  1        2 0.23920220E+00 0.11540743E+04</pdfrwt>
<pdfrwt beam="1">  1       -2 0.13464497E+00 0.11540743E+04</pdfrwt>
<totfact> 0.67746042E+00</totfact>
</mgrwt>
</event>
<event>
 8    1  0.1373409E-005  0.1174936E+04  0.7818608E-02  0.8625679E-01
         -2   -1    0    0    0  501 -0.00000000000E+00  0.00000000000E+00  0.81869627035E+03  0.81869627035E+03  0.00000000000E+00 0. -1.
          2   -1    0    0  502    0  0.00000000000E+00 -0.00000000000E+00 -0.20685613890E+04  0.20685613890E+04  0.00000000000E+00 0.  1.
    9000010    2    1    2  502    0  0.18983956422E+03 -0.57822129447E+03 -0.12528947750E+04  0.17298294701E+04  0.10257610603E+04 0.  0.
   -9000010    2    1    2    0  501 -0.18983956422E+03  0.57822129447E+03  0.30296563607E+01  0.11574281892E+04  0.98450592120E+03 0.  0.
        -13    1    3    3    0    0  0.60552623643E+03 -0.23675850026E+03 -0.60965005356E+03  0.89128548143E+03  0.10566000000E+00 0.  1.
          4    1    3    3  502    0 -0.41568667221E+03 -0.34146279421E+03 -0.64324472141E+03  0.83854398865E+03  0.00000000000E+00 0.  1.
         13    1    4    4    0    0 -0.28077762468E+03  0.44928450103E+03  0.44262883516E+03  0.69037159144E+03  0.10566000000E+00 0. -1.
         -4    1    4    4    0  501  0.90938060460E+02  0.12893679344E+03 -0.43959917880E+03  0.46705659779E+03  0.00000000000E+00 0. -1.
<mgrwt>
<rscale>  2 0.11749362E+04</rscale>
<asrwt>0</asrwt>
<pdfrwt beam="2">  1        2 0.31824021E+00 0.11749362E+04</pdfrwt>
<pdfrwt beam="1">  1       -2 0.12595327E+00 0.11749362E+04</pdfrwt>
<totfact> 0.42764849E+00</totfact>
</mgrwt>
</event>
<event>
 8    1  0.1373409E-005  0.1222041E+04  0.7818608E-02  0.8590147E-01
          2   -1    0    0  502    0  0.00000000000E+00  0.00000000000E+00  0.38408963319E+04  0.38408963319E+04  0.00000000000E+00 0. -1.
         -2   -1    0    0    0  501 -0.00000000000E+00 -0.00000000000E+00 -0.76324185933E+03  0.76324185933E+03  0.00000000000E+00 0.  1.
    9000010    2    1    2  502    0  0.77926732959E+02  0.72532553077E+03 -0.70528008118E+02  0.12287935757E+04  0.98630104456E+03 0.  0.
   -9000010    2    1    2    0  501 -0.77926732959E+02 -0.72532553077E+03  0.31481824807E+04  0.33753446155E+04  0.97454022004E+03 0.  0.
        -13    1    3    3    0    0  0.50416502624E+03  0.27314818346E+03  0.10529989539E+03  0.58299260968E+03  0.10566000000E+00 0.  1.
          4    1    3    3  502    0 -0.42623829328E+03  0.45217734731E+03 -0.17582790351E+03  0.64580096603E+03  0.00000000000E+00 0.  1.
         13    1    4    4    0    0 -0.27424013434E+03 -0.76055263770E+03  0.14067433247E+04  0.16225211120E+04  0.10566000000E+00 0. -1.
         -4    1    4    4    0  501  0.19631340138E+03  0.35227106929E+02  0.17414391560E+04  0.17528235036E+04  0.00000000000E+00 0. -1.
<mgrwt>
<rscale>  2 0.12220411E+04</rscale>
<asrwt>0</asrwt>
<pdfrwt beam="1">  1        2 0.59090712E+00 0.12220411E+04</pdfrwt>
<pdfrwt beam="2">  1       -2 0.11742183E+00 0.12220411E+04</pdfrwt>
<totfact> 0.37338452E-01</totfact>
</mgrwt>
</event>
<event>
 8    1  0.1373409E-005  0.1305105E+04  0.7818608E-02  0.8531358E-01
          4   -1    0    0  502    0  0.00000000000E+00  0.00000000000E+00  0.23688108214E+04  0.23688108214E+04  0.00000000000E+00 0.  1.
         -4   -1    0    0    0  501 -0.00000000000E+00 -0.00000000000E+00 -0.16645568279E+04  0.16645568279E+04  0.00000000000E+00 0. -1.
    9000010    2    1    2  502    0  0.57573134381E+03  0.65225187129E+03  0.18733678327E+04  0.22900706118E+04  0.98894756517E+03 0.  0.
   -9000010    2    1    2    0  501 -0.57573134381E+03 -0.65225187129E+03 -0.11691138391E+04  0.17432970375E+04  0.95674359592E+03 0.  0.
        -13    1    3    3    0    0 -0.66431844266E+02  0.28055762743E+03  0.13540623194E+04  0.13844170427E+04  0.10566000000E+00 0.  1.
          4    1    3    3  502    0  0.64216318808E+03  0.37169424387E+03  0.51930551328E+03  0.90565356907E+03  0.00000000000E+00 0.  1.
         13    1    4    4    0    0 -0.74164903624E+03 -0.45216114632E+03 -0.12001655522E+04  0.14815162365E+04  0.10566000000E+00 0. -1.
         -4    1    4    4    0  501  0.16591769243E+03 -0.20009072497E+03  0.31051713093E+02  0.26178080099E+03  0.00000000000E+00 0. -1.
<mgrwt>
<rscale>  2 0.13051049E+04</rscale>
<asrwt>0</asrwt>
<pdfrwt beam="1">  1        4 0.36443244E+00 0.13051049E+04</pdfrwt>
<pdfrwt beam="2">  1       -4 0.25608567E+00 0.13051049E+04</pdfrwt>
<totfact> 0.46025920E-02</totfact>
</mgrwt>
</event>
<event>
 8    1  0.1373409E-005  0.1726371E+04  0.7818608E-02  0.8289937E-01
         -2   -1    0    0    0  501 -0.00000000000E+00  0.00000000000E+00  0.12703686536E+04  0.12703686536E+04  0.00000000000E+00 0. -1.
          2   -1    0    0  502    0  0.00000000000E+00 -0.00000000000E+00 -0.24318156952E+04  0.24318156952E+04  0.00000000000E+00 0.  1.
    9000010    2    1    2  502    0 -0.18430240106E+03 -0.13820738658E+04 -0.93078579610E+03  0.19682328657E+04  0.10312530580E+04 0.  0.
   -9000010    2    1    2    0  501  0.18430240106E+03  0.13820738658E+04 -0.23066124546E+03  0.17339514831E+04  0.10046330624E+04 0.  0.
        -13    1    3    3    0    0 -0.57156848466E+03 -0.80199838281E+03 -0.30446266231E+03  0.10308198012E+04  0.10566000000E+00 0.  1.
          4    1    3    3  502    0  0.38726608360E+03 -0.58007548299E+03 -0.62632313379E+03  0.93741306444E+03  0.00000000000E+00 0.  1.
         13    1    4    4    0    0 -0.20317213796E+03  0.63476756855E+03  0.30837162763E+03  0.73437174211E+03  0.10566000000E+00 0. -1.
         -4    1    4    4    0  501  0.38747453902E+03  0.74730629725E+03 -0.53903287309E+03  0.99957974097E+03  0.00000000000E+00 0. -1.
<mgrwt>
<rscale>  2 0.17263712E+04</rscale>
<asrwt>0</asrwt>
<pdfrwt beam="2">  1        2 0.37412549E+00 0.17263712E+04</pdfrwt>
<pdfrwt beam="1">  1       -2 0.19544133E+00 0.17263712E+04</pdfrwt>
<totfact> 0.63206081E-01</totfact>
</mgrwt>
</event>
<event>
 8    1  0.1373409E-005  0.1108019E+04  0.7818608E-02  0.8679244E-01
         -2   -1    0    0    0  501 -0.00000000000E+00  0.00000000000E+00  0.94418461986E+03  0.94418461986E+03  0.00000000000E+00 0.  1.
          2   -1    0    0  502    0  0.00000000000E+00 -0.00000000000E+00 -0.13117869784E+04  0.13117869784E+04  0.00000000000E+00 0. -1.
    9000010    2    1    2  502    0  0.22586543306E+03 -0.44662137631E+03 -0.28844620305E+03  0.11399151233E+04  0.98271024649E+03 0.  0.
   -9000010    2    1    2    0  501 -0.22586543306E+03  0.44662137631E+03 -0.79156155460E+02  0.11160564750E+04  0.99439957298E+03 0.  0.
        -13    1    3    3    0    0 -0.13711566523E+03 -0.95234231346E+02  0.31282107298E+03  0.35458045538E+03  0.10566000000E+00 0.  1.
          4    1    3    3  502    0  0.36298109829E+03 -0.35138714497E+03 -0.60126727602E+03  0.78533466788E+03  0.00000000000E+00 0.  1.
         13    1    4    4    0    0 -0.85677176361E+00  0.16724382525E+02 -0.48389890263E+03  0.48418859771E+03  0.10566000000E+00 0. -1.
         -4    1    4    4    0  501 -0.22500866129E+03  0.42989699379E+03  0.40474274717E+03  0.63186787726E+03  0.00000000000E+00 0. -1.
<mgrwt>
<rscale>  2 0.11080191E+04</rscale>
<asrwt>0</asrwt>
<pdfrwt beam="2">  1        2 0.20181338E+00 0.11080191E+04</pdfrwt>
<pdfrwt beam="1">  1       -2 0.14525917E+00 0.11080191E+04</pdfrwt>
<totfact> 0.74345080E+00</totfact>
</mgrwt>
</event>
<event>
 8    1  0.1373409E-005  0.1058182E+04  0.7818608E-02  0.8721765E-01
         -2   -1    0    0    0  501 -0.00000000000E+00  0.00000000000E+00  0.39252388605E+04  0.39252388605E+04  0.00000000000E+00 0. -1.
          2   -1    0    0  502    0  0.00000000000E+00 -0.00000000000E+00 -0.31806836725E+03  0.31806836725E+03  0.00000000000E+00 0.  1.
    9000010    2    1    2  502    0  0.49896675878E+03  0.94932814769E+02  0.24823960825E+04  0.26978864779E+04  0.92645618977E+03 0.  0.
   -9000010    2    1    2    0  501 -0.49896675878E+03 -0.94932814769E+02  0.11247744108E+04  0.15454207499E+04  0.93017619480E+03 0.  0.
        -13    1    3    3    0    0  0.20864131690E+03 -0.29271644229E+03  0.31790277347E+03  0.47987112775E+03  0.10566000000E+00 0.  1.
          4    1    3    3  502    0  0.29032544188E+03  0.38764925706E+03  0.21644933090E+04  0.22180153501E+04  0.00000000000E+00 0.  1.
         13    1    4    4    0    0 -0.24302490457E+03 -0.12145904458E+03  0.12357014873E+04  0.12652160214E+04  0.10566000000E+00 0. -1.
         -4    1    4    4    0  501 -0.25594185421E+03  0.26526229812E+02 -0.11092707651E+03  0.28020472856E+03  0.00000000000E+00 0. -1.
<mgrwt>
<rscale>  2 0.10581820E+04</rscale>
<asrwt>0</asrwt>
<pdfrwt beam="2">  1        2 0.48933598E-01 0.10581820E+04</pdfrwt>
<pdfrwt beam="1">  1       -2 0.60388287E+00 0.10581820E+04</pdfrwt>
<totfact> 0.70483970E-01</totfact>
</mgrwt>
</event>
<event>
 8    1  0.1373409E-005  0.1204437E+04  0.7818608E-02  0.8603229E-01
         -2   -1    0    0    0  501 -0.00000000000E+00  0.00000000000E+00  0.14474444852E+04  0.14474444852E+04  0.00000000000E+00 0. -1.
          2   -1    0    0  502    0  0.00000000000E+00 -0.00000000000E+00 -0.10052332946E+04  0.10052332946E+04  0.00000000000E+00 0.  1.
    9000010    2    1    2  502    0  0.11949052854E+03  0.59899048118E+03  0.15332936624E+03  0.11961474578E+04  0.10169519474E+04 0.  0.
   -9000010    2    1    2    0  501 -0.11949052854E+03 -0.59899048118E+03  0.28888182442E+03  0.12565303219E+04  0.10594093442E+04 0.  0.
        -13    1    3    3    0    0 -0.89784711397E+02  0.77345008178E+03  0.35640504141E+03  0.85633573329E+03  0.10566000000E+00 0.  1.
          4    1    3    3  502    0  0.20927523994E+03 -0.17445960060E+03 -0.20307567517E+03  0.33981172455E+03  0.00000000000E+00 0.  1.
         13    1    4    4    0    0  0.19475391786E+03 -0.79528265875E+03  0.33196966482E+03  0.88351992924E+03  0.10566000000E+00 0. -1.
         -4    1    4    4    0  501 -0.31424444640E+03  0.19629217758E+03 -0.43087840401E+02  0.37301039270E+03  0.00000000000E+00 0. -1.
<mgrwt>
<rscale>  2 0.12044367E+04</rscale>
<asrwt>0</asrwt>
<pdfrwt beam="2">  1        2 0.15465128E+00 0.12044367E+04</pdfrwt>
<pdfrwt beam="1">  1       -2 0.22268377E+00 0.12044367E+04</pdfrwt>
<totfact> 0.24766955E+00</totfact>
</mgrwt>
</event>
<event>
 8    1  0.1373409E-005  0.1108849E+04  0.7818608E-02  0.8678556E-01
          2   -1    0    0  502    0  0.00000000000E+00  0.00000000000E+00  0.95933394496E+03  0.95933394496E+03  0.00000000000E+00 0.  1.
         -2   -1    0    0    0  501 -0.00000000000E+00 -0.00000000000E+00 -0.13473628827E+04  0.13473628827E+04  0.00000000000E+00 0. -1.
    9000010    2    1    2  502    0 -0.16472812328E+03 -0.62037072450E+03 -0.44781623758E+03  0.12749127486E+04  0.10064134059E+04 0.  0.
   -9000010    2    1    2    0  501  0.16472812328E+03  0.62037072450E+03  0.59787299887E+02  0.10317840790E+04  0.80561074595E+03 0.  0.
        -13    1    3    3    0    0  0.12781053641E+03 -0.20627596593E+03 -0.67651124977E+03  0.71871607020E+03  0.10566000000E+00 0.  1.
          4    1    3    3  502    0 -0.29253865970E+03 -0.41409475857E+03  0.22869501219E+03  0.55619667843E+03  0.00000000000E+00 0.  1.
         13    1    4    4    0    0  0.18896096318E+03 -0.14811516667E+03 -0.74268925540E+02  0.25131699638E+03  0.10566000000E+00 0. -1.
         -4    1    4    4    0  501 -0.24232839895E+02  0.76848589117E+03  0.13405622543E+03  0.78046708261E+03  0.00000000000E+00 0. -1.
<mgrwt>
<rscale>  2 0.11088493E+04</rscale>
<asrwt>0</asrwt>
<pdfrwt beam="1">  1        2 0.14758984E+00 0.11088493E+04</pdfrwt>
<pdfrwt beam="2">  1       -2 0.20728660E+00 0.11088493E+04</pdfrwt>
<totfact> 0.35664907E+00</totfact>
</mgrwt>
</event>
<event>
 8    1  0.1373409E-005  0.1579339E+04  0.7818608E-02  0.8365248E-01
          1   -1    0    0  502    0  0.00000000000E+00  0.00000000000E+00  0.13523748718E+04  0.13523748718E+04  0.00000000000E+00 0. -1.
         -1   -1    0    0    0  501 -0.00000000000E+00 -0.00000000000E+00 -0.26601766307E+04  0.26601766307E+04  0.00000000000E+00 0.  1.
    9000010    2    1    2  502    0 -0.58658853905E+03 -0.10613054459E+04  0.46740246072E+03  0.16098264687E+04  0.95006359550E+03 0.  0.
   -9000010    2    1    2    0  501  0.58658853905E+03  0.10613054459E+04 -0.17752042196E+04  0.24027250338E+04  0.10729781933E+04 0.  0.
        -13    1    3    3    0    0  0.21235761984E+03 -0.55710003931E+02  0.20202890710E+03  0.29835390681E+03  0.10566000000E+00 0.  1.
          4    1    3    3  502    0 -0.79894615889E+03 -0.10055954419E+04  0.26537355361E+03  0.13114725619E+04  0.00000000000E+00 0.  1.
         13    1    4    4    0    0  0.54508011686E+03  0.78464145994E+02 -0.10322875923E+04  0.11699942907E+04  0.10566000000E+00 0. -1.
         -4    1    4    4    0  501  0.41508422191E+02  0.98284129987E+03 -0.74291662735E+03  0.12327307431E+04  0.00000000000E+00 0. -1.
<mgrwt>
<rscale>  2 0.15793385E+04</rscale>
<asrwt>0</asrwt>
<pdfrwt beam="1">  1        1 0.20805767E+00 0.15793385E+04</pdfrwt>
<pdfrwt beam="2">  1       -1 0.40925794E+00 0.15793385E+04</pdfrwt>
<totfact> 0.11918151E-01</totfact>
</mgrwt>
</event>
<event>
 8    1  0.1373409E-005  0.1062220E+04  0.7818608E-02  0.8718230E-01
         -1   -1    0    0    0  501 -0.00000000000E+00  0.00000000000E+00  0.62536947129E+03  0.62536947129E+03  0.00000000000E+00 0. -1.
          1   -1    0    0  502    0  0.00000000000E+00 -0.00000000000E+00 -0.18042750740E+04  0.18042750740E+04  0.00000000000E+00 0.  1.
    9000010    2    1    2  502    0  0.63470500434E+02 -0.35104001007E+03 -0.58441000709E+03  0.12080972042E+04  0.99534225541E+03 0.  0.
   -9000010    2    1    2    0  501 -0.63470500434E+02  0.35104001007E+03 -0.59449559563E+03  0.12215473411E+04  0.10057312266E+04 0.  0.
        -13    1    3    3    0    0 -0.50892870685E+02  0.82828625573E+02 -0.72995004325E+03  0.73639509932E+03  0.10566000000E+00 0.  1.
          4    1    3    3  502    0  0.11436337112E+03 -0.43386863565E+03  0.14554003616E+03  0.47170210491E+03  0.00000000000E+00 0.  1.
         13    1    4    4    0    0 -0.49493431589E+03  0.60443923672E+01 -0.16483462326E+03  0.52169624871E+03  0.10566000000E+00 0. -1.
         -4    1    4    4    0  501  0.43146381546E+03  0.34499561771E+03 -0.42966097236E+03  0.69985109235E+03  0.00000000000E+00 0. -1.
<mgrwt>
<rscale>  2 0.10622196E+04</rscale>
<asrwt>0</asrwt>
<pdfrwt beam="2">  1        1 0.27758078E+00 0.10622196E+04</pdfrwt>
<pdfrwt beam="1">  1       -1 0.96210688E-01 0.10622196E+04</pdfrwt>
<totfact> 0.58650013E+00</totfact>
</mgrwt>
</event>
<event>
 8    1  0.1373409E-005  0.1561704E+04  0.7818608E-02  0.8374848E-01
         -2   -1    0    0    0  501 -0.00000000000E+00  0.00000000000E+00  0.82085466275E+03  0.82085466275E+03  0.00000000000E+00 0.  1.
          2   -1    0    0  502    0  0.00000000000E+00 -0.00000000000E+00 -0.33193496912E+04  0.33193496912E+04  0.00000000000E+00 0. -1.
    9000010    2    1    2  502    0 -0.90141192066E+03  0.75922768421E+03 -0.19068945037E+04  0.24539161276E+04  0.99824224821E+03 0.  0.
   -9000010    2    1    2    0  501  0.90141192066E+03 -0.75922768421E+03 -0.59160052479E+03  0.16862882263E+04  0.10510026994E+04 0.  0.
        -13    1    3    3    0    0 -0.10110922368E+04  0.28308819934E+03 -0.13985582384E+04  0.17488314948E+04  0.10566000000E+00 0.  1.
          4    1    3    3  502    0  0.10968031616E+03  0.47613948487E+03 -0.50833626526E+03  0.70508463278E+03  0.00000000000E+00 0.  1.
         13    1    4    4    0    0  0.69869543318E+03 -0.91980973094E+03 -0.13687653014E+03  0.11631682790E+04  0.10566000000E+00 0. -1.
         -4    1    4    4    0  501  0.20271648748E+03  0.16058204674E+03 -0.45472399466E+03  0.52311994738E+03  0.00000000000E+00 0. -1.
<mgrwt>
<rscale>  2 0.15617036E+04</rscale>
<asrwt>0</asrwt>
<pdfrwt beam="2">  1        2 0.51066919E+00 0.15617036E+04</pdfrwt>
<pdfrwt beam="1">  1       -2 0.12628533E+00 0.15617036E+04</pdfrwt>
<totfact> 0.73919280E-01</totfact>
</mgrwt>
</event>
<event>
 8    1  0.1373409E-005  0.1274559E+04  0.7818608E-02  0.8552438E-01
         -2   -1    0    0    0  501 -0.00000000000E+00  0.00000000000E+00  0.94348948668E+03  0.94348948668E+03  0.00000000000E+00 0.  1.
          2   -1    0    0  502    0  0.00000000000E+00 -0.00000000000E+00 -0.19246240665E+04  0.19246240665E+04  0.00000000000E+00 0. -1.
    9000010    2    1    2  502    0 -0.41555988113E+03  0.69342956517E+03 -0.24422591825E+02  0.12730139614E+04  0.98307349996E+03 0.  0.
   -9000010    2    1    2    0  501  0.41555988113E+03 -0.69342956517E+03 -0.95671198802E+03  0.15950995918E+04  0.98767925108E+03 0.  0.
        -13    1    3    3    0    0  0.29692349539E+02  0.22999577792E+03 -0.44720025502E+03  0.50375368260E+03  0.10566000000E+00 0.  1.
          4    1    3    3  502    0 -0.44525223067E+03  0.46343378725E+03  0.42277766319E+03  0.76926027882E+03  0.00000000000E+00 0.  1.
         13    1    4    4    0    0  0.26072447281E+03 -0.70653781165E+03 -0.14285098228E+03  0.76653724261E+03  0.10566000000E+00 0. -1.
         -4    1    4    4    0  501  0.15483540832E+03  0.13108246483E+02 -0.81386100573E+03  0.82856234916E+03  0.00000000000E+00 0. -1.
<mgrwt>
<rscale>  2 0.12745588E+04</rscale>
<asrwt>0</asrwt>
<pdfrwt beam="2">  1        2 0.29609601E+00 0.12745588E+04</pdfrwt>
<pdfrwt beam="1">  1       -2 0.14515223E+00 0.12745588E+04</pdfrwt>
<totfact> 0.33829065E+00</totfact>
</mgrwt>
</event>
<event>
 8    1  0.1373409E-005  0.1535094E+04  0.7818608E-02  0.8389584E-01
          1   -1    0    0  502    0  0.00000000000E+00  0.00000000000E+00  0.90455488285E+03  0.90455488285E+03  0.00000000000E+00 0.  1.
         -1   -1    0    0    0  501 -0.00000000000E+00 -0.00000000000E+00 -0.26316277341E+04  0.26316277341E+04  0.00000000000E+00 0. -1.
    9000010    2    1    2  502    0 -0.11536740865E+04  0.12905549862E+03 -0.68531647536E+03  0.16796126953E+04  0.10019086361E+04 0.  0.
   -9000010    2    1    2    0  501  0.11536740865E+04 -0.12905549862E+03 -0.10417563759E+04  0.18565699217E+04  0.10069639058E+04 0.  0.
        -13    1    3    3    0    0 -0.90460375955E+03  0.51680620385E+03 -0.62477052964E+03  0.12147982713E+04  0.10566000000E+00 0.  1.
          4    1    3    3  502    0 -0.24907032699E+03 -0.38775070523E+03 -0.60545945714E+02  0.46481442397E+03  0.00000000000E+00 0.  1.
         13    1    4    4    0    0  0.94508903761E+03  0.30707022041E+03 -0.44566992078E+03  0.10890854414E+04  0.10566000000E+00 0. -1.
         -4    1    4    4    0  501  0.20858504894E+03 -0.43612571903E+03 -0.59608645511E+03  0.76748448024E+03  0.00000000000E+00 0. -1.
<mgrwt>
<rscale>  2 0.15350936E+04</rscale>
<asrwt>0</asrwt>
<pdfrwt beam="1">  1        1 0.13916229E+00 0.15350936E+04</pdfrwt>
<pdfrwt beam="2">  1       -1 0.40486580E+00 0.15350936E+04</pdfrwt>
<totfact> 0.26943105E-01</totfact>
</mgrwt>
</event>
<event>
 8    1  0.1373409E-005  0.1242714E+04  0.7818608E-02  0.8575073E-01
         -1   -1    0    0    0  501 -0.00000000000E+00  0.00000000000E+00  0.39390580945E+04  0.39390580945E+04  0.00000000000E+00 0.  1.
          1   -1    0    0  502    0  0.00000000000E+00 -0.00000000000E+00 -0.42262750554E+03  0.42262750554E+03  0.00000000000E+00 0. -1.
    9000010    2    1    2  502    0 -0.87381725876E+02  0.74784622117E+03  0.23424602496E+04  0.26508777559E+04  0.98647013094E+03 0.  0.
   -9000010    2    1    2    0  501  0.87381725876E+02 -0.74784622117E+03  0.11739703393E+04  0.17108078441E+04  0.99083176437E+03 0.  0.
        -13    1    3    3    0    0 -0.39271520187E+03  0.79866080273E+03  0.20010354059E+04  0.21900289985E+04  0.10566000000E+00 0.  1.
          4    1    3    3  502    0  0.30533347600E+03 -0.50814581563E+02  0.34142484368E+03  0.46084875734E+03  0.00000000000E+00 0.  1.
         13    1    4    4    0    0  0.54452287161E+02 -0.36957542901E+02 -0.17426643251E+03  0.18627858766E+03  0.10566000000E+00 0. -1.
         -4    1    4    4    0  501  0.32929438715E+02 -0.71088867827E+03  0.13482367718E+04  0.15245292565E+04  0.00000000000E+00 0. -1.
<mgrwt>
<rscale>  2 0.12427144E+04</rscale>
<asrwt>0</asrwt>
<pdfrwt beam="2">  1        1 0.65019619E-01 0.12427144E+04</pdfrwt>
<pdfrwt beam="1">  1       -1 0.60600891E+00 0.12427144E+04</pdfrwt>
<totfact> 0.18071634E-01</totfact>
</mgrwt>
</event>
<event>
 8    1  0.1373409E-005  0.1228697E+04  0.7818608E-02  0.8585261E-01
         -2   -1    0    0    0  501 -0.00000000000E+00  0.00000000000E+00  0.46487661251E+03  0.46487661251E+03  0.00000000000E+00 0. -1.
          2   -1    0    0  502    0  0.00000000000E+00 -0.00000000000E+00 -0.34014800747E+04  0.34014800747E+04  0.00000000000E+00 0.  1.
    9000010    2    1    2  502    0  0.49666814149E+03  0.55758514607E+03 -0.18461711941E+04  0.22028170814E+04  0.94152778941E+03 0.  0.
   -9000010    2    1    2    0  501 -0.49666814149E+03 -0.55758514607E+03 -0.10904322681E+04  0.16635396058E+04  0.10103173021E+04 0.  0.
        -13    1    3    3    0    0  0.41919288783E+03  0.21686332857E+03 -0.18767458994E+03  0.50791155072E+03  0.10566000000E+00 0.  1.
          4    1    3    3  502    0  0.77475253661E+02  0.34072181749E+03 -0.16584966042E+04  0.16949055307E+04  0.00000000000E+00 0.  1.
         13    1    4    4    0    0 -0.74180509701E+03 -0.35330724493E+03 -0.10626294537E+04  0.13432357121E+04  0.10566000000E+00 0. -1.
         -4    1    4    4    0  501  0.24513695552E+03 -0.20427790113E+03 -0.27802814427E+02  0.32030389374E+03  0.00000000000E+00 0. -1.
<mgrwt>
<rscale>  2 0.12286970E+04</rscale>
<asrwt>0</asrwt>
<pdfrwt beam="2">  1        2 0.52330463E+00 0.12286970E+04</pdfrwt>
<pdfrwt beam="1">  1       -2 0.71519479E-01 0.12286970E+04</pdfrwt>
<totfact> 0.26109488E+00</totfact>
</mgrwt>
</event>
<event>
 8    1  0.1373409E-005  0.1054784E+04  0.7818608E-02  0.8724753E-01
          2   -1    0    0  502    0  0.00000000000E+00  0.00000000000E+00  0.23065025524E+04  0.23065025524E+04  0.00000000000E+00 0.  1.
         -2   -1    0    0    0  501 -0.00000000000E+00 -0.00000000000E+00 -0.65086796673E+03  0.65086796673E+03  0.00000000000E+00 0. -1.
    9000010    2    1    2  502    0 -0.14879756562E+03 -0.30664442526E+03  0.15791613041E+04  0.18980480312E+04  0.99632544135E+03 0.  0.
   -9000010    2    1    2    0  501  0.14879756562E+03  0.30664442526E+03  0.76473281522E+02  0.10593224879E+04  0.10000722232E+04 0.  0.
        -13    1    3    3    0    0  0.37524237882E+03  0.78245818365E+02  0.41731025382E+03  0.56663666495E+03  0.10566000000E+00 0.  1.
          4    1    3    3  502    0 -0.52403994444E+03 -0.38489024362E+03  0.11618510503E+04  0.13314113662E+04  0.00000000000E+00 0.  1.
         13    1    4    4    0    0  0.56462468827E+03  0.47569727420E+02  0.39749823919E+02  0.56801758532E+03  0.10566000000E+00 0. -1.
         -4    1    4    4    0  501 -0.41582712265E+03  0.25907469784E+03  0.36723457604E+02  0.49130490261E+03  0.00000000000E+00 0. -1.
<mgrwt>
<rscale>  2 0.10547842E+04</rscale>
<asrwt>0</asrwt>
<pdfrwt beam="1">  1        2 0.35484654E+00 0.10547842E+04</pdfrwt>
<pdfrwt beam="2">  1       -2 0.10013353E+00 0.10547842E+04</pdfrwt>
<totfact> 0.57649316E+00</totfact>
</mgrwt>
</event>
<event>
 8    1  0.1373409E-005  0.1196938E+04  0.7818608E-02  0.8608872E-01
          2   -1    0    0  502    0  0.00000000000E+00  0.00000000000E+00  0.18255022292E+04  0.18255022292E+04  0.00000000000E+00 0. -1.
         -2   -1    0    0    0  501 -0.00000000000E+00 -0.00000000000E+00 -0.78810241087E+03  0.78810241087E+03  0.00000000000E+00 0.  1.
    9000010    2    1    2  502    0 -0.42516491969E+03 -0.47015225021E+03  0.60630302105E+03  0.13490468180E+04  0.10249466408E+04 0.  0.
   -9000010    2    1    2    0  501  0.42516491969E+03  0.47015225021E+03  0.43109679729E+03  0.12645578221E+04  0.10057105396E+04 0.  0.
        -13    1    3    3    0    0 -0.55567300888E+03  0.14435848579E+03  0.33539469249E+03  0.66490711842E+03  0.10566000000E+00 0.  1.
          4    1    3    3  502    0  0.13050808919E+03 -0.61451073601E+03  0.27090832856E+03  0.68413969955E+03  0.00000000000E+00 0.  1.
         13    1    4    4    0    0  0.11444749689E+03  0.77902849487E+02 -0.32762592609E+03  0.35567659764E+03  0.10566000000E+00 0. -1.
         -4    1    4    4    0  501  0.31071742280E+03  0.39224940073E+03  0.75872272337E+03  0.90888122445E+03  0.00000000000E+00 0. -1.
<mgrwt>
<rscale>  2 0.11969377E+04</rscale>
<asrwt>0</asrwt>
<pdfrwt beam="1">  1        2 0.28084650E+00 0.11969377E+04</pdfrwt>
<pdfrwt beam="2">  1       -2 0.12124653E+00 0.11969377E+04</pdfrwt>
<totfact> 0.64095431E+00</totfact>
</mgrwt>
</event>
<event>
 8    1  0.1373409E-005  0.1107854E+04  0.7818608E-02  0.8679381E-01
         -1   -1    0    0    0  501 -0.00000000000E+00  0.00000000000E+00  0.10180906546E+04  0.10180906546E+04  0.00000000000E+00 0. -1.
          1   -1    0    0  502    0  0.00000000000E+00 -0.00000000000E+00 -0.12091619596E+04  0.12091619596E+04  0.00000000000E+00 0.  1.
    9000010    2    1    2  502    0  0.46908460721E+03 -0.11242919994E+03 -0.34407471185E+02  0.10996678694E+04  0.98762586804E+03 0.  0.
   -9000010    2    1    2    0  501 -0.46908460721E+03  0.11242919994E+03 -0.15666383379E+03  0.11275847447E+04  0.10070864441E+04 0.  0.
        -13    1    3    3    0    0  0.59021645166E+03  0.15932178134E+03  0.27506453619E+03  0.67037258301E+03  0.10566000000E+00 0.  1.
          4    1    3    3  502    0 -0.12113184445E+03 -0.27175098129E+03 -0.30947200738E+03  0.42929528640E+03  0.00000000000E+00 0.  1.
         13    1    4    4    0    0  0.10646649876E+02  0.22204050133E+03  0.35425356711E+03  0.41822354831E+03  0.10566000000E+00 0. -1.
         -4    1    4    4    0  501 -0.47973125709E+03 -0.10961130138E+03 -0.51091740091E+03  0.70936119641E+03  0.00000000000E+00 0. -1.
<mgrwt>
<rscale>  2 0.11078543E+04</rscale>
<asrwt>0</asrwt>
<pdfrwt beam="2">  1        1 0.18602492E+00 0.11078543E+04</pdfrwt>
<pdfrwt beam="1">  1       -1 0.15662933E+00 0.11078543E+04</pdfrwt>
<totfact> 0.47169930E+00</totfact>
</mgrwt>
</event>
<event>
 8    1  0.1373409E-005  0.1192841E+04  0.7818608E-02  0.8611973E-01
          2   -1    0    0  502    0  0.00000000000E+00  0.00000000000E+00  0.27469252981E+04  0.27469252981E+04  0.00000000000E+00 0.  1.
         -2   -1    0    0    0  501 -0.00000000000E+00 -0.00000000000E+00 -0.54633128403E+03  0.54633128403E+03  0.00000000000E+00 0. -1.
    9000010    2    1    2  502    0 -0.31698754104E+03  0.59256348283E+03  0.14482350137E+04  0.18583798874E+04  0.95109335440E+03 0.  0.
   -9000010    2    1    2    0  501  0.31698754104E+03 -0.59256348283E+03  0.75235900035E+03  0.14348766947E+04  0.10203991774E+04 0.  0.
        -13    1    3    3    0    0 -0.26414739118E+03  0.43213089093E+03  0.15703158834E+04  0.16499705864E+04  0.10566000000E+00 0.  1.
          4    1    3    3  502    0 -0.52840149861E+02  0.16043259190E+03 -0.12208086975E+03  0.20840930099E+03  0.00000000000E+00 0.  1.
         13    1    4    4    0    0  0.20822701737E+03  0.27045778233E+03  0.12970924776E+03  0.36514435899E+03  0.10566000000E+00 0. -1.
         -4    1    4    4    0  501  0.10876052367E+03 -0.86302126516E+03  0.62264975259E+03  0.10697323357E+04  0.00000000000E+00 0. -1.
<mgrwt>
<rscale>  2 0.11928411E+04</rscale>
<asrwt>0</asrwt>
<pdfrwt beam="1">  1        2 0.42260388E+00 0.11928411E+04</pdfrwt>
<pdfrwt beam="2">  1       -2 0.84050969E-01 0.11928411E+04</pdfrwt>
<totfact> 0.48070405E+00</totfact>
</mgrwt>
</event>
<event>
 8    1  0.1373409E-005  0.1912113E+04  0.7818608E-02  0.8205144E-01
          1   -1    0    0  502    0  0.00000000000E+00  0.00000000000E+00  0.11423672049E+04  0.11423672049E+04  0.00000000000E+00 0.  1.
         -1   -1    0    0    0  501 -0.00000000000E+00 -0.00000000000E+00 -0.35651898100E+04  0.35651898100E+04  0.00000000000E+00 0. -1.
    9000010    2    1    2  502    0 -0.15703088035E+04 -0.31364470575E+03 -0.47096015578E+03  0.19896858434E+04  0.10829605475E+04 0.  0.
   -9000010    2    1    2    0  501  0.15703088035E+04  0.31364470575E+03 -0.19518624494E+04  0.27178711714E+04  0.10063865776E+04 0.  0.
        -13    1    3    3    0    0  0.14648104517E+03 -0.14001368352E+03 -0.65695310838E+01  0.20274046973E+03  0.10566000000E+00 0.  1.
          4    1    3    3  502    0 -0.17167898486E+04 -0.17363102223E+03 -0.46439062470E+03  0.17869453737E+04  0.00000000000E+00 0.  1.
         13    1    4    4    0    0  0.73790574663E+03  0.42662474387E+03 -0.37498279545E+03  0.93119582851E+03  0.10566000000E+00 0. -1.
         -4    1    4    4    0  501  0.83240305684E+03 -0.11298003812E+03 -0.15768796539E+04  0.17866753429E+04  0.00000000000E+00 0. -1.
<mgrwt>
<rscale>  2 0.19121131E+04</rscale>
<asrwt>0</asrwt>
<pdfrwt beam="1">  1        1 0.17574880E+00 0.19121131E+04</pdfrwt>
<pdfrwt beam="2">  1       -1 0.54849073E+00 0.19121131E+04</pdfrwt>
<totfact> 0.84436093E-02</totfact>
</mgrwt>
</event>
<event>
 8    1  0.1373409E-005  0.1129413E+04  0.7818608E-02  0.8661700E-01
          2   -1    0    0  502    0  0.00000000000E+00  0.00000000000E+00  0.27719531480E+04  0.27719531480E+04  0.00000000000E+00 0. -1.
         -2   -1    0    0    0  501 -0.00000000000E+00 -0.00000000000E+00 -0.48533458898E+03  0.48533458898E+03  0.00000000000E+00 0.  1.
    9000010    2    1    2  502    0  0.80215117776E+02  0.48746490007E+03  0.14949295506E+04  0.18623232849E+04  0.99467440012E+03 0.  0.
   -9000010    2    1    2    0  501 -0.80215117776E+02 -0.48746490007E+03  0.79168900844E+03  0.13949644521E+04  0.10368692505E+04 0.  0.
        -13    1    3    3    0    0 -0.34292764366E+03  0.53477005897E+03  0.11522515393E+04  0.13157742989E+04  0.10566000000E+00 0.  1.
          4    1    3    3  502    0  0.42314276143E+03 -0.47305158904E+02  0.34267801129E+03  0.54654898594E+03  0.00000000000E+00 0.  1.
         13    1    4    4    0    0 -0.53190534919E+03 -0.37203334626E+03  0.62150801568E+03  0.89866808998E+03  0.10566000000E+00 0. -1.
         -4    1    4    4    0  501  0.45169023142E+03 -0.11543155381E+03  0.17018099276E+03  0.49629636214E+03  0.00000000000E+00 0. -1.
<mgrwt>
<rscale>  2 0.11294132E+04</rscale>
<asrwt>0</asrwt>
<pdfrwt beam="1">  1        2 0.42645432E+00 0.11294132E+04</pdfrwt>
<pdfrwt beam="2">  1       -2 0.74666861E-01 0.11294132E+04</pdfrwt>
<totfact> 0.60611005E+00</totfact>
</mgrwt>
</event>
<event>
 8    1  0.1373409E-005  0.1063182E+04  0.7818608E-02  0.8717390E-01
          2   -1    0    0  502    0  0.00000000000E+00  0.00000000000E+00  0.21655192383E+04  0.21655192383E+04  0.00000000000E+00 0.  1.
         -2   -1    0    0    0  501 -0.00000000000E+00 -0.00000000000E+00 -0.66720155645E+03  0.66720155645E+03  0.00000000000E+00 0. -1.
    9000010    2    1    2  502    0 -0.24763568523E+03 -0.31388511881E+03  0.82179848372E+02  0.10549124644E+04  0.97274841542E+03 0.  0.
   -9000010    2    1    2    0  501  0.24763568523E+03  0.31388511881E+03  0.14161378335E+04  0.17778083303E+04  0.99765164039E+03 0.  0.
        -13    1    3    3    0    0 -0.91263208524E+02  0.82246285241E+02 -0.39597545616E+03  0.41459618632E+03  0.10566000000E+00 0.  1.
          4    1    3    3  502    0 -0.15637247670E+03 -0.39613140405E+03  0.47815530453E+03  0.64031627810E+03  0.00000000000E+00 0.  1.
         13    1    4    4    0    0 -0.37023419236E+03  0.65242778901E+02  0.73269878328E+03  0.82351532807E+03  0.10566000000E+00 0. -1.
         -4    1    4    4    0  501  0.61786987758E+03  0.24864233991E+03  0.68343905020E+03  0.95429300226E+03  0.00000000000E+00 0. -1.
<mgrwt>
<rscale>  2 0.10631816E+04</rscale>
<asrwt>0</asrwt>
<pdfrwt beam="1">  1        2 0.33315680E+00 0.10631816E+04</pdfrwt>
<pdfrwt beam="2">  1       -2 0.10264639E+00 0.10631816E+04</pdfrwt>
<totfact> 0.64779912E+00</totfact>
</mgrwt>
</event>
<event>
 8    1  0.1373409E-005  0.1292443E+04  0.7818608E-02  0.8540022E-01
          4   -1    0    0  502    0  0.00000000000E+00  0.00000000000E+00  0.99169008667E+03  0.99169008667E+03  0.00000000000E+00 0. -1.
         -4   -1    0    0    0  501 -0.00000000000E+00 -0.00000000000E+00 -0.18232871403E+04  0.18232871403E+04  0.00000000000E+00 0.  1.
    9000010    2    1    2  502    0 -0.60877032865E+03 -0.48049629768E+03 -0.80428639628E+03  0.15223659032E+04  0.10340422288E+04 0.  0.
   -9000010    2    1    2    0  501  0.60877032865E+03  0.48049629768E+03 -0.27310657304E+02  0.12926113237E+04  0.10337408559E+04 0.  0.
        -13    1    3    3    0    0  0.89380505211E+01 -0.15219376070E+03 -0.80857269007E+03  0.82281992917E+03  0.10566000000E+00 0.  1.
          4    1    3    3  502    0 -0.61770837917E+03 -0.32830253698E+03  0.42862937843E+01  0.69954597404E+03  0.00000000000E+00 0.  1.
         13    1    4    4    0    0  0.59705509156E+03  0.74598112559E+03 -0.19931734554E+03  0.97605841910E+03  0.10566000000E+00 0. -1.
         -4    1    4    4    0  501  0.11715237087E+02 -0.26548482791E+03  0.17200668824E+03  0.31655290463E+03  0.00000000000E+00 0. -1.
<mgrwt>
<rscale>  2 0.12924433E+04</rscale>
<asrwt>0</asrwt>
<pdfrwt beam="1">  1        4 0.15256771E+00 0.12924433E+04</pdfrwt>
<pdfrwt beam="2">  1       -4 0.28050571E+00 0.12924433E+04</pdfrwt>
<totfact> 0.16548064E-01</totfact>
</mgrwt>
</event>
<event>
 8    1  0.1373409E-005  0.2036890E+04  0.7818608E-02  0.8153536E-01
         -2   -1    0    0    0  501 -0.00000000000E+00  0.00000000000E+00  0.13613009979E+04  0.13613009979E+04  0.00000000000E+00 0. -1.
          2   -1    0    0  502    0  0.00000000000E+00 -0.00000000000E+00 -0.32191386285E+04  0.32191386285E+04  0.00000000000E+00 0.  1.
    9000010    2    1    2  502    0 -0.39203669149E+03  0.17038832341E+04 -0.39138561089E+03  0.20521914231E+04  0.10006978054E+04 0.  0.
   -9000010    2    1    2    0  501  0.39203669149E+03 -0.17038832341E+04 -0.14664520197E+04  0.25282482032E+04  0.10884147225E+04 0.  0.
        -13    1    3    3    0    0  0.23735963661E+03  0.11222827692E+04 -0.12046719648E+03  0.11534169097E+04  0.10566000000E+00 0.  1.
          4    1    3    3  502    0 -0.62939632810E+03  0.58160046498E+03 -0.27091841441E+03  0.89877451341E+03  0.00000000000E+00 0.  1.
         13    1    4    4    0    0  0.22773942551E+03  0.13810493370E+02  0.47100791201E+02  0.23296882057E+03  0.10566000000E+00 0. -1.
         -4    1    4    4    0  501  0.16429726598E+03 -0.17176937275E+04 -0.15135528109E+04  0.22952793827E+04  0.00000000000E+00 0. -1.
<mgrwt>
<rscale>  2 0.20368899E+04</rscale>
<asrwt>0</asrwt>
<pdfrwt beam="2">  1        2 0.49525209E+00 0.20368899E+04</pdfrwt>
<pdfrwt beam="1">  1       -2 0.20943093E+00 0.20368899E+04</pdfrwt>
<totfact> 0.15669763E-01</totfact>
</mgrwt>
</event>
<event>
 8    1  0.1373409E-005  0.1879950E+04  0.7818608E-02  0.8219101E-01
          2   -1    0    0  502    0  0.00000000000E+00  0.00000000000E+00  0.18226621008E+04  0.18226621008E+04  0.00000000000E+00 0. -1.
         -2   -1    0    0    0  501 -0.00000000000E+00 -0.00000000000E+00 -0.25762763424E+04  0.25762763424E+04  0.00000000000E+00 0.  1.
    9000010    2    1    2  502    0  0.10867625014E+04  0.11633175506E+04  0.71596275332E+03  0.20184161858E+04  0.10134302033E+04 0.  0.
   -9000010    2    1    2    0  501 -0.10867625014E+04 -0.11633175506E+04 -0.14695769949E+04  0.23805222573E+04  0.98634132801E+03 0.  0.
        -13    1    3    3    0    0  0.47562403727E+03  0.11791023296E+04  0.54748701279E+03  0.13842841359E+04  0.10566000000E+00 0.  1.
          4    1    3    3  502    0  0.61113846416E+03 -0.15784778958E+02  0.16847574052E+03  0.63413204994E+03  0.00000000000E+00 0.  1.
         13    1    4    4    0    0 -0.57981801150E+03 -0.32821719044E+03 -0.64755910400E+02  0.66940928412E+03  0.10566000000E+00 0. -1.
         -4    1    4    4    0  501 -0.50694448993E+03 -0.83510036020E+03 -0.14048210845E+04  0.17111129732E+04  0.00000000000E+00 0. -1.
<mgrwt>
<rscale>  2 0.18799499E+04</rscale>
<asrwt>0</asrwt>
<pdfrwt beam="1">  1        2 0.28040955E+00 0.18799499E+04</pdfrwt>
<pdfrwt beam="2">  1       -2 0.39635021E+00 0.18799499E+04</pdfrwt>
<totfact> 0.47204566E-02</totfact>
</mgrwt>
</event>
<event>
 8    1  0.1373409E-005  0.1196065E+04  0.7818608E-02  0.8609532E-01
          2   -1    0    0  502    0  0.00000000000E+00  0.00000000000E+00  0.18546213437E+04  0.18546213437E+04  0.00000000000E+00 0.  1.
         -2   -1    0    0    0  501 -0.00000000000E+00 -0.00000000000E+00 -0.78362894904E+03  0.78362894904E+03  0.00000000000E+00 0. -1.
    9000010    2    1    2  502    0  0.26037344965E+03  0.58012640408E+03  0.36309037664E+03  0.12310699504E+04  0.98962499123E+03 0.  0.
   -9000010    2    1    2    0  501 -0.26037344965E+03 -0.58012640408E+03  0.70790201800E+03  0.14071803423E+04  0.10366726921E+04 0.  0.
        -13    1    3    3    0    0 -0.76266686565E+02 -0.25578569695E+03  0.23089889916E+02  0.26791059035E+03  0.10566000000E+00 0.  1.
          4    1    3    3  502    0  0.33664013621E+03  0.83591210103E+03  0.34000048672E+03  0.96315936009E+03  0.00000000000E+00 0.  1.
         13    1    4    4    0    0 -0.18416806748E+03 -0.65462650369E+03  0.93510008397E+03  0.11562291791E+04  0.10566000000E+00 0. -1.
         -4    1    4    4    0  501 -0.76205382173E+02  0.74500099605E+02 -0.22719806598E+03  0.25095116317E+03  0.00000000000E+00 0. -1.
<mgrwt>
<rscale>  2 0.11960648E+04</rscale>
<asrwt>0</asrwt>
<pdfrwt beam="1">  1        2 0.28532636E+00 0.11960648E+04</pdfrwt>
<pdfrwt beam="2">  1       -2 0.12055830E+00 0.11960648E+04</pdfrwt>
<totfact> 0.62750114E+00</totfact>
</mgrwt>
</event>
<event>
 8    1  0.1373409E-005  0.1108289E+04  0.7818608E-02  0.8679020E-01
          2   -1    0    0  502    0  0.00000000000E+00  0.00000000000E+00  0.30667369103E+04  0.30667369103E+04  0.00000000000E+00 0.  1.
         -2   -1    0    0    0  501 -0.00000000000E+00 -0.00000000000E+00 -0.42414129013E+03  0.42414129013E+03  0.00000000000E+00 0. -1.
    9000010    2    1    2  502    0 -0.28859166424E+03  0.39700405663E+03  0.88587121791E+03  0.14016934992E+04  0.96906113398E+03 0.  0.
   -9000010    2    1    2    0  501  0.28859166424E+03 -0.39700405663E+03  0.17567244023E+04  0.20891847013E+04  0.10186828361E+04 0.  0.
        -13    1    3    3    0    0 -0.25880134972E+02  0.24805608026E+03 -0.17108281245E+03  0.30244163110E+03  0.10566000000E+00 0.  1.
          4    1    3    3  502    0 -0.26271152927E+03  0.14894797637E+03  0.10569540304E+04  0.10992518681E+04  0.00000000000E+00 0.  1.
         13    1    4    4    0    0  0.45891535324E+03 -0.16447035673E+03  0.17326687617E+04  0.17999430126E+04  0.10566000000E+00 0. -1.
         -4    1    4    4    0  501 -0.17032368900E+03 -0.23253369991E+03  0.24055640642E+02  0.28924168868E+03  0.00000000000E+00 0. -1.
<mgrwt>
<rscale>  2 0.11082891E+04</rscale>
<asrwt>0</asrwt>
<pdfrwt beam="1">  1        2 0.47180566E+00 0.11082891E+04</pdfrwt>
<pdfrwt beam="2">  1       -2 0.65252508E-01 0.11082891E+04</pdfrwt>
<totfact> 0.53332376E+00</totfact>
</mgrwt>
</event>
<event>
 8    1  0.1373409E-005  0.1604403E+04  0.7818608E-02  0.8351825E-01
         -2   -1    0    0    0  501 -0.00000000000E+00  0.00000000000E+00  0.95728660903E+03  0.95728660903E+03  0.00000000000E+00 0.  1.
          2   -1    0    0  502    0  0.00000000000E+00 -0.00000000000E+00 -0.35063823848E+04  0.35063823848E+04  0.00000000000E+00 0. -1.
    9000010    2    1    2  502    0  0.97238143043E+03  0.79863498201E+03 -0.20254849581E+03  0.16261582687E+04  0.10099610592E+04 0.  0.
   -9000010    2    1    2    0  501 -0.97238143043E+03 -0.79863498201E+03 -0.23465472800E+04  0.28375107251E+04  0.98073416236E+03 0.  0.
        -13    1    3    3    0    0  0.27694710591E+02  0.92152949757E+02 -0.41632854608E+03  0.42730391127E+03  0.10566000000E+00 0.  1.
          4    1    3    3  502    0  0.94468671984E+03  0.70648203225E+03  0.21378005027E+03  0.11988543575E+04  0.00000000000E+00 0.  1.
         13    1    4    4    0    0 -0.99088094360E+03 -0.84273971343E+03 -0.14830366758E+04  0.19726766237E+04  0.10566000000E+00 0. -1.
         -4    1    4    4    0  501  0.18499513171E+02  0.44104731426E+02 -0.86351060421E+03  0.86483410138E+03  0.00000000000E+00 0. -1.
<mgrwt>
<rscale>  2 0.16044032E+04</rscale>
<asrwt>0</asrwt>
<pdfrwt beam="2">  1        2 0.53944346E+00 0.16044032E+04</pdfrwt>
<pdfrwt beam="1">  1       -2 0.14727486E+00 0.16044032E+04</pdfrwt>
<totfact> 0.34820648E-01</totfact>
</mgrwt>
</event>
<event>
 8    1  0.1373409E-005  0.1197084E+04  0.7818608E-02  0.8608762E-01
          1   -1    0    0  502    0  0.00000000000E+00  0.00000000000E+00  0.13035230032E+04  0.13035230032E+04  0.00000000000E+00 0.  1.
         -1   -1    0    0    0  501 -0.00000000000E+00 -0.00000000000E+00 -0.11484015825E+04  0.11484015825E+04  0.00000000000E+00 0. -1.
    9000010    2    1    2  502    0 -0.48040199186E+03  0.44045635185E+03 -0.17417776683E+03  0.12267692340E+04  0.10246155314E+04 0.  0.
   -9000010    2    1    2    0  501  0.48040199186E+03 -0.44045635185E+03  0.32929918748E+03  0.12251553518E+04  0.98375800349E+03 0.  0.
        -13    1    3    3    0    0 -0.67639787928E+03  0.24226163407E+03 -0.43925609748E+03  0.84211087201E+03  0.10566000000E+00 0.  1.
          4    1    3    3  502    0  0.19599588741E+03  0.19819471778E+03  0.26507833065E+03  0.38465836195E+03  0.00000000000E+00 0.  1.
         13    1    4    4    0    0  0.53383655319E+03 -0.10647958209E+03 -0.21422443426E+03  0.58498844973E+03  0.10566000000E+00 0. -1.
         -4    1    4    4    0  501 -0.53434561321E+02 -0.33397676975E+03  0.54352362174E+03  0.64016690204E+03  0.00000000000E+00 0. -1.
<mgrwt>
<rscale>  2 0.11970836E+04</rscale>
<asrwt>0</asrwt>
<pdfrwt beam="1">  1        1 0.20054200E+00 0.11970836E+04</pdfrwt>
<pdfrwt beam="2">  1       -1 0.17667717E+00 0.11970836E+04</pdfrwt>
<totfact> 0.26473597E+00</totfact>
</mgrwt>
</event>
<event>
 8    1  0.1373409E-005  0.1613109E+04  0.7818608E-02  0.8347222E-01
          2   -1    0    0  502    0  0.00000000000E+00  0.00000000000E+00  0.19259432420E+04  0.19259432420E+04  0.00000000000E+00 0. -1.
         -2   -1    0    0    0  501 -0.00000000000E+00 -0.00000000000E+00 -0.13534775549E+04  0.13534775549E+04  0.00000000000E+00 0.  1.
    9000010    2    1    2  502    0  0.17659772768E+03 -0.12552063627E+04  0.35591482278E+03  0.16578706590E+04  0.10075365951E+04 0.  0.
   -9000010    2    1    2    0  501 -0.17659772768E+03  0.12552063627E+04  0.21655086436E+03  0.16215501379E+04  0.98782630188E+03 0.  0.
        -13    1    3    3    0    0  0.57917644839E+03 -0.95531867037E+03  0.25114752736E+03  0.11450564231E+04  0.10566000000E+00 0.  1.
          4    1    3    3  502    0 -0.40257872071E+03 -0.29988769229E+03  0.10476729542E+03  0.51281423590E+03  0.00000000000E+00 0.  1.
         13    1    4    4    0    0 -0.58931591343E+03  0.75434512023E+03  0.15376438480E+03  0.96952220368E+03  0.10566000000E+00 0. -1.
         -4    1    4    4    0  501  0.41271818575E+03  0.50086124243E+03  0.62786479559E+02  0.65202793425E+03  0.00000000000E+00 0. -1.
<mgrwt>
<rscale>  2 0.16131091E+04</rscale>
<asrwt>0</asrwt>
<pdfrwt beam="1">  1        2 0.29629896E+00 0.16131091E+04</pdfrwt>
<pdfrwt beam="2">  1       -2 0.20822732E+00 0.16131091E+04</pdfrwt>
<totfact> 0.95279751E-01</totfact>
</mgrwt>
</event>
<event>
 8    1  0.1373409E-005  0.1332564E+04  0.7818608E-02  0.8512909E-01
         -2   -1    0    0    0  501 -0.00000000000E+00  0.00000000000E+00  0.37103518927E+04  0.37103518927E+04  0.00000000000E+00 0.  1.
          2   -1    0    0  502    0  0.00000000000E+00 -0.00000000000E+00 -0.51702606570E+03  0.51702606570E+03  0.00000000000E+00 0. -1.
    9000010    2    1    2  502    0  0.85737870190E+03  0.15259976671E+03  0.97518883365E+03  0.16161121091E+04  0.94996850513E+03 0.  0.
   -9000010    2    1    2    0  501 -0.85737870190E+03 -0.15259976671E+03  0.22181369934E+04  0.26112658493E+04  0.10677980553E+04 0.  0.
        -13    1    3    3    0    0  0.40171919358E+03 -0.37109435923E+03  0.21762896876E+03  0.58860148925E+03  0.10566000000E+00 0.  1.
          4    1    3    3  502    0  0.45565950832E+03  0.52369412594E+03  0.75755986490E+03  0.10275106199E+04  0.00000000000E+00 0.  1.
         13    1    4    4    0    0 -0.63559620486E+03  0.41876769678E+03  0.13248732321E+04  0.15279522282E+04  0.10566000000E+00 0. -1.
         -4    1    4    4    0  501 -0.22178249704E+03 -0.57136746349E+03  0.89326376128E+03  0.10833136210E+04  0.00000000000E+00 0. -1.
<mgrwt>
<rscale>  2 0.13325640E+04</rscale>
<asrwt>0</asrwt>
<pdfrwt beam="2">  1        2 0.79542474E-01 0.13325640E+04</pdfrwt>
<pdfrwt beam="1">  1       -2 0.57082335E+00 0.13325640E+04</pdfrwt>
<totfact> 0.39069432E-01</totfact>
</mgrwt>
</event>
<event>
 8    1  0.1373409E-005  0.1101488E+04  0.7818608E-02  0.8684682E-01
         -1   -1    0    0    0  501 -0.00000000000E+00  0.00000000000E+00  0.21366503165E+04  0.21366503165E+04  0.00000000000E+00 0. -1.
          1   -1    0    0  502    0  0.00000000000E+00 -0.00000000000E+00 -0.59208464806E+03  0.59208464806E+03  0.00000000000E+00 0.  1.
    9000010    2    1    2  502    0  0.49614652214E+03  0.11593594308E+03  0.10518525321E+04  0.15268872944E+04  0.98254188016E+03 0.  0.
   -9000010    2    1    2    0  501 -0.49614652214E+03 -0.11593594308E+03  0.49271313636E+03  0.12018476702E+04  0.97060242797E+03 0.  0.
        -13    1    3    3    0    0  0.33115111441E+03 -0.92684299046E+02 -0.89189181201E+02  0.35525506481E+03  0.10566000000E+00 0.  1.
          4    1    3    3  502    0  0.16499540772E+03  0.20862024213E+03  0.11410417133E+04  0.11716322296E+04  0.00000000000E+00 0.  1.
         13    1    4    4    0    0 -0.63533145701E+03 -0.28448290743E+03  0.63401247364E+03  0.94156699856E+03  0.10566000000E+00 0. -1.
         -4    1    4    4    0  501  0.13918493487E+03  0.16854696435E+03 -0.14129933728E+03  0.26028067159E+03  0.00000000000E+00 0. -1.
<mgrwt>
<rscale>  2 0.11014878E+04</rscale>
<asrwt>0</asrwt>
<pdfrwt beam="2">  1        1 0.91089947E-01 0.11014878E+04</pdfrwt>
<pdfrwt beam="1">  1       -1 0.32871543E+00 0.11014878E+04</pdfrwt>
<totfact> 0.49038471E-01</totfact>
</mgrwt>
</event>
<event>
 8    1  0.1373409E-005  0.1188189E+04  0.7818608E-02  0.8615510E-01
          2   -1    0    0  502    0  0.00000000000E+00  0.00000000000E+00  0.18973333139E+04  0.18973333139E+04  0.00000000000E+00 0.  1.
         -2   -1    0    0    0  501 -0.00000000000E+00 -0.00000000000E+00 -0.87169157633E+03  0.87169157633E+03  0.00000000000E+00 0. -1.
    9000010    2    1    2  502    0 -0.13157858628E+03  0.66526808314E+03  0.10342764787E+04  0.15597113590E+04  0.95030371047E+03 0.  0.
   -9000010    2    1    2    0  501  0.13157858628E+03 -0.66526808314E+03 -0.86347411968E+01  0.12093135312E+04  0.10012342938E+04 0.  0.
        -13    1    3    3    0    0  0.11919805140E+03 -0.20367743379E+03  0.91051523002E+02  0.25294873690E+03  0.10566000000E+00 0.  1.
          4    1    3    3  502    0 -0.25077663768E+03  0.86894551693E+03  0.94322495572E+03  0.13067626221E+04  0.00000000000E+00 0.  1.
         13    1    4    4    0    0 -0.14683636449E+03 -0.26249062371E+03 -0.45588102044E+03  0.54615909901E+03  0.10566000000E+00 0. -1.
         -4    1    4    4    0  501  0.27841495077E+03 -0.40277745943E+03  0.44724627924E+03  0.66315443219E+03  0.00000000000E+00 0. -1.
<mgrwt>
<rscale>  2 0.11881893E+04</rscale>
<asrwt>0</asrwt>
<pdfrwt beam="1">  1        2 0.29189743E+00 0.11881893E+04</pdfrwt>
<pdfrwt beam="2">  1       -2 0.13410640E+00 0.11881893E+04</pdfrwt>
<totfact> 0.44458753E+00</totfact>
</mgrwt>
</event>
<event>
 8    1  0.1373409E-005  0.1215284E+04  0.7818608E-02  0.8595141E-01
         -2   -1    0    0    0  501 -0.00000000000E+00  0.00000000000E+00  0.51264359350E+03  0.51264359350E+03  0.00000000000E+00 0. -1.
          2   -1    0    0  502    0  0.00000000000E+00 -0.00000000000E+00 -0.32500310889E+04  0.32500310889E+04  0.00000000000E+00 0.  1.
    9000010    2    1    2  502    0  0.34130356918E+01  0.69692437156E+03 -0.72450366804E+03  0.14059345316E+04  0.98286881815E+03 0.  0.
   -9000010    2    1    2    0  501 -0.34130356918E+01 -0.69692437156E+03 -0.20128838273E+04  0.23567401508E+04  0.10083687854E+04 0.  0.
        -13    1    3    3    0    0 -0.13337012359E+03  0.39981408695E+03  0.16926860227E+03  0.45419243154E+03  0.10566000000E+00 0.  1.
          4    1    3    3  502    0  0.13678315928E+03  0.29711028461E+03 -0.89377227030E+03  0.95174210007E+03  0.00000000000E+00 0.  1.
         13    1    4    4    0    0  0.23710394794E+03 -0.14501119942E+03 -0.24269165186E+02  0.27899020347E+03  0.10566000000E+00 0. -1.
         -4    1    4    4    0  501 -0.24051698364E+03 -0.55191317214E+03 -0.19886146622E+04  0.20777499473E+04  0.00000000000E+00 0. -1.
<mgrwt>
<rscale>  2 0.12152845E+04</rscale>
<asrwt>0</asrwt>
<pdfrwt beam="2">  1        2 0.50000478E+00 0.12152845E+04</pdfrwt>
<pdfrwt beam="1">  1       -2 0.78868246E-01 0.12152845E+04</pdfrwt>
<totfact> 0.26919243E+00</totfact>
</mgrwt>
</event>
<event>
 8    1  0.1373409E-005  0.1249695E+04  0.7818608E-02  0.8570052E-01
          1   -1    0    0  502    0  0.00000000000E+00  0.00000000000E+00  0.14499669656E+04  0.14499669656E+04  0.00000000000E+00 0.  1.
         -1   -1    0    0    0  501 -0.00000000000E+00 -0.00000000000E+00 -0.11687971432E+04  0.11687971432E+04  0.00000000000E+00 0. -1.
    9000010    2    1    2  502    0  0.62128556964E+03  0.41965945297E+03 -0.22627592277E+03  0.12692786814E+04  0.99887825198E+03 0.  0.
   -9000010    2    1    2    0  501 -0.62128556964E+03 -0.41965945297E+03  0.50744574515E+03  0.13494854274E+04  0.10007496785E+04 0.  0.
        -13    1    3    3    0    0  0.49737687975E+03  0.65208071376E+03  0.12566882339E+03  0.82969011209E+03  0.10566000000E+00 0.  1.
          4    1    3    3  502    0  0.12390868989E+03 -0.23242126079E+03 -0.35194474617E+03  0.43958856929E+03  0.00000000000E+00 0.  1.
         13    1    4    4    0    0 -0.51519619476E+03 -0.66568294025E+03  0.63338373137E+03  0.10534400118E+04  0.10566000000E+00 0. -1.
         -4    1    4    4    0  501 -0.10608937488E+03  0.24602348728E+03 -0.12593798622E+03  0.29604541566E+03  0.00000000000E+00 0. -1.
<mgrwt>
<rscale>  2 0.12496950E+04</rscale>
<asrwt>0</asrwt>
<pdfrwt beam="1">  1        1 0.22307184E+00 0.12496950E+04</pdfrwt>
<pdfrwt beam="2">  1       -1 0.17981495E+00 0.12496950E+04</pdfrwt>
<totfact> 0.19177025E+00</totfact>
</mgrwt>
</event>
<event>
 8    1  0.1373409E-005  0.1232117E+04  0.7818608E-02  0.8582762E-01
         -2   -1    0    0    0  501 -0.00000000000E+00  0.00000000000E+00  0.15493293357E+04  0.15493293357E+04  0.00000000000E+00 0.  1.
          2   -1    0    0  502    0  0.00000000000E+00 -0.00000000000E+00 -0.10071448114E+04  0.10071448114E+04  0.00000000000E+00 0. -1.
    9000010    2    1    2  502    0  0.52360142721E+03 -0.47053829330E+03  0.62053991404E+02  0.12397175583E+04  0.10185696768E+04 0.  0.
   -9000010    2    1    2    0  501 -0.52360142721E+03  0.47053829330E+03  0.48013053287E+03  0.13167565888E+04  0.10038714288E+04 0.  0.
        -13    1    3    3    0    0  0.61288808768E+03  0.10642132589E+03 -0.10858322812E+03  0.63146467456E+03  0.10566000000E+00 0.  1.
          4    1    3    3  502    0 -0.89286660470E+02 -0.57695961918E+03  0.17063721953E+03  0.60825288375E+03  0.00000000000E+00 0.  1.
         13    1    4    4    0    0 -0.44502609639E+03 -0.24370820803E+03  0.20912307251E+03  0.54879357481E+03  0.10566000000E+00 0. -1.
         -4    1    4    4    0  501 -0.78575330827E+02  0.71424650133E+03  0.27100746035E+03  0.76796301398E+03  0.00000000000E+00 0. -1.
<mgrwt>
<rscale>  2 0.12321173E+04</rscale>
<asrwt>0</asrwt>
<pdfrwt beam="2">  1        2 0.15494536E+00 0.12321173E+04</pdfrwt>
<pdfrwt beam="1">  1       -2 0.23835836E+00 0.12321173E+04</pdfrwt>
<totfact> 0.18465316E+00</totfact>
</mgrwt>
</event>
<event>
 8    1  0.1373409E-005  0.1197675E+04  0.7818608E-02  0.8608315E-01
          1   -1    0    0  502    0  0.00000000000E+00  0.00000000000E+00  0.60649961571E+03  0.60649961571E+03  0.00000000000E+00 0. -1.
         -1   -1    0    0    0  501 -0.00000000000E+00 -0.00000000000E+00 -0.26133874799E+04  0.26133874799E+04  0.00000000000E+00 0.  1.
    9000010    2    1    2  502    0  0.18038431602E+03 -0.63736095843E+03 -0.14961837548E+04  0.19136551005E+04  0.99234193838E+03 0.  0.
   -9000010    2    1    2    0  501 -0.18038431602E+03  0.63736095843E+03 -0.51070410941E+03  0.13062319952E+04  0.10033224033E+04 0.  0.
        -13    1    3    3    0    0  0.14333374353E+03  0.13946343868E+03 -0.93108387968E+03  0.95231917703E+03  0.10566000000E+00 0.  1.
          4    1    3    3  502    0  0.37050572491E+02 -0.77682439711E+03 -0.56509987515E+03  0.96133592347E+03  0.00000000000E+00 0.  1.
         13    1    4    4    0    0  0.32987044347E+03  0.24550380323E+03  0.95632330650E+02  0.42217553304E+03  0.10566000000E+00 0. -1.
         -4    1    4    4    0  501 -0.51025475949E+03  0.39185715520E+03 -0.60633644006E+03  0.88405646211E+03  0.00000000000E+00 0. -1.
<mgrwt>
<rscale>  2 0.11976748E+04</rscale>
<asrwt>0</asrwt>
<pdfrwt beam="1">  1        1 0.93307633E-01 0.11976748E+04</pdfrwt>
<pdfrwt beam="2">  1       -1 0.40205961E+00 0.11976748E+04</pdfrwt>
<totfact> 0.52189846E-01</totfact>
</mgrwt>
</event>
<event>
 8    1  0.1373409E-005  0.1141115E+04  0.7818608E-02  0.8652274E-01
         -4   -1    0    0    0  501 -0.00000000000E+00  0.00000000000E+00  0.59416372729E+03  0.59416372729E+03  0.00000000000E+00 0. -1.
          4   -1    0    0  502    0  0.00000000000E+00 -0.00000000000E+00 -0.22123889149E+04  0.22123889149E+04  0.00000000000E+00 0.  1.
    9000010    2    1    2  502    0  0.49771021493E+02  0.57773875275E+03 -0.66085833239E+03  0.13010571309E+04  0.95903946807E+03 0.  0.
   -9000010    2    1    2    0  501 -0.49771021493E+02 -0.57773875275E+03 -0.95736685525E+03  0.15054955113E+04  0.10068297861E+04 0.  0.
        -13    1    3    3    0    0  0.15044652722E+02  0.69710752071E+03 -0.74011149424E+02  0.70118677855E+03  0.10566000000E+00 0.  1.
          4    1    3    3  502    0  0.34726368771E+02 -0.11936876796E+03 -0.58684718296E+03  0.59987035233E+03  0.00000000000E+00 0.  1.
         13    1    4    4    0    0  0.24023142014E+03 -0.62216419216E+03 -0.20465330798E+03  0.69762626446E+03  0.10566000000E+00 0. -1.
         -4    1    4    4    0  501 -0.29000244164E+03  0.44425439410E+02 -0.75271354727E+03  0.80786924688E+03  0.00000000000E+00 0. -1.
<mgrwt>
<rscale>  2 0.11411151E+04</rscale>
<asrwt>0</asrwt>
<pdfrwt beam="2">  1        4 0.34036752E+00 0.11411151E+04</pdfrwt>
<pdfrwt beam="1">  1       -4 0.91409806E-01 0.11411151E+04</pdfrwt>
<totfact> 0.27399383E-01</totfact>
</mgrwt>
</event>
<event>
 8    1  0.1373409E-005  0.1476061E+04  0.7818608E-02  0.8423411E-01
          4   -1    0    0  502    0  0.00000000000E+00  0.00000000000E+00  0.22451408241E+04  0.22451408241E+04  0.00000000000E+00 0.  1.
         -4   -1    0    0    0  501 -0.00000000000E+00 -0.00000000000E+00 -0.10713829551E+04  0.10713829551E+04  0.00000000000E+00 0. -1.
    9000010    2    1    2  502    0  0.61704118956E+03 -0.86506151498E+03  0.74016066046E+02  0.14668829030E+04  0.10085612617E+04 0.  0.
   -9000010    2    1    2    0  501 -0.61704118956E+03  0.86506151498E+03  0.10997418029E+04  0.18496408762E+04  0.10405133750E+04 0.  0.
        -13    1    3    3    0    0  0.30816632742E+03 -0.17444586994E+03  0.48919128534E+03  0.60390891011E+03  0.10566000000E+00 0.  1.
          4    1    3    3  502    0  0.30887486214E+03 -0.69061564504E+03 -0.41517521929E+03  0.86297399286E+03  0.00000000000E+00 0.  1.
         13    1    4    4    0    0 -0.55690199964E+02  0.69605800091E+03  0.10504056469E+04  0.12613287332E+04  0.10566000000E+00 0. -1.
         -4    1    4    4    0  501 -0.56135098959E+03  0.16900351408E+03  0.49336156005E+02  0.58831214298E+03  0.00000000000E+00 0. -1.
<mgrwt>
<rscale>  2 0.14760614E+04</rscale>
<asrwt>0</asrwt>
<pdfrwt beam="1">  1        4 0.34540628E+00 0.14760614E+04</pdfrwt>
<pdfrwt beam="2">  1       -4 0.16482815E+00 0.14760614E+04</pdfrwt>
<totfact> 0.96010284E-02</totfact>
</mgrwt>
</event>
<event>
 8    1  0.1373409E-005  0.1647946E+04  0.7818608E-02  0.8329099E-01
         -2   -1    0    0    0  501 -0.00000000000E+00  0.00000000000E+00  0.14363371846E+04  0.14363371846E+04  0.00000000000E+00 0. -1.
          2   -1    0    0  502    0  0.00000000000E+00 -0.00000000000E+00 -0.19206725815E+04  0.19206725815E+04  0.00000000000E+00 0.  1.
    9000010    2    1    2  502    0  0.99748741690E+03  0.84080976168E+03 -0.33131988824E+02  0.16517967848E+04  0.10126167524E+04 0.  0.
   -9000010    2    1    2    0  501 -0.99748741690E+03 -0.84080976168E+03 -0.45120340803E+03  0.17052129813E+04  0.10011116790E+04 0.  0.
        -13    1    3    3    0    0  0.28394931147E+03 -0.18225121626E+03 -0.20177268410E+03  0.39313476637E+03  0.10566000000E+00 0.  1.
          4    1    3    3  502    0  0.71353810543E+03  0.10230609779E+04  0.16864069528E+03  0.12586620184E+04  0.00000000000E+00 0.  1.
         13    1    4    4    0    0 -0.57702409402E+03 -0.61196590235E+03 -0.76160394111E+03  0.11346804154E+04  0.10566000000E+00 0. -1.
         -4    1    4    4    0  501 -0.42046332287E+03 -0.22884385934E+03  0.31040053308E+03  0.57053256592E+03  0.00000000000E+00 0. -1.
<mgrwt>
<rscale>  2 0.16479460E+04</rscale>
<asrwt>0</asrwt>
<pdfrwt beam="2">  1        2 0.29548809E+00 0.16479460E+04</pdfrwt>
<pdfrwt beam="1">  1       -2 0.22097495E+00 0.16479460E+04</pdfrwt>
<totfact> 0.75118623E-01</totfact>
</mgrwt>
</event>
<event>
 8    1  0.1373409E-005  0.1443454E+04  0.7818608E-02  0.8442804E-01
         -2   -1    0    0    0  501 -0.00000000000E+00  0.00000000000E+00  0.11579785617E+04  0.11579785617E+04  0.00000000000E+00 0.  1.
          2   -1    0    0  502    0  0.00000000000E+00 -0.00000000000E+00 -0.26834981481E+04  0.26834981481E+04  0.00000000000E+00 0. -1.
    9000010    2    1    2  502    0  0.89508517733E+03 -0.53916236850E+03 -0.18649661208E+04  0.23577588407E+04  0.99451223460E+03 0.  0.
   -9000010    2    1    2    0  501 -0.89508517733E+03  0.53916236850E+03  0.33944653442E+03  0.14837178692E+04  0.99715657310E+03 0.  0.
        -13    1    3    3    0    0  0.74159597783E+03  0.38702245502E+02 -0.14526973551E+04  0.16314999463E+04  0.10566000000E+00 0.  1.
          4    1    3    3  502    0  0.15348919950E+03 -0.57786461400E+03 -0.41226876573E+03  0.72625889439E+03  0.00000000000E+00 0.  1.
         13    1    4    4    0    0 -0.11167239996E+04  0.46697230376E+03  0.26587712896E+03  0.12392845850E+04  0.10566000000E+00 0. -1.
         -4    1    4    4    0  501  0.22163882227E+03  0.72190064742E+02  0.73569405465E+02  0.24443328416E+03  0.00000000000E+00 0. -1.
<mgrwt>
<rscale>  2 0.14434541E+04</rscale>
<asrwt>0</asrwt>
<pdfrwt beam="2">  1        2 0.41284586E+00 0.14434541E+04</pdfrwt>
<pdfrwt beam="1">  1       -2 0.17815055E+00 0.14434541E+04</pdfrwt>
<totfact> 0.65206527E-01</totfact>
</mgrwt>
</event>
<event>
 8    1  0.1373409E-005  0.1324156E+04  0.7818608E-02  0.8518509E-01
          2   -1    0    0  502    0  0.00000000000E+00  0.00000000000E+00  0.13901686880E+04  0.13901686880E+04  0.00000000000E+00 0.  1.
         -2   -1    0    0    0  501 -0.00000000000E+00 -0.00000000000E+00 -0.14383383132E+04  0.14383383132E+04  0.00000000000E+00 0. -1.
    9000010    2    1    2  502    0  0.84340206346E+03  0.27497622711E+03 -0.52030135024E+03  0.14237309096E+04  0.98455941512E+03 0.  0.
   -9000010    2    1    2    0  501 -0.84340206346E+03 -0.27497622711E+03  0.47213172508E+03  0.14047760916E+04  0.98160508122E+03 0.  0.
        -13    1    3    3    0    0  0.10443831217E+04  0.19677653690E+03 -0.27630738302E+03  0.10980905661E+04  0.10566000000E+00 0.  1.
          4    1    3    3  502    0 -0.20098105820E+03  0.78199690204E+02 -0.24399396723E+03  0.32564034355E+03  0.00000000000E+00 0.  1.
         13    1    4    4    0    0 -0.85429091902E+03 -0.23700043152E+03 -0.43509800129E+02  0.88762339578E+03  0.10566000000E+00 0. -1.
         -4    1    4    4    0  501  0.10888855567E+02 -0.37975795583E+02  0.51564152521E+03  0.51715269578E+03  0.00000000000E+00 0. -1.
<mgrwt>
<rscale>  2 0.13241561E+04</rscale>
<asrwt>0</asrwt>
<pdfrwt beam="1">  1        2 0.21387210E+00 0.13241561E+04</pdfrwt>
<pdfrwt beam="2">  1       -2 0.22128282E+00 0.13241561E+04</pdfrwt>
<totfact> 0.15082822E+00</totfact>
</mgrwt>
</event>
<event>
 8    1  0.1373409E-005  0.1782000E+04  0.7818608E-02  0.8263435E-01
         -2   -1    0    0    0  501 -0.00000000000E+00  0.00000000000E+00  0.19448112664E+04  0.19448112664E+04  0.00000000000E+00 0. -1.
          2   -1    0    0  502    0  0.00000000000E+00 -0.00000000000E+00 -0.18375978351E+04  0.18375978351E+04  0.00000000000E+00 0.  1.
    9000010    2    1    2  502    0  0.68484766295E+03  0.13100270475E+04 -0.57773232154E+03  0.18729675330E+04  0.99450769607E+03 0.  0.
   -9000010    2    1    2    0  501 -0.68484766295E+03 -0.13100270475E+04  0.68494575282E+03  0.19094415686E+04  0.99580582091E+03 0.  0.
        -13    1    3    3    0    0  0.43651490182E+03  0.14178914088E+02 -0.28483983316E+03  0.52142117605E+03  0.10566000000E+00 0.  1.
          4    1    3    3  502    0  0.24833276112E+03  0.12958481334E+04 -0.29289248838E+03  0.13515463569E+04  0.00000000000E+00 0.  1.
         13    1    4    4    0    0  0.13427768563E+03 -0.80356951173E+03  0.24572537205E+03  0.85096147191E+03  0.10566000000E+00 0. -1.
         -4    1    4    4    0  501 -0.81912534857E+03 -0.50645753578E+03  0.43922038077E+03  0.10584800967E+04  0.00000000000E+00 0. -1.
<mgrwt>
<rscale>  2 0.17820001E+04</rscale>
<asrwt>0</asrwt>
<pdfrwt beam="2">  1        2 0.28270736E+00 0.17820001E+04</pdfrwt>
<pdfrwt beam="1">  1       -2 0.29920173E+00 0.17820001E+04</pdfrwt>
<totfact> 0.20960013E-01</totfact>
</mgrwt>
</event>
<event>
 8    1  0.1373409E-005  0.1119961E+04  0.7818608E-02  0.8669401E-01
         -1   -1    0    0    0  501 -0.00000000000E+00  0.00000000000E+00  0.12457278301E+04  0.12457278301E+04  0.00000000000E+00 0.  1.
          1   -1    0    0  502    0  0.00000000000E+00 -0.00000000000E+00 -0.10200716379E+04  0.10200716379E+04  0.00000000000E+00 0. -1.
    9000010    2    1    2  502    0 -0.49238497687E+03  0.14136950233E+03 -0.16428250373E+02  0.11135588406E+04  0.98859248547E+03 0.  0.
   -9000010    2    1    2    0  501  0.49238497687E+03 -0.14136950233E+03  0.24208444263E+03  0.11522406274E+04  0.10033071736E+04 0.  0.
        -13    1    3    3    0    0  0.17884552973E+03 -0.26730802095E+03  0.47498169805E+02  0.32510827253E+03  0.10566000000E+00 0.  1.
          4    1    3    3  502    0 -0.67123050660E+03  0.40867752328E+03 -0.63926420177E+02  0.78845056803E+03  0.00000000000E+00 0.  1.
         13    1    4    4    0    0  0.25503108403E+03 -0.31901452483E+03 -0.31860418759E+03  0.51799590769E+03  0.10566000000E+00 0. -1.
         -4    1    4    4    0  501  0.23735389284E+03  0.17764502249E+03  0.56068863022E+03  0.63424471974E+03  0.00000000000E+00 0. -1.
<mgrwt>
<rscale>  2 0.11199611E+04</rscale>
<asrwt>0</asrwt>
<pdfrwt beam="2">  1        1 0.15693410E+00 0.11199611E+04</pdfrwt>
<pdfrwt beam="1">  1       -1 0.19165043E+00 0.11199611E+04</pdfrwt>
<totfact> 0.32849464E+00</totfact>
</mgrwt>
</event>
<event>
 8    1  0.1373409E-005  0.1061584E+04  0.7818608E-02  0.8718785E-01
          2   -1    0    0  502    0  0.00000000000E+00  0.00000000000E+00  0.16262886226E+04  0.16262886226E+04  0.00000000000E+00 0. -1.
         -2   -1    0    0    0  501 -0.00000000000E+00 -0.00000000000E+00 -0.79182712285E+03  0.79182712285E+03  0.00000000000E+00 0.  1.
    9000010    2    1    2  502    0 -0.16608943788E+03  0.32286184233E+03  0.84425574750E+03  0.13559358874E+04  0.99697988592E+03 0.  0.
   -9000010    2    1    2    0  501  0.16608943788E+03 -0.32286184233E+03 -0.97942477565E+01  0.10621798581E+04  0.99815061637E+03 0.  0.
        -13    1    3    3    0    0 -0.89311396628E+02  0.29959013193E+03  0.10708546559E+04  0.11155538884E+04  0.10566000000E+00 0.  1.
          4    1    3    3  502    0 -0.76778041254E+02  0.23271710405E+02 -0.22659890843E+03  0.24038199896E+03  0.00000000000E+00 0.  1.
         13    1    4    4    0    0 -0.17115289143E+03 -0.58300976223E+03  0.11489751858E+03  0.61838106863E+03  0.10566000000E+00 0. -1.
         -4    1    4    4    0  501  0.33724232931E+03  0.26014791990E+03 -0.12469176634E+03  0.44379878943E+03  0.00000000000E+00 0. -1.
<mgrwt>
<rscale>  2 0.10615845E+04</rscale>
<asrwt>0</asrwt>
<pdfrwt beam="1">  1        2 0.25019825E+00 0.10615845E+04</pdfrwt>
<pdfrwt beam="2">  1       -2 0.12181956E+00 0.10615845E+04</pdfrwt>
<totfact> 0.82407880E+00</totfact>
</mgrwt>
</event>
<event>
 8    1  0.1373409E-005  0.1179913E+04  0.7818608E-02  0.8621843E-01
         -2   -1    0    0    0  501 -0.00000000000E+00  0.00000000000E+00  0.95526293039E+03  0.95526293039E+03  0.00000000000E+00 0. -1.
          2   -1    0    0  502    0  0.00000000000E+00 -0.00000000000E+00 -0.18257888776E+04  0.18257888776E+04  0.00000000000E+00 0.  1.
    9000010    2    1    2  502    0 -0.65743499277E+03 -0.57460888681E+02 -0.10593363140E+04  0.15843332315E+04  0.97590770000E+03 0.  0.
   -9000010    2    1    2    0  501  0.65743499277E+03  0.57460888681E+02  0.18881036673E+03  0.11967185765E+04  0.98028744424E+03 0.  0.
        -13    1    3    3    0    0 -0.63711264018E+02  0.33231379613E+03 -0.38239195152E+02  0.34051994284E+03  0.10566000000E+00 0.  1.
          4    1    3    3  502    0 -0.59372372876E+03 -0.38977468481E+03 -0.10210971188E+04  0.12438132887E+04  0.00000000000E+00 0.  1.
         13    1    4    4    0    0 -0.15229494548E+03  0.25206450847E+03  0.21320527143E+03  0.36357497958E+03  0.10566000000E+00 0. -1.
         -4    1    4    4    0  501  0.80972993825E+03 -0.19460361979E+03 -0.24394904704E+02  0.83314359693E+03  0.00000000000E+00 0. -1.
<mgrwt>
<rscale>  2 0.11799134E+04</rscale>
<asrwt>0</asrwt>
<pdfrwt beam="2">  1        2 0.28089059E+00 0.11799134E+04</pdfrwt>
<pdfrwt beam="1">  1       -2 0.14696353E+00 0.11799134E+04</pdfrwt>
<totfact> 0.37287975E+00</totfact>
</mgrwt>
</event>
<event>
 8    1  0.1373409E-005  0.1195127E+04  0.7818608E-02  0.8610241E-01
         -2   -1    0    0    0  501 -0.00000000000E+00  0.00000000000E+00  0.10128440105E+04  0.10128440105E+04  0.00000000000E+00 0.  1.
          2   -1    0    0  502    0  0.00000000000E+00 -0.00000000000E+00 -0.15622867695E+04  0.15622867695E+04  0.00000000000E+00 0. -1.
    9000010    2    1    2  502    0  0.46443916709E+03 -0.47414428380E+03  0.12570450264E+03  0.12076497102E+04  0.10010492789E+04 0.  0.
   -9000010    2    1    2    0  501 -0.46443916709E+03  0.47414428380E+03 -0.67514726166E+03  0.13674810699E+04  0.98674419670E+03 0.  0.
        -13    1    3    3    0    0  0.34768298667E+03 -0.75929625335E+03  0.25546324042E+03  0.87331308129E+03  0.10566000000E+00 0.  1.
          4    1    3    3  502    0  0.11675618043E+03  0.28515196956E+03 -0.12975873778E+03  0.33433662893E+03  0.00000000000E+00 0.  1.
         13    1    4    4    0    0  0.16680290971E+03  0.83019205736E+02  0.16309328157E+03  0.24761831286E+03  0.10566000000E+00 0. -1.
         -4    1    4    4    0  501 -0.63124207680E+03  0.39112507806E+03 -0.83824054322E+03  0.11198627570E+04  0.00000000000E+00 0. -1.
<mgrwt>
<rscale>  2 0.11951266E+04</rscale>
<asrwt>0</asrwt>
<pdfrwt beam="2">  1        2 0.24035181E+00 0.11951266E+04</pdfrwt>
<pdfrwt beam="1">  1       -2 0.15582216E+00 0.11951266E+04</pdfrwt>
<totfact> 0.43242333E+00</totfact>
</mgrwt>
</event>
<event>
 8    1  0.1373409E-005  0.1329283E+04  0.7818608E-02  0.8515090E-01
          4   -1    0    0  502    0  0.00000000000E+00  0.00000000000E+00  0.26018413415E+04  0.26018413415E+04  0.00000000000E+00 0.  1.
         -4   -1    0    0    0  501 -0.00000000000E+00 -0.00000000000E+00 -0.75221590889E+03  0.75221590889E+03  0.00000000000E+00 0. -1.
    9000010    2    1    2  502    0 -0.66438019940E+03 -0.52198553516E+03  0.14561837886E+04  0.19813430117E+04  0.10446908421E+04 0.  0.
   -9000010    2    1    2    0  501  0.66438019940E+03  0.52198553516E+03  0.39344164397E+03  0.13727142386E+04  0.10078085659E+04 0.  0.
        -13    1    3    3    0    0  0.12421172599E+03 -0.36048578213E+02 -0.10463246476E+03  0.16636110336E+03  0.10566000000E+00 0.  1.
          4    1    3    3  502    0 -0.78859192539E+03 -0.48593695695E+03  0.15608162534E+04  0.18149819084E+04  0.00000000000E+00 0.  1.
         13    1    4    4    0    0  0.61320152406E+03  0.39245204618E+03 -0.20655114340E+03  0.75676819678E+03  0.10566000000E+00 0. -1.
         -4    1    4    4    0  501  0.51178675340E+02  0.12953348898E+03  0.59999278737E+03  0.61594604185E+03  0.00000000000E+00 0. -1.
<mgrwt>
<rscale>  2 0.13292829E+04</rscale>
<asrwt>0</asrwt>
<pdfrwt beam="1">  1        4 0.40028328E+00 0.13292829E+04</pdfrwt>
<pdfrwt beam="2">  1       -4 0.11572553E+00 0.13292829E+04</pdfrwt>
<totfact> 0.10518123E-01</totfact>
</mgrwt>
</event>
<event>
 8    1  0.1373409E-005  0.1401561E+04  0.7818608E-02  0.8468504E-01
         -2   -1    0    0    0  501 -0.00000000000E+00  0.00000000000E+00  0.79930775310E+03  0.79930775310E+03  0.00000000000E+00 0. -1.
          2   -1    0    0  502    0  0.00000000000E+00 -0.00000000000E+00 -0.30378610728E+04  0.30378610728E+04  0.00000000000E+00 0.  1.
    9000010    2    1    2  502    0  0.73798549793E+03  0.34963439901E+03 -0.18641150146E+04  0.22648910696E+04  0.99395168979E+03 0.  0.
   -9000010    2    1    2    0  501 -0.73798549793E+03 -0.34963439901E+03 -0.37443830516E+03  0.15722777563E+04  0.12903435552E+04 0.  0.
        -13    1    3    3    0    0 -0.20945791115E+03 -0.50408940159E+02 -0.13870179120E+03  0.25622622004E+03  0.10566000000E+00 0.  1.
          4    1    3    3  502    0  0.94744340908E+03  0.40004333917E+03 -0.17254132234E+04  0.20086648496E+04  0.00000000000E+00 0.  1.
         13    1    4    4    0    0 -0.30806548260E+03 -0.46006897022E+03 -0.78968155606E+03  0.96445050162E+03  0.10566000000E+00 0. -1.
         -4    1    4    4    0  501 -0.42992001533E+03  0.11043457121E+03  0.41524325090E+03  0.60782725467E+03  0.00000000000E+00 0. -1.
<mgrwt>
<rscale>  2 0.14015614E+04</rscale>
<asrwt>0</asrwt>
<pdfrwt beam="2">  1        2 0.46736324E+00 0.14015614E+04</pdfrwt>
<pdfrwt beam="1">  1       -2 0.12297042E+00 0.14015614E+04</pdfrwt>
<totfact> 0.12334047E+00</totfact>
</mgrwt>
</event>
<event>
 8    1  0.1373409E-005  0.1330595E+04  0.7818608E-02  0.8514217E-01
         -2   -1    0    0    0  501 -0.00000000000E+00  0.00000000000E+00  0.42447245082E+04  0.42447245082E+04  0.00000000000E+00 0.  1.
          2   -1    0    0  502    0  0.00000000000E+00 -0.00000000000E+00 -0.56870498156E+03  0.56870498156E+03  0.00000000000E+00 0. -1.
    9000010    2    1    2  502    0  0.90222287956E+03  0.16389351260E+02  0.31032398095E+04  0.33856668601E+04  0.10091422283E+04 0.  0.
   -9000010    2    1    2    0  501 -0.90222287956E+03 -0.16389351260E+02  0.57277971718E+03  0.14277626297E+04  0.94665452368E+03 0.  0.
        -13    1    3    3    0    0  0.98014483193E+03  0.28580859309E+03  0.19773699746E+04  0.22253904087E+04  0.10566000000E+00 0.  1.
          4    1    3    3  502    0 -0.77921952368E+02 -0.26941924183E+03  0.11258698349E+04  0.11602764514E+04  0.00000000000E+00 0.  1.
         13    1    4    4    0    0 -0.24922605369E+03 -0.44386103161E+03  0.11131660313E+03  0.52107354425E+03  0.10566000000E+00 0. -1.
         -4    1    4    4    0  501 -0.65299682588E+03  0.42747168035E+03  0.46146311405E+03  0.90668908548E+03  0.00000000000E+00 0. -1.
<mgrwt>
<rscale>  2 0.13305946E+04</rscale>
<asrwt>0</asrwt>
<pdfrwt beam="2">  1        2 0.87493077E-01 0.13305946E+04</pdfrwt>
<pdfrwt beam="1">  1       -2 0.65303452E+00 0.13305946E+04</pdfrwt>
<totfact> 0.24322919E-01</totfact>
</mgrwt>
</event>
<event>
 8    1  0.1373409E-005  0.1893170E+04  0.7818608E-02  0.8213330E-01
          1   -1    0    0  502    0  0.00000000000E+00  0.00000000000E+00  0.27361647285E+04  0.27361647285E+04  0.00000000000E+00 0.  1.
         -1   -1    0    0    0  501 -0.00000000000E+00 -0.00000000000E+00 -0.21954486285E+04  0.21954486285E+04  0.00000000000E+00 0. -1.
    9000010    2    1    2  502    0  0.14569108143E+04  0.69325856850E+03 -0.12961123764E+04  0.22901168846E+04  0.98057712039E+03 0.  0.
   -9000010    2    1    2    0  501 -0.14569108143E+04 -0.69325856850E+03  0.18368284764E+04  0.26414964724E+04  0.10001840822E+04 0.  0.
        -13    1    3    3    0    0  0.12952650998E+03 -0.23373119024E+03 -0.14963430992E+03  0.30626430407E+03  0.10566000000E+00 0.  1.
          4    1    3    3  502    0  0.13273843044E+04  0.92698975874E+03 -0.11464780665E+04  0.19838525805E+04  0.00000000000E+00 0.  1.
         13    1    4    4    0    0 -0.44125432524E+03  0.17839288068E+03  0.17358738597E+03  0.50661819071E+03  0.10566000000E+00 0. -1.
         -4    1    4    4    0  501 -0.10156564891E+04 -0.87165144919E+03  0.16632410904E+04  0.21348782816E+04  0.00000000000E+00 0. -1.
<mgrwt>
<rscale>  2 0.18931703E+04</rscale>
<asrwt>0</asrwt>
<pdfrwt beam="1">  1        1 0.42094842E+00 0.18931703E+04</pdfrwt>
<pdfrwt beam="2">  1       -1 0.33776133E+00 0.18931703E+04</pdfrwt>
<totfact> 0.74968359E-03</totfact>
</mgrwt>
</event>
<event>
 8    1  0.1373409E-005  0.1165573E+04  0.7818608E-02  0.8632948E-01
          1   -1    0    0  502    0  0.00000000000E+00  0.00000000000E+00  0.75257288038E+03  0.75257288038E+03  0.00000000000E+00 0. -1.
         -1   -1    0    0    0  501 -0.00000000000E+00 -0.00000000000E+00 -0.18771976898E+04  0.18771976898E+04  0.00000000000E+00 0.  1.
    9000010    2    1    2  502    0 -0.35358142692E+03  0.46706854345E+03 -0.81804737847E+03  0.14209955951E+04  0.10034212067E+04 0.  0.
   -9000010    2    1    2    0  501  0.35358142692E+03 -0.46706854345E+03 -0.30657743100E+03  0.12087749751E+04  0.10119161870E+04 0.  0.
        -13    1    3    3    0    0 -0.39062337350E+03 -0.14856423920E+03 -0.66520552807E+03  0.78559299820E+03  0.10566000000E+00 0.  1.
          4    1    3    3  502    0  0.37041946579E+02  0.61563278265E+03 -0.15284185040E+03  0.63540259687E+03  0.00000000000E+00 0.  1.
         13    1    4    4    0    0  0.33664596143E+03  0.27027251547E+03 -0.11360992695E+03  0.44641344361E+03  0.10566000000E+00 0. -1.
         -4    1    4    4    0  501  0.16935465485E+02 -0.73734105892E+03 -0.19296750404E+03  0.76236153154E+03  0.00000000000E+00 0. -1.
<mgrwt>
<rscale>  2 0.11655729E+04</rscale>
<asrwt>0</asrwt>
<pdfrwt beam="1">  1        1 0.11578045E+00 0.11655729E+04</pdfrwt>
<pdfrwt beam="2">  1       -1 0.28879964E+00 0.11655729E+04</pdfrwt>
<totfact> 0.66854176E-01</totfact>
</mgrwt>
</event>
<event>
 8    1  0.1373409E-005  0.1334746E+04  0.7818608E-02  0.8511463E-01
         -4   -1    0    0    0  501 -0.00000000000E+00  0.00000000000E+00  0.32289148519E+04  0.32289148519E+04  0.00000000000E+00 0. -1.
          4   -1    0    0  502    0  0.00000000000E+00 -0.00000000000E+00 -0.55178852105E+03  0.55178852105E+03  0.00000000000E+00 0.  1.
    9000010    2    1    2  502    0 -0.68573224746E+03  0.55507035691E+03  0.13229051327E+04  0.18796670516E+04  0.10023664093E+04 0.  0.
   -9000010    2    1    2    0  501  0.68573224746E+03 -0.55507035691E+03  0.13542211982E+04  0.19010363214E+04  0.10008457550E+04 0.  0.
        -13    1    3    3    0    0 -0.25278512265E+03  0.58242711521E+03  0.18415735302E+03  0.66108668464E+03  0.10566000000E+00 0.  1.
          4    1    3    3  502    0 -0.43294712481E+03 -0.27356758309E+02  0.11387477796E+04  0.12185803670E+04  0.00000000000E+00 0.  1.
         13    1    4    4    0    0  0.51850068447E+02 -0.62775799751E+03  0.37740078361E+03  0.73430231899E+03  0.10566000000E+00 0. -1.
         -4    1    4    4    0  501  0.63388217901E+03  0.72687640606E+02  0.97682041462E+03  0.11667340024E+04  0.00000000000E+00 0. -1.
<mgrwt>
<rscale>  2 0.13347459E+04</rscale>
<asrwt>0</asrwt>
<pdfrwt beam="2">  1        4 0.84890544E-01 0.13347459E+04</pdfrwt>
<pdfrwt beam="1">  1       -4 0.49675612E+00 0.13347459E+04</pdfrwt>
<totfact> 0.69794393E-02</totfact>
</mgrwt>
</event>
<event>
 8    1  0.1373409E-005  0.1315765E+04  0.7818608E-02  0.8524141E-01
          4   -1    0    0  502    0  0.00000000000E+00  0.00000000000E+00  0.10189228541E+04  0.10189228541E+04  0.00000000000E+00 0.  1.
         -4   -1    0    0    0  501 -0.00000000000E+00 -0.00000000000E+00 -0.20519295211E+04  0.20519295211E+04  0.00000000000E+00 0. -1.
    9000010    2    1    2  502    0 -0.27700670424E+03  0.80593760706E+03  0.12096169710E+03  0.13189750792E+04  0.99939751183E+03 0.  0.
   -9000010    2    1    2    0  501  0.27700670424E+03 -0.80593760706E+03 -0.11539683642E+04  0.17518772960E+04  0.10055659770E+04 0.  0.
        -13    1    3    3    0    0  0.32686014931E+03  0.12241302038E+03  0.20208146231E+03  0.40331059165E+03  0.10566000000E+00 0.  1.
          4    1    3    3  502    0 -0.60386685354E+03  0.68352458668E+03 -0.81119765208E+02  0.91566448752E+03  0.00000000000E+00 0.  1.
         13    1    4    4    0    0  0.60689099178E+03 -0.30261241299E+03 -0.40053070644E+03  0.78760129911E+03  0.10566000000E+00 0. -1.
         -4    1    4    4    0  501 -0.32988428754E+03 -0.50332519407E+03 -0.75343765773E+03  0.96427599692E+03  0.00000000000E+00 0. -1.
<mgrwt>
<rscale>  2 0.13157645E+04</rscale>
<asrwt>0</asrwt>
<pdfrwt beam="1">  1        4 0.15675736E+00 0.13157645E+04</pdfrwt>
<pdfrwt beam="2">  1       -4 0.31568146E+00 0.13157645E+04</pdfrwt>
<totfact> 0.12746549E-01</totfact>
</mgrwt>
</event>
<event>
 8    1  0.1373409E-005  0.9424677E+03  0.7818608E-02  0.8830610E-01
         -2   -1    0    0    0  501 -0.00000000000E+00  0.00000000000E+00  0.90490963693E+03  0.90490963693E+03  0.00000000000E+00 0. -1.
          2   -1    0    0  502    0  0.00000000000E+00 -0.00000000000E+00 -0.99708825758E+03  0.99708825758E+03  0.00000000000E+00 0.  1.
    9000010    2    1    2  502    0 -0.13973483319E+03  0.12294202288E+03  0.66310633732E+02  0.97778307491E+03  0.95761269668E+03 0.  0.
   -9000010    2    1    2    0  501  0.13973483319E+03 -0.12294202288E+03 -0.15848925438E+03  0.92421481960E+03  0.89129884125E+03 0.  0.
        -13    1    3    3    0    0  0.79123313273E+02 -0.64940547252E+02  0.47034430379E+03  0.48135387051E+03  0.10566000000E+00 0.  1.
          4    1    3    3  502    0 -0.21885814647E+03  0.18788257013E+03 -0.40403367006E+03  0.49642920440E+03  0.00000000000E+00 0.  1.
         13    1    4    4    0    0 -0.48146056065E+02 -0.21494166612E+03 -0.48714449329E+03  0.53462859170E+03  0.10566000000E+00 0. -1.
         -4    1    4    4    0  501  0.18788088926E+03  0.91999643238E+02  0.32865523892E+03  0.38958622790E+03  0.00000000000E+00 0. -1.
<mgrwt>
<rscale>  2 0.94246772E+03</rscale>
<asrwt>0</asrwt>
<pdfrwt beam="2">  1        2 0.15339819E+00 0.94246772E+03</pdfrwt>
<pdfrwt beam="1">  1       -2 0.13921687E+00 0.94246772E+03</pdfrwt>
<totfact> 0.13006128E+01</totfact>
</mgrwt>
</event>
<event>
 8    1  0.1373409E-005  0.1700400E+04  0.7818608E-02  0.8302664E-01
          4   -1    0    0  502    0  0.00000000000E+00  0.00000000000E+00  0.30168218594E+04  0.30168218594E+04  0.00000000000E+00 0. -1.
         -4   -1    0    0    0  501 -0.00000000000E+00 -0.00000000000E+00 -0.10158173410E+04  0.10158173410E+04  0.00000000000E+00 0.  1.
    9000010    2    1    2  502    0 -0.95131926152E+03 -0.98684652236E+03  0.14803925332E+04  0.22553101920E+04  0.10079621094E+04 0.  0.
   -9000010    2    1    2    0  501  0.95131926152E+03  0.98684652236E+03  0.52061198519E+03  0.17773290084E+04  0.10044835335E+04 0.  0.
        -13    1    3    3    0    0  0.13582323214E+03 -0.47104935431E+02 -0.53553144516E+02  0.15341048133E+03  0.10566000000E+00 0.  1.
          4    1    3    3  502    0 -0.10871424937E+04 -0.93974158693E+03  0.15339456777E+04  0.21018997107E+04  0.00000000000E+00 0.  1.
         13    1    4    4    0    0  0.72892558921E+03  0.10403892490E+04  0.70332424672E+02  0.12722770788E+04  0.10566000000E+00 0. -1.
         -4    1    4    4    0  501  0.22239367231E+03 -0.53542726623E+02  0.45027956052E+03  0.50505192969E+03  0.00000000000E+00 0. -1.
<mgrwt>
<rscale>  2 0.17003999E+04</rscale>
<asrwt>0</asrwt>
<pdfrwt beam="1">  1        4 0.46412644E+00 0.17003999E+04</pdfrwt>
<pdfrwt beam="2">  1       -4 0.15627959E+00 0.17003999E+04</pdfrwt>
<totfact> 0.33103798E-02</totfact>
</mgrwt>
</event>
<event>
 8    1  0.1373409E-005  0.1253434E+04  0.7818608E-02  0.8567376E-01
         -2   -1    0    0    0  501 -0.00000000000E+00  0.00000000000E+00  0.56578258651E+03  0.56578258651E+03  0.00000000000E+00 0. -1.
          2   -1    0    0  502    0  0.00000000000E+00 -0.00000000000E+00 -0.28715126843E+04  0.28715126843E+04  0.00000000000E+00 0.  1.
    9000010    2    1    2  502    0  0.45179356087E+03  0.64037539880E+03 -0.82832249568E+03  0.14901496470E+04  0.95928605781E+03 0.  0.
   -9000010    2    1    2    0  501 -0.45179356087E+03 -0.64037539880E+03 -0.14774076021E+04  0.19471456238E+04  0.99721852386E+03 0.  0.
        -13    1    3    3    0    0 -0.97348656514E+02  0.50480460546E+03 -0.34283521253E+02  0.51524734023E+03  0.10566000000E+00 0.  1.
          4    1    3    3  502    0  0.54914221739E+03  0.13557079334E+03 -0.79403897442E+03  0.97490230681E+03  0.00000000000E+00 0.  1.
         13    1    4    4    0    0 -0.72798741988E+03 -0.41937567577E+03 -0.13088949273E+04  0.15553287700E+04  0.10566000000E+00 0. -1.
         -4    1    4    4    0  501  0.27619385901E+03 -0.22099972303E+03 -0.16851267488E+03  0.39181685381E+03  0.00000000000E+00 0. -1.
<mgrwt>
<rscale>  2 0.12534342E+04</rscale>
<asrwt>0</asrwt>
<pdfrwt beam="2">  1        2 0.44177118E+00 0.12534342E+04</pdfrwt>
<pdfrwt beam="1">  1       -2 0.87043474E-01 0.12534342E+04</pdfrwt>
<totfact> 0.37177713E+00</totfact>
</mgrwt>
</event>
<event>
 8    1  0.1373409E-005  0.1398369E+04  0.7818608E-02  0.8470501E-01
          2   -1    0    0  502    0  0.00000000000E+00  0.00000000000E+00  0.12500595419E+04  0.12500595419E+04  0.00000000000E+00 0. -1.
         -2   -1    0    0    0  501 -0.00000000000E+00 -0.00000000000E+00 -0.17695063392E+04  0.17695063392E+04  0.00000000000E+00 0.  1.
    9000010    2    1    2  502    0  0.87566386733E+03 -0.45873377989E+03 -0.77321444282E+03  0.15943562815E+04  0.98330437222E+03 0.  0.
   -9000010    2    1    2    0  501 -0.87566386733E+03  0.45873377989E+03  0.25376764556E+03  0.14252095996E+04  0.99478665825E+03 0.  0.
        -13    1    3    3    0    0  0.14630694370E+03 -0.31777097115E+03 -0.77631246618E+03  0.85149584156E+03  0.10566000000E+00 0.  1.
          4    1    3    3  502    0  0.72935692363E+03 -0.14096280874E+03  0.30980233564E+01  0.74286043995E+03  0.00000000000E+00 0.  1.
         13    1    4    4    0    0 -0.10561389951E+04  0.44171313576E+03  0.37785062534E+03  0.12055335655E+04  0.10566000000E+00 0. -1.
         -4    1    4    4    0  501  0.18047512779E+03  0.17020644128E+02 -0.12408297978E+03  0.21967603408E+03  0.00000000000E+00 0. -1.
<mgrwt>
<rscale>  2 0.13983687E+04</rscale>
<asrwt>0</asrwt>
<pdfrwt beam="1">  1        2 0.19231685E+00 0.13983687E+04</pdfrwt>
<pdfrwt beam="2">  1       -2 0.27223174E+00 0.13983687E+04</pdfrwt>
<totfact> 0.71627680E-01</totfact>
</mgrwt>
</event>
<event>
 8    1  0.1373409E-005  0.1450066E+04  0.7818608E-02  0.8438830E-01
         -2   -1    0    0    0  501 -0.00000000000E+00  0.00000000000E+00  0.10069792159E+04  0.10069792159E+04  0.00000000000E+00 0.  1.
          2   -1    0    0  502    0  0.00000000000E+00 -0.00000000000E+00 -0.24248536288E+04  0.24248536288E+04  0.00000000000E+00 0. -1.
    9000010    2    1    2  502    0  0.28390341417E+03  0.96667201492E+03 -0.54882461214E+02  0.14131554281E+04  0.98941409256E+03 0.  0.
   -9000010    2    1    2    0  501 -0.28390341417E+03 -0.96667201492E+03 -0.13629919517E+04  0.20186774165E+04  0.10964741304E+04 0.  0.
        -13    1    3    3    0    0  0.25806213369E+03  0.28182951213E+02 -0.34385545417E+03  0.43084443609E+03  0.10566000000E+00 0.  1.
          4    1    3    3  502    0  0.25841280482E+02  0.93848906371E+03  0.28897299295E+03  0.98231099206E+03  0.00000000000E+00 0.  1.
         13    1    4    4    0    0 -0.21578332513E+03 -0.44966795583E+03 -0.14094919066E+04  0.14951358332E+04  0.10566000000E+00 0. -1.
         -4    1    4    4    0  501 -0.68120089043E+02 -0.51700405909E+03  0.46499954872E+02  0.52354158330E+03  0.00000000000E+00 0. -1.
<mgrwt>
<rscale>  2 0.14500660E+04</rscale>
<asrwt>0</asrwt>
<pdfrwt beam="2">  1        2 0.37305440E+00 0.14500660E+04</pdfrwt>
<pdfrwt beam="1">  1       -2 0.15491988E+00 0.14500660E+04</pdfrwt>
<totfact> 0.14444304E+00</totfact>
</mgrwt>
</event>
<event>
 8    1  0.1373409E-005  0.1122998E+04  0.7818608E-02  0.8666918E-01
         -2   -1    0    0    0  501 -0.00000000000E+00  0.00000000000E+00  0.12196587453E+04  0.12196587453E+04  0.00000000000E+00 0.  1.
          2   -1    0    0  502    0  0.00000000000E+00 -0.00000000000E+00 -0.10520276976E+04  0.10520276976E+04  0.00000000000E+00 0. -1.
    9000010    2    1    2  502    0 -0.54325943121E+03  0.17841403280E+03 -0.49640541804E+02  0.11813339470E+04  0.10325324858E+04 0.  0.
   -9000010    2    1    2    0  501  0.54325943121E+03 -0.17841403280E+03  0.21727158946E+03  0.10903524959E+04  0.90260691617E+03 0.  0.
        -13    1    3    3    0    0 -0.58186122611E+03 -0.33072139563E+03 -0.12706107771E+02  0.66940315530E+03  0.10566000000E+00 0.  1.
          4    1    3    3  502    0  0.38601794903E+02  0.50913542842E+03 -0.36934434034E+02  0.51193079167E+03  0.00000000000E+00 0.  1.
         13    1    4    4    0    0  0.11566700501E+03 -0.75646007250E+02 -0.34783846367E+03  0.37428970388E+03  0.10566000000E+00 0. -1.
         -4    1    4    4    0  501  0.42759242620E+03 -0.10276802555E+03  0.56511005313E+03  0.71606279206E+03  0.00000000000E+00 0. -1.
<mgrwt>
<rscale>  2 0.11229976E+04</rscale>
<asrwt>0</asrwt>
<pdfrwt beam="2">  1        2 0.16185041E+00 0.11229976E+04</pdfrwt>
<pdfrwt beam="1">  1       -2 0.18763981E+00 0.11229976E+04</pdfrwt>
<totfact> 0.45502109E+00</totfact>
</mgrwt>
</event>
<event>
 8    1  0.1373409E-005  0.1384376E+04  0.7818608E-02  0.8479315E-01
          2   -1    0    0  502    0  0.00000000000E+00  0.00000000000E+00  0.20860178081E+04  0.20860178081E+04  0.00000000000E+00 0. -1.
         -2   -1    0    0    0  501 -0.00000000000E+00 -0.00000000000E+00 -0.91940153718E+03  0.91940153718E+03  0.00000000000E+00 0.  1.
    9000010    2    1    2  502    0 -0.84099267992E+03  0.29331801154E+03  0.62666914545E+03  0.15336618711E+04  0.10798612751E+04 0.  0.
   -9000010    2    1    2    0  501  0.84099267992E+03 -0.29331801154E+03  0.53994712545E+03  0.14717574741E+04  0.10398187442E+04 0.  0.
        -13    1    3    3    0    0  0.25660067257E+03  0.69163125803E+02  0.38928022334E+02  0.26859420177E+03  0.10566000000E+00 0.  1.
          4    1    3    3  502    0 -0.10975933525E+04  0.22415488574E+03  0.58774112311E+03  0.12650676693E+04  0.00000000000E+00 0.  1.
         13    1    4    4    0    0  0.75577838544E+03  0.48127236558E+02  0.74676432968E+03  0.10635667229E+04  0.10566000000E+00 0. -1.
         -4    1    4    4    0  501  0.85214294474E+02 -0.34144524810E+03 -0.20681720423E+03  0.40819075124E+03  0.00000000000E+00 0. -1.
<mgrwt>
<rscale>  2 0.13843757E+04</rscale>
<asrwt>0</asrwt>
<pdfrwt beam="1">  1        2 0.32092582E+00 0.13843757E+04</pdfrwt>
<pdfrwt beam="2">  1       -2 0.14144639E+00 0.13843757E+04</pdfrwt>
<totfact> 0.29458067E+00</totfact>
</mgrwt>
</event>
<event>
 8    1  0.1373409E-005  0.1382642E+04  0.7818608E-02  0.8480415E-01
          2   -1    0    0  502    0  0.00000000000E+00  0.00000000000E+00  0.36310805719E+04  0.36310805719E+04  0.00000000000E+00 0. -1.
         -2   -1    0    0    0  501 -0.00000000000E+00 -0.00000000000E+00 -0.59954259540E+03  0.59954259540E+03  0.00000000000E+00 0.  1.
    9000010    2    1    2  502    0 -0.93501682949E+03  0.21665490847E+03  0.22536837118E+04  0.26437335069E+04  0.99450528498E+03 0.  0.
   -9000010    2    1    2    0  501  0.93501682949E+03 -0.21665490847E+03  0.77785426471E+03  0.15868896604E+04  0.99597475689E+03 0.  0.
        -13    1    3    3    0    0 -0.41575362849E+03  0.39194956836E+03  0.19174204072E+04  0.20007440049E+04  0.10566000000E+00 0.  1.
          4    1    3    3  502    0 -0.51926320100E+03 -0.17529465990E+03  0.33626330451E+03  0.64298950199E+03  0.00000000000E+00 0.  1.
         13    1    4    4    0    0  0.16034798598E+03  0.36303147315E+03  0.11201269527E+03  0.41237141289E+03  0.10566000000E+00 0. -1.
         -4    1    4    4    0  501  0.77466884351E+03 -0.57968638161E+03  0.66584156944E+03  0.11745182475E+04  0.00000000000E+00 0. -1.
<mgrwt>
<rscale>  2 0.13826419E+04</rscale>
<asrwt>0</asrwt>
<pdfrwt beam="1">  1        2 0.55862777E+00 0.13826419E+04</pdfrwt>
<pdfrwt beam="2">  1       -2 0.92237324E-01 0.13826419E+04</pdfrwt>
<totfact> 0.98291645E-01</totfact>
</mgrwt>
</event>
<event>
 8    1  0.1373409E-005  0.9409040E+03  0.7818608E-02  0.8832190E-01
         -1   -1    0    0    0  501 -0.00000000000E+00  0.00000000000E+00  0.73297343777E+03  0.73297343777E+03  0.00000000000E+00 0. -1.
          1   -1    0    0  502    0  0.00000000000E+00 -0.00000000000E+00 -0.21790551933E+04  0.21790551933E+04  0.00000000000E+00 0.  1.
    9000010    2    1    2  502    0 -0.41478638921E+02  0.25504507932E+03 -0.17225202575E+04  0.20031321404E+04  0.98928957556E+03 0.  0.
   -9000010    2    1    2    0  501  0.41478638921E+02 -0.25504507932E+03  0.27643850199E+03  0.90889649068E+03  0.82638133777E+03 0.  0.
        -13    1    3    3    0    0 -0.87101237611E+02  0.15007373182E+03 -0.18346885432E+04  0.18428756909E+04  0.10566000000E+00 0.  1.
          4    1    3    3  502    0  0.45622598689E+02  0.10497134750E+03  0.11216828562E+03  0.16025644950E+03  0.00000000000E+00 0.  1.
         13    1    4    4    0    0  0.10004351300E+03 -0.21306232827E+03 -0.26973151392E+03  0.35799352087E+03  0.10566000000E+00 0. -1.
         -4    1    4    4    0  501 -0.58564874080E+02 -0.41982751045E+02  0.54617001591E+03  0.55090296981E+03  0.00000000000E+00 0. -1.
<mgrwt>
<rscale>  2 0.94090396E+03</rscale>
<asrwt>0</asrwt>
<pdfrwt beam="2">  1        1 0.33523925E+00 0.94090396E+03</pdfrwt>
<pdfrwt beam="1">  1       -1 0.11276515E+00 0.94090396E+03</pdfrwt>
<totfact> 0.21786476E+00</totfact>
</mgrwt>
</event>
