<event>
 6    2  0.2321478E-005  0.1084452E+04  0.7818608E-02  0.9481904E-01
         -4   -1    0    0    0  501 -0.00000000000E+00  0.00000000000E+00  0.12140655836E+04  0.12140655836E+04  0.00000000000E+00 0. -1.
         21   -1    0    0  501  502  0.00000000000E+00 -0.00000000000E+00 -0.55541987404E+03  0.55541987404E+03  0.00000000000E+00 0. -1.
   -9000010    2    1    2    0  502  0.25694814745E+03 -0.33424929219E+03  0.12834973031E+03  0.10920204943E+04  0.99914471767E+03 0.  0.
         13    1    3    3    0    0  0.30538398217E+03  0.33317759406E+02  0.48725677853E+03  0.57601096261E+03  0.10566000000E+00 0. -1.
         -4    1    3    3    0  502 -0.48435834723E+02 -0.36756705159E+03 -0.35890704822E+03  0.51600953166E+03  0.00000000000E+00 0. -1.
        -13    1    1    2    0    0 -0.25694814745E+03  0.33424929219E+03  0.53029597926E+03  0.67746496336E+03  0.10566000000E+00 0.  1.
<mgrwt>
<rscale>  1 0.85631247E+03</rscale>
<asrwt>0</asrwt>
<pdfrwt beam="2">  1       21 0.85449212E-01 0.10844515E+04</pdfrwt>
<pdfrwt beam="1">  1       -4 0.18677932E+00 0.10844515E+04</pdfrwt>
<totfact> 0.71332530E+00</totfact>
</mgrwt>
</event>
<event>
 6    2  0.2321478E-005  0.1096948E+04  0.7818608E-02  0.9427295E-01
         -4   -1    0    0    0  501 -0.00000000000E+00  0.00000000000E+00  0.10906133585E+04  0.10906133585E+04  0.00000000000E+00 0. -1.
         21   -1    0    0  501  502  0.00000000000E+00 -0.00000000000E+00 -0.59032921156E+03  0.59032921156E+03  0.00000000000E+00 0. -1.
   -9000010    2    1    2    0  502 -0.39810067189E+03  0.29256767025E+03  0.24146947130E+03  0.11232105250E+04  0.97939491076E+03 0.  0.
         13    1    3    3    0    0 -0.64934335726E+03  0.24752876903E+03  0.41976087510E+03  0.81185989588E+03  0.10566000000E+00 0. -1.
         -4    1    3    3    0  502  0.25124268536E+03  0.45038901224E+02 -0.17829140380E+03  0.31135062910E+03  0.00000000000E+00 0. -1.
        -13    1    1    2    0    0  0.39810067189E+03 -0.29256767025E+03  0.25881467569E+03  0.55773204512E+03  0.10566000000E+00 0.  1.
<mgrwt>
<rscale>  1 0.89863014E+03</rscale>
<asrwt>0</asrwt>
<pdfrwt beam="2">  1       21 0.90819879E-01 0.10969478E+04</pdfrwt>
<pdfrwt beam="1">  1       -4 0.16778667E+00 0.10969478E+04</pdfrwt>
<totfact> 0.83734096E+00</totfact>
</mgrwt>
</event>
<event>
 6    2  0.2321478E-005  0.8991087E+03  0.7818608E-02  0.1008194E+00
         21   -1    0    0  501  502  0.00000000000E+00  0.00000000000E+00  0.14133183889E+04  0.14133183889E+04  0.00000000000E+00 0. -1.
         -4   -1    0    0    0  501 -0.00000000000E+00 -0.00000000000E+00 -0.17850528626E+03  0.17850528626E+03  0.00000000000E+00 0. -1.
   -9000010    2    1    2    0  502 -0.10149539293E+03  0.11480308699E+02  0.10663249121E+04  0.13947922214E+04  0.89328797727E+03 0.  0.
         13    1    3    3    0    0 -0.42903327891E+03 -0.23205753649E+03  0.63859208439E+03  0.80356711983E+03  0.10566000000E+00 0. -1.
         -4    1    3    3    0  502  0.32753788598E+03  0.24353784519E+03  0.42773282775E+03  0.59122510157E+03  0.00000000000E+00 0. -1.
        -13    1    1    2    0    0  0.10149539293E+03 -0.11480308699E+02  0.16848819048E+03  0.19703145376E+03  0.10566000000E+00 0.  1.
<mgrwt>
<rscale>  1 0.52198859E+03</rscale>
<asrwt>0</asrwt>
<pdfrwt beam="1">  1       21 0.21743359E+00 0.89910874E+03</pdfrwt>
<pdfrwt beam="2">  1       -4 0.27462353E-01 0.89910874E+03</pdfrwt>
<totfact> 0.46135359E+01</totfact>
</mgrwt>
</event>
<event>
 6    2  0.2321478E-005  0.1142986E+04  0.7818608E-02  0.9356742E-01
         21   -1    0    0  501  502  0.00000000000E+00  0.00000000000E+00  0.94667724162E+03  0.94667724162E+03  0.00000000000E+00 0.  1.
         -4   -1    0    0    0  501 -0.00000000000E+00 -0.00000000000E+00 -0.86512539023E+03  0.86512539023E+03  0.00000000000E+00 0. -1.
   -9000010    2    1    2    0  502 -0.28446830888E+03  0.48498989254E+03  0.34071524019E+03  0.11926878704E+04  0.99512816593E+03 0.  0.
         13    1    3    3    0    0 -0.31370891967E+03  0.39490678476E+03 -0.27178043261E+03  0.57291296864E+03  0.10566000000E+00 0. -1.
         -4    1    3    3    0  502  0.29240610795E+02  0.90083107780E+02  0.61249567279E+03  0.61977490173E+03  0.00000000000E+00 0. -1.
        -13    1    1    2    0    0  0.28446830888E+03 -0.48498989254E+03 -0.25916338880E+03  0.61911476147E+03  0.10566000000E+00 0.  1.
<mgrwt>
<rscale>  1 0.95722765E+03</rscale>
<asrwt>0</asrwt>
<pdfrwt beam="1">  1       21 0.14564265E+00 0.11429862E+04</pdfrwt>
<pdfrwt beam="2">  1       -4 0.13309621E+00 0.11429862E+04</pdfrwt>
<totfact> 0.45955158E+00</totfact>
</mgrwt>
</event>
<event>
 6    2  0.2321478E-005  0.1011385E+04  0.7818608E-02  0.9714677E-01
         -4   -1    0    0    0  501 -0.00000000000E+00  0.00000000000E+00  0.36380943439E+03  0.36380943439E+03  0.00000000000E+00 0. -1.
         21   -1    0    0  501  502  0.00000000000E+00 -0.00000000000E+00 -0.17533061046E+04  0.17533061046E+04  0.00000000000E+00 0. -1.
   -9000010    2    1    2    0  502 -0.19721572282E+03  0.12608036218E+03 -0.15373894567E+04  0.18402354449E+04  0.98392573494E+03 0.  0.
         13    1    3    3    0    0  0.14285626462E+02  0.37221310271E+03 -0.12784524538E+03  0.39381606224E+03  0.10566000000E+00 0. -1.
         -4    1    3    3    0  502 -0.21150134928E+03 -0.24613274053E+03 -0.14095442113E+04  0.14464193826E+04  0.00000000000E+00 0. -1.
        -13    1    1    2    0    0  0.19721572282E+03 -0.12608036218E+03  0.14789278651E+03  0.27688009412E+03  0.10566000000E+00 0.  1.
<mgrwt>
<rscale>  1 0.70149638E+03</rscale>
<asrwt>0</asrwt>
<pdfrwt beam="2">  1       21 0.26973940E+00 0.10113853E+04</pdfrwt>
<pdfrwt beam="1">  1       -4 0.55970683E-01 0.10113853E+04</pdfrwt>
<totfact> 0.49285875E+00</totfact>
</mgrwt>
</event>
<event>
 6    2  0.2321478E-005  0.1032739E+04  0.7818608E-02  0.9687969E-01
         -4   -1    0    0    0  501 -0.00000000000E+00  0.00000000000E+00  0.10549546436E+04  0.10549546436E+04  0.00000000000E+00 0. -1.
         21   -1    0    0  501  502  0.00000000000E+00 -0.00000000000E+00 -0.42525387268E+03  0.42525387268E+03  0.00000000000E+00 0. -1.
   -9000010    2    1    2    0  502 -0.13249747942E+02 -0.24007977071E+03  0.30627614853E+03  0.10771981570E+04  0.10043589688E+04 0.  0.
         13    1    3    3    0    0 -0.48023709138E+03  0.28622134722E+02  0.60039437967E+02  0.48482124109E+03  0.10566000000E+00 0. -1.
         -4    1    3    3    0  502  0.46698734344E+03 -0.26870190543E+03  0.24623671057E+03  0.59237691595E+03  0.00000000000E+00 0. -1.
        -13    1    1    2    0    0  0.13249747942E+02  0.24007977071E+03  0.32342462234E+03  0.40301035920E+03  0.10566000000E+00 0.  1.
<mgrwt>
<rscale>  1 0.71737639E+03</rscale>
<asrwt>0</asrwt>
<pdfrwt beam="2">  1       21 0.65423673E-01 0.10327395E+04</pdfrwt>
<pdfrwt beam="1">  1       -4 0.16230071E+00 0.10327395E+04</pdfrwt>
<totfact> 0.19922443E+01</totfact>
</mgrwt>
</event>
<event>
 6    2  0.2321478E-005  0.1047597E+04  0.7818608E-02  0.9821462E-01
         21   -1    0    0  501  502  0.00000000000E+00  0.00000000000E+00  0.61293172725E+03  0.61293172725E+03  0.00000000000E+00 0. -1.
         -4   -1    0    0    0  501 -0.00000000000E+00 -0.00000000000E+00 -0.66288980236E+03  0.66288980236E+03  0.00000000000E+00 0. -1.
   -9000010    2    1    2    0  502  0.35047715835E+02  0.14376519076E+03 -0.19840449939E+03  0.10662192288E+04  0.10370932099E+04 0.  0.
         13    1    3    3    0    0 -0.37255020223E+03 -0.23316686053E+03 -0.25508670822E+03  0.50816304264E+03  0.10566000000E+00 0. -1.
         -4    1    3    3    0  502  0.40759791807E+03  0.37693205129E+03  0.56682208832E+02  0.55805618615E+03  0.00000000000E+00 0. -1.
        -13    1    1    2    0    0 -0.35047715835E+02 -0.14376519076E+03  0.14844642428E+03  0.20960230081E+03  0.10566000000E+00 0.  1.
<mgrwt>
<rscale>  1 0.64223390E+03</rscale>
<asrwt>0</asrwt>
<pdfrwt beam="1">  1       21 0.94297189E-01 0.10475968E+04</pdfrwt>
<pdfrwt beam="2">  1       -4 0.10198305E+00 0.10475968E+04</pdfrwt>
<totfact> 0.27891226E+01</totfact>
</mgrwt>
</event>
<event>
 6    2  0.2321478E-005  0.1067147E+04  0.7818608E-02  0.9868371E-01
         -4   -1    0    0    0  501 -0.00000000000E+00  0.00000000000E+00  0.15619043576E+03  0.15619043576E+03  0.00000000000E+00 0. -1.
         21   -1    0    0  501  502  0.00000000000E+00 -0.00000000000E+00 -0.22889837139E+04  0.22889837139E+04  0.00000000000E+00 0. -1.
   -9000010    2    1    2    0  502 -0.10739138347E+03 -0.53935312688E+02 -0.19938600980E+04  0.22614777509E+04  0.10603591846E+04 0.  0.
         13    1    3    3    0    0 -0.93492880185E+02 -0.29913476626E+03 -0.68867716059E+02  0.32088206636E+03  0.10566000000E+00 0. -1.
         -4    1    3    3    0  502 -0.13898503284E+02  0.24519945357E+03 -0.19249923819E+04  0.19405956845E+04  0.00000000000E+00 0. -1.
        -13    1    1    2    0    0  0.10739138347E+03  0.53935312688E+02 -0.13893318015E+03  0.18369639874E+03  0.10566000000E+00 0.  1.
<mgrwt>
<rscale>  1 0.61818931E+03</rscale>
<asrwt>0</asrwt>
<pdfrwt beam="2">  1       21 0.35215135E+00 0.10671474E+04</pdfrwt>
<pdfrwt beam="1">  1       -4 0.24029297E-01 0.10671474E+04</pdfrwt>
<totfact> 0.82117515E+00</totfact>
</mgrwt>
</event>
<event>
 6    2  0.2321478E-005  0.1038724E+04  0.7818608E-02  0.9785867E-01
         21   -1    0    0  501  502  0.00000000000E+00  0.00000000000E+00  0.12639734839E+04  0.12639734839E+04  0.00000000000E+00 0. -1.
         -4   -1    0    0    0  501 -0.00000000000E+00 -0.00000000000E+00 -0.41403474972E+03  0.41403474972E+03  0.00000000000E+00 0. -1.
   -9000010    2    1    2    0  502 -0.61900692963E+01  0.17049667287E+03  0.10065577290E+04  0.14464117027E+04  0.10246174503E+04 0.  0.
         13    1    3    3    0    0 -0.76475309706E+02 -0.28013077069E+03  0.94205921966E+03  0.98579780188E+03  0.10566000000E+00 0. -1.
         -4    1    3    3    0  502  0.70285240410E+02  0.45062744356E+03  0.64498509377E+02  0.46061390081E+03  0.00000000000E+00 0. -1.
        -13    1    1    2    0    0  0.61900692963E+01 -0.17049667287E+03 -0.15661899487E+03  0.23159653092E+03  0.10566000000E+00 0.  1.
<mgrwt>
<rscale>  1 0.66126533E+03</rscale>
<asrwt>0</asrwt>
<pdfrwt beam="1">  1       21 0.19445746E+00 0.10387244E+04</pdfrwt>
<pdfrwt beam="2">  1       -4 0.63697654E-01 0.10387244E+04</pdfrwt>
<totfact> 0.11500735E+01</totfact>
</mgrwt>
</event>
<event>
 6    2  0.2321478E-005  0.1081385E+04  0.7818608E-02  0.9488466E-01
         -4   -1    0    0    0  501 -0.00000000000E+00  0.00000000000E+00  0.11494414256E+04  0.11494414256E+04  0.00000000000E+00 0. -1.
         21   -1    0    0  501  502  0.00000000000E+00 -0.00000000000E+00 -0.59571174476E+03  0.59571174476E+03  0.00000000000E+00 0. -1.
   -9000010    2    1    2    0  502 -0.15180671382E+03  0.38678787227E+03  0.36910775515E+02  0.10820152295E+04  0.99837088054E+03 0.  0.
         13    1    3    3    0    0 -0.17746647967E+03  0.29037729684E+02 -0.44576315883E+03  0.48066864479E+03  0.10566000000E+00 0. -1.
         -4    1    3    3    0  502  0.25659765846E+02  0.35775014258E+03  0.48267393434E+03  0.60134658475E+03  0.00000000000E+00 0. -1.
        -13    1    1    2    0    0  0.15180671382E+03 -0.38678787227E+03  0.51681890538E+03  0.66313794086E+03  0.10566000000E+00 0.  1.
<mgrwt>
<rscale>  1 0.85139534E+03</rscale>
<asrwt>0</asrwt>
<pdfrwt beam="2">  1       21 0.91647961E-01 0.10813855E+04</pdfrwt>
<pdfrwt beam="1">  1       -4 0.17683714E+00 0.10813855E+04</pdfrwt>
<totfact> 0.70678439E+00</totfact>
</mgrwt>
</event>
<event>
 6    2  0.2321478E-005  0.9790884E+03  0.7818608E-02  0.9645198E-01
         21   -1    0    0  501  502  0.00000000000E+00  0.00000000000E+00  0.10550208834E+04  0.10550208834E+04  0.00000000000E+00 0. -1.
         -4   -1    0    0    0  501 -0.00000000000E+00 -0.00000000000E+00 -0.53979451352E+03  0.53979451352E+03  0.00000000000E+00 0. -1.
   -9000010    2    1    2    0  502 -0.32248523938E+03 -0.47938250600E+02  0.71507146602E+03  0.12124113187E+04  0.92321135103E+03 0.  0.
         13    1    3    3    0    0 -0.45010440441E+03 -0.17705564381E+03  0.94060995629E+01  0.48376767332E+03  0.10566000000E+00 0. -1.
         -4    1    3    3    0  502  0.12761916503E+03  0.12911739321E+03  0.70566536646E+03  0.72864364536E+03  0.00000000000E+00 0. -1.
        -13    1    1    2    0    0  0.32248523938E+03  0.47938250600E+02 -0.19984509610E+03  0.38240407828E+03  0.10566000000E+00 0.  1.
<mgrwt>
<rscale>  1 0.74375590E+03</rscale>
<asrwt>0</asrwt>
<pdfrwt beam="1">  1       21 0.16231090E+00 0.97908835E+03</pdfrwt>
<pdfrwt beam="2">  1       -4 0.83045310E-01 0.97908835E+03</pdfrwt>
<totfact> 0.10935078E+01</totfact>
</mgrwt>
</event>
<event>
 6    2  0.2321478E-005  0.9776377E+03  0.7818608E-02  0.9868967E-01
         21   -1    0    0  501  502  0.00000000000E+00  0.00000000000E+00  0.68587397681E+03  0.68587397681E+03  0.00000000000E+00 0. -1.
         -4   -1    0    0    0  501 -0.00000000000E+00 -0.00000000000E+00 -0.49022348891E+03  0.49022348891E+03  0.00000000000E+00 0. -1.
   -9000010    2    1    2    0  502 -0.59707400461E+02  0.14411745655E+03  0.25308332690E+03  0.10098646257E+04  0.96511169139E+03 0.  0.
         13    1    3    3    0    0 -0.19986907999E+03 -0.37540981689E+03  0.26873564372E+02  0.42614830679E+03  0.10566000000E+00 0. -1.
         -4    1    3    3    0  502  0.14016167953E+03  0.51952727344E+03  0.22620976253E+03  0.58371631887E+03  0.00000000000E+00 0. -1.
        -13    1    1    2    0    0  0.59707400461E+02 -0.14411745655E+03 -0.57432838997E+02  0.16623284005E+03  0.10566000000E+00 0.  1.
<mgrwt>
<rscale>  1 0.61789115E+03</rscale>
<asrwt>0</asrwt>
<pdfrwt beam="1">  1       21 0.10551907E+00 0.97763766E+03</pdfrwt>
<pdfrwt beam="2">  1       -4 0.75418998E-01 0.97763766E+03</pdfrwt>
<totfact> 0.43068066E+01</totfact>
</mgrwt>
</event>
<event>
 6    2  0.2321478E-005  0.1021374E+04  0.7818608E-02  0.9650094E-01
         -4   -1    0    0    0  501 -0.00000000000E+00  0.00000000000E+00  0.11161991447E+04  0.11161991447E+04  0.00000000000E+00 0. -1.
         21   -1    0    0  501  502  0.00000000000E+00 -0.00000000000E+00 -0.38079954957E+03  0.38079954957E+03  0.00000000000E+00 0. -1.
   -9000010    2    1    2    0  502  0.21531002491E+03  0.18282612738E+03  0.58290422682E+03  0.11760023576E+04  0.98153981460E+03 0.  0.
         13    1    3    3    0    0  0.19334343086E+03 -0.35853398392E+03  0.47108998510E+03  0.62277932296E+03  0.10566000000E+00 0. -1.
         -4    1    3    3    0  502  0.21966594055E+02  0.54136011129E+03  0.11181424171E+03  0.55322303459E+03  0.00000000000E+00 0. -1.
        -13    1    1    2    0    0 -0.21531002491E+03 -0.18282612738E+03  0.15249536836E+03  0.32099633676E+03  0.10566000000E+00 0.  1.
<mgrwt>
<rscale>  1 0.74067536E+03</rscale>
<asrwt>0</asrwt>
<pdfrwt beam="2">  1       21 0.58584547E-01 0.10213737E+04</pdfrwt>
<pdfrwt beam="1">  1       -4 0.17172294E+00 0.10213737E+04</pdfrwt>
<totfact> 0.21815958E+01</totfact>
</mgrwt>
</event>
<event>
 6    2  0.2321478E-005  0.1024015E+04  0.7818608E-02  0.9758314E-01
         -4   -1    0    0    0  501 -0.00000000000E+00  0.00000000000E+00  0.10725929930E+04  0.10725929930E+04  0.00000000000E+00 0. -1.
         21   -1    0    0  501  502  0.00000000000E+00 -0.00000000000E+00 -0.54882081047E+03  0.54882081047E+03  0.00000000000E+00 0. -1.
   -9000010    2    1    2    0  502  0.19357735228E+03  0.23798191150E+02 -0.40063850995E+02  0.10247986603E+04  0.10052704297E+04 0.  0.
         13    1    3    3    0    0  0.48345889295E+03  0.20995164158E+03 -0.28773671742E+03  0.60050364087E+03  0.10566000000E+00 0. -1.
         -4    1    3    3    0  502 -0.28988154068E+03 -0.18615345043E+03  0.24767286643E+03  0.42429501941E+03  0.00000000000E+00 0. -1.
        -13    1    1    2    0    0 -0.19357735228E+03 -0.23798191150E+02  0.56383603351E+03  0.59661514318E+03  0.10566000000E+00 0.  1.
<mgrwt>
<rscale>  1 0.67648444E+03</rscale>
<asrwt>0</asrwt>
<pdfrwt beam="2">  1       21 0.84433971E-01 0.10240152E+04</pdfrwt>
<pdfrwt beam="1">  1       -4 0.16501431E+00 0.10240152E+04</pdfrwt>
<totfact> 0.10535524E+01</totfact>
</mgrwt>
</event>
<event>
 6    2  0.2321478E-005  0.1048360E+04  0.7818608E-02  0.9640336E-01
         21   -1    0    0  501  502  0.00000000000E+00  0.00000000000E+00  0.37086334199E+03  0.37086334199E+03  0.00000000000E+00 0. -1.
         -4   -1    0    0    0  501 -0.00000000000E+00 -0.00000000000E+00 -0.12004053746E+04  0.12004053746E+04  0.00000000000E+00 0. -1.
   -9000010    2    1    2    0  502 -0.24417331355E+03  0.11522483154E+03 -0.75258357306E+03  0.12905197459E+04  0.10129964518E+04 0.  0.
         13    1    3    3    0    0 -0.32872789830E+03 -0.28255857235E+03  0.18277003128E+01  0.43347979143E+03  0.10566000000E+00 0. -1.
         -4    1    3    3    0  502  0.84554584747E+02  0.39778340389E+03 -0.75441127337E+03  0.85703995450E+03  0.00000000000E+00 0. -1.
        -13    1    1    2    0    0  0.24417331355E+03 -0.11522483154E+03 -0.76958459515E+02  0.28074897063E+03  0.10566000000E+00 0.  1.
<mgrwt>
<rscale>  1 0.74683033E+03</rscale>
<asrwt>0</asrwt>
<pdfrwt beam="1">  1       21 0.57055900E-01 0.10483602E+04</pdfrwt>
<pdfrwt beam="2">  1       -4 0.18467775E+00 0.10483602E+04</pdfrwt>
<totfact> 0.18711155E+01</totfact>
</mgrwt>
</event>
<event>
 6    2  0.2321478E-005  0.1060609E+04  0.7818608E-02  0.9457528E-01
         21   -1    0    0  501  502  0.00000000000E+00  0.00000000000E+00  0.19540083227E+04  0.19540083227E+04  0.00000000000E+00 0. -1.
         -4   -1    0    0    0  501 -0.00000000000E+00 -0.00000000000E+00 -0.36134842598E+03  0.36134842598E+03  0.00000000000E+00 0. -1.
   -9000010    2    1    2    0  502 -0.18255074538E+02 -0.49073208802E+03  0.14638162510E+04  0.18076640009E+04  0.94007440844E+03 0.  0.
         13    1    3    3    0    0 -0.27491422873E+03 -0.11577206304E+03  0.25620835220E+02  0.29939512705E+03  0.10566000000E+00 0. -1.
         -4    1    3    3    0  502  0.25665915420E+03 -0.37496002498E+03  0.14381954158E+04  0.15082688738E+04  0.00000000000E+00 0. -1.
        -13    1    1    2    0    0  0.18255074538E+02  0.49073208802E+03  0.12884364570E+03  0.50769274779E+03  0.10566000000E+00 0.  1.
<mgrwt>
<rscale>  1 0.87488833E+03</rscale>
<asrwt>0</asrwt>
<pdfrwt beam="1">  1       21 0.30061666E+00 0.10606088E+04</pdfrwt>
<pdfrwt beam="2">  1       -4 0.55592067E-01 0.10606088E+04</pdfrwt>
<totfact> 0.31820833E+00</totfact>
</mgrwt>
</event>
<event>
 6    2  0.2321478E-005  0.9745291E+03  0.7818608E-02  0.9621791E-01
         21   -1    0    0  501  502  0.00000000000E+00  0.00000000000E+00  0.46540458563E+03  0.46540458563E+03  0.00000000000E+00 0. -1.
         -4   -1    0    0    0  501 -0.00000000000E+00 -0.00000000000E+00 -0.12368362250E+04  0.12368362250E+04  0.00000000000E+00 0. -1.
   -9000010    2    1    2    0  502 -0.14261459026E+03  0.32838938727E+03 -0.89534259797E+03  0.13233840464E+04  0.90638206923E+03 0.  0.
         13    1    3    3    0    0  0.97736506288E+02  0.11519033646E+03 -0.97964588442E+03  0.99122515520E+03  0.10566000000E+00 0. -1.
         -4    1    3    3    0  502 -0.24035109655E+03  0.21319905081E+03  0.84303286449E+02  0.33215889117E+03  0.00000000000E+00 0. -1.
        -13    1    1    2    0    0  0.14261459026E+03 -0.32838938727E+03  0.12391095857E+03  0.37885676428E+03  0.10566000000E+00 0.  1.
<mgrwt>
<rscale>  1 0.75870522E+03</rscale>
<asrwt>0</asrwt>
<pdfrwt beam="1">  1       21 0.71600705E-01 0.97452910E+03</pdfrwt>
<pdfrwt beam="2">  1       -4 0.19028250E+00 0.97452910E+03</pdfrwt>
<totfact> 0.10349455E+01</totfact>
</mgrwt>
</event>
<event>
 6    2  0.2321478E-005  0.1078742E+04  0.7818608E-02  0.9605800E-01
         -4   -1    0    0    0  501 -0.00000000000E+00  0.00000000000E+00  0.59776377226E+03  0.59776377226E+03  0.00000000000E+00 0. -1.
         21   -1    0    0  501  502  0.00000000000E+00 -0.00000000000E+00 -0.84189345215E+03  0.84189345215E+03  0.00000000000E+00 0. -1.
   -9000010    2    1    2    0  502 -0.19660159103E+03  0.19764679170E+03 -0.36075868082E+03  0.11374672595E+04  0.10420981244E+04 0.  0.
         13    1    3    3    0    0  0.96504078714E+02  0.35307727255E+03 -0.61758744117E+03  0.71790727553E+03  0.10566000000E+00 0. -1.
         -4    1    3    3    0  502 -0.29310566975E+03 -0.15543048086E+03  0.25682876036E+03  0.41955998399E+03  0.00000000000E+00 0. -1.
        -13    1    1    2    0    0  0.19660159103E+03 -0.19764679170E+03  0.11662900092E+03  0.30218996490E+03  0.10566000000E+00 0.  1.
<mgrwt>
<rscale>  1 0.76913469E+03</rscale>
<asrwt>0</asrwt>
<pdfrwt beam="2">  1       21 0.12952207E+00 0.10787423E+04</pdfrwt>
<pdfrwt beam="1">  1       -4 0.91963658E-01 0.10787423E+04</pdfrwt>
<totfact> 0.15877488E+01</totfact>
</mgrwt>
</event>
<event>
 6    2  0.2321478E-005  0.1013223E+04  0.7818608E-02  0.9939305E-01
         -4   -1    0    0    0  501 -0.00000000000E+00  0.00000000000E+00  0.86966709662E+03  0.86966709662E+03  0.00000000000E+00 0. -1.
         21   -1    0    0  501  502  0.00000000000E+00 -0.00000000000E+00 -0.36912872979E+03  0.36912872979E+03  0.00000000000E+00 0. -1.
   -9000010    2    1    2    0  502  0.10818466940E+03 -0.28104604370E+02  0.49291944012E+03  0.11267607842E+04  0.10070384793E+04 0.  0.
         13    1    3    3    0    0  0.29876508381E+03 -0.45545401583E+03  0.24575209318E+03  0.59757262178E+03  0.10566000000E+00 0. -1.
         -4    1    3    3    0  502 -0.19058041441E+03  0.42734941146E+03  0.24716734694E+03  0.52918816240E+03  0.00000000000E+00 0. -1.
        -13    1    1    2    0    0 -0.10818466940E+03  0.28104604370E+02  0.76189267085E+01  0.11203504223E+03  0.10566000000E+00 0.  1.
<mgrwt>
<rscale>  1 0.58393644E+03</rscale>
<asrwt>0</asrwt>
<pdfrwt beam="2">  1       21 0.56789036E-01 0.10132227E+04</pdfrwt>
<pdfrwt beam="1">  1       -4 0.13379494E+00 0.10132227E+04</pdfrwt>
<totfact> 0.45917268E+01</totfact>
</mgrwt>
</event>
<event>
 6    2  0.2321478E-005  0.1027337E+04  0.7818608E-02  0.9783496E-01
         21   -1    0    0  501  502  0.00000000000E+00  0.00000000000E+00  0.11621319605E+04  0.11621319605E+04  0.00000000000E+00 0. -1.
         -4   -1    0    0    0  501 -0.00000000000E+00 -0.00000000000E+00 -0.31257909609E+03  0.31257909609E+03  0.00000000000E+00 0. -1.
   -9000010    2    1    2    0  502  0.17211670080E+03  0.44308185846E+02  0.73672844311E+03  0.12641956528E+04  0.10118470614E+04 0.  0.
         13    1    3    3    0    0  0.25886507593E+03  0.30617004908E+03  0.86991929975E+03  0.95786785400E+03  0.10566000000E+00 0. -1.
         -4    1    3    3    0  502 -0.86748375127E+02 -0.26186186324E+03 -0.13319085664E+03  0.30632779877E+03  0.00000000000E+00 0. -1.
        -13    1    1    2    0    0 -0.17211670080E+03 -0.44308185846E+02  0.11282442126E+03  0.21051540377E+03  0.10566000000E+00 0.  1.
<mgrwt>
<rscale>  1 0.66255813E+03</rscale>
<asrwt>0</asrwt>
<pdfrwt beam="1">  1       21 0.17878953E+00 0.10273373E+04</pdfrwt>
<pdfrwt beam="2">  1       -4 0.48089092E-01 0.10273373E+04</pdfrwt>
<totfact> 0.27246397E+01</totfact>
</mgrwt>
</event>
<event>
 6    2  0.2321478E-005  0.1027174E+04  0.7818608E-02  0.9691710E-01
         -4   -1    0    0    0  501 -0.00000000000E+00  0.00000000000E+00  0.55717345475E+03  0.55717345475E+03  0.00000000000E+00 0. -1.
         21   -1    0    0  501  502  0.00000000000E+00 -0.00000000000E+00 -0.72924277011E+03  0.72924277011E+03  0.00000000000E+00 0.  1.
   -9000010    2    1    2    0  502 -0.83525783759E+02  0.22640536771E+03 -0.88274221188E+02  0.10309606004E+04  0.99842449612E+03 0.  0.
         13    1    3    3    0    0 -0.16177441870E+03  0.26862620640E+03 -0.51069537047E+03  0.59928355050E+03  0.10566000000E+00 0. -1.
         -4    1    3    3    0  502  0.78248634943E+02 -0.42220838694E+02  0.42242114928E+03  0.43167704995E+03  0.00000000000E+00 0. -1.
        -13    1    1    2    0    0  0.83525783759E+02 -0.22640536771E+03 -0.83795094170E+02  0.25545562443E+03  0.10566000000E+00 0.  1.
<mgrwt>
<rscale>  1 0.71512527E+03</rscale>
<asrwt>0</asrwt>
<pdfrwt beam="2">  1       21 0.11219119E+00 0.10271745E+04</pdfrwt>
<pdfrwt beam="1">  1       -4 0.85718994E-01 0.10271745E+04</pdfrwt>
<totfact> 0.27351706E+01</totfact>
</mgrwt>
</event>
<event>
 6    2  0.2321478E-005  0.1024807E+04  0.7818608E-02  0.9729866E-01
         -4   -1    0    0    0  501 -0.00000000000E+00  0.00000000000E+00  0.13922881736E+04  0.13922881736E+04  0.00000000000E+00 0. -1.
         21   -1    0    0  501  502  0.00000000000E+00 -0.00000000000E+00 -0.28073993765E+03  0.28073993765E+03  0.00000000000E+00 0. -1.
   -9000010    2    1    2    0  502 -0.20613956800E+03 -0.56991096850E+02  0.99979202808E+03  0.14317171754E+04  0.10022417195E+04 0.  0.
         13    1    3    3    0    0  0.50641212221E+02 -0.18680744135E+03 -0.15100993988E+03  0.24549045934E+03  0.10566000000E+00 0. -1.
         -4    1    3    3    0  502 -0.25678078022E+03  0.12981634450E+03  0.11508019680E+04  0.11862267160E+04  0.00000000000E+00 0. -1.
        -13    1    1    2    0    0  0.20613956800E+03  0.56991096850E+02  0.11175620791E+03  0.24131093591E+03  0.10566000000E+00 0.  1.
<mgrwt>
<rscale>  1 0.69266067E+03</rscale>
<asrwt>0</asrwt>
<pdfrwt beam="2">  1       21 0.43190760E-01 0.10248073E+04</pdfrwt>
<pdfrwt beam="1">  1       -4 0.21419818E+00 0.10248073E+04</pdfrwt>
<totfact> 0.21798121E+01</totfact>
</mgrwt>
</event>
<event>
 6    2  0.2321478E-005  0.1141811E+04  0.7818608E-02  0.9377256E-01
         21   -1    0    0  501  502  0.00000000000E+00  0.00000000000E+00  0.75479015693E+03  0.75479015693E+03  0.00000000000E+00 0. -1.
         -4   -1    0    0    0  501 -0.00000000000E+00 -0.00000000000E+00 -0.91914870090E+03  0.91914870090E+03  0.00000000000E+00 0. -1.
   -9000010    2    1    2    0  502  0.15816216314E+03 -0.49939217538E+03 -0.12469700260E+03  0.11486000493E+04  0.10145565121E+04 0.  0.
         13    1    3    3    0    0  0.10259514306E+03 -0.12264035561E+03  0.43962506112E+03  0.46779977098E+03  0.10566000000E+00 0. -1.
         -4    1    3    3    0  502  0.55567020087E+02 -0.37675181977E+03 -0.56432206372E+03  0.68080027836E+03  0.00000000000E+00 0. -1.
        -13    1    1    2    0    0 -0.15816216314E+03  0.49939217538E+03 -0.39661541372E+02  0.52533880849E+03  0.10566000000E+00 0.  1.
<mgrwt>
<rscale>  1 0.93971320E+03</rscale>
<asrwt>0</asrwt>
<pdfrwt beam="1">  1       21 0.11612156E+00 0.11418112E+04</pdfrwt>
<pdfrwt beam="2">  1       -4 0.14140749E+00 0.11418112E+04</pdfrwt>
<totfact> 0.71816227E+00</totfact>
</mgrwt>
</event>
<event>
 6    2  0.2321478E-005  0.9871749E+03  0.7818608E-02  0.9774724E-01
         -4   -1    0    0    0  501 -0.00000000000E+00  0.00000000000E+00  0.10779142824E+04  0.10779142824E+04  0.00000000000E+00 0. -1.
         21   -1    0    0  501  502  0.00000000000E+00 -0.00000000000E+00 -0.33330920823E+03  0.33330920823E+03  0.00000000000E+00 0. -1.
   -9000010    2    1    2    0  502 -0.20316982704E+03  0.35194875249E+02  0.56286887670E+03  0.11363695030E+04  0.96540023680E+03 0.  0.
         13    1    3    3    0    0 -0.41425173204E+03 -0.35368596171E+03  0.31067463687E+03  0.62707017006E+03  0.10566000000E+00 0. -1.
         -4    1    3    3    0  502  0.21108190500E+03  0.38888083696E+03  0.25219423983E+03  0.50929933298E+03  0.00000000000E+00 0. -1.
        -13    1    1    2    0    0  0.20316982704E+03 -0.35194875249E+02  0.18173619749E+03  0.27485398761E+03  0.10566000000E+00 0.  1.
<mgrwt>
<rscale>  1 0.66736816E+03</rscale>
<asrwt>0</asrwt>
<pdfrwt beam="2">  1       21 0.51278340E-01 0.98717490E+03</pdfrwt>
<pdfrwt beam="1">  1       -4 0.16583296E+00 0.98717490E+03</pdfrwt>
<totfact> 0.32334101E+01</totfact>
</mgrwt>
</event>
<event>
 6    2  0.2321478E-005  0.1108628E+04  0.7818608E-02  0.9433871E-01
         -4   -1    0    0    0  501 -0.00000000000E+00  0.00000000000E+00  0.49051307737E+03  0.49051307737E+03  0.00000000000E+00 0. -1.
         21   -1    0    0  501  502  0.00000000000E+00 -0.00000000000E+00 -0.12737415638E+04  0.12737415638E+04  0.00000000000E+00 0.  1.
   -9000010    2    1    2    0  502  0.34418285707E+03 -0.31644586696E+03 -0.61204869456E+03  0.12663567017E+04  0.10052143381E+04 0.  0.
         13    1    3    3    0    0 -0.17302603474E+03 -0.49910215554E+03 -0.14988654897E+03  0.54909649343E+03  0.10566000000E+00 0. -1.
         -4    1    3    3    0  502  0.51720889181E+03  0.18265628858E+03 -0.46216214559E+03  0.71726020825E+03  0.00000000000E+00 0. -1.
        -13    1    1    2    0    0 -0.34418285707E+03  0.31644586696E+03 -0.17117979184E+03  0.49789793946E+03  0.10566000000E+00 0.  1.
<mgrwt>
<rscale>  1 0.89339921E+03</rscale>
<asrwt>0</asrwt>
<pdfrwt beam="2">  1       21 0.19596024E+00 0.11086278E+04</pdfrwt>
<pdfrwt beam="1">  1       -4 0.75463551E-01 0.11086278E+04</pdfrwt>
<totfact> 0.76157354E+00</totfact>
</mgrwt>
</event>
<event>
 6    2  0.2321478E-005  0.1013118E+04  0.7818608E-02  0.9798107E-01
         -4   -1    0    0    0  501 -0.00000000000E+00  0.00000000000E+00  0.21752050980E+04  0.21752050980E+04  0.00000000000E+00 0. -1.
         21   -1    0    0  501  502  0.00000000000E+00 -0.00000000000E+00 -0.22571027711E+03  0.22571027711E+03  0.00000000000E+00 0. -1.
   -9000010    2    1    2    0  502 -0.16968533779E+03  0.48998552993E+02  0.95976158089E+03  0.13955468508E+04  0.99760450515E+03 0.  0.
         13    1    3    3    0    0 -0.26790401305E+03 -0.22553121158E+03  0.10364883024E+04  0.10940497703E+04  0.10566000000E+00 0. -1.
         -4    1    3    3    0  502  0.98218675258E+02  0.27452976457E+03 -0.76726721528E+02  0.30149708058E+03  0.00000000000E+00 0. -1.
        -13    1    1    2    0    0  0.16968533779E+03 -0.48998552993E+02  0.98973324001E+03  0.10053685243E+04  0.10566000000E+00 0.  1.
<mgrwt>
<rscale>  1 0.65464217E+03</rscale>
<asrwt>0</asrwt>
<pdfrwt beam="2">  1       21 0.34724659E-01 0.10131183E+04</pdfrwt>
<pdfrwt beam="1">  1       -4 0.33464692E+00 0.10131183E+04</pdfrwt>
<totfact> 0.61028756E+00</totfact>
</mgrwt>
</event>
<event>
 6    2  0.2321478E-005  0.1028162E+04  0.7818608E-02  0.9628859E-01
         -4   -1    0    0    0  501 -0.00000000000E+00  0.00000000000E+00  0.10861698266E+04  0.10861698266E+04  0.00000000000E+00 0. -1.
         21   -1    0    0  501  502  0.00000000000E+00 -0.00000000000E+00 -0.62310096673E+03  0.62310096673E+03  0.00000000000E+00 0. -1.
   -9000010    2    1    2    0  502  0.26546823359E+03 -0.13453452681E+03 -0.13914122544E+03  0.10375342974E+04  0.98414644017E+03 0.  0.
         13    1    3    3    0    0  0.27915553038E+03 -0.11714449926E+03 -0.54907478811E+03  0.62700381016E+03  0.10566000000E+00 0. -1.
         -4    1    3    3    0  502 -0.13687296792E+02 -0.17390027544E+02  0.40993356266E+03  0.41053048724E+03  0.00000000000E+00 0. -1.
        -13    1    1    2    0    0 -0.26546823359E+03  0.13453452681E+03  0.60221008535E+03  0.67173649596E+03  0.10566000000E+00 0.  1.
<mgrwt>
<rscale>  1 0.75415184E+03</rscale>
<asrwt>0</asrwt>
<pdfrwt beam="2">  1       21 0.95861687E-01 0.10281620E+04</pdfrwt>
<pdfrwt beam="1">  1       -4 0.16710305E+00 0.10281620E+04</pdfrwt>
<totfact> 0.74819645E+00</totfact>
</mgrwt>
</event>
<event>
 6    2  0.2321478E-005  0.1029610E+04  0.7818608E-02  0.9854447E-01
         21   -1    0    0  501  502  0.00000000000E+00  0.00000000000E+00  0.29764901697E+03  0.29764901697E+03  0.00000000000E+00 0. -1.
         -4   -1    0    0    0  501 -0.00000000000E+00 -0.00000000000E+00 -0.11903173217E+04  0.11903173217E+04  0.00000000000E+00 0. -1.
   -9000010    2    1    2    0  502 -0.37377366359E+02 -0.13490113090E+03 -0.68188389561E+03  0.12349338093E+04  0.10200492555E+04 0.  0.
         13    1    3    3    0    0 -0.50316960553E+02  0.18951603970E+03  0.20908955392E+03  0.28664713246E+03  0.10566000000E+00 0. -1.
         -4    1    3    3    0  502  0.12939594194E+02 -0.32441717061E+03 -0.89097344953E+03  0.94828667683E+03  0.00000000000E+00 0. -1.
        -13    1    1    2    0    0  0.37377366359E+02  0.13490113090E+03 -0.21078440915E+03  0.25303252941E+03  0.10566000000E+00 0.  1.
<mgrwt>
<rscale>  1 0.62520678E+03</rscale>
<asrwt>0</asrwt>
<pdfrwt beam="1">  1       21 0.45792156E-01 0.10296096E+04</pdfrwt>
<pdfrwt beam="2">  1       -4 0.18312575E+00 0.10296096E+04</pdfrwt>
<totfact> 0.30973803E+01</totfact>
</mgrwt>
</event>
<event>
 6    2  0.2321478E-005  0.9856343E+03  0.7818608E-02  0.9719384E-01
         -4   -1    0    0    0  501 -0.00000000000E+00  0.00000000000E+00  0.17956154739E+04  0.17956154739E+04  0.00000000000E+00 0. -1.
         21   -1    0    0  501  502  0.00000000000E+00 -0.00000000000E+00 -0.21221380854E+03  0.21221380854E+03  0.00000000000E+00 0. -1.
   -9000010    2    1    2    0  502 -0.29494688101E+01  0.24893883995E+03  0.12628651902E+04  0.16019686062E+04  0.95367483000E+03 0.  0.
         13    1    3    3    0    0  0.21858021101E+03  0.43316260675E+03  0.12170887795E+04  0.13102336665E+04  0.10566000000E+00 0. -1.
         -4    1    3    3    0  502 -0.22152967982E+03 -0.18422376680E+03  0.45776410740E+02  0.29173493976E+03  0.00000000000E+00 0. -1.
        -13    1    1    2    0    0  0.29494688101E+01 -0.24893883995E+03  0.32053647511E+03  0.40586067615E+03  0.10566000000E+00 0.  1.
<mgrwt>
<rscale>  1 0.69874328E+03</rscale>
<asrwt>0</asrwt>
<pdfrwt beam="2">  1       21 0.32648280E-01 0.98563428E+03</pdfrwt>
<pdfrwt beam="1">  1       -4 0.27624852E+00 0.98563428E+03</pdfrwt>
<totfact> 0.16051222E+01</totfact>
</mgrwt>
</event>
<event>
 6    2  0.2321478E-005  0.1067845E+04  0.7818608E-02  0.9520417E-01
         -4   -1    0    0    0  501 -0.00000000000E+00  0.00000000000E+00  0.11997710317E+04  0.11997710317E+04  0.00000000000E+00 0. -1.
         21   -1    0    0  501  502  0.00000000000E+00 -0.00000000000E+00 -0.44568219370E+03  0.44568219370E+03  0.00000000000E+00 0. -1.
   -9000010    2    1    2    0  502  0.37890556796E+03 -0.73233930960E+02  0.47242685887E+03  0.11676811880E+04  0.99567041822E+03 0.  0.
         13    1    3    3    0    0  0.43425603187E+03 -0.46431416929E+03  0.43630230730E+03  0.77105490306E+03  0.10566000000E+00 0. -1.
         -4    1    3    3    0  502 -0.55350463911E+02  0.39108023833E+03  0.36124551571E+02  0.39662628492E+03  0.00000000000E+00 0. -1.
        -13    1    1    2    0    0 -0.37890556796E+03  0.73233930960E+02  0.28166197908E+03  0.47777203738E+03  0.10566000000E+00 0.  1.
<mgrwt>
<rscale>  1 0.82795131E+03</rscale>
<asrwt>0</asrwt>
<pdfrwt beam="2">  1       21 0.68566491E-01 0.10678447E+04</pdfrwt>
<pdfrwt beam="1">  1       -4 0.18458016E+00 0.10678447E+04</pdfrwt>
<totfact> 0.12373433E+01</totfact>
</mgrwt>
</event>
<event>
 6    2  0.2321478E-005  0.1016207E+04  0.7818608E-02  0.9768968E-01
         21   -1    0    0  501  502  0.00000000000E+00  0.00000000000E+00  0.64991118000E+03  0.64991118000E+03  0.00000000000E+00 0. -1.
         -4   -1    0    0    0  501 -0.00000000000E+00 -0.00000000000E+00 -0.71141901029E+03  0.71141901029E+03  0.00000000000E+00 0. -1.
   -9000010    2    1    2    0  502  0.50799504790E+02  0.18583372184E+03  0.20082075406E+03  0.10358596706E+04  0.99777829203E+03 0.  0.
         13    1    3    3    0    0  0.26356302601E+03  0.31702968815E+03  0.49866606200E+03  0.64702484063E+03  0.10566000000E+00 0. -1.
         -4    1    3    3    0  502 -0.21276352122E+03 -0.13119596630E+03 -0.29784530793E+03  0.38883482997E+03  0.00000000000E+00 0. -1.
        -13    1    1    2    0    0 -0.50799504790E+02 -0.18583372184E+03 -0.26232858435E+03  0.32547051969E+03  0.10566000000E+00 0.  1.
<mgrwt>
<rscale>  1 0.67054809E+03</rscale>
<asrwt>0</asrwt>
<pdfrwt beam="1">  1       21 0.99986335E-01 0.10162068E+04</pdfrwt>
<pdfrwt beam="2">  1       -4 0.10944908E+00 0.10162068E+04</pdfrwt>
<totfact> 0.20377463E+01</totfact>
</mgrwt>
</event>
<event>
 6    2  0.2321478E-005  0.1054823E+04  0.7818608E-02  0.9547412E-01
         21   -1    0    0  501  502  0.00000000000E+00  0.00000000000E+00  0.30066399000E+03  0.30066399000E+03  0.00000000000E+00 0. -1.
         -4   -1    0    0    0  501 -0.00000000000E+00 -0.00000000000E+00 -0.19014488291E+04  0.19014488291E+04  0.00000000000E+00 0. -1.
   -9000010    2    1    2    0  502  0.36383100191E+03 -0.22881069807E+02 -0.80534124476E+03  0.13271116395E+04  0.98982535934E+03 0.  0.
         13    1    3    3    0    0  0.21895244361E+03  0.47787883604E+03 -0.32338724324E+03  0.61716097961E+03  0.10566000000E+00 0. -1.
         -4    1    3    3    0  502  0.14487855830E+03 -0.50075990585E+03 -0.48195400152E+03  0.70995065993E+03  0.00000000000E+00 0. -1.
        -13    1    1    2    0    0 -0.36383100191E+03  0.22881069807E+02 -0.79544359436E+03  0.87500117959E+03  0.10566000000E+00 0.  1.
<mgrwt>
<rscale>  1 0.80876769E+03</rscale>
<asrwt>0</asrwt>
<pdfrwt beam="1">  1       21 0.46255998E-01 0.10548226E+04</pdfrwt>
<pdfrwt beam="2">  1       -4 0.29253059E+00 0.10548226E+04</pdfrwt>
<totfact> 0.61048409E+00</totfact>
</mgrwt>
</event>
<event>
 6    2  0.2321478E-005  0.1161104E+04  0.7818608E-02  0.9362736E-01
         21   -1    0    0  501  502  0.00000000000E+00  0.00000000000E+00  0.43945831764E+03  0.43945831764E+03  0.00000000000E+00 0. -1.
         -4   -1    0    0    0  501 -0.00000000000E+00 -0.00000000000E+00 -0.16179039409E+04  0.16179039409E+04  0.00000000000E+00 0. -1.
   -9000010    2    1    2    0  502  0.24959824428E+03 -0.46173430752E+03 -0.78982342276E+03  0.14042733824E+04  0.10356953408E+04 0.  0.
         13    1    3    3    0    0  0.12320381187E+03  0.30166779604E+02 -0.87944600464E+03  0.88854628472E+03  0.10566000000E+00 0. -1.
         -4    1    3    3    0  502  0.12639443241E+03 -0.49190108712E+03  0.89622581885E+02  0.51572709764E+03  0.00000000000E+00 0. -1.
        -13    1    1    2    0    0 -0.24959824428E+03  0.46173430752E+03 -0.38862220048E+03  0.65308887615E+03  0.10566000000E+00 0.  1.
<mgrwt>
<rscale>  1 0.95206839E+03</rscale>
<asrwt>0</asrwt>
<pdfrwt beam="1">  1       21 0.67608972E-01 0.11611041E+04</pdfrwt>
<pdfrwt beam="2">  1       -4 0.24890830E+00 0.11611041E+04</pdfrwt>
<totfact> 0.48490060E+00</totfact>
</mgrwt>
</event>
<event>
 6    2  0.2321478E-005  0.1074928E+04  0.7818608E-02  0.9989241E-01
         21   -1    0    0  501  502  0.00000000000E+00  0.00000000000E+00  0.79243294608E+03  0.79243294608E+03  0.00000000000E+00 0. -1.
         -4   -1    0    0    0  501 -0.00000000000E+00 -0.00000000000E+00 -0.42335578823E+03  0.42335578823E+03  0.00000000000E+00 0. -1.
   -9000010    2    1    2    0  502  0.75855108095E+02  0.25056617705E+02  0.31803669361E+03  0.11209890947E+04  0.10719549340E+04 0.  0.
         13    1    3    3    0    0 -0.90020652307E+02  0.20821514417E+03  0.66067910951E+03  0.69853715793E+03  0.10566000000E+00 0. -1.
         -4    1    3    3    0  502  0.16587576040E+03 -0.18315852646E+03 -0.34264241590E+03  0.42245193677E+03  0.00000000000E+00 0. -1.
        -13    1    1    2    0    0 -0.75855108095E+02 -0.25056617705E+02  0.51040464251E+02  0.94799639609E+02  0.10566000000E+00 0.  1.
<mgrwt>
<rscale>  1 0.56124529E+03</rscale>
<asrwt>0</asrwt>
<pdfrwt beam="1">  1       21 0.12191276E+00 0.10749275E+04</pdfrwt>
<pdfrwt beam="2">  1       -4 0.65131660E-01 0.10749275E+04</pdfrwt>
<totfact> 0.41012878E+01</totfact>
</mgrwt>
</event>
<event>
 6    2  0.2321478E-005  0.1006222E+04  0.7818608E-02  0.9774464E-01
         21   -1    0    0  501  502  0.00000000000E+00  0.00000000000E+00  0.13061674410E+04  0.13061674410E+04  0.00000000000E+00 0. -1.
         -4   -1    0    0    0  501 -0.00000000000E+00 -0.00000000000E+00 -0.29150452990E+03  0.29150452990E+03  0.00000000000E+00 0. -1.
   -9000010    2    1    2    0  502 -0.18999396572E+03 -0.43335934839E+02  0.97023573271E+03  0.13977982718E+04  0.98717117126E+03 0.  0.
         13    1    3    3    0    0  0.32916863572E+03 -0.29595343271E+02  0.40665692064E+02  0.33298886582E+03  0.10566000000E+00 0. -1.
         -4    1    3    3    0  502 -0.51916260144E+03 -0.13740591568E+02  0.92957004064E+03  0.10648094060E+04  0.00000000000E+00 0. -1.
        -13    1    1    2    0    0  0.18999396572E+03  0.43335934839E+02  0.44427178424E+02  0.19987369913E+03  0.10566000000E+00 0.  1.
<mgrwt>
<rscale>  1 0.66751126E+03</rscale>
<asrwt>0</asrwt>
<pdfrwt beam="1">  1       21 0.20094883E+00 0.10062220E+04</pdfrwt>
<pdfrwt beam="2">  1       -4 0.44846852E-01 0.10062220E+04</pdfrwt>
<totfact> 0.22035160E+01</totfact>
</mgrwt>
</event>
<event>
 6    2  0.2321478E-005  0.1072878E+04  0.7818608E-02  0.9501236E-01
         21   -1    0    0  501  502  0.00000000000E+00  0.00000000000E+00  0.55838654561E+03  0.55838654561E+03  0.00000000000E+00 0. -1.
         -4   -1    0    0    0  501 -0.00000000000E+00 -0.00000000000E+00 -0.12293588552E+04  0.12293588552E+04  0.00000000000E+00 0. -1.
   -9000010    2    1    2    0  502 -0.32414727743E+02 -0.40557054190E+03 -0.87521241299E+02  0.10764414297E+04  0.99273763146E+03 0.  0.
         13    1    3    3    0    0 -0.40025770796E+03 -0.51157172865E+03  0.87687042931E+02  0.65543946708E+03  0.10566000000E+00 0. -1.
         -4    1    3    3    0  502  0.36784298022E+03  0.10600118675E+03 -0.17520828423E+03  0.42100196265E+03  0.00000000000E+00 0. -1.
        -13    1    1    2    0    0  0.32414727743E+02  0.40557054190E+03 -0.58345106826E+03  0.71130397106E+03  0.10566000000E+00 0.  1.
<mgrwt>
<rscale>  1 0.84192787E+03</rscale>
<asrwt>0</asrwt>
<pdfrwt beam="1">  1       21 0.85905623E-01 0.10728775E+04</pdfrwt>
<pdfrwt beam="2">  1       -4 0.18913213E+00 0.10728775E+04</pdfrwt>
<totfact> 0.67961475E+00</totfact>
</mgrwt>
</event>
<event>
 6    2  0.2321478E-005  0.1063852E+04  0.7818608E-02  0.9538594E-01
         -4   -1    0    0    0  501 -0.00000000000E+00  0.00000000000E+00  0.71105705602E+03  0.71105705602E+03  0.00000000000E+00 0. -1.
         21   -1    0    0  501  502  0.00000000000E+00 -0.00000000000E+00 -0.93002652264E+03  0.93002652264E+03  0.00000000000E+00 0. -1.
   -9000010    2    1    2    0  502 -0.35202436854E+03 -0.10154467492E+03 -0.50370418683E+03  0.11770724267E+04  0.99877380468E+03 0.  0.
         13    1    3    3    0    0  0.32784976708E+03  0.10432542917E+03 -0.92442424007E+02  0.35625114437E+03  0.10566000000E+00 0. -1.
         -4    1    3    3    0  502 -0.67987413562E+03 -0.20587010408E+03 -0.41126176282E+03  0.82082128237E+03  0.00000000000E+00 0. -1.
        -13    1    1    2    0    0  0.35202436854E+03  0.10154467492E+03  0.28473472021E+03  0.46401115192E+03  0.10566000000E+00 0.  1.
<mgrwt>
<rscale>  1 0.81497294E+03</rscale>
<asrwt>0</asrwt>
<pdfrwt beam="2">  1       21 0.14308100E+00 0.10638522E+04</pdfrwt>
<pdfrwt beam="1">  1       -4 0.10939339E+00 0.10638522E+04</pdfrwt>
<totfact> 0.79900724E+00</totfact>
</mgrwt>
</event>
<event>
 6    2  0.2321478E-005  0.1128980E+04  0.7818608E-02  0.9362273E-01
         -4   -1    0    0    0  501 -0.00000000000E+00  0.00000000000E+00  0.17592105452E+04  0.17592105452E+04  0.00000000000E+00 0. -1.
         21   -1    0    0  501  502  0.00000000000E+00 -0.00000000000E+00 -0.43807105859E+03  0.43807105859E+03  0.00000000000E+00 0.  1.
   -9000010    2    1    2    0  502  0.43155749256E+03 -0.37530834591E+03  0.11219672912E+04  0.15916680319E+04  0.97339524214E+03 0.  0.
         13    1    3    3    0    0  0.32755925985E+03  0.20101643640E+03  0.87577477493E+03  0.95639120865E+03  0.10566000000E+00 0. -1.
         -4    1    3    3    0  502  0.10399823271E+03 -0.57632478230E+03  0.24619251623E+03  0.63527682325E+03  0.00000000000E+00 0. -1.
        -13    1    1    2    0    0 -0.43155749256E+03  0.37530834591E+03  0.19917219549E+03  0.60561357193E+03  0.10566000000E+00 0.  1.
<mgrwt>
<rscale>  1 0.95246627E+03</rscale>
<asrwt>0</asrwt>
<pdfrwt beam="2">  1       21 0.67395549E-01 0.11289803E+04</pdfrwt>
<pdfrwt beam="1">  1       -4 0.27064777E+00 0.11289803E+04</pdfrwt>
<totfact> 0.35966626E+00</totfact>
</mgrwt>
</event>
<event>
 6    2  0.2321478E-005  0.1111577E+04  0.7818608E-02  0.9440143E-01
         21   -1    0    0  501  502  0.00000000000E+00  0.00000000000E+00  0.88349580322E+03  0.88349580322E+03  0.00000000000E+00 0. -1.
         -4   -1    0    0    0  501 -0.00000000000E+00 -0.00000000000E+00 -0.76870570193E+03  0.76870570193E+03  0.00000000000E+00 0. -1.
   -9000010    2    1    2    0  502 -0.20719757783E+03 -0.40354603324E+03 -0.15817904318E+03  0.11227750209E+04  0.10148019022E+04 0.  0.
         13    1    3    3    0    0 -0.32542274463E+03 -0.70254889778E+03 -0.19696098879E+03  0.79891711633E+03  0.10566000000E+00 0. -1.
         -4    1    3    3    0  502  0.11822516680E+03  0.29900286454E+03  0.38781945608E+02  0.32385790460E+03  0.00000000000E+00 0. -1.
        -13    1    1    2    0    0  0.20719757783E+03  0.40354603324E+03  0.27296914446E+03  0.52942648422E+03  0.10566000000E+00 0.  1.
<mgrwt>
<rscale>  1 0.88844417E+03</rscale>
<asrwt>0</asrwt>
<pdfrwt beam="1">  1       21 0.13592243E+00 0.11115769E+04</pdfrwt>
<pdfrwt beam="2">  1       -4 0.11826242E+00 0.11115769E+04</pdfrwt>
<totfact> 0.75358739E+00</totfact>
</mgrwt>
</event>
<event>
 6    2  0.2321478E-005  0.1019452E+04  0.7818608E-02  0.9736866E-01
         21   -1    0    0  501  502  0.00000000000E+00  0.00000000000E+00  0.13579213230E+04  0.13579213230E+04  0.00000000000E+00 0. -1.
         -4   -1    0    0    0  501 -0.00000000000E+00 -0.00000000000E+00 -0.10404912722E+04  0.10404912722E+04  0.00000000000E+00 0. -1.
   -9000010    2    1    2    0  502  0.52399102037E+02  0.20568590563E+03  0.11513991390E+04  0.15378564907E+04  0.99711095230E+03 0.  0.
         13    1    3    3    0    0 -0.69748020736E+02 -0.18958023988E+03  0.11029780699E+04  0.11213233644E+04  0.10566000000E+00 0. -1.
         -4    1    3    3    0  502  0.12214712277E+03  0.39526614551E+03  0.48421069077E+02  0.41653312632E+03  0.00000000000E+00 0. -1.
        -13    1    1    2    0    0 -0.52399102037E+02 -0.20568590563E+03 -0.83396908819E+03  0.86055610444E+03  0.10566000000E+00 0.  1.
<mgrwt>
<rscale>  1 0.68863616E+03</rscale>
<asrwt>0</asrwt>
<pdfrwt beam="1">  1       21 0.20891097E+00 0.10194521E+04</pdfrwt>
<pdfrwt beam="2">  1       -4 0.16007558E+00 0.10194521E+04</pdfrwt>
<totfact> 0.97446979E-01</totfact>
</mgrwt>
</event>
<event>
 6    2  0.2321478E-005  0.1473599E+04  0.7818608E-02  0.8984825E-01
         21   -1    0    0  501  502  0.00000000000E+00  0.00000000000E+00  0.99868575302E+03  0.99868575302E+03  0.00000000000E+00 0.  1.
         -4   -1    0    0    0  501 -0.00000000000E+00 -0.00000000000E+00 -0.16370067208E+04  0.16370067208E+04  0.00000000000E+00 0. -1.
   -9000010    2    1    2    0  502 -0.61766374018E+02 -0.10608973331E+04 -0.53612548810E+03  0.15680960316E+04  0.10208704075E+04 0.  0.
         13    1    3    3    0    0  0.55411360803E+02  0.18640149694E+02  0.23119180870E+03  0.23846915452E+03  0.10566000000E+00 0. -1.
         -4    1    3    3    0  502 -0.11717773482E+03 -0.10795374828E+04 -0.76731729680E+03  0.13296268771E+04  0.00000000000E+00 0. -1.
        -13    1    1    2    0    0  0.61766374018E+02  0.10608973331E+04 -0.10219547970E+03  0.10675964423E+04  0.10566000000E+00 0.  1.
<mgrwt>
<rscale>  1 0.13579589E+04</rscale>
<asrwt>0</asrwt>
<pdfrwt beam="1">  1       21 0.15364396E+00 0.14735992E+04</pdfrwt>
<pdfrwt beam="2">  1       -4 0.25184719E+00 0.14735992E+04</pdfrwt>
<totfact> 0.56492542E-01</totfact>
</mgrwt>
</event>
<event>
 6    2  0.2321478E-005  0.1020413E+04  0.7818608E-02  0.9682343E-01
         21   -1    0    0  501  502  0.00000000000E+00  0.00000000000E+00  0.17918112215E+04  0.17918112215E+04  0.00000000000E+00 0. -1.
         -4   -1    0    0    0  501 -0.00000000000E+00 -0.00000000000E+00 -0.22669940645E+03  0.22669940645E+03  0.00000000000E+00 0. -1.
   -9000010    2    1    2    0  502 -0.22731593813E+03 -0.11338861245E+03  0.12372999856E+04  0.16037937126E+04  0.98828816907E+03 0.  0.
         13    1    3    3    0    0  0.30203919477E+03  0.10377191135E+03  0.86267457568E+03  0.91989331960E+03  0.10566000000E+00 0. -1.
         -4    1    3    3    0  502 -0.52935513290E+03 -0.21716052379E+03  0.37462540993E+03  0.68390039303E+03  0.00000000000E+00 0. -1.
        -13    1    1    2    0    0  0.22731593813E+03  0.11338861245E+03  0.32781182947E+03  0.41471691534E+03  0.10566000000E+00 0.  1.
<mgrwt>
<rscale>  1 0.72077863E+03</rscale>
<asrwt>0</asrwt>
<pdfrwt beam="1">  1       21 0.27566326E+00 0.10204132E+04</pdfrwt>
<pdfrwt beam="2">  1       -4 0.34876833E-01 0.10204132E+04</pdfrwt>
<totfact> 0.12039937E+01</totfact>
</mgrwt>
</event>
<event>
 6    2  0.2321478E-005  0.1008888E+04  0.7818608E-02  0.9684934E-01
         -4   -1    0    0    0  501 -0.00000000000E+00  0.00000000000E+00  0.48955520106E+03  0.48955520106E+03  0.00000000000E+00 0. -1.
         21   -1    0    0  501  502  0.00000000000E+00 -0.00000000000E+00 -0.12570313785E+04  0.12570313785E+04  0.00000000000E+00 0. -1.
   -9000010    2    1    2    0  502 -0.21095334714E+03  0.15292253779E+03 -0.98288938266E+03  0.14085193120E+04  0.97466327341E+03 0.  0.
         13    1    3    3    0    0 -0.35639065125E+03 -0.49052352734E+02 -0.10822907379E+04  0.11405146567E+04  0.10566000000E+00 0. -1.
         -4    1    3    3    0  502  0.14543730411E+03  0.20197489053E+03  0.99401355269E+02  0.26800465530E+03  0.00000000000E+00 0. -1.
        -13    1    1    2    0    0  0.21095334714E+03 -0.15292253779E+03  0.21541320523E+03  0.33806726754E+03  0.10566000000E+00 0.  1.
<mgrwt>
<rscale>  1 0.71920925E+03</rscale>
<asrwt>0</asrwt>
<pdfrwt beam="2">  1       21 0.19338944E+00 0.10088881E+04</pdfrwt>
<pdfrwt beam="1">  1       -4 0.75316187E-01 0.10088881E+04</pdfrwt>
<totfact> 0.80758307E+00</totfact>
</mgrwt>
</event>
<event>
 6    2  0.2321478E-005  0.9885513E+03  0.7818608E-02  0.9812767E-01
         -4   -1    0    0    0  501 -0.00000000000E+00  0.00000000000E+00  0.73956609464E+03  0.73956609464E+03  0.00000000000E+00 0. -1.
         21   -1    0    0  501  502  0.00000000000E+00 -0.00000000000E+00 -0.48304248209E+03  0.48304248209E+03  0.00000000000E+00 0. -1.
   -9000010    2    1    2    0  502  0.16525604832E+03  0.74295975036E+02  0.30592394450E+03  0.10348058681E+04  0.97180464672E+03 0.  0.
         13    1    3    3    0    0  0.36683184601E+03 -0.29660427108E+03 -0.60773489109E+02  0.47563970084E+03  0.10566000000E+00 0. -1.
         -4    1    3    3    0  502 -0.20157579769E+03  0.37090024611E+03  0.36669743361E+03  0.55916616725E+03  0.00000000000E+00 0. -1.
        -13    1    1    2    0    0 -0.16525604832E+03 -0.74295975036E+02 -0.49400331947E+02  0.18780270864E+03  0.10566000000E+00 0.  1.
<mgrwt>
<rscale>  1 0.64681852E+03</rscale>
<asrwt>0</asrwt>
<pdfrwt beam="2">  1       21 0.74314228E-01 0.98855133E+03</pdfrwt>
<pdfrwt beam="1">  1       -4 0.11377940E+00 0.98855133E+03</pdfrwt>
<totfact> 0.37759852E+01</totfact>
</mgrwt>
</event>
<event>
 6    2  0.2321478E-005  0.1148766E+04  0.7818608E-02  0.1005590E+00
         -4   -1    0    0    0  501 -0.00000000000E+00  0.00000000000E+00  0.33817022923E+03  0.33817022923E+03  0.00000000000E+00 0. -1.
         21   -1    0    0  501  502  0.00000000000E+00 -0.00000000000E+00 -0.12061414397E+04  0.12061414397E+04  0.00000000000E+00 0. -1.
   -9000010    2    1    2    0  502  0.82496890407E+01 -0.52455098801E+02 -0.91864810543E+03  0.14709103501E+04  0.11475379391E+04 0.  0.
         13    1    3    3    0    0  0.33429260848E+03  0.10286310825E+03  0.12117480069E+03  0.37015633266E+03  0.10566000000E+00 0. -1.
         -4    1    3    3    0  502 -0.32604291944E+03 -0.15531820705E+03 -0.10398229061E+04  0.11007540174E+04  0.00000000000E+00 0. -1.
        -13    1    1    2    0    0 -0.82496890407E+01  0.52455098801E+02  0.50676894972E+02  0.73401318841E+02  0.10566000000E+00 0.  1.
<mgrwt>
<rscale>  1 0.53265644E+03</rscale>
<asrwt>0</asrwt>
<pdfrwt beam="2">  1       21 0.18556022E+00 0.11487658E+04</pdfrwt>
<pdfrwt beam="1">  1       -4 0.52026190E-01 0.11487658E+04</pdfrwt>
<totfact> 0.20348794E+01</totfact>
</mgrwt>
</event>
<event>
 6    2  0.2321478E-005  0.1043001E+04  0.7818608E-02  0.9612306E-01
         21   -1    0    0  501  502  0.00000000000E+00  0.00000000000E+00  0.58633005380E+03  0.58633005380E+03  0.00000000000E+00 0. -1.
         -4   -1    0    0    0  501 -0.00000000000E+00 -0.00000000000E+00 -0.14746977991E+04  0.14746977991E+04  0.00000000000E+00 0. -1.
   -9000010    2    1    2    0  502 -0.29602567491E+03  0.57956065895E+02  0.80680186738E+02  0.10461170137E+04  0.99842947073E+03 0.  0.
         13    1    3    3    0    0  0.20486265686E+02  0.42757636542E+03  0.28930533829E+03  0.51666122873E+03  0.10566000000E+00 0. -1.
         -4    1    3    3    0  502 -0.31651194060E+03 -0.36962029953E+03 -0.20862515155E+03  0.52945578496E+03  0.00000000000E+00 0. -1.
        -13    1    1    2    0    0  0.29602567491E+03 -0.57956065895E+02 -0.96904793201E+03  0.10149108392E+04  0.10566000000E+00 0.  1.
<mgrwt>
<rscale>  1 0.76487046E+03</rscale>
<asrwt>0</asrwt>
<pdfrwt beam="1">  1       21 0.90204624E-01 0.10430012E+04</pdfrwt>
<pdfrwt beam="2">  1       -4 0.22687658E+00 0.10430012E+04</pdfrwt>
<totfact> 0.34367949E+00</totfact>
</mgrwt>
</event>
<event>
 6    2  0.2321478E-005  0.1038438E+04  0.7818608E-02  0.9673485E-01
         21   -1    0    0  501  502  0.00000000000E+00  0.00000000000E+00  0.14454142175E+04  0.14454142175E+04  0.00000000000E+00 0. -1.
         -4   -1    0    0    0  501 -0.00000000000E+00 -0.00000000000E+00 -0.41362577131E+03  0.41362577131E+03  0.00000000000E+00 0. -1.
   -9000010    2    1    2    0  502 -0.24822568627E+03  0.71444262025E+01  0.11783994809E+04  0.15706620409E+04  0.10083089188E+04 0.  0.
         13    1    3    3    0    0  0.21964328374E+03  0.26938459312E+03  0.92735157381E+02  0.35973747606E+03  0.10566000000E+00 0. -1.
         -4    1    3    3    0  502 -0.46786897001E+03 -0.26224016692E+03  0.10856643235E+04  0.12109245648E+04  0.00000000000E+00 0. -1.
        -13    1    1    2    0    0  0.24822568627E+03 -0.71444262025E+01 -0.14661103478E+03  0.28837794790E+03  0.10566000000E+00 0.  1.
<mgrwt>
<rscale>  1 0.72617641E+03</rscale>
<asrwt>0</asrwt>
<pdfrwt beam="1">  1       21 0.22237141E+00 0.10384382E+04</pdfrwt>
<pdfrwt beam="2">  1       -4 0.63634735E-01 0.10384382E+04</pdfrwt>
<totfact> 0.74591864E+00</totfact>
</mgrwt>
</event>
<event>
 6    2  0.2321478E-005  0.1019416E+04  0.7818608E-02  0.9751212E-01
         -4   -1    0    0    0  501 -0.00000000000E+00  0.00000000000E+00  0.56692838821E+03  0.56692838821E+03  0.00000000000E+00 0. -1.
         21   -1    0    0  501  502  0.00000000000E+00 -0.00000000000E+00 -0.69662160430E+03  0.69662160430E+03  0.00000000000E+00 0. -1.
   -9000010    2    1    2    0  502  0.17745483689E+03 -0.97335050543E+02 -0.21843100206E+03  0.10425551124E+04  0.99912197884E+03 0.  0.
         13    1    3    3    0    0  0.18599073509E+03 -0.13107427854E+03  0.38010706207E+03  0.44300610587E+03  0.10566000000E+00 0. -1.
         -4    1    3    3    0  502 -0.85358982006E+01  0.33739228002E+02 -0.59853806413E+03  0.59954900656E+03  0.00000000000E+00 0. -1.
        -13    1    1    2    0    0 -0.17745483689E+03  0.97335050543E+02  0.88737785962E+02  0.22099488008E+03  0.10566000000E+00 0.  1.
<mgrwt>
<rscale>  1 0.68047840E+03</rscale>
<asrwt>0</asrwt>
<pdfrwt beam="2">  1       21 0.10717256E+00 0.10194160E+04</pdfrwt>
<pdfrwt beam="1">  1       -4 0.87219752E-01 0.10194160E+04</pdfrwt>
<totfact> 0.29516213E+01</totfact>
</mgrwt>
</event>
<event>
 6    2  0.2321478E-005  0.1021447E+04  0.7818608E-02  0.9691464E-01
         -4   -1    0    0    0  501 -0.00000000000E+00  0.00000000000E+00  0.34465669254E+03  0.34465669254E+03  0.00000000000E+00 0. -1.
         21   -1    0    0  501  502  0.00000000000E+00 -0.00000000000E+00 -0.12279814537E+04  0.12279814537E+04  0.00000000000E+00 0. -1.
   -9000010    2    1    2    0  502 -0.14052596572E+02  0.24520409765E+03 -0.84163299567E+03  0.13235182164E+04  0.99147962394E+03 0.  0.
         13    1    3    3    0    0  0.15385776350E+03  0.55223269278E+03 -0.78029070585E+03  0.96823899692E+03  0.10566000000E+00 0. -1.
         -4    1    3    3    0  502 -0.16791036008E+03 -0.30702859513E+03 -0.61342289815E+02  0.35527921944E+03  0.00000000000E+00 0. -1.
        -13    1    1    2    0    0  0.14052596572E+02 -0.24520409765E+03 -0.41691765473E+02  0.24911992984E+03  0.10566000000E+00 0.  1.
<mgrwt>
<rscale>  1 0.71527309E+03</rscale>
<asrwt>0</asrwt>
<pdfrwt beam="2">  1       21 0.18892022E+00 0.10214472E+04</pdfrwt>
<pdfrwt beam="1">  1       -4 0.53024108E-01 0.10214472E+04</pdfrwt>
<totfact> 0.18756197E+01</totfact>
</mgrwt>
</event>
<event>
 6    2  0.2321478E-005  0.1150889E+04  0.7818608E-02  0.9321393E-01
         21   -1    0    0  501  502  0.00000000000E+00  0.00000000000E+00  0.59712706984E+03  0.59712706984E+03  0.00000000000E+00 0. -1.
         -4   -1    0    0    0  501 -0.00000000000E+00 -0.00000000000E+00 -0.16410081086E+04  0.16410081086E+04  0.00000000000E+00 0. -1.
   -9000010    2    1    2    0  502  0.48705521625E+03  0.39327007552E+03 -0.17031106752E+03  0.11634218949E+04  0.96574350107E+03 0.  0.
         13    1    3    3    0    0  0.32172124279E+03  0.69514193279E+03 -0.25796458389E+03  0.80825280853E+03  0.10566000000E+00 0. -1.
         -4    1    3    3    0  502  0.16533397345E+03 -0.30187185727E+03  0.87653516369E+02  0.35516908638E+03  0.00000000000E+00 0. -1.
        -13    1    1    2    0    0 -0.48705521625E+03 -0.39327007552E+03 -0.87356997120E+03  0.10747132835E+04  0.10566000000E+00 0.  1.
<mgrwt>
<rscale>  1 0.98837030E+03</rscale>
<asrwt>0</asrwt>
<pdfrwt beam="1">  1       21 0.91865703E-01 0.11508886E+04</pdfrwt>
<pdfrwt beam="2">  1       -4 0.25246278E+00 0.11508886E+04</pdfrwt>
<totfact> 0.22417839E+00</totfact>
</mgrwt>
</event>
<event>
 6    2  0.2321478E-005  0.1015270E+04  0.7818608E-02  0.9770454E-01
         21   -1    0    0  501  502  0.00000000000E+00  0.00000000000E+00  0.43351192669E+03  0.43351192669E+03  0.00000000000E+00 0. -1.
         -4   -1    0    0    0  501 -0.00000000000E+00 -0.00000000000E+00 -0.16770622804E+04  0.16770622804E+04  0.00000000000E+00 0. -1.
   -9000010    2    1    2    0  502 -0.96262699523E+01 -0.19199862857E+03 -0.18162369419E+03  0.10313873003E+04  0.99690343488E+03 0.  0.
         13    1    3    3    0    0  0.36253200811E+03 -0.20180890987E+03 -0.41914846351E+03  0.58978109383E+03  0.10566000000E+00 0. -1.
         -4    1    3    3    0  502 -0.37215827806E+03  0.98102813000E+01  0.23752476933E+03  0.44160620647E+03  0.00000000000E+00 0. -1.
        -13    1    1    2    0    0  0.96262699523E+01  0.19199862857E+03 -0.10619266595E+04  0.10791869068E+04  0.10566000000E+00 0.  1.
<mgrwt>
<rscale>  1 0.66972562E+03</rscale>
<asrwt>0</asrwt>
<pdfrwt beam="1">  1       21 0.66694142E-01 0.10152697E+04</pdfrwt>
<pdfrwt beam="2">  1       -4 0.25800958E+00 0.10152697E+04</pdfrwt>
<totfact> 0.44742978E+00</totfact>
</mgrwt>
</event>
<event>
 6    2  0.2321478E-005  0.1016577E+04  0.7818608E-02  0.9759595E-01
         21   -1    0    0  501  502  0.00000000000E+00  0.00000000000E+00  0.50685579553E+03  0.50685579553E+03  0.00000000000E+00 0. -1.
         -4   -1    0    0    0  501 -0.00000000000E+00 -0.00000000000E+00 -0.15343480660E+04  0.15343480660E+04  0.00000000000E+00 0. -1.
   -9000010    2    1    2    0  502 -0.15392771861E+03 -0.12533836973E+03 -0.22532251224E+02  0.10168269285E+04  0.99700845065E+03 0.  0.
         13    1    3    3    0    0  0.37652579177E+03  0.14206725978E+03  0.89609645352E+02  0.41229198133E+03  0.10566000000E+00 0. -1.
         -4    1    3    3    0  502 -0.53045351038E+03 -0.26740562951E+03 -0.11214189658E+03  0.60453494716E+03  0.00000000000E+00 0. -1.
        -13    1    1    2    0    0  0.15392771861E+03  0.12533836973E+03 -0.10049600193E+04  0.10243769331E+04  0.10566000000E+00 0.  1.
<mgrwt>
<rscale>  1 0.67576716E+03</rscale>
<asrwt>0</asrwt>
<pdfrwt beam="1">  1       21 0.77977814E-01 0.10165772E+04</pdfrwt>
<pdfrwt beam="2">  1       -4 0.23605355E+00 0.10165772E+04</pdfrwt>
<totfact> 0.42700344E+00</totfact>
</mgrwt>
</event>
<event>
 6    2  0.2321478E-005  0.1007339E+04  0.7818608E-02  0.9804398E-01
         21   -1    0    0  501  502  0.00000000000E+00  0.00000000000E+00  0.14672098472E+04  0.14672098472E+04  0.00000000000E+00 0. -1.
         -4   -1    0    0    0  501 -0.00000000000E+00 -0.00000000000E+00 -0.23940504524E+03  0.23940504524E+03  0.00000000000E+00 0. -1.
   -9000010    2    1    2    0  502 -0.88535061089E+02  0.15211282875E+03  0.10084345143E+04  0.14253674853E+04  0.99184450846E+03 0.  0.
         13    1    3    3    0    0  0.80986946881E+02  0.22320978909E+03 -0.13100842389E+03  0.27119128637E+03  0.10566000000E+00 0. -1.
         -4    1    3    3    0  502 -0.16952200797E+03 -0.71096960333E+02  0.11394429381E+04  0.11541761990E+04  0.00000000000E+00 0. -1.
        -13    1    1    2    0    0  0.88535061089E+02 -0.15211282875E+03  0.21937028769E+03  0.28124740710E+03  0.10566000000E+00 0.  1.
<mgrwt>
<rscale>  1 0.65127048E+03</rscale>
<asrwt>0</asrwt>
<pdfrwt beam="1">  1       21 0.22572459E+00 0.10073392E+04</pdfrwt>
<pdfrwt beam="2">  1       -4 0.36831546E-01 0.10073392E+04</pdfrwt>
<totfact> 0.22490204E+01</totfact>
</mgrwt>
</event>
<event>
 6    2  0.2321478E-005  0.1048915E+04  0.7818608E-02  0.9874241E-01
         21   -1    0    0  501  502  0.00000000000E+00  0.00000000000E+00  0.27203330339E+03  0.27203330339E+03  0.00000000000E+00 0.  1.
         -4   -1    0    0    0  501 -0.00000000000E+00 -0.00000000000E+00 -0.17909018411E+04  0.17909018411E+04  0.00000000000E+00 0. -1.
   -9000010    2    1    2    0  502  0.83573723754E+02 -0.91834646153E+02 -0.16010383190E+04  0.19140390274E+04  0.10415390200E+04 0.  0.
         13    1    3    3    0    0  0.12138342050E+03 -0.93030176318E+02  0.11888082566E+03  0.19370392446E+03  0.10566000000E+00 0. -1.
         -4    1    3    3    0  502 -0.37809696747E+02  0.11955301654E+01 -0.17199191446E+04  0.17203351030E+04  0.00000000000E+00 0. -1.
        -13    1    1    2    0    0 -0.83573723754E+02  0.91834646153E+02  0.82169781299E+02  0.14889611700E+03  0.10566000000E+00 0.  1.
<mgrwt>
<rscale>  1 0.61526084E+03</rscale>
<asrwt>0</asrwt>
<pdfrwt beam="1">  1       21 0.41851278E-01 0.10489145E+04</pdfrwt>
<pdfrwt beam="2">  1       -4 0.27552336E+00 0.10489145E+04</pdfrwt>
<totfact> 0.96208411E+00</totfact>
</mgrwt>
</event>
<event>
 6    2  0.2321478E-005  0.1321034E+04  0.7818608E-02  0.9107761E-01
         21   -1    0    0  501  502  0.00000000000E+00  0.00000000000E+00  0.84450341867E+03  0.84450341867E+03  0.00000000000E+00 0.  1.
         -4   -1    0    0    0  501 -0.00000000000E+00 -0.00000000000E+00 -0.17062085681E+04  0.17062085681E+04  0.00000000000E+00 0. -1.
   -9000010    2    1    2    0  502 -0.91626515824E+03  0.39043516944E+02 -0.95325589001E+03  0.16290570700E+04  0.95082275372E+03 0.  0.
         13    1    3    3    0    0 -0.81853654237E+03 -0.31944984242E+03 -0.40686669007E+03  0.96829271797E+03  0.10566000000E+00 0. -1.
         -4    1    3    3    0  502 -0.97728615861E+02  0.35849335937E+03 -0.54638919994E+03  0.66076435200E+03  0.00000000000E+00 0. -1.
        -13    1    1    2    0    0  0.91626515824E+03 -0.39043516944E+02  0.91550740564E+02  0.92165491681E+03  0.10566000000E+00 0.  1.
<mgrwt>
<rscale>  1 0.12058388E+04</rscale>
<asrwt>0</asrwt>
<pdfrwt beam="1">  1       21 0.12992360E+00 0.13210337E+04</pdfrwt>
<pdfrwt beam="2">  1       -4 0.26249362E+00 0.13210337E+04</pdfrwt>
<totfact> 0.78514042E-01</totfact>
</mgrwt>
</event>
<event>
 6    2  0.2321478E-005  0.1005829E+04  0.7818608E-02  0.1003998E+00
         21   -1    0    0  501  502  0.00000000000E+00  0.00000000000E+00  0.17944551598E+04  0.17944551598E+04  0.00000000000E+00 0. -1.
         -4   -1    0    0    0  501 -0.00000000000E+00 -0.00000000000E+00 -0.18128333298E+03  0.18128333298E+03  0.00000000000E+00 0. -1.
   -9000010    2    1    2    0  502  0.55549682569E+02  0.61854457068E+02  0.16023756379E+04  0.18919034765E+04  0.10023868207E+04 0.  0.
         13    1    3    3    0    0 -0.43130258691E+03  0.20445511627E+03  0.58463283540E+03  0.75473132931E+03  0.10566000000E+00 0. -1.
         -4    1    3    3    0  502  0.48685226948E+03 -0.14260065921E+03  0.10177428025E+04  0.11371721472E+04  0.00000000000E+00 0. -1.
        -13    1    1    2    0    0 -0.55549682569E+02 -0.61854457068E+02  0.10796188892E+02  0.83835016260E+02  0.10566000000E+00 0.  1.
<mgrwt>
<rscale>  1 0.53931375E+03</rscale>
<asrwt>0</asrwt>
<pdfrwt beam="1">  1       21 0.27607001E+00 0.10058286E+04</pdfrwt>
<pdfrwt beam="2">  1       -4 0.27889745E-01 0.10058286E+04</pdfrwt>
<totfact> 0.18628639E+01</totfact>
</mgrwt>
</event>
<event>
 6    2  0.2321478E-005  0.1171716E+04  0.7818608E-02  0.9325811E-01
         21   -1    0    0  501  502  0.00000000000E+00  0.00000000000E+00  0.13169526597E+04  0.13169526597E+04  0.00000000000E+00 0.  1.
         -4   -1    0    0    0  501 -0.00000000000E+00 -0.00000000000E+00 -0.65627932938E+03  0.65627932938E+03  0.00000000000E+00 0. -1.
   -9000010    2    1    2    0  502  0.32269295349E+03 -0.48646378213E+03  0.12050623934E+03  0.11778966819E+04  0.10159434462E+04 0.  0.
         13    1    3    3    0    0  0.97539146846E+02 -0.19046254758E+03  0.56157500805E+03  0.60096286743E+03  0.10566000000E+00 0. -1.
         -4    1    3    3    0  502  0.22515380664E+03 -0.29600123456E+03 -0.44106876871E+03  0.57693381443E+03  0.00000000000E+00 0. -1.
        -13    1    1    2    0    0 -0.32269295349E+03  0.48646378213E+03  0.54016709097E+03  0.79533530721E+03  0.10566000000E+00 0.  1.
<mgrwt>
<rscale>  1 0.98440947E+03</rscale>
<asrwt>0</asrwt>
<pdfrwt beam="1">  1       21 0.20260810E+00 0.11717162E+04</pdfrwt>
<pdfrwt beam="2">  1       -4 0.10096605E+00 0.11717162E+04</pdfrwt>
<totfact> 0.34335548E+00</totfact>
</mgrwt>
</event>
<event>
 6    2  0.2321478E-005  0.9499109E+03  0.7818608E-02  0.9782032E-01
         -4   -1    0    0    0  501 -0.00000000000E+00  0.00000000000E+00  0.36164442686E+03  0.36164442686E+03  0.00000000000E+00 0. -1.
         21   -1    0    0  501  502  0.00000000000E+00 -0.00000000000E+00 -0.97776738435E+03  0.97776738435E+03  0.00000000000E+00 0. -1.
   -9000010    2    1    2    0  502  0.35788675928E+02  0.22306094857E+03 -0.41374149154E+03  0.10361045659E+04  0.92265575035E+03 0.  0.
         13    1    3    3    0    0 -0.78608102053E+01  0.69847575946E+02  0.29829474421E+03  0.30646409543E+03  0.10566000000E+00 0. -1.
         -4    1    3    3    0  502  0.43649486134E+02  0.15321337263E+03 -0.71203623575E+03  0.72964047052E+03  0.00000000000E+00 0. -1.
        -13    1    1    2    0    0 -0.35788675928E+02 -0.22306094857E+03 -0.20238146595E+03  0.30330724526E+03  0.10566000000E+00 0.  1.
<mgrwt>
<rscale>  1 0.66335784E+03</rscale>
<asrwt>0</asrwt>
<pdfrwt beam="2">  1       21 0.15042575E+00 0.94991086E+03</pdfrwt>
<pdfrwt beam="1">  1       -4 0.55637604E-01 0.94991086E+03</pdfrwt>
<totfact> 0.33204495E+01</totfact>
</mgrwt>
</event>
<event>
 6    2  0.2321478E-005  0.9881655E+03  0.7818608E-02  0.1015222E+00
         -4   -1    0    0    0  501 -0.00000000000E+00  0.00000000000E+00  0.21880772512E+03  0.21880772512E+03  0.00000000000E+00 0. -1.
         21   -1    0    0  501  502  0.00000000000E+00 -0.00000000000E+00 -0.12651659459E+04  0.12651659459E+04  0.00000000000E+00 0. -1.
   -9000010    2    1    2    0  502  0.50636863159E+00 -0.61972613438E+02 -0.96022805509E+03  0.13778639268E+04  0.98622016894E+03 0.  0.
         13    1    3    3    0    0  0.37476751780E+03  0.27815327630E+03 -0.58379827738E+03  0.74742248919E+03  0.10566000000E+00 0. -1.
         -4    1    3    3    0  502 -0.37426114917E+03 -0.34012588973E+03 -0.37642977771E+03  0.63044143756E+03  0.00000000000E+00 0. -1.
        -13    1    1    2    0    0 -0.50636863159E+00  0.61972613438E+02 -0.86130165708E+02  0.10610974430E+03  0.10566000000E+00 0.  1.
<mgrwt>
<rscale>  1 0.49451112E+03</rscale>
<asrwt>0</asrwt>
<pdfrwt beam="2">  1       21 0.19464091E+00 0.98816551E+03</pdfrwt>
<pdfrwt beam="1">  1       -4 0.33662727E-01 0.98816551E+03</pdfrwt>
<totfact> 0.43712583E+01</totfact>
</mgrwt>
</event>
<event>
 6    2  0.2321478E-005  0.1089038E+04  0.7818608E-02  0.9466856E-01
         21   -1    0    0  501  502  0.00000000000E+00  0.00000000000E+00  0.69481842406E+03  0.69481842406E+03  0.00000000000E+00 0. -1.
         -4   -1    0    0    0  501 -0.00000000000E+00 -0.00000000000E+00 -0.97855166132E+03  0.97855166132E+03  0.00000000000E+00 0. -1.
   -9000010    2    1    2    0  502  0.41332439332E+03 -0.14771135608E+03  0.95620337888E+02  0.10932279951E+04  0.99666870188E+03 0.  0.
         13    1    3    3    0    0  0.70053747189E+03  0.48371097478E+02 -0.74385074619E+02  0.70613430952E+03  0.10566000000E+00 0. -1.
         -4    1    3    3    0  502 -0.28721307857E+03 -0.19608245356E+03  0.17000541251E+03  0.38709368553E+03  0.00000000000E+00 0. -1.
        -13    1    1    2    0    0 -0.41332439332E+03  0.14771135608E+03 -0.37935357514E+03  0.58014209033E+03  0.10566000000E+00 0.  1.
<mgrwt>
<rscale>  1 0.86772093E+03</rscale>
<asrwt>0</asrwt>
<pdfrwt beam="1">  1       21 0.10689514E+00 0.10890382E+04</pdfrwt>
<pdfrwt beam="2">  1       -4 0.15054641E+00 0.10890382E+04</pdfrwt>
<totfact> 0.75446164E+00</totfact>
</mgrwt>
</event>
<event>
 6    2  0.2321478E-005  0.1193861E+04  0.7818608E-02  0.9290319E-01
         21   -1    0    0  501  502  0.00000000000E+00  0.00000000000E+00  0.20387339070E+04  0.20387339070E+04  0.00000000000E+00 0. -1.
         -4   -1    0    0    0  501 -0.00000000000E+00 -0.00000000000E+00 -0.77856475365E+03  0.77856475365E+03  0.00000000000E+00 0. -1.
   -9000010    2    1    2    0  502 -0.28971087511E+03 -0.55735216381E+03  0.16805604245E+04  0.20614530033E+04  0.10152493876E+04 0.  0.
         13    1    3    3    0    0 -0.19978157228E+03  0.10306588668E+03  0.12452501703E+04  0.12653786988E+04  0.10566000000E+00 0. -1.
         -4    1    3    3    0  502 -0.89929302827E+02 -0.66041805049E+03  0.43531025413E+03  0.79607430449E+03  0.00000000000E+00 0. -1.
        -13    1    1    2    0    0  0.28971087511E+03  0.55735216381E+03 -0.42039127112E+03  0.75584565730E+03  0.10566000000E+00 0.  1.
<mgrwt>
<rscale>  1 0.10167905E+04</rscale>
<asrwt>0</asrwt>
<pdfrwt beam="1">  1       21 0.31365137E+00 0.11938614E+04</pdfrwt>
<pdfrwt beam="2">  1       -4 0.11977919E+00 0.11938614E+04</pdfrwt>
<totfact> 0.43426010E-01</totfact>
</mgrwt>
</event>
<event>
 6    2  0.2321478E-005  0.1193299E+04  0.7818608E-02  0.9282322E-01
         -4   -1    0    0    0  501 -0.00000000000E+00  0.00000000000E+00  0.74350030961E+03  0.74350030961E+03  0.00000000000E+00 0. -1.
         21   -1    0    0  501  502  0.00000000000E+00 -0.00000000000E+00 -0.11404419475E+04  0.11404419475E+04  0.00000000000E+00 0.  1.
   -9000010    2    1    2    0  502  0.37015944620E+03 -0.53156412373E+03 -0.23422457455E+03  0.12160685512E+04  0.10021891721E+04 0.  0.
         13    1    3    3    0    0  0.31055073430E+03  0.24938301757E+03  0.10001394194E+01  0.39828966780E+03  0.10566000000E+00 0. -1.
         -4    1    3    3    0  502  0.59608711895E+02 -0.78094714130E+03 -0.23522471397E+03  0.81777888338E+03  0.00000000000E+00 0. -1.
        -13    1    1    2    0    0 -0.37015944620E+03  0.53156412373E+03 -0.16271706338E+03  0.66787370597E+03  0.10566000000E+00 0.  1.
<mgrwt>
<rscale>  1 0.10242679E+04</rscale>
<asrwt>0</asrwt>
<pdfrwt beam="2">  1       21 0.17545261E+00 0.11932986E+04</pdfrwt>
<pdfrwt beam="1">  1       -4 0.11438466E+00 0.11932986E+04</pdfrwt>
<totfact> 0.39325351E+00</totfact>
</mgrwt>
</event>
<event>
 6    2  0.2321478E-005  0.1000438E+04  0.7818608E-02  0.9697685E-01
         -4   -1    0    0    0  501 -0.00000000000E+00  0.00000000000E+00  0.76112670209E+03  0.76112670209E+03  0.00000000000E+00 0. -1.
         21   -1    0    0  501  502  0.00000000000E+00 -0.00000000000E+00 -0.10500843719E+04  0.10500843719E+04  0.00000000000E+00 0. -1.
   -9000010    2    1    2    0  502  0.31065548056E+02  0.25411193065E+03 -0.77257105108E+03  0.12640183700E+04  0.96712898272E+03 0.  0.
         13    1    3    3    0    0 -0.29355685191E+03  0.83585764124E+02 -0.83771739637E+03  0.89158995766E+03  0.10566000000E+00 0. -1.
         -4    1    3    3    0  502  0.32462239997E+03  0.17052616653E+03  0.65146345287E+02  0.37242841236E+03  0.00000000000E+00 0. -1.
        -13    1    1    2    0    0 -0.31065548056E+02 -0.25411193065E+03  0.48361338127E+03  0.54719270397E+03  0.10566000000E+00 0.  1.
<mgrwt>
<rscale>  1 0.71154813E+03</rscale>
<asrwt>0</asrwt>
<pdfrwt beam="2">  1       21 0.16155144E+00 0.10004381E+04</pdfrwt>
<pdfrwt beam="1">  1       -4 0.11709642E+00 0.10004381E+04</pdfrwt>
<totfact> 0.48412966E+00</totfact>
</mgrwt>
</event>
<event>
 6    2  0.2321478E-005  0.1075470E+04  0.7818608E-02  0.9508979E-01
         21   -1    0    0  501  502  0.00000000000E+00  0.00000000000E+00  0.28505163123E+03  0.28505163123E+03  0.00000000000E+00 0. -1.
         -4   -1    0    0    0  501 -0.00000000000E+00 -0.00000000000E+00 -0.18957915776E+04  0.18957915776E+04  0.00000000000E+00 0. -1.
   -9000010    2    1    2    0  502  0.31231262937E+03 -0.23879346853E+03 -0.11333559258E+04  0.15624121186E+04  0.10010367000E+04 0.  0.
         13    1    3    3    0    0 -0.42335247498E+02  0.16497038730E+03 -0.99229549433E+03  0.10068057713E+04  0.10566000000E+00 0. -1.
         -4    1    3    3    0  502  0.35464787687E+03 -0.40376385583E+03 -0.14106043144E+03  0.55560634730E+03  0.00000000000E+00 0. -1.
        -13    1    1    2    0    0 -0.31231262937E+03  0.23879346853E+03 -0.47738402056E+03  0.61843109020E+03  0.10566000000E+00 0.  1.
<mgrwt>
<rscale>  1 0.83625058E+03</rscale>
<asrwt>0</asrwt>
<pdfrwt beam="1">  1       21 0.43854098E-01 0.10754701E+04</pdfrwt>
<pdfrwt beam="2">  1       -4 0.29166023E+00 0.10754701E+04</pdfrwt>
<totfact> 0.69070477E+00</totfact>
</mgrwt>
</event>
<event>
 6    2  0.2321478E-005  0.1049912E+04  0.7818608E-02  0.9588735E-01
         -4   -1    0    0    0  501 -0.00000000000E+00  0.00000000000E+00  0.11869670328E+04  0.11869670328E+04  0.00000000000E+00 0. -1.
         21   -1    0    0  501  502  0.00000000000E+00 -0.00000000000E+00 -0.54977818648E+03  0.54977818648E+03  0.00000000000E+00 0. -1.
   -9000010    2    1    2    0  502  0.23499151117E+03  0.21807646818E+03  0.30259677512E+02  0.10503478246E+04  0.99976824728E+03 0.  0.
         13    1    3    3    0    0  0.39002847662E+03  0.55513403122E+03  0.34361011405E+02  0.67932076037E+03  0.10566000000E+00 0. -1.
         -4    1    3    3    0  502 -0.15503696545E+03 -0.33705756304E+03 -0.41013338929E+01  0.37102706424E+03  0.00000000000E+00 0. -1.
        -13    1    1    2    0    0 -0.23499151117E+03 -0.21807646818E+03  0.60692916880E+03  0.68639739467E+03  0.10566000000E+00 0.  1.
<mgrwt>
<rscale>  1 0.78046305E+03</rscale>
<asrwt>0</asrwt>
<pdfrwt beam="2">  1       21 0.84581260E-01 0.10499119E+04</pdfrwt>
<pdfrwt beam="1">  1       -4 0.18261031E+00 0.10499119E+04</pdfrwt>
<totfact> 0.78394013E+00</totfact>
</mgrwt>
</event>
<event>
 6    2  0.2321478E-005  0.1069451E+04  0.7818608E-02  0.9577528E-01
         -4   -1    0    0    0  501 -0.00000000000E+00  0.00000000000E+00  0.46591771492E+03  0.46591771492E+03  0.00000000000E+00 0. -1.
         21   -1    0    0  501  502  0.00000000000E+00 -0.00000000000E+00 -0.11802688926E+04  0.11802688926E+04  0.00000000000E+00 0. -1.
   -9000010    2    1    2    0  502 -0.78077173982E+02  0.30542867035E+03 -0.78062264230E+03  0.13240458992E+04  0.10219310719E+04 0.  0.
         13    1    3    3    0    0 -0.17350666364E+03  0.67005636607E+03 -0.52232733713E+03  0.86712510880E+03  0.10566000000E+00 0. -1.
         -4    1    3    3    0  502  0.95429489661E+02 -0.36462769572E+03 -0.25829530516E+03  0.45692079035E+03  0.00000000000E+00 0. -1.
        -13    1    1    2    0    0  0.78077173982E+02 -0.30542867035E+03  0.66271464664E+02  0.32214070833E+03  0.10566000000E+00 0.  1.
<mgrwt>
<rscale>  1 0.78801519E+03</rscale>
<asrwt>0</asrwt>
<pdfrwt beam="2">  1       21 0.18157983E+00 0.10694512E+04</pdfrwt>
<pdfrwt beam="1">  1       -4 0.71679648E-01 0.10694512E+04</pdfrwt>
<totfact> 0.10873453E+01</totfact>
</mgrwt>
</event>
<event>
 6    2  0.2321478E-005  0.1032028E+04  0.7818608E-02  0.9652395E-01
         -4   -1    0    0    0  501 -0.00000000000E+00  0.00000000000E+00  0.74844932684E+03  0.74844932684E+03  0.00000000000E+00 0. -1.
         21   -1    0    0  501  502  0.00000000000E+00 -0.00000000000E+00 -0.61213810825E+03  0.61213810825E+03  0.00000000000E+00 0. -1.
   -9000010    2    1    2    0  502  0.27089674903E+03 -0.20563158406E+02 -0.46592090817E+02  0.10330793835E+04  0.99562758977E+03 0.  0.
         13    1    3    3    0    0  0.39030344562E+03  0.40494575830E+03 -0.14392036455E+03  0.58054364980E+03  0.10566000000E+00 0. -1.
         -4    1    3    3    0  502 -0.11940669659E+03 -0.42550891670E+03  0.97328273731E+02  0.45253573367E+03  0.00000000000E+00 0. -1.
        -13    1    1    2    0    0 -0.27089674903E+03  0.20563158406E+02  0.18290330940E+03  0.32750805162E+03  0.10566000000E+00 0.  1.
<mgrwt>
<rscale>  1 0.73923331E+03</rscale>
<asrwt>0</asrwt>
<pdfrwt beam="2">  1       21 0.94175094E-01 0.10320282E+04</pdfrwt>
<pdfrwt beam="1">  1       -4 0.11514605E+00 0.10320282E+04</pdfrwt>
<totfact> 0.20795125E+01</totfact>
</mgrwt>
</event>
<event>
 6    2  0.2321478E-005  0.1011620E+04  0.7818608E-02  0.9991099E-01
         -4   -1    0    0    0  501 -0.00000000000E+00  0.00000000000E+00  0.43752101230E+03  0.43752101230E+03  0.00000000000E+00 0. -1.
         21   -1    0    0  501  502  0.00000000000E+00 -0.00000000000E+00 -0.83012834624E+03  0.83012834624E+03  0.00000000000E+00 0. -1.
   -9000010    2    1    2    0  502  0.36332283422E+02  0.88083103810E+02 -0.49631956931E+03  0.11268129040E+04  0.10071224046E+04 0.  0.
         13    1    3    3    0    0  0.14948574714E+03 -0.44143650532E+03 -0.28017299931E+03  0.54379140995E+03  0.10566000000E+00 0. -1.
         -4    1    3    3    0  502 -0.11315346372E+03  0.52951960913E+03 -0.21614657000E+03  0.58302149405E+03  0.00000000000E+00 0. -1.
        -13    1    1    2    0    0 -0.36332283422E+02 -0.88083103810E+02  0.10371223537E+03  0.14083645453E+03  0.10566000000E+00 0.  1.
<mgrwt>
<rscale>  1 0.56042275E+03</rscale>
<asrwt>0</asrwt>
<pdfrwt beam="2">  1       21 0.12771205E+00 0.10116196E+04</pdfrwt>
<pdfrwt beam="1">  1       -4 0.67310926E-01 0.10116196E+04</pdfrwt>
<totfact> 0.33927598E+01</totfact>
</mgrwt>
</event>
<event>
 6    2  0.2321478E-005  0.1212854E+04  0.7818608E-02  0.9261131E-01
         21   -1    0    0  501  502  0.00000000000E+00  0.00000000000E+00  0.14655828611E+04  0.14655828611E+04  0.00000000000E+00 0. -1.
         -4   -1    0    0    0  501 -0.00000000000E+00 -0.00000000000E+00 -0.69745387037E+03  0.69745387037E+03  0.00000000000E+00 0. -1.
   -9000010    2    1    2    0  502 -0.66167247233E+03 -0.83378849127E+02  0.86420041713E+03  0.14892472813E+04  0.10130412680E+04 0.  0.
         13    1    3    3    0    0 -0.19835172694E+03 -0.42302354430E+03  0.19394133363E+02  0.46762000619E+03  0.10566000000E+00 0. -1.
         -4    1    3    3    0  502 -0.46332074539E+03  0.33964469517E+03  0.84480628377E+03  0.10216272751E+04  0.00000000000E+00 0. -1.
        -13    1    1    2    0    0  0.66167247233E+03  0.83378849127E+02 -0.96071426383E+02  0.67378945024E+03  0.10566000000E+00 0.  1.
<mgrwt>
<rscale>  1 0.10444134E+04</rscale>
<asrwt>0</asrwt>
<pdfrwt beam="1">  1       21 0.22547429E+00 0.12128541E+04</pdfrwt>
<pdfrwt beam="2">  1       -4 0.10730060E+00 0.12128541E+04</pdfrwt>
<totfact> 0.20650626E+00</totfact>
</mgrwt>
</event>
<event>
 6    2  0.2321478E-005  0.1011253E+04  0.7818608E-02  0.9832716E-01
         -4   -1    0    0    0  501 -0.00000000000E+00  0.00000000000E+00  0.46978509091E+03  0.46978509091E+03  0.00000000000E+00 0. -1.
         21   -1    0    0  501  502  0.00000000000E+00 -0.00000000000E+00 -0.86166229901E+03  0.86166229901E+03  0.00000000000E+00 0. -1.
   -9000010    2    1    2    0  502  0.15743678966E+03  0.18953050221E+02 -0.51108178244E+03  0.11330656807E+04  0.99874305383E+03 0.  0.
         13    1    3    3    0    0  0.15003342339E+03 -0.64590503831E+02  0.28719332918E+03  0.33039670217E+03  0.10566000000E+00 0. -1.
         -4    1    3    3    0  502  0.74033662730E+01  0.83543554051E+02 -0.79827511161E+03  0.80266897852E+03  0.00000000000E+00 0. -1.
        -13    1    1    2    0    0 -0.15743678966E+03 -0.18953050221E+02  0.11920457433E+03  0.19838170923E+03  0.10566000000E+00 0.  1.
<mgrwt>
<rscale>  1 0.63635968E+03</rscale>
<asrwt>0</asrwt>
<pdfrwt beam="2">  1       21 0.13256343E+00 0.10112533E+04</pdfrwt>
<pdfrwt beam="1">  1       -4 0.72274630E-01 0.10112533E+04</pdfrwt>
<totfact> 0.26205436E+01</totfact>
</mgrwt>
</event>
<event>
 6    2  0.2321478E-005  0.1016151E+04  0.7818608E-02  0.9842791E-01
         21   -1    0    0  501  502  0.00000000000E+00  0.00000000000E+00  0.64322834817E+03  0.64322834817E+03  0.00000000000E+00 0. -1.
         -4   -1    0    0    0  501 -0.00000000000E+00 -0.00000000000E+00 -0.64864036771E+03  0.64864036771E+03  0.00000000000E+00 0. -1.
   -9000010    2    1    2    0  502  0.10590721503E+03 -0.10797457038E+03  0.20113698942E+03  0.10358660786E+04  0.10048321244E+04 0.  0.
         13    1    3    3    0    0  0.64822279712E+02  0.44544763719E+02  0.60090138234E+03  0.60602693536E+03  0.10566000000E+00 0. -1.
         -4    1    3    3    0  502  0.41084935319E+02 -0.15251933410E+03 -0.39976439293E+03  0.42983914321E+03  0.00000000000E+00 0. -1.
        -13    1    1    2    0    0 -0.10590721503E+03  0.10797457038E+03 -0.20654900896E+03  0.25600263731E+03  0.10566000000E+00 0.  1.
<mgrwt>
<rscale>  1 0.63115848E+03</rscale>
<asrwt>0</asrwt>
<pdfrwt beam="1">  1       21 0.98958207E-01 0.10161508E+04</pdfrwt>
<pdfrwt beam="2">  1       -4 0.99790826E-01 0.10161508E+04</pdfrwt>
<totfact> 0.26189624E+01</totfact>
</mgrwt>
</event>
<event>
 6    2  0.2321478E-005  0.1001583E+04  0.7818608E-02  0.1019477E+00
         21   -1    0    0  501  502  0.00000000000E+00  0.00000000000E+00  0.84622064903E+03  0.84622064903E+03  0.00000000000E+00 0. -1.
         -4   -1    0    0    0  501 -0.00000000000E+00 -0.00000000000E+00 -0.32940194157E+03  0.32940194157E+03  0.00000000000E+00 0. -1.
   -9000010    2    1    2    0  502  0.47035616646E+02  0.22841046856E+02  0.50633335637E+03  0.11222932703E+04  0.10002173034E+04 0.  0.
         13    1    3    3    0    0 -0.10285554980E+03  0.34167480516E+03 -0.14230532574E+03  0.38415069114E+03  0.10566000000E+00 0. -1.
         -4    1    3    3    0  502  0.14989116645E+03 -0.31883375830E+03  0.64863868211E+03  0.73814257914E+03  0.00000000000E+00 0. -1.
        -13    1    1    2    0    0 -0.47035616646E+02 -0.22841046856E+02  0.10485351093E+02  0.53329320325E+02  0.10566000000E+00 0.  1.
<mgrwt>
<rscale>  1 0.47875853E+03</rscale>
<asrwt>0</asrwt>
<pdfrwt beam="1">  1       21 0.13018779E+00 0.10015831E+04</pdfrwt>
<pdfrwt beam="2">  1       -4 0.50677222E-01 0.10015831E+04</pdfrwt>
<totfact> 0.59723562E+01</totfact>
</mgrwt>
</event>
<event>
 6    2  0.2321478E-005  0.1040352E+04  0.7818608E-02  0.9632985E-01
         -4   -1    0    0    0  501 -0.00000000000E+00  0.00000000000E+00  0.81825953564E+03  0.81825953564E+03  0.00000000000E+00 0. -1.
         21   -1    0    0  501  502  0.00000000000E+00 -0.00000000000E+00 -0.68459402511E+03  0.68459402511E+03  0.00000000000E+00 0. -1.
   -9000010    2    1    2    0  502 -0.21008226254E+03 -0.19001620567E+03 -0.20602178884E+03  0.10605548066E+04  0.10010448565E+04 0.  0.
         13    1    3    3    0    0  0.59416219951E+02  0.11260636593E+03 -0.52790576537E+03  0.54304234560E+03  0.10566000000E+00 0. -1.
         -4    1    3    3    0  502 -0.26949848249E+03 -0.30262257160E+03  0.32188397653E+03  0.51751246096E+03  0.00000000000E+00 0. -1.
        -13    1    1    2    0    0  0.21008226254E+03  0.19001620567E+03  0.33968729937E+03  0.44229875420E+03  0.10566000000E+00 0.  1.
<mgrwt>
<rscale>  1 0.75150949E+03</rscale>
<asrwt>0</asrwt>
<pdfrwt beam="2">  1       21 0.10532216E+00 0.10403516E+04</pdfrwt>
<pdfrwt beam="1">  1       -4 0.12588608E+00 0.10403516E+04</pdfrwt>
<totfact> 0.12576422E+01</totfact>
</mgrwt>
</event>
<event>
 6    2  0.2321478E-005  0.1035647E+04  0.7818608E-02  0.9645131E-01
         -4   -1    0    0    0  501 -0.00000000000E+00  0.00000000000E+00  0.24014060911E+04  0.24014060911E+04  0.00000000000E+00 0. -1.
         21   -1    0    0  501  502  0.00000000000E+00 -0.00000000000E+00 -0.28749503245E+03  0.28749503245E+03  0.00000000000E+00 0. -1.
   -9000010    2    1    2    0  502  0.41866941118E+01  0.27550854523E+03  0.70388592825E+03  0.12522058300E+04  0.99831936466E+03 0.  0.
         13    1    3    3    0    0  0.25434932824E+03  0.59843417469E+02  0.85130904757E+03  0.89050655306E+03  0.10566000000E+00 0. -1.
         -4    1    3    3    0  502 -0.25016263413E+03  0.21566512776E+03 -0.14742311933E+03  0.36169927697E+03  0.00000000000E+00 0. -1.
        -13    1    1    2    0    0 -0.41866941118E+01 -0.27550854523E+03  0.14100251305E+04  0.14366952936E+04  0.10566000000E+00 0.  1.
<mgrwt>
<rscale>  1 0.74379803E+03</rscale>
<asrwt>0</asrwt>
<pdfrwt beam="2">  1       21 0.44230007E-01 0.10356467E+04</pdfrwt>
<pdfrwt beam="1">  1       -4 0.36944708E+00 0.10356467E+04</pdfrwt>
<totfact> 0.21805424E+00</totfact>
</mgrwt>
</event>
<event>
 6    2  0.2321478E-005  0.1012435E+04  0.7818608E-02  0.9860218E-01
         -4   -1    0    0    0  501 -0.00000000000E+00  0.00000000000E+00  0.61188089918E+03  0.61188089918E+03  0.00000000000E+00 0. -1.
         21   -1    0    0  501  502  0.00000000000E+00 -0.00000000000E+00 -0.58587337345E+03  0.58587337345E+03  0.00000000000E+00 0. -1.
   -9000010    2    1    2    0  502 -0.93158474855E+02 -0.11045800748E+03 -0.84339416302E+02  0.10159413698E+04  0.10020699860E+04 0.  0.
         13    1    3    3    0    0 -0.19248838650E+03  0.31177186833E+03  0.27057891739E+03  0.45548483895E+03  0.10566000000E+00 0. -1.
         -4    1    3    3    0  502  0.99329911641E+02 -0.42222987581E+03 -0.35491833369E+03  0.56045653084E+03  0.00000000000E+00 0. -1.
        -13    1    1    2    0    0  0.93158474855E+02  0.11045800748E+03  0.11034694204E+03  0.18181290283E+03  0.10566000000E+00 0.  1.
<mgrwt>
<rscale>  1 0.62228623E+03</rscale>
<asrwt>0</asrwt>
<pdfrwt beam="2">  1       21 0.90134366E-01 0.10124346E+04</pdfrwt>
<pdfrwt beam="1">  1       -4 0.94135522E-01 0.10124346E+04</pdfrwt>
<totfact> 0.37835929E+01</totfact>
</mgrwt>
</event>
<event>
 6    2  0.2321478E-005  0.1042039E+04  0.7818608E-02  0.9655597E-01
         -4   -1    0    0    0  501 -0.00000000000E+00  0.00000000000E+00  0.26474231827E+03  0.26474231827E+03  0.00000000000E+00 0. -1.
         21   -1    0    0  501  502  0.00000000000E+00 -0.00000000000E+00 -0.16110707273E+04  0.16110707273E+04  0.00000000000E+00 0. -1.
   -9000010    2    1    2    0  502 -0.14531276815E+03 -0.21689640766E+03 -0.11260929540E+04  0.15342526277E+04  0.10088042091E+04 0.  0.
         13    1    3    3    0    0 -0.29474933718E+03  0.34893739832E+03 -0.50027823184E+03  0.67743102980E+03  0.10566000000E+00 0. -1.
         -4    1    3    3    0  502  0.14943656903E+03 -0.56583380598E+03 -0.62581472217E+03  0.85682159791E+03  0.00000000000E+00 0. -1.
        -13    1    1    2    0    0  0.14531276815E+03  0.21689640766E+03 -0.22023545502E+03  0.34156041787E+03  0.10566000000E+00 0.  1.
<mgrwt>
<rscale>  1 0.73723194E+03</rscale>
<asrwt>0</asrwt>
<pdfrwt beam="2">  1       21 0.24785704E+00 0.10420392E+04</pdfrwt>
<pdfrwt beam="1">  1       -4 0.40729587E-01 0.10420392E+04</pdfrwt>
<totfact> 0.13133469E+01</totfact>
</mgrwt>
</event>
<event>
 6    2  0.2321478E-005  0.9953573E+03  0.7818608E-02  0.9899935E-01
         21   -1    0    0  501  502  0.00000000000E+00  0.00000000000E+00  0.44102755744E+03  0.44102755744E+03  0.00000000000E+00 0. -1.
         -4   -1    0    0    0  501 -0.00000000000E+00 -0.00000000000E+00 -0.93824356655E+03  0.93824356655E+03  0.00000000000E+00 0. -1.
   -9000010    2    1    2    0  502  0.49043927109E+02 -0.12443813541E+03 -0.14925154712E+03  0.10064850804E+04  0.98632957799E+03 0.  0.
         13    1    3    3    0    0  0.96085711282E+02  0.41220168663E+03  0.62151255100E+02  0.42779140249E+03  0.10566000000E+00 0. -1.
         -4    1    3    3    0  502 -0.47041784173E+02 -0.53663982204E+03 -0.21140280222E+03  0.57869367791E+03  0.00000000000E+00 0. -1.
        -13    1    1    2    0    0 -0.49043927109E+02  0.12443813541E+03 -0.34796446198E+03  0.37278604359E+03  0.10566000000E+00 0.  1.
<mgrwt>
<rscale>  1 0.60264431E+03</rscale>
<asrwt>0</asrwt>
<pdfrwt beam="1">  1       21 0.67850393E-01 0.99535732E+03</pdfrwt>
<pdfrwt beam="2">  1       -4 0.14434516E+00 0.99535732E+03</pdfrwt>
<totfact> 0.25284546E+01</totfact>
</mgrwt>
</event>
<event>
 6    2  0.2321478E-005  0.1028166E+04  0.7818608E-02  0.9701889E-01
         21   -1    0    0  501  502  0.00000000000E+00  0.00000000000E+00  0.25168711203E+03  0.25168711203E+03  0.00000000000E+00 0. -1.
         -4   -1    0    0    0  501 -0.00000000000E+00 -0.00000000000E+00 -0.15796471130E+04  0.15796471130E+04  0.00000000000E+00 0. -1.
   -9000010    2    1    2    0  502  0.23077576927E+03  0.28615512420E+02 -0.10656811134E+04  0.14808110029E+04  0.10015231837E+04 0.  0.
         13    1    3    3    0    0  0.44141308429E+03 -0.12350290222E+03 -0.84853502892E+02  0.46615298557E+03  0.10566000000E+00 0. -1.
         -4    1    3    3    0  502 -0.21063731501E+03  0.15211841464E+03 -0.98082761052E+03  0.10146580173E+04  0.00000000000E+00 0. -1.
        -13    1    1    2    0    0 -0.23077576927E+03 -0.28615512420E+02 -0.26227888752E+03  0.35052322211E+03  0.10566000000E+00 0.  1.
<mgrwt>
<rscale>  1 0.70904413E+03</rscale>
<asrwt>0</asrwt>
<pdfrwt beam="1">  1       21 0.38721094E-01 0.10281658E+04</pdfrwt>
<pdfrwt beam="2">  1       -4 0.24302263E+00 0.10281658E+04</pdfrwt>
<totfact> 0.18023728E+01</totfact>
</mgrwt>
</event>
<event>
 6    2  0.2321478E-005  0.1231580E+04  0.7818608E-02  0.9213653E-01
         21   -1    0    0  501  502  0.00000000000E+00  0.00000000000E+00  0.16046873584E+04  0.16046873584E+04  0.00000000000E+00 0. -1.
         -4   -1    0    0    0  501 -0.00000000000E+00 -0.00000000000E+00 -0.63629893965E+03  0.63629893965E+03  0.00000000000E+00 0. -1.
   -9000010    2    1    2    0  502  0.60186091472E+03 -0.46313523489E+03  0.78248943322E+03  0.14591364081E+04  0.96956615959E+03 0.  0.
         13    1    3    3    0    0  0.49384212591E+03 -0.50578689292E+03  0.40436340416E+02  0.70805051738E+03  0.10566000000E+00 0. -1.
         -4    1    3    3    0  502  0.10801878881E+03  0.42651658029E+02  0.74205309280E+03  0.75108589070E+03  0.00000000000E+00 0. -1.
        -13    1    1    2    0    0 -0.60186091472E+03  0.46313523489E+03  0.18589898554E+03  0.78184988998E+03  0.10566000000E+00 0.  1.
<mgrwt>
<rscale>  1 0.10913615E+04</rscale>
<asrwt>0</asrwt>
<pdfrwt beam="1">  1       21 0.24687498E+00 0.12315800E+04</pdfrwt>
<pdfrwt beam="2">  1       -4 0.97892145E-01 0.12315800E+04</pdfrwt>
<totfact> 0.18694523E+00</totfact>
</mgrwt>
</event>
<event>
 6    2  0.2321478E-005  0.1020876E+04  0.7818608E-02  0.9600429E-01
         21   -1    0    0  501  502  0.00000000000E+00  0.00000000000E+00  0.13618169672E+04  0.13618169672E+04  0.00000000000E+00 0. -1.
         -4   -1    0    0    0  501 -0.00000000000E+00 -0.00000000000E+00 -0.12754707432E+04  0.12754707432E+04  0.00000000000E+00 0. -1.
   -9000010    2    1    2    0  502  0.33150091682E+03 -0.48456649422E+02  0.11408028043E+04  0.15308883269E+04  0.96433766195E+03 0.  0.
         13    1    3    3    0    0 -0.91355918113E+02 -0.33896401511E+03  0.91353811063E+02  0.36275065440E+03  0.10566000000E+00 0. -1.
         -4    1    3    3    0  502  0.42285683493E+03  0.29050736568E+03  0.10494489933E+04  0.11681376725E+04  0.00000000000E+00 0. -1.
        -13    1    1    2    0    0 -0.33150091682E+03  0.48456649422E+02 -0.10544565804E+04  0.11063993835E+04  0.10566000000E+00 0.  1.
<mgrwt>
<rscale>  1 0.77267824E+03</rscale>
<asrwt>0</asrwt>
<pdfrwt beam="1">  1       21 0.20951030E+00 0.10208761E+04</pdfrwt>
<pdfrwt beam="2">  1       -4 0.19622627E+00 0.10208761E+04</pdfrwt>
<totfact> 0.53734553E-01</totfact>
</mgrwt>
</event>
<event>
 6    2  0.2321478E-005  0.1077356E+04  0.7818608E-02  0.9521063E-01
         21   -1    0    0  501  502  0.00000000000E+00  0.00000000000E+00  0.12110414667E+04  0.12110414667E+04  0.00000000000E+00 0. -1.
         -4   -1    0    0    0  501 -0.00000000000E+00 -0.00000000000E+00 -0.44209923925E+03  0.44209923925E+03  0.00000000000E+00 0. -1.
   -9000010    2    1    2    0  502  0.19474339451E+02  0.37443543160E+03  0.65684325876E+03  0.12618002758E+04  0.10100077857E+04 0.  0.
         13    1    3    3    0    0  0.19701635734E+03  0.68636721847E+03  0.48974913989E+03  0.86589239218E+03  0.10566000000E+00 0. -1.
         -4    1    3    3    0  502 -0.17754201789E+03 -0.31193178686E+03  0.16709411888E+03  0.39590788365E+03  0.00000000000E+00 0. -1.
        -13    1    1    2    0    0 -0.19474339451E+02 -0.37443543160E+03  0.11209896873E+03  0.39134043018E+03  0.10566000000E+00 0.  1.
<mgrwt>
<rscale>  1 0.82748560E+03</rscale>
<asrwt>0</asrwt>
<pdfrwt beam="1">  1       21 0.18631407E+00 0.10773564E+04</pdfrwt>
<pdfrwt beam="2">  1       -4 0.68015268E-01 0.10773564E+04</pdfrwt>
<totfact> 0.11298370E+01</totfact>
</mgrwt>
</event>
<event>
 6    2  0.2321478E-005  0.1034244E+04  0.7818608E-02  0.9739327E-01
         -4   -1    0    0    0  501 -0.00000000000E+00  0.00000000000E+00  0.11325982319E+04  0.11325982319E+04  0.00000000000E+00 0. -1.
         21   -1    0    0  501  502  0.00000000000E+00 -0.00000000000E+00 -0.56115939448E+03  0.56115939448E+03  0.00000000000E+00 0. -1.
   -9000010    2    1    2    0  502  0.33662361347E+02 -0.19879048047E+03 -0.54966923359E+02  0.10357036787E+04  0.10144012706E+04 0.  0.
         13    1    3    3    0    0 -0.28886771332E+03 -0.45323343775E+03  0.17458635542E+03  0.56510663733E+03  0.10566000000E+00 0. -1.
         -4    1    3    3    0  502  0.32253007466E+03  0.25444295728E+03 -0.22955327878E+03  0.47059704140E+03  0.00000000000E+00 0. -1.
        -13    1    1    2    0    0 -0.33662361347E+02  0.19879048047E+03  0.62640576075E+03  0.65805394761E+03  0.10566000000E+00 0.  1.
<mgrwt>
<rscale>  1 0.68722814E+03</rscale>
<asrwt>0</asrwt>
<pdfrwt beam="2">  1       21 0.86332215E-01 0.10342440E+04</pdfrwt>
<pdfrwt beam="1">  1       -4 0.17424588E+00 0.10342440E+04</pdfrwt>
<totfact> 0.85612020E+00</totfact>
</mgrwt>
</event>
<event>
 6    2  0.2321478E-005  0.9396268E+03  0.7818608E-02  0.1016668E+00
         21   -1    0    0  501  502  0.00000000000E+00  0.00000000000E+00  0.89604776144E+03  0.89604776144E+03  0.00000000000E+00 0. -1.
         -4   -1    0    0    0  501 -0.00000000000E+00 -0.00000000000E+00 -0.29021060988E+03  0.29021060988E+03  0.00000000000E+00 0. -1.
   -9000010    2    1    2    0  502 -0.68566216209E+02 -0.74657434351E+01  0.60448464048E+03  0.11172735630E+04  0.93709202891E+03 0.  0.
         13    1    3    3    0    0  0.10735966342E+02  0.36898646176E+03  0.63164453435E+03  0.73160173515E+03  0.10566000000E+00 0. -1.
         -4    1    3    3    0  502 -0.79302182551E+02 -0.37645220520E+03 -0.27159893869E+02  0.38567182784E+03  0.00000000000E+00 0. -1.
        -13    1    1    2    0    0  0.68566216209E+02  0.74657434351E+01  0.13525110720E+01  0.68984808331E+02  0.10566000000E+00 0.  1.
<mgrwt>
<rscale>  1 0.48908466E+03</rscale>
<asrwt>0</asrwt>
<pdfrwt beam="1">  1       21 0.13785350E+00 0.93962681E+03</pdfrwt>
<pdfrwt beam="2">  1       -4 0.44647786E-01 0.93962681E+03</pdfrwt>
<totfact> 0.67182375E+01</totfact>
</mgrwt>
</event>
<event>
 6    2  0.2321478E-005  0.8233533E+03  0.7818608E-02  0.1040713E+00
         21   -1    0    0  501  502  0.00000000000E+00  0.00000000000E+00  0.43027228122E+03  0.43027228122E+03  0.00000000000E+00 0. -1.
         -4   -1    0    0    0  501 -0.00000000000E+00 -0.00000000000E+00 -0.50478851413E+03  0.50478851413E+03  0.00000000000E+00 0. -1.
   -9000010    2    1    2    0  502 -0.18500498187E+02  0.46585927291E+02  0.24892689418E+02  0.82372947874E+03  0.82182607107E+03 0.  0.
         13    1    3    3    0    0  0.26538520929E+03 -0.27300577378E+03  0.90261636881E+02  0.39129098646E+03  0.10566000000E+00 0. -1.
         -4    1    3    3    0  502 -0.28388570748E+03  0.31959170107E+03 -0.65368947463E+02  0.43243849227E+03  0.00000000000E+00 0. -1.
        -13    1    1    2    0    0  0.18500498187E+02 -0.46585927291E+02 -0.99408922337E+02  0.11133131661E+03  0.10566000000E+00 0.  1.
<mgrwt>
<rscale>  1 0.40898137E+03</rscale>
<asrwt>0</asrwt>
<pdfrwt beam="1">  1       21 0.66195736E-01 0.82335327E+03</pdfrwt>
<pdfrwt beam="2">  1       -4 0.77659771E-01 0.82335327E+03</pdfrwt>
<totfact> 0.12349948E+02</totfact>
</mgrwt>
</event>
<event>
 6    2  0.2321478E-005  0.1051668E+04  0.7818608E-02  0.9576033E-01
         21   -1    0    0  501  502  0.00000000000E+00  0.00000000000E+00  0.32670895480E+03  0.32670895480E+03  0.00000000000E+00 0. -1.
         -4   -1    0    0    0  501 -0.00000000000E+00 -0.00000000000E+00 -0.16401507986E+04  0.16401507986E+04  0.00000000000E+00 0. -1.
   -9000010    2    1    2    0  502 -0.32597538594E+03 -0.69131890808E+02 -0.68365128567E+03  0.12543463649E+04  0.99748010110E+03 0.  0.
         13    1    3    3    0    0  0.17521762483E+03 -0.40969652462E+03 -0.28022691633E+03  0.52638350481E+03  0.10566000000E+00 0. -1.
         -4    1    3    3    0  502 -0.50119301077E+03  0.34056463381E+03 -0.40342436935E+03  0.72796286006E+03  0.00000000000E+00 0. -1.
        -13    1    1    2    0    0  0.32597538594E+03  0.69131890808E+02 -0.62979055809E+03  0.71251338849E+03  0.10566000000E+00 0.  1.
<mgrwt>
<rscale>  1 0.78903006E+03</rscale>
<asrwt>0</asrwt>
<pdfrwt beam="1">  1       21 0.50262916E-01 0.10516681E+04</pdfrwt>
<pdfrwt beam="2">  1       -4 0.25233089E+00 0.10516681E+04</pdfrwt>
<totfact> 0.90397697E+00</totfact>
</mgrwt>
</event>
<event>
 6    2  0.2321478E-005  0.1020201E+04  0.7818608E-02  0.9725592E-01
         -4   -1    0    0    0  501 -0.00000000000E+00  0.00000000000E+00  0.18281215802E+03  0.18281215802E+03  0.00000000000E+00 0. -1.
         21   -1    0    0  501  502  0.00000000000E+00 -0.00000000000E+00 -0.21154145474E+04  0.21154145474E+04  0.00000000000E+00 0. -1.
   -9000010    2    1    2    0  502  0.72393136712E+02  0.20763598986E+03 -0.16535671864E+04  0.19429604303E+04  0.99622152330E+03 0.  0.
         13    1    3    3    0    0  0.24833855519E+03  0.56329991686E+03 -0.11197501030E+04  0.12778181164E+04  0.10566000000E+00 0. -1.
         -4    1    3    3    0  502 -0.17594541848E+03 -0.35566392700E+03 -0.53381708335E+03  0.66514231389E+03  0.00000000000E+00 0. -1.
        -13    1    1    2    0    0 -0.72393136712E+02 -0.20763598986E+03 -0.27903520303E+03  0.35526627510E+03  0.10566000000E+00 0.  1.
<mgrwt>
<rscale>  1 0.69513297E+03</rscale>
<asrwt>0</asrwt>
<pdfrwt beam="2">  1       21 0.32544840E+00 0.10202013E+04</pdfrwt>
<pdfrwt beam="1">  1       -4 0.28124946E-01 0.10202013E+04</pdfrwt>
<totfact> 0.90061129E+00</totfact>
</mgrwt>
</event>
<event>
 6    2  0.2321478E-005  0.1089010E+04  0.7818608E-02  0.9477603E-01
         -4   -1    0    0    0  501 -0.00000000000E+00  0.00000000000E+00  0.11686368679E+04  0.11686368679E+04  0.00000000000E+00 0. -1.
         21   -1    0    0  501  502  0.00000000000E+00 -0.00000000000E+00 -0.49210608713E+03  0.49210608713E+03  0.00000000000E+00 0. -1.
   -9000010    2    1    2    0  502 -0.21719526391E+03  0.36259086388E+03  0.42573184277E+03  0.11692696234E+04  0.10036423332E+04 0.  0.
         13    1    3    3    0    0  0.29050573941E+03 -0.17859593765E+03  0.78192400911E+02  0.34986305363E+03  0.10566000000E+00 0. -1.
         -4    1    3    3    0  502 -0.50770100331E+03  0.54118680153E+03  0.34753944186E+03  0.81940656976E+03  0.00000000000E+00 0. -1.
        -13    1    1    2    0    0  0.21719526391E+03 -0.36259086388E+03  0.25079893798E+03  0.49147333162E+03  0.10566000000E+00 0.  1.
<mgrwt>
<rscale>  1 0.85955404E+03</rscale>
<asrwt>0</asrwt>
<pdfrwt beam="2">  1       21 0.75708629E-01 0.10890105E+04</pdfrwt>
<pdfrwt beam="1">  1       -4 0.17979029E+00 0.10890105E+04</pdfrwt>
<totfact> 0.10604578E+01</totfact>
</mgrwt>
</event>
<event>
 6    2  0.2321478E-005  0.1139869E+04  0.7818608E-02  0.9556913E-01
         -4   -1    0    0    0  501 -0.00000000000E+00  0.00000000000E+00  0.10609795900E+04  0.10609795900E+04  0.00000000000E+00 0. -1.
         21   -1    0    0  501  502  0.00000000000E+00 -0.00000000000E+00 -0.48383476657E+03  0.48383476657E+03  0.00000000000E+00 0. -1.
   -9000010    2    1    2    0  502  0.26100928375E+03  0.10010021191E+03  0.37547939388E+03  0.12001190487E+04  0.11050588478E+04 0.  0.
         13    1    3    3    0    0  0.39229362135E+03 -0.18613735354E+03 -0.24913666706E+03  0.50061011753E+03  0.10566000000E+00 0. -1.
         -4    1    3    3    0  502 -0.13128433760E+03  0.28623756545E+03  0.62461606095E+03  0.69950893116E+03  0.00000000000E+00 0. -1.
        -13    1    1    2    0    0 -0.26100928375E+03 -0.10010021191E+03  0.20166542951E+03  0.34469530785E+03  0.10566000000E+00 0.  1.
<mgrwt>
<rscale>  1 0.80214788E+03</rscale>
<asrwt>0</asrwt>
<pdfrwt beam="2">  1       21 0.74436118E-01 0.11398688E+04</pdfrwt>
<pdfrwt beam="1">  1       -4 0.16322763E+00 0.11398688E+04</pdfrwt>
<totfact> 0.14437928E+01</totfact>
</mgrwt>
</event>
<event>
 6    2  0.2321478E-005  0.9986345E+03  0.7818608E-02  0.9962878E-01
         -4   -1    0    0    0  501 -0.00000000000E+00  0.00000000000E+00  0.24263080440E+03  0.24263080440E+03  0.00000000000E+00 0. -1.
         21   -1    0    0  501  502  0.00000000000E+00 -0.00000000000E+00 -0.13753657226E+04  0.13753657226E+04  0.00000000000E+00 0. -1.
   -9000010    2    1    2    0  502  0.67634293595E+02  0.84591859506E+02 -0.11322060861E+04  0.15096892272E+04  0.99274405615E+03 0.  0.
         13    1    3    3    0    0 -0.42940153358E+02  0.43129218270E+03 -0.10509564167E+04  0.11368228554E+04  0.10566000000E+00 0. -1.
         -4    1    3    3    0  502  0.11057444695E+03 -0.34670032319E+03 -0.81249669349E+02  0.37286637176E+03  0.00000000000E+00 0. -1.
        -13    1    1    2    0    0 -0.67634293595E+02 -0.84591859506E+02 -0.52883214406E+00  0.10830729981E+03  0.10566000000E+00 0.  1.
<mgrwt>
<rscale>  1 0.57308372E+03</rscale>
<asrwt>0</asrwt>
<pdfrwt beam="2">  1       21 0.21159473E+00 0.99863454E+03</pdfrwt>
<pdfrwt beam="1">  1       -4 0.37327816E-01 0.99863454E+03</pdfrwt>
<totfact> 0.27188498E+01</totfact>
</mgrwt>
</event>
<event>
 6    2  0.3011426E-005  0.8113897E+03  0.7818608E-02  0.1002107E+00
         -4   -1    0    0    0  501 -0.00000000000E+00  0.00000000000E+00  0.50805072907E+03  0.50805072907E+03  0.00000000000E+00 0. -1.
         21   -1    0    0  501  502  0.00000000000E+00 -0.00000000000E+00 -0.50392977453E+03  0.50392977453E+03  0.00000000000E+00 0. -1.
   -9000010    2    1    2    0  502 -0.81648428112E+02  0.14686818877E+03 -0.94926667527E+02  0.81692365731E+03  0.79379875219E+03 0.  0.
         13    1    3    3    0    0 -0.32826569327E+03  0.35512227349E+03 -0.12417740876E+02  0.48376069080E+03  0.10566000000E+00 0. -1.
         -4    1    3    3    0  502  0.24661726515E+03 -0.20825408473E+03 -0.82508926651E+02  0.33316296651E+03  0.00000000000E+00 0. -1.
        -13    1    1    2    0    0  0.81648428112E+02 -0.14686818877E+03  0.99047622068E+02  0.19505684630E+03  0.10566000000E+00 0.  1.
<mgrwt>
<rscale>  1 0.54736110E+03</rscale>
<asrwt>0</asrwt>
<pdfrwt beam="2">  1       21 0.77527658E-01 0.81138967E+03</pdfrwt>
<pdfrwt beam="1">  1       -4 0.78161651E-01 0.81138967E+03</pdfrwt>
<totfact> 0.84802340E+01</totfact>
</mgrwt>
</event>
<event>
 6    2  0.2321478E-005  0.1008567E+04  0.7818608E-02  0.1001096E+00
         -4   -1    0    0    0  501 -0.00000000000E+00  0.00000000000E+00  0.18293915304E+03  0.18293915304E+03  0.00000000000E+00 0. -1.
         21   -1    0    0  501  502  0.00000000000E+00 -0.00000000000E+00 -0.17074460534E+04  0.17074460534E+04  0.00000000000E+00 0. -1.
   -9000010    2    1    2    0  502  0.41425222422E+01 -0.90221726192E+02 -0.14765389893E+04  0.17881205888E+04  0.10045151730E+04 0.  0.
         13    1    3    3    0    0  0.29427907166E+03  0.31053798505E+03 -0.33302380138E+03  0.54216130038E+03  0.10566000000E+00 0. -1.
         -4    1    3    3    0  502 -0.29013654942E+03 -0.40075971124E+03 -0.11435151879E+04  0.12459592884E+04  0.00000000000E+00 0. -1.
        -13    1    1    2    0    0 -0.41425222422E+01  0.90221726192E+02 -0.47967911136E+02  0.10226461769E+03  0.10566000000E+00 0.  1.
<mgrwt>
<rscale>  1 0.55172266E+03</rscale>
<asrwt>0</asrwt>
<pdfrwt beam="2">  1       21 0.26268400E+00 0.10085672E+04</pdfrwt>
<pdfrwt beam="1">  1       -4 0.28144486E-01 0.10085672E+04</pdfrwt>
<totfact> 0.22194789E+01</totfact>
</mgrwt>
</event>
<event>
 6    2  0.2321478E-005  0.1099316E+04  0.7818608E-02  0.9441250E-01
         21   -1    0    0  501  502  0.00000000000E+00  0.00000000000E+00  0.13004987465E+04  0.13004987465E+04  0.00000000000E+00 0. -1.
         -4   -1    0    0    0  501 -0.00000000000E+00 -0.00000000000E+00 -0.79803222445E+03  0.79803222445E+03  0.00000000000E+00 0. -1.
   -9000010    2    1    2    0  502 -0.10148239627E+03 -0.45598572054E+03  0.94902040468E+03  0.14522864079E+04  0.99512533274E+03 0.  0.
         13    1    3    3    0    0 -0.16308750871E+03  0.28126944260E+03  0.46792866996E+03  0.56979582849E+03  0.10566000000E+00 0. -1.
         -4    1    3    3    0  502  0.61605112438E+02 -0.73725516314E+03  0.48109173473E+03  0.88249057937E+03  0.00000000000E+00 0. -1.
        -13    1    1    2    0    0  0.10148239627E+03  0.45598572054E+03 -0.44655388263E+03  0.64624456310E+03  0.10566000000E+00 0.  1.
<mgrwt>
<rscale>  1 0.88757324E+03</rscale>
<asrwt>0</asrwt>
<pdfrwt beam="1">  1       21 0.20007673E+00 0.10993162E+04</pdfrwt>
<pdfrwt beam="2">  1       -4 0.12277419E+00 0.10993162E+04</pdfrwt>
<totfact> 0.22239991E+00</totfact>
</mgrwt>
</event>
<event>
 6    2  0.2321478E-005  0.1011535E+04  0.7818608E-02  0.9827569E-01
         -4   -1    0    0    0  501 -0.00000000000E+00  0.00000000000E+00  0.79789589916E+03  0.79789589916E+03  0.00000000000E+00 0. -1.
         21   -1    0    0  501  502  0.00000000000E+00 -0.00000000000E+00 -0.52182149228E+03  0.52182149228E+03  0.00000000000E+00 0. -1.
   -9000010    2    1    2    0  502  0.14544579844E+03  0.69331323052E+02  0.13472461400E+02  0.10116247015E+04  0.99861990611E+03 0.  0.
         13    1    3    3    0    0  0.44340079533E+03  0.19758081049E+03 -0.29163518306E+03  0.56629809565E+03  0.10566000000E+00 0. -1.
         -4    1    3    3    0  502 -0.29795499690E+03 -0.12824948743E+03  0.30510764446E+03  0.44532660588E+03  0.00000000000E+00 0. -1.
        -13    1    1    2    0    0 -0.14544579844E+03 -0.69331323052E+02  0.26260194549E+03  0.30809268991E+03  0.10566000000E+00 0.  1.
<mgrwt>
<rscale>  1 0.63903778E+03</rscale>
<asrwt>0</asrwt>
<pdfrwt beam="2">  1       21 0.80280230E-01 0.10115350E+04</pdfrwt>
<pdfrwt beam="1">  1       -4 0.12275322E+00 0.10115350E+04</pdfrwt>
<totfact> 0.26017356E+01</totfact>
</mgrwt>
</event>
<event>
 6    2  0.2321478E-005  0.1084947E+04  0.7818608E-02  0.9498364E-01
         -4   -1    0    0    0  501 -0.00000000000E+00  0.00000000000E+00  0.96463896557E+03  0.96463896557E+03  0.00000000000E+00 0. -1.
         21   -1    0    0  501  502  0.00000000000E+00 -0.00000000000E+00 -0.10618210252E+04  0.10618210252E+04  0.00000000000E+00 0. -1.
   -9000010    2    1    2    0  502 -0.16948349437E+03 -0.35945686628E+03 -0.70960224610E+03  0.12963967129E+04  0.10095420724E+04 0.  0.
         13    1    3    3    0    0  0.79212004875E+02 -0.13063978739E+03 -0.89703638845E+03  0.90995361922E+03  0.10566000000E+00 0. -1.
         -4    1    3    3    0  502 -0.24869549925E+03 -0.22881707890E+03  0.18743414236E+03  0.38644309369E+03  0.00000000000E+00 0. -1.
        -13    1    1    2    0    0  0.16948349437E+03  0.35945686628E+03  0.61242018651E+03  0.73006327780E+03  0.10566000000E+00 0.  1.
<mgrwt>
<rscale>  1 0.84404517E+03</rscale>
<asrwt>0</asrwt>
<pdfrwt beam="2">  1       21 0.16335708E+00 0.10849466E+04</pdfrwt>
<pdfrwt beam="1">  1       -4 0.14840600E+00 0.10849466E+04</pdfrwt>
<totfact> 0.25111267E+00</totfact>
</mgrwt>
</event>
<event>
 6    2  0.2321478E-005  0.1034280E+04  0.7818608E-02  0.9691337E-01
         21   -1    0    0  501  502  0.00000000000E+00  0.00000000000E+00  0.52369192102E+03  0.52369192102E+03  0.00000000000E+00 0. -1.
         -4   -1    0    0    0  501 -0.00000000000E+00 -0.00000000000E+00 -0.78906817695E+03  0.78906817695E+03  0.00000000000E+00 0. -1.
   -9000010    2    1    2    0  502 -0.22664278241E+03 -0.68188744399E+02 -0.13644311366E+03  0.10432412266E+04  0.10068360730E+04 0.  0.
         13    1    3    3    0    0 -0.33327065445E+03 -0.22419246325E+03  0.34282144401E+03  0.52807020682E+03  0.10566000000E+00 0. -1.
         -4    1    3    3    0  502  0.10662787203E+03  0.15600371886E+03 -0.47926455767E+03  0.51517101978E+03  0.00000000000E+00 0. -1.
        -13    1    1    2    0    0  0.22664278241E+03  0.68188744399E+02 -0.12893314227E+03  0.26951887137E+03  0.10566000000E+00 0.  1.
<mgrwt>
<rscale>  1 0.71534956E+03</rscale>
<asrwt>0</asrwt>
<pdfrwt beam="1">  1       21 0.80567988E-01 0.10342802E+04</pdfrwt>
<pdfrwt beam="2">  1       -4 0.12139510E+00 0.10342802E+04</pdfrwt>
<totfact> 0.26481965E+01</totfact>
</mgrwt>
</event>
<event>
 6    2  0.2321478E-005  0.1005227E+04  0.7818608E-02  0.9799175E-01
         21   -1    0    0  501  502  0.00000000000E+00  0.00000000000E+00  0.68365021144E+03  0.68365021144E+03  0.00000000000E+00 0. -1.
         -4   -1    0    0    0  501 -0.00000000000E+00 -0.00000000000E+00 -0.64435427211E+03  0.64435427211E+03  0.00000000000E+00 0. -1.
   -9000010    2    1    2    0  502  0.15350147093E+02  0.17952231392E+03  0.26464587428E+03  0.10394798008E+04  0.98894738449E+03 0.  0.
         13    1    3    3    0    0  0.43162745841E+03  0.31719055723E+03  0.27246929401E+03  0.60095893353E+03  0.10566000000E+00 0. -1.
         -4    1    3    3    0  502 -0.41627731132E+03 -0.13766824332E+03 -0.78234197287E+01  0.43852086727E+03  0.00000000000E+00 0. -1.
        -13    1    1    2    0    0 -0.15350147093E+02 -0.17952231392E+03 -0.22534993495E+03  0.28852468275E+03  0.10566000000E+00 0.  1.
<mgrwt>
<rscale>  1 0.65406832E+03</rscale>
<asrwt>0</asrwt>
<pdfrwt beam="1">  1       21 0.10517696E+00 0.10052267E+04</pdfrwt>
<pdfrwt beam="2">  1       -4 0.99131426E-01 0.10052267E+04</pdfrwt>
<totfact> 0.22879647E+01</totfact>
</mgrwt>
</event>
<event>
 6    2  0.2321478E-005  0.9958158E+03  0.7818608E-02  0.1008796E+00
         21   -1    0    0  501  502  0.00000000000E+00  0.00000000000E+00  0.73027208109E+03  0.73027208109E+03  0.00000000000E+00 0. -1.
         -4   -1    0    0    0  501 -0.00000000000E+00 -0.00000000000E+00 -0.39530207290E+03  0.39530207290E+03  0.00000000000E+00 0. -1.
   -9000010    2    1    2    0  502 -0.66005784927E+02 -0.32990275610E+02  0.33829173959E+03  0.10517082824E+04  0.99307798696E+03 0.  0.
         13    1    3    3    0    0 -0.93729538966E+02 -0.88613672588E+02  0.68623797749E+03  0.69825509834E+03  0.10566000000E+00 0. -1.
         -4    1    3    3    0  502  0.27723754039E+02  0.55623396978E+02 -0.34794623790E+03  0.35345318402E+03  0.00000000000E+00 0. -1.
        -13    1    1    2    0    0  0.66005784927E+02  0.32990275610E+02 -0.33217314061E+01  0.73865871634E+02  0.10566000000E+00 0.  1.
<mgrwt>
<rscale>  1 0.51955952E+03</rscale>
<asrwt>0</asrwt>
<pdfrwt beam="1">  1       21 0.11234955E+00 0.99581575E+03</pdfrwt>
<pdfrwt beam="2">  1       -4 0.60815703E-01 0.99581575E+03</pdfrwt>
<totfact> 0.59243192E+01</totfact>
</mgrwt>
</event>
<event>
 6    2  0.2321478E-005  0.7766289E+03  0.7818608E-02  0.9969251E-01
         -4   -1    0    0    0  501 -0.00000000000E+00  0.00000000000E+00  0.29273710873E+03  0.29273710873E+03  0.00000000000E+00 0. -1.
         21   -1    0    0  501  502  0.00000000000E+00 -0.00000000000E+00 -0.30610800631E+04  0.30610800631E+04  0.00000000000E+00 0. -1.
   -9000010    2    1    2    0  502 -0.22565619184E+03  0.14396217341E+00 -0.29584911654E+04  0.30587288953E+04  0.74312296545E+03 0.  0.
         13    1    3    3    0    0 -0.43889460775E+03 -0.51762296528E+02 -0.26081274780E+04  0.26453046639E+04  0.10566000000E+00 0. -1.
         -4    1    3    3    0  502  0.21323841591E+03  0.51906258702E+02 -0.35036368740E+03  0.41342423146E+03  0.00000000000E+00 0. -1.
        -13    1    1    2    0    0  0.22565619184E+03 -0.14396217341E+00  0.19014821099E+03  0.29508827654E+03  0.10566000000E+00 0.  1.
<mgrwt>
<rscale>  1 0.57019318E+03</rscale>
<asrwt>0</asrwt>
<pdfrwt beam="2">  1       21 0.47093541E+00 0.77662892E+03</pdfrwt>
<pdfrwt beam="1">  1       -4 0.45036477E-01 0.77662892E+03</pdfrwt>
<totfact> 0.41403669E-01</totfact>
</mgrwt>
</event>
<event>
 6    2  0.2321478E-005  0.1049615E+04  0.7818608E-02  0.9744186E-01
         -4   -1    0    0    0  501 -0.00000000000E+00  0.00000000000E+00  0.27657955098E+03  0.27657955098E+03  0.00000000000E+00 0. -1.
         21   -1    0    0  501  502  0.00000000000E+00 -0.00000000000E+00 -0.15013894844E+04  0.15013894844E+04  0.00000000000E+00 0. -1.
   -9000010    2    1    2    0  502  0.52231627024E+02 -0.18247217049E+03 -0.11868782612E+04  0.15844152734E+04  0.10323117338E+04 0.  0.
         13    1    3    3    0    0 -0.46914447016E+02 -0.81118130036E+02  0.18386048238E+03  0.20636328284E+03  0.10566000000E+00 0. -1.
         -4    1    3    3    0  502  0.99146074040E+02 -0.10135404045E+03 -0.13707387436E+04  0.13780519905E+04  0.00000000000E+00 0. -1.
        -13    1    1    2    0    0 -0.52231627024E+02  0.18247217049E+03 -0.37931672229E+02  0.19355376200E+03  0.10566000000E+00 0.  1.
<mgrwt>
<rscale>  1 0.68445815E+03</rscale>
<asrwt>0</asrwt>
<pdfrwt beam="2">  1       21 0.23098299E+00 0.10496150E+04</pdfrwt>
<pdfrwt beam="1">  1       -4 0.42550701E-01 0.10496150E+04</pdfrwt>
<totfact> 0.15402151E+01</totfact>
</mgrwt>
</event>
<event>
 6    2  0.2321478E-005  0.1031380E+04  0.7818608E-02  0.9756277E-01
         21   -1    0    0  501  502  0.00000000000E+00  0.00000000000E+00  0.31263685951E+03  0.31263685951E+03  0.00000000000E+00 0. -1.
         -4   -1    0    0    0  501 -0.00000000000E+00 -0.00000000000E+00 -0.12185369947E+04  0.12185369947E+04  0.00000000000E+00 0. -1.
   -9000010    2    1    2    0  502  0.13117750505E+03 -0.14044751338E+03 -0.68378534219E+03  0.12374596491E+04  0.10133168049E+04 0.  0.
         13    1    3    3    0    0 -0.15279675759E+03  0.39158448095E+03 -0.35731886854E+03  0.55169016651E+03  0.10566000000E+00 0. -1.
         -4    1    3    3    0  502  0.28397426264E+03 -0.53203199433E+03 -0.32646647366E+03  0.68576948259E+03  0.00000000000E+00 0. -1.
        -13    1    1    2    0    0 -0.13117750505E+03  0.14044751338E+03 -0.22211479300E+03  0.29371420510E+03  0.10566000000E+00 0.  1.
<mgrwt>
<rscale>  1 0.67762719E+03</rscale>
<asrwt>0</asrwt>
<pdfrwt beam="1">  1       21 0.48097979E-01 0.10313797E+04</pdfrwt>
<pdfrwt beam="2">  1       -4 0.18746723E+00 0.10313797E+04</pdfrwt>
<totfact> 0.26023501E+01</totfact>
</mgrwt>
</event>
<event>
 6    2  0.2321478E-005  0.1133124E+04  0.7818608E-02  0.9367068E-01
         -4   -1    0    0    0  501 -0.00000000000E+00  0.00000000000E+00  0.71554406442E+03  0.71554406442E+03  0.00000000000E+00 0. -1.
         21   -1    0    0  501  502  0.00000000000E+00 -0.00000000000E+00 -0.11161396166E+04  0.11161396166E+04  0.00000000000E+00 0. -1.
   -9000010    2    1    2    0  502 -0.54633256136E+03 -0.10314569780E+03 -0.54481958455E+03  0.12572980220E+04  0.98734575194E+03 0.  0.
         13    1    3    3    0    0 -0.60711533475E+03  0.12036264210E+03 -0.73264719813E+03  0.95908713024E+03  0.10566000000E+00 0. -1.
         -4    1    3    3    0  502  0.60782773391E+02 -0.22350833990E+03  0.18782761359E+03  0.29821089177E+03  0.00000000000E+00 0. -1.
        -13    1    1    2    0    0  0.54633256136E+03  0.10314569780E+03  0.14422403238E+03  0.57438565899E+03  0.10566000000E+00 0.  1.
<mgrwt>
<rscale>  1 0.94836095E+03</rscale>
<asrwt>0</asrwt>
<pdfrwt beam="2">  1       21 0.17171379E+00 0.11331240E+04</pdfrwt>
<pdfrwt beam="1">  1       -4 0.11008370E+00 0.11331240E+04</pdfrwt>
<totfact> 0.46435115E+00</totfact>
</mgrwt>
</event>
<event>
 6    2  0.2321478E-005  0.1022401E+04  0.7818608E-02  0.9643456E-01
         21   -1    0    0  501  502  0.00000000000E+00  0.00000000000E+00  0.14662277025E+04  0.14662277025E+04  0.00000000000E+00 0. -1.
         -4   -1    0    0    0  501 -0.00000000000E+00 -0.00000000000E+00 -0.35803797769E+03  0.35803797769E+03  0.00000000000E+00 0. -1.
   -9000010    2    1    2    0  502  0.25720789809E+03 -0.12961708640E+03  0.11436988169E+04  0.15340633392E+04  0.98099278938E+03 0.  0.
         13    1    3    3    0    0  0.52914996185E+02 -0.50223069014E+03  0.93033133739E+03  0.10585613215E+04  0.10566000000E+00 0. -1.
         -4    1    3    3    0  502  0.20429290190E+03  0.37261360374E+03  0.21336747952E+03  0.47550201763E+03  0.00000000000E+00 0. -1.
        -13    1    1    2    0    0 -0.25720789809E+03  0.12961708640E+03 -0.35509092152E+02  0.29020234099E+03  0.10566000000E+00 0.  1.
<mgrwt>
<rscale>  1 0.74485576E+03</rscale>
<asrwt>0</asrwt>
<pdfrwt beam="1">  1       21 0.22557349E+00 0.10224008E+04</pdfrwt>
<pdfrwt beam="2">  1       -4 0.55082767E-01 0.10224008E+04</pdfrwt>
<totfact> 0.97477727E+00</totfact>
</mgrwt>
</event>
<event>
 6    2  0.2321478E-005  0.9626329E+03  0.7818608E-02  0.9800369E-01
         -4   -1    0    0    0  501 -0.00000000000E+00  0.00000000000E+00  0.15585135230E+04  0.15585135230E+04  0.00000000000E+00 0. -1.
         21   -1    0    0  501  502  0.00000000000E+00 -0.00000000000E+00 -0.27040237284E+03  0.27040237284E+03  0.00000000000E+00 0. -1.
   -9000010    2    1    2    0  502  0.15263012954E+03 -0.13590199973E+03  0.65680735858E+03  0.11653574595E+04  0.94068953020E+03 0.  0.
         13    1    3    3    0    0  0.38536466797E+03  0.28657932797E+03  0.32202368556E+03  0.57821527459E+03  0.10566000000E+00 0. -1.
         -4    1    3    3    0  502 -0.23273453843E+03 -0.42248132769E+03  0.33478367302E+03  0.58714218495E+03  0.00000000000E+00 0. -1.
        -13    1    1    2    0    0 -0.15263012954E+03  0.13590199973E+03  0.63130379159E+03  0.66355843632E+03  0.10566000000E+00 0.  1.
<mgrwt>
<rscale>  1 0.65342764E+03</rscale>
<asrwt>0</asrwt>
<pdfrwt beam="2">  1       21 0.41600366E-01 0.96263290E+03</pdfrwt>
<pdfrwt beam="1">  1       -4 0.23977131E+00 0.96263290E+03</pdfrwt>
<totfact> 0.16368597E+01</totfact>
</mgrwt>
</event>
<event>
 6    2  0.2321478E-005  0.1010704E+04  0.7818608E-02  0.1010428E+00
         21   -1    0    0  501  502  0.00000000000E+00  0.00000000000E+00  0.50495153186E+03  0.50495153186E+03  0.00000000000E+00 0. -1.
         -4   -1    0    0    0  501 -0.00000000000E+00 -0.00000000000E+00 -0.57807822706E+03  0.57807822706E+03  0.00000000000E+00 0. -1.
   -9000010    2    1    2    0  502  0.11024843682E+02  0.66193313941E+02 -0.49603232749E+02  0.10119209238E+04  0.10084742799E+04 0.  0.
         13    1    3    3    0    0 -0.21276207219E+03  0.82834389913E+02  0.42751579284E+03  0.48466380080E+03  0.10566000000E+00 0. -1.
         -4    1    3    3    0  502  0.22378691587E+03 -0.16641075972E+02 -0.47711902559E+03  0.52725712295E+03  0.00000000000E+00 0. -1.
        -13    1    1    2    0    0 -0.11024843682E+02 -0.66193313941E+02 -0.23523462456E+02  0.71108835166E+02  0.10566000000E+00 0.  1.
<mgrwt>
<rscale>  1 0.51304710E+03</rscale>
<asrwt>0</asrwt>
<pdfrwt beam="1">  1       21 0.77684851E-01 0.10107044E+04</pdfrwt>
<pdfrwt beam="2">  1       -4 0.88935112E-01 0.10107044E+04</pdfrwt>
<totfact> 0.61611164E+01</totfact>
</mgrwt>
</event>
<event>
 6    2  0.2321478E-005  0.1007636E+04  0.7818608E-02  0.9796032E-01
         -4   -1    0    0    0  501 -0.00000000000E+00  0.00000000000E+00  0.65507829933E+03  0.65507829933E+03  0.00000000000E+00 0. -1.
         21   -1    0    0  501  502  0.00000000000E+00 -0.00000000000E+00 -0.12272980482E+04  0.12272980482E+04  0.00000000000E+00 0. -1.
   -9000010    2    1    2    0  502  0.14760882151E+03 -0.10430895838E+03 -0.99898827149E+03  0.14189110241E+04  0.99129319815E+03 0.  0.
         13    1    3    3    0    0  0.23810711564E+03  0.39065832743E+03 -0.69175088027E+03  0.82935409737E+03  0.10566000000E+00 0. -1.
         -4    1    3    3    0  502 -0.90498294130E+02 -0.49496728581E+03 -0.30723739122E+03  0.58955692671E+03  0.00000000000E+00 0. -1.
        -13    1    1    2    0    0 -0.14760882151E+03  0.10430895838E+03  0.42676852262E+03  0.46346532345E+03  0.10566000000E+00 0.  1.
<mgrwt>
<rscale>  1 0.65575920E+03</rscale>
<asrwt>0</asrwt>
<pdfrwt beam="2">  1       21 0.18881508E+00 0.10076363E+04</pdfrwt>
<pdfrwt beam="1">  1       -4 0.10078128E+00 0.10076363E+04</pdfrwt>
<totfact> 0.44011277E+00</totfact>
</mgrwt>
</event>
<event>
 6    2  0.2321478E-005  0.9960465E+03  0.7818608E-02  0.1008439E+00
         -4   -1    0    0    0  501 -0.00000000000E+00  0.00000000000E+00  0.41354566124E+03  0.41354566124E+03  0.00000000000E+00 0. -1.
         21   -1    0    0  501  502  0.00000000000E+00 -0.00000000000E+00 -0.76279927890E+03  0.76279927890E+03  0.00000000000E+00 0. -1.
   -9000010    2    1    2    0  502 -0.54926549295E+02 -0.50422017387E+02 -0.41297397605E+03  0.10782653761E+04  0.99325193715E+03 0.  0.
         13    1    3    3    0    0 -0.12469162827E+03  0.16653713139E+03 -0.68934121697E+03  0.72005134738E+03  0.10566000000E+00 0. -1.
         -4    1    3    3    0  502  0.69765078974E+02 -0.21695914878E+03  0.27636724092E+03  0.35821402867E+03  0.00000000000E+00 0. -1.
        -13    1    1    2    0    0  0.54926549295E+02  0.50422017387E+02  0.63720358383E+02  0.98079564086E+02  0.10566000000E+00 0.  1.
<mgrwt>
<rscale>  1 0.52099962E+03</rscale>
<asrwt>0</asrwt>
<pdfrwt beam="2">  1       21 0.11735374E+00 0.99604654E+03</pdfrwt>
<pdfrwt beam="1">  1       -4 0.63622409E-01 0.99604654E+03</pdfrwt>
<totfact> 0.48013775E+01</totfact>
</mgrwt>
</event>
<event>
 6    2  0.2321478E-005  0.9945490E+03  0.7818608E-02  0.1000871E+00
         -4   -1    0    0    0  501 -0.00000000000E+00  0.00000000000E+00  0.33846508624E+03  0.33846508624E+03  0.00000000000E+00 0. -1.
         21   -1    0    0  501  502  0.00000000000E+00 -0.00000000000E+00 -0.12234451593E+04  0.12234451593E+04  0.00000000000E+00 0. -1.
   -9000010    2    1    2    0  502  0.61826753612E+01  0.94656941599E+02 -0.10016561361E+04  0.14115391150E+04  0.99001489685E+03 0.  0.
         13    1    3    3    0    0 -0.57873683591E+02  0.45293001143E+03 -0.93637834830E+03  0.10417770303E+04  0.10566000000E+00 0. -1.
         -4    1    3    3    0  502  0.64056358952E+02 -0.35827306983E+03 -0.65277787827E+02  0.36976208469E+03  0.00000000000E+00 0. -1.
        -13    1    1    2    0    0 -0.61826753612E+01 -0.94656941599E+02  0.11667606303E+03  0.15037113060E+03  0.10566000000E+00 0.  1.
<mgrwt>
<rscale>  1 0.55269931E+03</rscale>
<asrwt>0</asrwt>
<pdfrwt beam="2">  1       21 0.18822233E+00 0.99454897E+03</pdfrwt>
<pdfrwt beam="1">  1       -4 0.52071552E-01 0.99454897E+03</pdfrwt>
<totfact> 0.19781228E+01</totfact>
</mgrwt>
</event>
<event>
 6    2  0.2321478E-005  0.1132871E+04  0.7818608E-02  0.9387102E-01
         21   -1    0    0  501  502  0.00000000000E+00  0.00000000000E+00  0.11130520950E+04  0.11130520950E+04  0.00000000000E+00 0. -1.
         -4   -1    0    0    0  501 -0.00000000000E+00 -0.00000000000E+00 -0.70679475789E+03  0.70679475789E+03  0.00000000000E+00 0. -1.
   -9000010    2    1    2    0  502  0.51535340183E+03  0.49419669012E+02 -0.43999901117E+02  0.11337251259E+04  0.10076533319E+04 0.  0.
         13    1    3    3    0    0  0.29184946022E+03 -0.13311111069E+03  0.45535057660E+03  0.55699087425E+03  0.10566000000E+00 0. -1.
         -4    1    3    3    0  502  0.22350394160E+03  0.18253077970E+03 -0.49935047772E+03  0.57673425167E+03  0.00000000000E+00 0. -1.
        -13    1    1    2    0    0 -0.51535340183E+03 -0.49419669012E+02  0.45025723818E+03  0.68612172693E+03  0.10566000000E+00 0.  1.
<mgrwt>
<rscale>  1 0.93144800E+03</rscale>
<asrwt>0</asrwt>
<pdfrwt beam="1">  1       21 0.17123878E+00 0.11328710E+04</pdfrwt>
<pdfrwt beam="2">  1       -4 0.10873765E+00 0.11328710E+04</pdfrwt>
<totfact> 0.48258537E+00</totfact>
</mgrwt>
</event>
<event>
 6    2  0.2321478E-005  0.8877885E+03  0.7818608E-02  0.1015927E+00
         -4   -1    0    0    0  501 -0.00000000000E+00  0.00000000000E+00  0.84016869896E+03  0.84016869896E+03  0.00000000000E+00 0. -1.
         21   -1    0    0  501  502  0.00000000000E+00 -0.00000000000E+00 -0.29927181479E+03  0.29927181479E+03  0.00000000000E+00 0. -1.
   -9000010    2    1    2    0  502  0.33765116891E+02  0.76523101319E+02  0.56508327418E+03  0.10523723750E+04  0.88383971444E+03 0.  0.
         13    1    3    3    0    0 -0.87795358180E+02  0.33159579615E+03  0.66859254223E+03  0.75145179195E+03  0.10566000000E+00 0. -1.
         -4    1    3    3    0  502  0.12156047507E+03 -0.25507269483E+03 -0.10350926805E+03  0.30092058308E+03  0.00000000000E+00 0. -1.
        -13    1    1    2    0    0 -0.33765116891E+02 -0.76523101319E+02 -0.24186390004E+02  0.87068138717E+02  0.10566000000E+00 0.  1.
<mgrwt>
<rscale>  1 0.49185546E+03</rscale>
<asrwt>0</asrwt>
<pdfrwt beam="2">  1       21 0.46041818E-01 0.88778855E+03</pdfrwt>
<pdfrwt beam="1">  1       -4 0.12925672E+00 0.88778855E+03</pdfrwt>
<totfact> 0.79868214E+01</totfact>
</mgrwt>
</event>
<event>
 6    2  0.2321478E-005  0.1142953E+04  0.7818608E-02  0.9389726E-01
         21   -1    0    0  501  502  0.00000000000E+00  0.00000000000E+00  0.98676280417E+03  0.98676280417E+03  0.00000000000E+00 0. -1.
         -4   -1    0    0    0  501 -0.00000000000E+00 -0.00000000000E+00 -0.68984897679E+03  0.68984897679E+03  0.00000000000E+00 0. -1.
   -9000010    2    1    2    0  502 -0.44542730450E+03  0.22586369844E+03  0.13140523560E+03  0.11504815699E+04  0.10280664438E+04 0.  0.
         13    1    3    3    0    0 -0.46801445123E+03  0.55981284165E+03 -0.10983026570E+03  0.73789609205E+03  0.10566000000E+00 0. -1.
         -4    1    3    3    0  502  0.22587146727E+02 -0.33394914320E+03  0.24123550131E+03  0.41258547785E+03  0.00000000000E+00 0. -1.
        -13    1    1    2    0    0  0.44542730450E+03 -0.22586369844E+03  0.16550859178E+03  0.52613021106E+03  0.10566000000E+00 0.  1.
<mgrwt>
<rscale>  1 0.92926074E+03</rscale>
<asrwt>0</asrwt>
<pdfrwt beam="1">  1       21 0.15180966E+00 0.11429525E+04</pdfrwt>
<pdfrwt beam="2">  1       -4 0.10613061E+00 0.11429525E+04</pdfrwt>
<totfact> 0.72368491E+00</totfact>
</mgrwt>
</event>
<event>
 6    2  0.2321478E-005  0.1083814E+04  0.7818608E-02  0.9483574E-01
         -4   -1    0    0    0  501 -0.00000000000E+00  0.00000000000E+00  0.52845518952E+03  0.52845518952E+03  0.00000000000E+00 0. -1.
         21   -1    0    0  501  502  0.00000000000E+00 -0.00000000000E+00 -0.10808170083E+04  0.10808170083E+04  0.00000000000E+00 0. -1.
   -9000010    2    1    2    0  502 -0.17363631094E+02  0.41951229917E+03 -0.47031001959E+03  0.11814584840E+04  0.99917994879E+03 0.  0.
         13    1    3    3    0    0 -0.92434333172E+02  0.21261240410E+02  0.29804670245E+03  0.31277467017E+03  0.10566000000E+00 0. -1.
         -4    1    3    3    0  502  0.75070702078E+02  0.39825105876E+03 -0.76835672204E+03  0.86868381384E+03  0.00000000000E+00 0. -1.
        -13    1    1    2    0    0  0.17363631094E+02 -0.41951229917E+03 -0.82051799234E+02  0.42781371386E+03  0.10566000000E+00 0.  1.
<mgrwt>
<rscale>  1 0.85505716E+03</rscale>
<asrwt>0</asrwt>
<pdfrwt beam="2">  1       21 0.16627954E+00 0.10838139E+04</pdfrwt>
<pdfrwt beam="1">  1       -4 0.81300798E-01 0.10838139E+04</pdfrwt>
<totfact> 0.10576696E+01</totfact>
</mgrwt>
</event>
<event>
 6    2  0.2321478E-005  0.1040671E+04  0.7818608E-02  0.9541900E-01
         -4   -1    0    0    0  501 -0.00000000000E+00  0.00000000000E+00  0.11033894508E+04  0.11033894508E+04  0.00000000000E+00 0. -1.
         21   -1    0    0  501  502  0.00000000000E+00 -0.00000000000E+00 -0.52848338745E+03  0.52848338745E+03  0.00000000000E+00 0. -1.
   -9000010    2    1    2    0  502  0.15286666659E+03  0.35547101995E+03  0.66444683686E+03  0.12347010555E+04  0.96605860772E+03 0.  0.
         13    1    3    3    0    0 -0.27189140136E+02 -0.20624247192E+03  0.60745521119E+03  0.64208804017E+03  0.10566000000E+00 0. -1.
         -4    1    3    3    0  502  0.18005580672E+03  0.56171349187E+03  0.56991625672E+02  0.59261301528E+03  0.00000000000E+00 0. -1.
        -13    1    1    2    0    0 -0.15286666659E+03 -0.35547101995E+03 -0.89540773499E+02  0.39717178281E+03  0.10566000000E+00 0.  1.
<mgrwt>
<rscale>  1 0.81263986E+03</rscale>
<asrwt>0</asrwt>
<pdfrwt beam="2">  1       21 0.81305137E-01 0.10406715E+04</pdfrwt>
<pdfrwt beam="1">  1       -4 0.16975222E+00 0.10406715E+04</pdfrwt>
<totfact> 0.10624967E+01</totfact>
</mgrwt>
</event>
<event>
 6    2  0.2321478E-005  0.1020530E+04  0.7818608E-02  0.9770299E-01
         21   -1    0    0  501  502  0.00000000000E+00  0.00000000000E+00  0.22795058942E+04  0.22795058942E+04  0.00000000000E+00 0. -1.
         -4   -1    0    0    0  501 -0.00000000000E+00 -0.00000000000E+00 -0.16268791899E+03  0.16268791899E+03  0.00000000000E+00 0. -1.
   -9000010    2    1    2    0  502  0.18425083493E+03  0.43773464907E+02  0.18782920918E+04  0.21376300356E+04  0.10028043182E+04 0.  0.
         13    1    3    3    0    0  0.15028702740E+03  0.33304703720E+03  0.17990535150E+04  0.18357832336E+04  0.10566000000E+00 0. -1.
         -4    1    3    3    0  502  0.33963807533E+02 -0.28927357229E+03  0.79238576798E+02  0.30184680204E+03  0.00000000000E+00 0. -1.
        -13    1    1    2    0    0 -0.18425083493E+03 -0.43773464907E+02  0.23852588336E+03  0.30456377756E+03  0.10566000000E+00 0.  1.
<mgrwt>
<rscale>  1 0.66981111E+03</rscale>
<asrwt>0</asrwt>
<pdfrwt beam="1">  1       21 0.35069319E+00 0.10205298E+04</pdfrwt>
<pdfrwt beam="2">  1       -4 0.25028912E-01 0.10205298E+04</pdfrwt>
<totfact> 0.78255034E+00</totfact>
</mgrwt>
</event>
<event>
 6    2  0.2321478E-005  0.1016517E+04  0.7818608E-02  0.9822982E-01
         21   -1    0    0  501  502  0.00000000000E+00  0.00000000000E+00  0.44014403833E+03  0.44014403833E+03  0.00000000000E+00 0. -1.
         -4   -1    0    0    0  501 -0.00000000000E+00 -0.00000000000E+00 -0.84712672809E+03  0.84712672809E+03  0.00000000000E+00 0. -1.
   -9000010    2    1    2    0  502 -0.13063977207E+03  0.94378846762E+02 -0.21933061371E+03  0.10399098367E+04  0.10036595207E+04 0.  0.
         13    1    3    3    0    0  0.14174905000E+03  0.40860009873E+03  0.17525473223E+03  0.46664876105E+03  0.10566000000E+00 0. -1.
         -4    1    3    3    0  502 -0.27238882208E+03 -0.31422125197E+03 -0.39458534594E+03  0.57326107561E+03  0.00000000000E+00 0. -1.
        -13    1    1    2    0    0  0.13063977207E+03 -0.94378846762E+02 -0.18765207605E+03  0.24736092976E+03  0.10566000000E+00 0.  1.
<mgrwt>
<rscale>  1 0.64143635E+03</rscale>
<asrwt>0</asrwt>
<pdfrwt beam="1">  1       21 0.67714468E-01 0.10165169E+04</pdfrwt>
<pdfrwt beam="2">  1       -4 0.13032719E+00 0.10165169E+04</pdfrwt>
<totfact> 0.33101828E+01</totfact>
</mgrwt>
</event>
<event>
 6    2  0.2321478E-005  0.1307590E+04  0.7818608E-02  0.9144919E-01
         -4   -1    0    0    0  501 -0.00000000000E+00  0.00000000000E+00  0.15026236529E+04  0.15026236529E+04  0.00000000000E+00 0. -1.
         21   -1    0    0  501  502  0.00000000000E+00 -0.00000000000E+00 -0.85248743660E+03  0.85248743660E+03  0.00000000000E+00 0.  1.
   -9000010    2    1    2    0  502  0.69661840629E+03 -0.43492724012E+03  0.78164810565E+03  0.15234054345E+04  0.10175222105E+04 0.  0.
         13    1    3    3    0    0  0.67828689580E+03 -0.23895985592E+03  0.18495963592E+01  0.71915113705E+03  0.10566000000E+00 0. -1.
         -4    1    3    3    0  502  0.18331510492E+02 -0.19596738420E+03  0.77979850929E+03  0.80425429750E+03  0.00000000000E+00 0. -1.
        -13    1    1    2    0    0 -0.69661840629E+03  0.43492724012E+03 -0.13151188939E+03  0.83170565490E+03  0.10566000000E+00 0.  1.
<mgrwt>
<rscale>  1 0.11640495E+04</rscale>
<asrwt>0</asrwt>
<pdfrwt beam="2">  1       21 0.13115191E+00 0.13075895E+04</pdfrwt>
<pdfrwt beam="1">  1       -4 0.23117287E+00 0.13075895E+04</pdfrwt>
<totfact> 0.12043195E+00</totfact>
</mgrwt>
</event>
<event>
 6    2  0.2321478E-005  0.1006301E+04  0.7818608E-02  0.9895892E-01
         -4   -1    0    0    0  501 -0.00000000000E+00  0.00000000000E+00  0.15829427718E+04  0.15829427718E+04  0.00000000000E+00 0. -1.
         21   -1    0    0  501  502  0.00000000000E+00 -0.00000000000E+00 -0.20531415085E+03  0.20531415085E+03  0.00000000000E+00 0.  1.
   -9000010    2    1    2    0  502  0.73908651670E+02 -0.10832034163E+03  0.11765339602E+04  0.15481843109E+04  0.99772076032E+03 0.  0.
         13    1    3    3    0    0  0.50490611368E+03 -0.18039929098E+03  0.84043575263E+03  0.99689836658E+03  0.10566000000E+00 0. -1.
         -4    1    3    3    0  502 -0.43099746201E+03  0.72078949350E+02  0.33609820762E+03  0.55128594429E+03  0.00000000000E+00 0. -1.
        -13    1    1    2    0    0 -0.73908651670E+02  0.10832034163E+03  0.20109466066E+03  0.24007261175E+03  0.10566000000E+00 0.  1.
<mgrwt>
<rscale>  1 0.60460794E+03</rscale>
<asrwt>0</asrwt>
<pdfrwt beam="2">  1       21 0.31586793E-01 0.10063014E+04</pdfrwt>
<pdfrwt beam="1">  1       -4 0.24352965E+00 0.10063014E+04</pdfrwt>
<totfact> 0.27263835E+01</totfact>
</mgrwt>
</event>
<event>
 6    2  0.2321478E-005  0.1054312E+04  0.7818608E-02  0.9672828E-01
         -4   -1    0    0    0  501 -0.00000000000E+00  0.00000000000E+00  0.12400676926E+04  0.12400676926E+04  0.00000000000E+00 0. -1.
         21   -1    0    0  501  502  0.00000000000E+00 -0.00000000000E+00 -0.87642854061E+03  0.87642854061E+03  0.00000000000E+00 0. -1.
   -9000010    2    1    2    0  502 -0.23304671640E+03  0.47339067846E+02 -0.53826560139E+03  0.11837669291E+04  0.10271428944E+04 0.  0.
         13    1    3    3    0    0 -0.24434937774E+03 -0.47256183827E+03 -0.31117822430E+03  0.61632232462E+03  0.10566000000E+00 0. -1.
         -4    1    3    3    0  502  0.11302661342E+02  0.51990090612E+03 -0.22708737709E+03  0.56744460449E+03  0.00000000000E+00 0. -1.
        -13    1    1    2    0    0  0.23304671640E+03 -0.47339067846E+02  0.90190475336E+03  0.93272930407E+03  0.10566000000E+00 0.  1.
<mgrwt>
<rscale>  1 0.72657878E+03</rscale>
<asrwt>0</asrwt>
<pdfrwt beam="2">  1       21 0.13483516E+00 0.10543122E+04</pdfrwt>
<pdfrwt beam="1">  1       -4 0.19077965E+00 0.10543122E+04</pdfrwt>
<totfact> 0.21215600E+00</totfact>
</mgrwt>
</event>
<event>
 6    2  0.2321478E-005  0.1261292E+04  0.7818608E-02  0.9195711E-01
         -4   -1    0    0    0  501 -0.00000000000E+00  0.00000000000E+00  0.27722499184E+04  0.27722499184E+04  0.00000000000E+00 0. -1.
         21   -1    0    0  501  502  0.00000000000E+00 -0.00000000000E+00 -0.37812732133E+03  0.37812732133E+03  0.00000000000E+00 0. -1.
   -9000010    2    1    2    0  502 -0.55295570457E+03 -0.51548310756E+03  0.12258661378E+04  0.17588651086E+04  0.10096414398E+04 0.  0.
         13    1    3    3    0    0 -0.79847926552E+03 -0.58198771155E+03  0.10873671357E+04  0.14692331785E+04  0.10566000000E+00 0. -1.
         -4    1    3    3    0  502  0.24552356095E+03  0.66504603990E+02  0.13849900215E+03  0.28963193010E+03  0.00000000000E+00 0. -1.
        -13    1    1    2    0    0  0.55295570457E+03  0.51548310756E+03  0.11682564593E+04  0.13915121312E+04  0.10566000000E+00 0.  1.
<mgrwt>
<rscale>  1 0.11097809E+04</rscale>
<asrwt>0</asrwt>
<pdfrwt beam="2">  1       21 0.58173436E-01 0.12612925E+04</pdfrwt>
<pdfrwt beam="1">  1       -4 0.42649997E+00 0.12612925E+04</pdfrwt>
<totfact> 0.46723946E-01</totfact>
</mgrwt>
</event>
<event>
 6    2  0.2321478E-005  0.1113312E+04  0.7818608E-02  0.9423043E-01
         21   -1    0    0  501  502  0.00000000000E+00  0.00000000000E+00  0.29072458585E+03  0.29072458585E+03  0.00000000000E+00 0. -1.
         -4   -1    0    0    0  501 -0.00000000000E+00 -0.00000000000E+00 -0.30013199419E+04  0.30013199419E+04  0.00000000000E+00 0. -1.
   -9000010    2    1    2    0  502 -0.44616018905E+03  0.17642967908E+03 -0.93836461426E+03  0.14560194301E+04  0.10046283320E+04 0.  0.
         13    1    3    3    0    0 -0.11746017581E+03  0.44242333310E+03 -0.92603822457E+03  0.10329966617E+04  0.10566000000E+00 0. -1.
         -4    1    3    3    0  502 -0.32870001324E+03 -0.26599365401E+03 -0.12326389683E+02  0.42302276837E+03  0.00000000000E+00 0. -1.
        -13    1    1    2    0    0  0.44616018905E+03 -0.17642967908E+03 -0.17722307418E+04  0.18360250977E+04  0.10566000000E+00 0.  1.
<mgrwt>
<rscale>  1 0.90203362E+03</rscale>
<asrwt>0</asrwt>
<pdfrwt beam="1">  1       21 0.44726862E-01 0.11133124E+04</pdfrwt>
<pdfrwt beam="2">  1       -4 0.46174150E+00 0.11133124E+04</pdfrwt>
<totfact> 0.46486318E-01</totfact>
</mgrwt>
</event>
<event>
 6    2  0.2321478E-005  0.1019993E+04  0.7818608E-02  0.9744039E-01
         21   -1    0    0  501  502  0.00000000000E+00  0.00000000000E+00  0.64374862591E+03  0.64374862591E+03  0.00000000000E+00 0. -1.
         -4   -1    0    0    0  501 -0.00000000000E+00 -0.00000000000E+00 -0.64031103333E+03  0.64031103333E+03  0.00000000000E+00 0. -1.
   -9000010    2    1    2    0  502  0.11730891168E+03  0.17045698558E+03  0.14934448948E+03  0.10308684303E+04  0.99878375002E+03 0.  0.
         13    1    3    3    0    0  0.27653802992E+03  0.51890126210E+03  0.24342024404E+03  0.63638449712E+03  0.10566000000E+00 0. -1.
         -4    1    3    3    0  502 -0.15922911823E+03 -0.34844427651E+03 -0.94075754560E+02  0.39448393316E+03  0.00000000000E+00 0. -1.
        -13    1    1    2    0    0 -0.11730891168E+03 -0.17045698558E+03 -0.14590689690E+03  0.25319122896E+03  0.10566000000E+00 0.  1.
<mgrwt>
<rscale>  1 0.68454173E+03</rscale>
<asrwt>0</asrwt>
<pdfrwt beam="1">  1       21 0.99038251E-01 0.10199931E+04</pdfrwt>
<pdfrwt beam="2">  1       -4 0.98509389E-01 0.10199931E+04</pdfrwt>
<totfact> 0.26952412E+01</totfact>
</mgrwt>
</event>
<event>
 6    2  0.2321478E-005  0.1188596E+04  0.7818608E-02  0.9424655E-01
         -4   -1    0    0    0  501 -0.00000000000E+00  0.00000000000E+00  0.18652750455E+04  0.18652750455E+04  0.00000000000E+00 0. -1.
         21   -1    0    0  501  502  0.00000000000E+00 -0.00000000000E+00 -0.76481762283E+03  0.76481762283E+03  0.00000000000E+00 0. -1.
   -9000010    2    1    2    0  502  0.26170661095E+03  0.29186001600E+03 -0.25794012430E+03  0.12162622238E+04  0.11220909367E+04 0.  0.
         13    1    3    3    0    0 -0.19235516822E+03 -0.25222794997E+03 -0.38230810676E+03  0.49676850659E+03  0.10566000000E+00 0. -1.
         -4    1    3    3    0  502  0.45406177917E+03  0.54408796597E+03  0.12436798246E+03  0.71949371719E+03  0.00000000000E+00 0. -1.
        -13    1    1    2    0    0 -0.26170661095E+03 -0.29186001600E+03  0.13583975470E+04  0.14138304446E+04  0.10566000000E+00 0.  1.
<mgrwt>
<rscale>  1 0.90074175E+03</rscale>
<asrwt>0</asrwt>
<pdfrwt beam="2">  1       21 0.11766425E+00 0.11885961E+04</pdfrwt>
<pdfrwt beam="1">  1       -4 0.28696539E+00 0.11885961E+04</pdfrwt>
<totfact> 0.73298242E-01</totfact>
</mgrwt>
</event>
<event>
 6    2  0.2321478E-005  0.1061617E+04  0.7818608E-02  0.9526151E-01
         21   -1    0    0  501  502  0.00000000000E+00  0.00000000000E+00  0.13221894995E+04  0.13221894995E+04  0.00000000000E+00 0.  1.
         -4   -1    0    0    0  501 -0.00000000000E+00 -0.00000000000E+00 -0.39713599351E+03  0.39713599351E+03  0.00000000000E+00 0. -1.
   -9000010    2    1    2    0  502 -0.24905380768E+03  0.29357641487E+03  0.63206839570E+03  0.12355329791E+04  0.98935149221E+03 0.  0.
         13    1    3    3    0    0 -0.24703449382E+03 -0.29284832250E+03  0.50773896784E+03  0.63607000539E+03  0.10566000000E+00 0. -1.
         -4    1    3    3    0  502 -0.20193138583E+01  0.58642473737E+03  0.12432942786E+03  0.59946297372E+03  0.00000000000E+00 0. -1.
        -13    1    1    2    0    0  0.24905380768E+03 -0.29357641487E+03  0.29298511028E+03  0.48379251390E+03  0.10566000000E+00 0.  1.
<mgrwt>
<rscale>  1 0.82382987E+03</rscale>
<asrwt>0</asrwt>
<pdfrwt beam="1">  1       21 0.20341377E+00 0.10616173E+04</pdfrwt>
<pdfrwt beam="2">  1       -4 0.61097846E-01 0.10616173E+04</pdfrwt>
<totfact> 0.10896698E+01</totfact>
</mgrwt>
</event>
<event>
 6    2  0.2321478E-005  0.1037195E+04  0.7818608E-02  0.9649710E-01
         -4   -1    0    0    0  501 -0.00000000000E+00  0.00000000000E+00  0.72739574007E+03  0.72739574007E+03  0.00000000000E+00 0. -1.
         21   -1    0    0  501  502  0.00000000000E+00 -0.00000000000E+00 -0.70092125016E+03  0.70092125016E+03  0.00000000000E+00 0. -1.
   -9000010    2    1    2    0  502 -0.23774881780E+03  0.12814029764E+03 -0.22271753082E+03  0.10608375886E+04  0.10014134284E+04 0.  0.
         13    1    3    3    0    0 -0.47108862481E+03  0.44005468744E+03 -0.99529698967E+02  0.65228735424E+03  0.10566000000E+00 0. -1.
         -4    1    3    3    0  502  0.23333980701E+03 -0.31191438980E+03 -0.12318783185E+03  0.40855023439E+03  0.00000000000E+00 0. -1.
        -13    1    1    2    0    0  0.23774881780E+03 -0.12814029764E+03  0.24919202073E+03  0.36747940160E+03  0.10566000000E+00 0.  1.
<mgrwt>
<rscale>  1 0.74091658E+03</rscale>
<asrwt>0</asrwt>
<pdfrwt beam="2">  1       21 0.10783404E+00 0.10371949E+04</pdfrwt>
<pdfrwt beam="1">  1       -4 0.11190704E+00 0.10371949E+04</pdfrwt>
<totfact> 0.15928471E+01</totfact>
</mgrwt>
</event>
<event>
 6    2  0.2321478E-005  0.1029233E+04  0.7818608E-02  0.9731575E-01
         21   -1    0    0  501  502  0.00000000000E+00  0.00000000000E+00  0.10472086446E+04  0.10472086446E+04  0.00000000000E+00 0. -1.
         -4   -1    0    0    0  501 -0.00000000000E+00 -0.00000000000E+00 -0.57967583560E+03  0.57967583560E+03  0.00000000000E+00 0. -1.
   -9000010    2    1    2    0  502 -0.46128621434E+02 -0.20479605837E+03  0.75103694619E+03  0.12741184355E+04  0.10075971506E+04 0.  0.
         13    1    3    3    0    0 -0.27633117517E+03 -0.49903803569E+03  0.69050520722E+03  0.89565357801E+03  0.10566000000E+00 0. -1.
         -4    1    3    3    0  502  0.23020255374E+03  0.29424197732E+03  0.60531738974E+02  0.37846485753E+03  0.00000000000E+00 0. -1.
        -13    1    1    2    0    0  0.46128621434E+02  0.20479605837E+03 -0.28350413724E+03  0.35276604462E+03  0.10566000000E+00 0.  1.
<mgrwt>
<rscale>  1 0.69167550E+03</rscale>
<asrwt>0</asrwt>
<pdfrwt beam="1">  1       21 0.16110902E+00 0.10292334E+04</pdfrwt>
<pdfrwt beam="2">  1       -4 0.89180898E-01 0.10292334E+04</pdfrwt>
<totfact> 0.94024352E+00</totfact>
</mgrwt>
</event>
<event>
 6    2  0.2321478E-005  0.1092751E+04  0.7818608E-02  0.9398623E-01
         21   -1    0    0  501  502  0.00000000000E+00  0.00000000000E+00  0.30402323484E+03  0.30402323484E+03  0.00000000000E+00 0.  1.
         -4   -1    0    0    0  501 -0.00000000000E+00 -0.00000000000E+00 -0.28705341855E+04  0.28705341855E+04  0.00000000000E+00 0. -1.
   -9000010    2    1    2    0  502  0.39679769405E+03  0.38596029236E+03 -0.23282028859E+04  0.25718929182E+04  0.94217341680E+03 0.  0.
         13    1    3    3    0    0  0.21847078500E+02  0.48960507355E+03 -0.49019014236E+03  0.69316434539E+03  0.10566000000E+00 0. -1.
         -4    1    3    3    0  502  0.37495061555E+03 -0.10364478119E+03 -0.18380127436E+04  0.18787285728E+04  0.00000000000E+00 0. -1.
        -13    1    1    2    0    0 -0.39679769405E+03 -0.38596029236E+03 -0.23830806476E+03  0.60266450217E+03  0.10566000000E+00 0.  1.
<mgrwt>
<rscale>  1 0.92189077E+03</rscale>
<asrwt>0</asrwt>
<pdfrwt beam="1">  1       21 0.46772806E-01 0.10927509E+04</pdfrwt>
<pdfrwt beam="2">  1       -4 0.44162064E+00 0.10927509E+04</pdfrwt>
<totfact> 0.59978610E-01</totfact>
</mgrwt>
</event>
<event>
 6    2  0.2321478E-005  0.1031995E+04  0.7818608E-02  0.9665122E-01
         -4   -1    0    0    0  501 -0.00000000000E+00  0.00000000000E+00  0.33426902726E+03  0.33426902726E+03  0.00000000000E+00 0. -1.
         21   -1    0    0  501  502  0.00000000000E+00 -0.00000000000E+00 -0.13600968565E+04  0.13600968565E+04  0.00000000000E+00 0. -1.
   -9000010    2    1    2    0  502  0.15395129520E+03  0.20983360352E+03 -0.59556523091E+03  0.11915169431E+04  0.99864084581E+03 0.  0.
         13    1    3    3    0    0 -0.24881351012E+03 -0.99742774426E+02  0.13622497953E+03  0.30068927497E+03  0.10566000000E+00 0. -1.
         -4    1    3    3    0  502  0.40276480532E+03  0.30957637794E+03 -0.73179021044E+03  0.89082766811E+03  0.00000000000E+00 0. -1.
        -13    1    1    2    0    0 -0.15395129520E+03 -0.20983360352E+03 -0.43026259837E+03  0.50284894071E+03  0.10566000000E+00 0.  1.
<mgrwt>
<rscale>  1 0.73131918E+03</rscale>
<asrwt>0</asrwt>
<pdfrwt beam="2">  1       21 0.20924567E+00 0.10319955E+04</pdfrwt>
<pdfrwt beam="1">  1       -4 0.51426004E-01 0.10319955E+04</pdfrwt>
<totfact> 0.14472216E+01</totfact>
</mgrwt>
</event>
<event>
 6    2  0.2321478E-005  0.1045945E+04  0.7818608E-02  0.9626879E-01
         -4   -1    0    0    0  501 -0.00000000000E+00  0.00000000000E+00  0.11896504527E+04  0.11896504527E+04  0.00000000000E+00 0. -1.
         21   -1    0    0  501  502  0.00000000000E+00 -0.00000000000E+00 -0.61520809673E+03  0.61520809673E+03  0.00000000000E+00 0. -1.
   -9000010    2    1    2    0  502  0.22687865851E+03 -0.17182516924E+03 -0.12149382882E+03  0.10529775755E+04  0.10064806057E+04 0.  0.
         13    1    3    3    0    0  0.62186337455E+03 -0.13556147727E+03  0.55205445553E+01  0.63649152257E+03  0.10566000000E+00 0. -1.
         -4    1    3    3    0  502 -0.39498471603E+03 -0.36263691964E+02 -0.12701437337E+03  0.41648605295E+03  0.00000000000E+00 0. -1.
        -13    1    1    2    0    0 -0.22687865851E+03  0.17182516924E+03  0.69593618483E+03  0.75188097395E+03  0.10566000000E+00 0.  1.
<mgrwt>
<rscale>  1 0.75542407E+03</rscale>
<asrwt>0</asrwt>
<pdfrwt beam="2">  1       21 0.94647400E-01 0.10459450E+04</pdfrwt>
<pdfrwt beam="1">  1       -4 0.18302315E+00 0.10459450E+04</pdfrwt>
<totfact> 0.59393872E+00</totfact>
</mgrwt>
</event>
<event>
 6    2  0.2321478E-005  0.1022992E+04  0.7818608E-02  0.9544544E-01
         -4   -1    0    0    0  501 -0.00000000000E+00  0.00000000000E+00  0.53906479260E+03  0.53906479260E+03  0.00000000000E+00 0. -1.
         21   -1    0    0  501  502  0.00000000000E+00 -0.00000000000E+00 -0.10384067893E+04  0.10384067893E+04  0.00000000000E+00 0. -1.
   -9000010    2    1    2    0  502  0.39583216595E+03  0.79006129001E+02 -0.56481152670E+03  0.11685567465E+04  0.93999347720E+03 0.  0.
         13    1    3    3    0    0 -0.30020336158E+03 -0.45214575227E+02 -0.89135108719E+02  0.31640400580E+03  0.10566000000E+00 0. -1.
         -4    1    3    3    0  502  0.69603552753E+03  0.12422070423E+03 -0.47567641798E+03  0.85215274075E+03  0.00000000000E+00 0. -1.
        -13    1    1    2    0    0 -0.39583216595E+03 -0.79006129001E+02  0.65469530034E+02  0.40891483532E+03  0.10566000000E+00 0.  1.
<mgrwt>
<rscale>  1 0.81077939E+03</rscale>
<asrwt>0</asrwt>
<pdfrwt beam="2">  1       21 0.15975489E+00 0.10229921E+04</pdfrwt>
<pdfrwt beam="1">  1       -4 0.82933046E-01 0.10229921E+04</pdfrwt>
<totfact> 0.11418925E+01</totfact>
</mgrwt>
</event>
<event>
 6    2  0.2321478E-005  0.1000553E+04  0.7818608E-02  0.9897304E-01
         -4   -1    0    0    0  501 -0.00000000000E+00  0.00000000000E+00  0.14125531624E+04  0.14125531624E+04  0.00000000000E+00 0. -1.
         21   -1    0    0  501  502  0.00000000000E+00 -0.00000000000E+00 -0.32348136994E+03  0.32348136994E+03  0.00000000000E+00 0. -1.
   -9000010    2    1    2    0  502  0.10505437844E+03  0.81238419658E+02  0.47465697296E+03  0.11074315695E+04  0.99170022485E+03 0.  0.
         13    1    3    3    0    0 -0.20156088204E+03 -0.16604007029E+03  0.63156629698E+03  0.68342672816E+03  0.10566000000E+00 0. -1.
         -4    1    3    3    0  502  0.30661526047E+03  0.24727848995E+03 -0.15690932403E+03  0.42400484138E+03  0.00000000000E+00 0. -1.
        -13    1    1    2    0    0 -0.10505437844E+03 -0.81238419658E+02  0.61441481947E+03  0.62860296278E+03  0.10566000000E+00 0.  1.
<mgrwt>
<rscale>  1 0.60392123E+03</rscale>
<asrwt>0</asrwt>
<pdfrwt beam="2">  1       21 0.49766366E-01 0.10005526E+04</pdfrwt>
<pdfrwt beam="1">  1       -4 0.21731587E+00 0.10005526E+04</pdfrwt>
<totfact> 0.15411482E+01</totfact>
</mgrwt>
</event>
<event>
 6    2  0.2321478E-005  0.1017499E+04  0.7818608E-02  0.9733146E-01
         21   -1    0    0  501  502  0.00000000000E+00  0.00000000000E+00  0.21674080839E+04  0.21674080839E+04  0.00000000000E+00 0. -1.
         -4   -1    0    0    0  501 -0.00000000000E+00 -0.00000000000E+00 -0.17982443485E+03  0.17982443485E+03  0.00000000000E+00 0. -1.
   -9000010    2    1    2    0  502  0.99698150354E+02 -0.19177275161E+03  0.17628918298E+04  0.20354586676E+04  0.99427756416E+03 0.  0.
         13    1    3    3    0    0  0.29130750138E+03 -0.54888955540E+02  0.17750807935E+04  0.17996623829E+04  0.10566000000E+00 0. -1.
         -4    1    3    3    0  502 -0.19160935103E+03 -0.13688379607E+03 -0.12188963758E+02  0.23579628467E+03  0.00000000000E+00 0. -1.
        -13    1    1    2    0    0 -0.99698150354E+02  0.19177275161E+03  0.22469181924E+03  0.31177385112E+03  0.10566000000E+00 0.  1.
<mgrwt>
<rscale>  1 0.69077137E+03</rscale>
<asrwt>0</asrwt>
<pdfrwt beam="1">  1       21 0.33344738E+00 0.10174991E+04</pdfrwt>
<pdfrwt beam="2">  1       -4 0.27665299E-01 0.10174991E+04</pdfrwt>
<totfact> 0.82905082E+00</totfact>
</mgrwt>
</event>
<event>
 6    2  0.2321478E-005  0.1031268E+04  0.7818608E-02  0.9633797E-01
         21   -1    0    0  501  502  0.00000000000E+00  0.00000000000E+00  0.12167859827E+04  0.12167859827E+04  0.00000000000E+00 0. -1.
         -4   -1    0    0    0  501 -0.00000000000E+00 -0.00000000000E+00 -0.36747145619E+03  0.36747145619E+03  0.00000000000E+00 0. -1.
   -9000010    2    1    2    0  502 -0.59732858781E+02  0.28379933676E+03  0.75912419365E+03  0.12805398311E+04  0.98964773514E+03 0.  0.
         13    1    3    3    0    0 -0.38851714580E+02  0.64519473013E+03  0.61089313016E+03  0.88936838439E+03  0.10566000000E+00 0. -1.
         -4    1    3    3    0  502 -0.20881144201E+02 -0.36139539337E+03  0.14823106349E+03  0.39117144670E+03  0.00000000000E+00 0. -1.
        -13    1    1    2    0    0  0.59732858781E+02 -0.28379933676E+03  0.90190332820E+02  0.30371760776E+03  0.10566000000E+00 0.  1.
<mgrwt>
<rscale>  1 0.75099063E+03</rscale>
<asrwt>0</asrwt>
<pdfrwt beam="1">  1       21 0.18719784E+00 0.10312675E+04</pdfrwt>
<pdfrwt beam="2">  1       -4 0.56534071E-01 0.10312675E+04</pdfrwt>
<totfact> 0.16793977E+01</totfact>
</mgrwt>
</event>
<event>
 6    2  0.2321478E-005  0.1015751E+04  0.7818608E-02  0.9738948E-01
         21   -1    0    0  501  502  0.00000000000E+00  0.00000000000E+00  0.87108998968E+03  0.87108998968E+03  0.00000000000E+00 0. -1.
         -4   -1    0    0    0  501 -0.00000000000E+00 -0.00000000000E+00 -0.46892060725E+03  0.46892060725E+03  0.00000000000E+00 0. -1.
   -9000010    2    1    2    0  502 -0.18014407567E+03  0.11384524118E+03  0.46601307208E+03  0.11175501402E+04  0.99314525903E+03 0.  0.
         13    1    3    3    0    0 -0.45608840586E+03  0.25441255565E+03  0.58644103523E+03  0.78527414411E+03  0.10566000000E+00 0. -1.
         -4    1    3    3    0  502  0.27594433019E+03 -0.14056731447E+03 -0.12042796315E+03  0.33227599608E+03  0.00000000000E+00 0. -1.
        -13    1    1    2    0    0  0.18014407567E+03 -0.11384524118E+03 -0.63843689656E+02  0.22246045674E+03  0.10566000000E+00 0.  1.
<mgrwt>
<rscale>  1 0.68744434E+03</rscale>
<asrwt>0</asrwt>
<pdfrwt beam="1">  1       21 0.13401384E+00 0.10157510E+04</pdfrwt>
<pdfrwt beam="2">  1       -4 0.72141632E-01 0.10157510E+04</pdfrwt>
<totfact> 0.25548787E+01</totfact>
</mgrwt>
</event>
<event>
 6    2  0.2321478E-005  0.1035976E+04  0.7818608E-02  0.9620059E-01
         -4   -1    0    0    0  501 -0.00000000000E+00  0.00000000000E+00  0.71244174992E+03  0.71244174992E+03  0.00000000000E+00 0. -1.
         21   -1    0    0  501  502  0.00000000000E+00 -0.00000000000E+00 -0.11806199850E+04  0.11806199850E+04  0.00000000000E+00 0. -1.
   -9000010    2    1    2    0  502  0.11749852498E+02  0.29955334315E+03 -0.89665652117E+03  0.13701239593E+04  0.99165340846E+03 0.  0.
         13    1    3    3    0    0  0.37801509353E+03 -0.18772149217E+03 -0.42910039873E+03  0.60188199252E+03  0.10566000000E+00 0. -1.
         -4    1    3    3    0  502 -0.36626524103E+03  0.48727483532E+03 -0.46755612244E+03  0.76824196680E+03  0.00000000000E+00 0. -1.
        -13    1    1    2    0    0 -0.11749852498E+02 -0.29955334315E+03  0.42847828604E+03  0.52293777565E+03  0.10566000000E+00 0.  1.
<mgrwt>
<rscale>  1 0.75982635E+03</rscale>
<asrwt>0</asrwt>
<pdfrwt beam="2">  1       21 0.18163384E+00 0.10359762E+04</pdfrwt>
<pdfrwt beam="1">  1       -4 0.10960642E+00 0.10359762E+04</pdfrwt>
<totfact> 0.40185096E+00</totfact>
</mgrwt>
</event>
<event>
 6    2  0.2321478E-005  0.1127179E+04  0.7818608E-02  0.9395742E-01
         21   -1    0    0  501  502  0.00000000000E+00  0.00000000000E+00  0.10662703838E+04  0.10662703838E+04  0.00000000000E+00 0. -1.
         -4   -1    0    0    0  501 -0.00000000000E+00 -0.00000000000E+00 -0.74543221799E+03  0.74543221799E+03  0.00000000000E+00 0. -1.
   -9000010    2    1    2    0  502 -0.42714727963E+03  0.27788482243E+03 -0.12568538925E+03  0.11341643597E+04  0.10054139470E+04 0.  0.
         13    1    3    3    0    0  0.72143623263E+02  0.54683131036E+03 -0.13144729712E+03  0.56701639081E+03  0.10566000000E+00 0. -1.
         -4    1    3    3    0  502 -0.49929090289E+03 -0.26894648793E+03  0.57619078700E+01  0.56714796893E+03  0.00000000000E+00 0. -1.
        -13    1    1    2    0    0  0.42714727963E+03 -0.27788482243E+03  0.44652355501E+03  0.67753824200E+03  0.10566000000E+00 0.  1.
<mgrwt>
<rscale>  1 0.92426898E+03</rscale>
<asrwt>0</asrwt>
<pdfrwt beam="1">  1       21 0.16404160E+00 0.11271788E+04</pdfrwt>
<pdfrwt beam="2">  1       -4 0.11468188E+00 0.11271788E+04</pdfrwt>
<totfact> 0.47996328E+00</totfact>
</mgrwt>
</event>
<event>
 6    2  0.2321478E-005  0.1246312E+04  0.7818608E-02  0.9209430E-01
         -4   -1    0    0    0  501 -0.00000000000E+00  0.00000000000E+00  0.68872945320E+03  0.68872945320E+03  0.00000000000E+00 0. -1.
         21   -1    0    0  501  502  0.00000000000E+00 -0.00000000000E+00 -0.14877339081E+04  0.14877339081E+04  0.00000000000E+00 0.  1.
   -9000010    2    1    2    0  502 -0.57214078635E+03 -0.47627624117E+03 -0.68858597307E+03  0.14238835386E+04  0.99955467677E+03 0.  0.
         13    1    3    3    0    0 -0.69155005022E+03  0.62086645829E+02 -0.40445117333E+03  0.80354028295E+03  0.10566000000E+00 0. -1.
         -4    1    3    3    0  502  0.11940926387E+03 -0.53836288700E+03 -0.28413479974E+03  0.62034325564E+03  0.00000000000E+00 0. -1.
        -13    1    1    2    0    0  0.57214078635E+03  0.47627624117E+03 -0.11041848187E+03  0.75257982275E+03  0.10566000000E+00 0.  1.
<mgrwt>
<rscale>  1 0.10956626E+04</rscale>
<asrwt>0</asrwt>
<pdfrwt beam="2">  1       21 0.22888214E+00 0.12463120E+04</pdfrwt>
<pdfrwt beam="1">  1       -4 0.10595838E+00 0.12463120E+04</pdfrwt>
<totfact> 0.20134757E+00</totfact>
</mgrwt>
</event>
<event>
 6    2  0.2321478E-005  0.1037646E+04  0.7818608E-02  0.9763036E-01
         -4   -1    0    0    0  501 -0.00000000000E+00  0.00000000000E+00  0.56751459684E+03  0.56751459684E+03  0.00000000000E+00 0. -1.
         21   -1    0    0  501  502  0.00000000000E+00 -0.00000000000E+00 -0.66360460497E+03  0.66360460497E+03  0.00000000000E+00 0. -1.
   -9000010    2    1    2    0  502 -0.42884425757E+02  0.17948915301E+03 -0.40698011832E+02  0.10384440492E+04  0.10211044438E+04 0.  0.
         13    1    3    3    0    0 -0.14059850657E+03  0.28362711601E+03  0.43713898879E+03  0.53972473324E+03  0.10566000000E+00 0. -1.
         -4    1    3    3    0  502  0.97714080812E+02 -0.10413796301E+03 -0.47783700063E+03  0.49871931594E+03  0.00000000000E+00 0. -1.
        -13    1    1    2    0    0  0.42884425757E+02 -0.17948915301E+03 -0.55391996297E+02  0.19267515262E+03  0.10566000000E+00 0.  1.
<mgrwt>
<rscale>  1 0.67384554E+03</rscale>
<asrwt>0</asrwt>
<pdfrwt beam="2">  1       21 0.10209302E+00 0.10376462E+04</pdfrwt>
<pdfrwt beam="1">  1       -4 0.87309937E-01 0.10376462E+04</pdfrwt>
<totfact> 0.33209706E+01</totfact>
</mgrwt>
</event>
<event>
 6    2  0.2321478E-005  0.1033271E+04  0.7818608E-02  0.9657895E-01
         21   -1    0    0  501  502  0.00000000000E+00  0.00000000000E+00  0.14243265526E+04  0.14243265526E+04  0.00000000000E+00 0. -1.
         -4   -1    0    0    0  501 -0.00000000000E+00 -0.00000000000E+00 -0.30436116806E+03  0.30436116806E+03  0.00000000000E+00 0. -1.
   -9000010    2    1    2    0  502  0.26437227606E+03  0.26557598699E+02  0.76670087335E+03  0.12866539749E+04  0.99852401846E+03 0.  0.
         13    1    3    3    0    0  0.31013469789E+03  0.11644353949E+03  0.98874990452E+03  0.10427698757E+04  0.10566000000E+00 0. -1.
         -4    1    3    3    0  502 -0.45762421831E+02 -0.89885940792E+02 -0.22204903117E+03  0.24388409921E+03  0.00000000000E+00 0. -1.
        -13    1    1    2    0    0 -0.26437227606E+03 -0.26557598699E+02  0.35326451120E+03  0.44203374581E+03  0.10566000000E+00 0.  1.
<mgrwt>
<rscale>  1 0.73579983E+03</rscale>
<asrwt>0</asrwt>
<pdfrwt beam="1">  1       21 0.21912716E+00 0.10332706E+04</pdfrwt>
<pdfrwt beam="2">  1       -4 0.46824796E-01 0.10332706E+04</pdfrwt>
<totfact> 0.15138725E+01</totfact>
</mgrwt>
</event>
<event>
 6    2  0.2321478E-005  0.9915479E+03  0.7818608E-02  0.9644722E-01
         21   -1    0    0  501  502  0.00000000000E+00  0.00000000000E+00  0.76801015789E+03  0.76801015789E+03  0.00000000000E+00 0. -1.
         -4   -1    0    0    0  501 -0.00000000000E+00 -0.00000000000E+00 -0.65617188908E+03  0.65617188908E+03  0.00000000000E+00 0. -1.
   -9000010    2    1    2    0  502  0.23803717902E+03 -0.20539057863E+03  0.32600846342E+03  0.10437666532E+04  0.94038307074E+03 0.  0.
         13    1    3    3    0    0  0.54361729625E+03 -0.17401263329E+03  0.43517518576E+03  0.71775874415E+03  0.10566000000E+00 0. -1.
         -4    1    3    3    0  502 -0.30558011723E+03 -0.31377945335E+02 -0.10916672234E+03  0.32600790906E+03  0.00000000000E+00 0. -1.
        -13    1    1    2    0    0 -0.23803717902E+03  0.20539057863E+03 -0.21417019462E+03  0.38041539376E+03  0.10566000000E+00 0.  1.
<mgrwt>
<rscale>  1 0.74405617E+03</rscale>
<asrwt>0</asrwt>
<pdfrwt beam="1">  1       21 0.11815541E+00 0.99154794E+03</pdfrwt>
<pdfrwt beam="2">  1       -4 0.10094952E+00 0.99154794E+03</pdfrwt>
<totfact> 0.16318077E+01</totfact>
</mgrwt>
</event>
<event>
 6    2  0.2321478E-005  0.1007556E+04  0.7818608E-02  0.9751793E-01
         21   -1    0    0  501  502  0.00000000000E+00  0.00000000000E+00  0.66583350423E+03  0.66583350423E+03  0.00000000000E+00 0. -1.
         -4   -1    0    0    0  501 -0.00000000000E+00 -0.00000000000E+00 -0.63146508864E+03  0.63146508864E+03  0.00000000000E+00 0. -1.
   -9000010    2    1    2    0  502  0.19771245052E+03 -0.68443703889E+02  0.20393650205E+03  0.10279881757E+04  0.98559364790E+03 0.  0.
         13    1    3    3    0    0 -0.72073345218E+02 -0.42226064682E+03 -0.15579528537E+03  0.45581882700E+03  0.10566000000E+00 0. -1.
         -4    1    3    3    0  502  0.26978579574E+03  0.35381694293E+03  0.35973178743E+03  0.57216934868E+03  0.00000000000E+00 0. -1.
        -13    1    1    2    0    0 -0.19771245052E+03  0.68443703889E+02 -0.16956808647E+03  0.26931041719E+03  0.10566000000E+00 0.  1.
<mgrwt>
<rscale>  1 0.68015039E+03</rscale>
<asrwt>0</asrwt>
<pdfrwt beam="1">  1       21 0.10243592E+00 0.10075562E+04</pdfrwt>
<pdfrwt beam="2">  1       -4 0.97148475E-01 0.10075562E+04</pdfrwt>
<totfact> 0.25652981E+01</totfact>
</mgrwt>
</event>
<event>
 6    2  0.2321478E-005  0.1005493E+04  0.7818608E-02  0.9913516E-01
         -4   -1    0    0    0  501 -0.00000000000E+00  0.00000000000E+00  0.14617226596E+04  0.14617226596E+04  0.00000000000E+00 0. -1.
         21   -1    0    0  501  502  0.00000000000E+00 -0.00000000000E+00 -0.31057230294E+03  0.31057230294E+03  0.00000000000E+00 0. -1.
   -9000010    2    1    2    0  502 -0.96332124592E+02 -0.78411970300E+02  0.52569252400E+03  0.11346227686E+04  0.99779150224E+03 0.  0.
         13    1    3    3    0    0 -0.38239652292E+03  0.10002686747E+03  0.66194625854E+03  0.77097687080E+03  0.10566000000E+00 0. -1.
         -4    1    3    3    0  502  0.28606439833E+03 -0.17843883777E+03 -0.13625373454E+03  0.36364589781E+03  0.00000000000E+00 0. -1.
        -13    1    1    2    0    0  0.96332124592E+02  0.78411970300E+02  0.62545783264E+03  0.63767219391E+03  0.10566000000E+00 0.  1.
<mgrwt>
<rscale>  1 0.59610689E+03</rscale>
<asrwt>0</asrwt>
<pdfrwt beam="2">  1       21 0.47780355E-01 0.10054930E+04</pdfrwt>
<pdfrwt beam="1">  1       -4 0.22488041E+00 0.10054930E+04</pdfrwt>
<totfact> 0.15049999E+01</totfact>
</mgrwt>
</event>
<event>
 6    2  0.2321478E-005  0.1174352E+04  0.7818608E-02  0.9310257E-01
         21   -1    0    0  501  502  0.00000000000E+00  0.00000000000E+00  0.11614273312E+04  0.11614273312E+04  0.00000000000E+00 0. -1.
         -4   -1    0    0    0  501 -0.00000000000E+00 -0.00000000000E+00 -0.99708885341E+03  0.99708885341E+03  0.00000000000E+00 0. -1.
   -9000010    2    1    2    0  502  0.40202706692E+03  0.46356788779E+03  0.67998334539E+03  0.13570109820E+04  0.10012894217E+04 0.  0.
         13    1    3    3    0    0 -0.31170128905E+03  0.22301905275E+03  0.74058579204E+02  0.39035865022E+03  0.10566000000E+00 0. -1.
         -4    1    3    3    0  502  0.71372835597E+03  0.24054883505E+03  0.60592476619E+03  0.96665233173E+03  0.00000000000E+00 0. -1.
        -13    1    1    2    0    0 -0.40202706692E+03 -0.46356788779E+03 -0.51564486765E+03  0.80150520262E+03  0.10566000000E+00 0.  1.
<mgrwt>
<rscale>  1 0.99844058E+03</rscale>
<asrwt>0</asrwt>
<pdfrwt beam="1">  1       21 0.17868113E+00 0.11743515E+04</pdfrwt>
<pdfrwt beam="2">  1       -4 0.15339829E+00 0.11743515E+04</pdfrwt>
<totfact> 0.17418275E+00</totfact>
</mgrwt>
</event>
<event>
 6    2  0.2321478E-005  0.1226704E+04  0.7818608E-02  0.9232828E-01
         21   -1    0    0  501  502  0.00000000000E+00  0.00000000000E+00  0.71871628671E+03  0.71871628671E+03  0.00000000000E+00 0.  1.
         -4   -1    0    0    0  501 -0.00000000000E+00 -0.00000000000E+00 -0.13156722228E+04  0.13156722228E+04  0.00000000000E+00 0. -1.
   -9000010    2    1    2    0  502 -0.39240635090E+03  0.59848963387E+03 -0.42623859044E+03  0.12986460211E+04  0.99630796741E+03 0.  0.
         13    1    3    3    0    0 -0.96298530457E+02 -0.27916671208E+03 -0.15484861105E+03  0.33344499337E+03  0.10566000000E+00 0. -1.
         -4    1    3    3    0  502 -0.29610782045E+03  0.87765634595E+03 -0.27138997940E+03  0.96520102768E+03  0.00000000000E+00 0. -1.
        -13    1    1    2    0    0  0.39240635090E+03 -0.59848963387E+03 -0.17071734566E+03  0.73574248848E+03  0.10566000000E+00 0.  1.
<mgrwt>
<rscale>  1 0.10720915E+04</rscale>
<asrwt>0</asrwt>
<pdfrwt beam="1">  1       21 0.11057174E+00 0.12267038E+04</pdfrwt>
<pdfrwt beam="2">  1       -4 0.20241111E+00 0.12267038E+04</pdfrwt>
<totfact> 0.29142226E+00</totfact>
</mgrwt>
</event>
<event>
 6    2  0.2321478E-005  0.1479104E+04  0.7818608E-02  0.8976143E-01
         -4   -1    0    0    0  501 -0.00000000000E+00  0.00000000000E+00  0.23640006052E+04  0.23640006052E+04  0.00000000000E+00 0. -1.
         21   -1    0    0  501  502  0.00000000000E+00 -0.00000000000E+00 -0.69975376220E+03  0.69975376220E+03  0.00000000000E+00 0.  1.
   -9000010    2    1    2    0  502 -0.61893040341E+03 -0.89393311147E+03  0.10613968032E+04  0.18205249301E+04  0.10027744489E+04 0.  0.
         13    1    3    3    0    0  0.14117839858E+03 -0.55441007208E+03  0.72278853212E+03  0.92180537077E+03  0.10566000000E+00 0. -1.
         -4    1    3    3    0  502 -0.76010880199E+03 -0.33952303939E+03  0.33860827104E+03  0.89871955935E+03  0.00000000000E+00 0. -1.
        -13    1    1    2    0    0  0.61893040341E+03  0.89393311147E+03  0.60285003984E+03  0.12432294373E+04  0.10566000000E+00 0.  1.
<mgrwt>
<rscale>  1 0.13695724E+04</rscale>
<asrwt>0</asrwt>
<pdfrwt beam="2">  1       21 0.10765443E+00 0.14791037E+04</pdfrwt>
<pdfrwt beam="1">  1       -4 0.36369240E+00 0.14791037E+04</pdfrwt>
<totfact> 0.28628304E-01</totfact>
</mgrwt>
</event>
<event>
 6    2  0.2321478E-005  0.9788538E+03  0.7818608E-02  0.9950898E-01
         21   -1    0    0  501  502  0.00000000000E+00  0.00000000000E+00  0.32601968061E+03  0.32601968061E+03  0.00000000000E+00 0. -1.
         -4   -1    0    0    0  501 -0.00000000000E+00 -0.00000000000E+00 -0.10137650067E+04  0.10137650067E+04  0.00000000000E+00 0. -1.
   -9000010    2    1    2    0  502  0.50693165917E+01  0.11936297943E+03 -0.72105075096E+03  0.12157585557E+04  0.97153562024E+03 0.  0.
         13    1    3    3    0    0 -0.20134112270E+03  0.21047801214E+03  0.14175846735E+03  0.32393628311E+03  0.10566000000E+00 0. -1.
         -4    1    3    3    0  502  0.20641043929E+03 -0.91115032717E+02 -0.86280921831E+03  0.89182227256E+03  0.00000000000E+00 0. -1.
        -13    1    1    2    0    0 -0.50693165917E+01 -0.11936297943E+03  0.33305424905E+02  0.12402613160E+03  0.10566000000E+00 0.  1.
<mgrwt>
<rscale>  1 0.57856705E+03</rscale>
<asrwt>0</asrwt>
<pdfrwt beam="1">  1       21 0.50156874E-01 0.97885376E+03</pdfrwt>
<pdfrwt beam="2">  1       -4 0.15596385E+00 0.97885376E+03</pdfrwt>
<totfact> 0.40206639E+01</totfact>
</mgrwt>
</event>
<event>
 6    2  0.2321478E-005  0.1037871E+04  0.7818608E-02  0.9650582E-01
         -4   -1    0    0    0  501 -0.00000000000E+00  0.00000000000E+00  0.89019367470E+03  0.89019367470E+03  0.00000000000E+00 0. -1.
         21   -1    0    0  501  502  0.00000000000E+00 -0.00000000000E+00 -0.51713974501E+03  0.51713974501E+03  0.00000000000E+00 0. -1.
   -9000010    2    1    2    0  502  0.20488635446E+03  0.17393420575E+03  0.13185626096E+03  0.10462131451E+04  0.10024691243E+04 0.  0.
         13    1    3    3    0    0  0.33997764954E+03 -0.26072950218E+03 -0.20982591866E+03  0.47706561687E+03  0.10566000000E+00 0. -1.
         -4    1    3    3    0  502 -0.13509129508E+03  0.43466370794E+03  0.34168217962E+03  0.56914752822E+03  0.00000000000E+00 0. -1.
        -13    1    1    2    0    0 -0.20488635446E+03 -0.17393420575E+03  0.24119766874E+03  0.36112027462E+03  0.10566000000E+00 0.  1.
<mgrwt>
<rscale>  1 0.74036919E+03</rscale>
<asrwt>0</asrwt>
<pdfrwt beam="2">  1       21 0.79559961E-01 0.10378708E+04</pdfrwt>
<pdfrwt beam="1">  1       -4 0.13695287E+00 0.10378708E+04</pdfrwt>
<totfact> 0.20013488E+01</totfact>
</mgrwt>
</event>
<event>
 6    2  0.2321478E-005  0.1116658E+04  0.7818608E-02  0.9443615E-01
         21   -1    0    0  501  502  0.00000000000E+00  0.00000000000E+00  0.78621518128E+03  0.78621518128E+03  0.00000000000E+00 0.  1.
         -4   -1    0    0    0  501 -0.00000000000E+00 -0.00000000000E+00 -0.79584460065E+03  0.79584460065E+03  0.00000000000E+00 0. -1.
   -9000010    2    1    2    0  502  0.36231290422E+03  0.25315784412E+03 -0.12938383566E+03  0.11241289291E+04  0.10254589888E+04 0.  0.
         13    1    3    3    0    0  0.61023229192E+03 -0.16243351947E+03 -0.46816964562E+02  0.63321397465E+03  0.10566000000E+00 0. -1.
         -4    1    3    3    0  502 -0.24791938770E+03  0.41559136359E+03 -0.82566871098E+02  0.49091495444E+03  0.00000000000E+00 0. -1.
        -13    1    1    2    0    0 -0.36231290422E+03 -0.25315784412E+03  0.11975441629E+03  0.45793085285E+03  0.10566000000E+00 0.  1.
<mgrwt>
<rscale>  1 0.88571622E+03</rscale>
<asrwt>0</asrwt>
<pdfrwt beam="1">  1       21 0.12095618E+00 0.11166583E+04</pdfrwt>
<pdfrwt beam="2">  1       -4 0.12243763E+00 0.11166583E+04</pdfrwt>
<totfact> 0.94025084E+00</totfact>
</mgrwt>
</event>
<event>
 6    2  0.2321478E-005  0.1002541E+04  0.7818608E-02  0.9983111E-01
         -4   -1    0    0    0  501 -0.00000000000E+00  0.00000000000E+00  0.19218790429E+04  0.19218790429E+04  0.00000000000E+00 0. -1.
         21   -1    0    0  501  502  0.00000000000E+00 -0.00000000000E+00 -0.19821575762E+03  0.19821575762E+03  0.00000000000E+00 0.  1.
   -9000010    2    1    2    0  502 -0.66978078313E+02  0.74788894527E+02  0.17495310922E+04  0.20164193632E+04  0.99750115991E+03 0.  0.
         13    1    3    3    0    0 -0.21296804391E+03  0.34339924147E+03  0.16441042595E+04  0.16930319707E+04  0.10566000000E+00 0. -1.
         -4    1    3    3    0  502  0.14598996560E+03 -0.26861034694E+03  0.10542683270E+03  0.32338739245E+03  0.00000000000E+00 0. -1.
        -13    1    1    2    0    0  0.66978078313E+02 -0.74788894527E+02 -0.25867806848E+02  0.10367543737E+03  0.10566000000E+00 0.  1.
<mgrwt>
<rscale>  1 0.56397027E+03</rscale>
<asrwt>0</asrwt>
<pdfrwt beam="2">  1       21 0.30494733E-01 0.10025408E+04</pdfrwt>
<pdfrwt beam="1">  1       -4 0.29567369E+00 0.10025408E+04</pdfrwt>
<totfact> 0.13967256E+01</totfact>
</mgrwt>
</event>
<event>
 6    2  0.2321478E-005  0.9957140E+03  0.7818608E-02  0.9897691E-01
         -4   -1    0    0    0  501 -0.00000000000E+00  0.00000000000E+00  0.52772400810E+03  0.52772400810E+03  0.00000000000E+00 0. -1.
         21   -1    0    0  501  502  0.00000000000E+00 -0.00000000000E+00 -0.67873702527E+03  0.67873702527E+03  0.00000000000E+00 0. -1.
   -9000010    2    1    2    0  502 -0.54821265006E+02 -0.12290679774E+03 -0.26469206188E+03  0.10302952353E+04  0.98657738282E+03 0.  0.
         13    1    3    3    0    0  0.31654822485E+03  0.15546270120E+03  0.17258705426E+03  0.39262925589E+03  0.10566000000E+00 0. -1.
         -4    1    3    3    0  502 -0.37136948985E+03 -0.27836949894E+03 -0.43727911614E+03  0.63766597945E+03  0.00000000000E+00 0. -1.
        -13    1    1    2    0    0  0.54821265006E+02  0.12290679774E+03  0.11367904472E+03  0.17616579804E+03  0.10566000000E+00 0.  1.
<mgrwt>
<rscale>  1 0.60373333E+03</rscale>
<asrwt>0</asrwt>
<pdfrwt beam="2">  1       21 0.10442108E+00 0.99571401E+03</pdfrwt>
<pdfrwt beam="1">  1       -4 0.81188309E-01 0.99571401E+03</pdfrwt>
<totfact> 0.37294335E+01</totfact>
</mgrwt>
</event>
<event>
 6    2  0.2321478E-005  0.9827240E+03  0.7818608E-02  0.1007686E+00
         -4   -1    0    0    0  501 -0.00000000000E+00  0.00000000000E+00  0.10957695135E+04  0.10957695135E+04  0.00000000000E+00 0. -1.
         21   -1    0    0  501  502  0.00000000000E+00 -0.00000000000E+00 -0.26152337856E+03  0.26152337856E+03  0.00000000000E+00 0. -1.
   -9000010    2    1    2    0  502 -0.65947412263E+02 -0.44340569849E+02  0.72056403628E+03  0.12185889698E+04  0.97950569153E+03 0.  0.
         13    1    3    3    0    0 -0.16445139240E+03 -0.48593591230E+03  0.49559335613E+03  0.71329570104E+03  0.10566000000E+00 0. -1.
         -4    1    3    3    0  502  0.98503980140E+02  0.44159534245E+03  0.22497068015E+03  0.50529326881E+03  0.00000000000E+00 0. -1.
        -13    1    1    2    0    0  0.65947412263E+02  0.44340569849E+02  0.11368209866E+03  0.13870392222E+03  0.10566000000E+00 0.  1.
<mgrwt>
<rscale>  1 0.52404878E+03</rscale>
<asrwt>0</asrwt>
<pdfrwt beam="2">  1       21 0.40234367E-01 0.98272404E+03</pdfrwt>
<pdfrwt beam="1">  1       -4 0.16857992E+00 0.98272404E+03</pdfrwt>
<totfact> 0.51811600E+01</totfact>
</mgrwt>
</event>
<event>
 6    2  0.2321478E-005  0.1121080E+04  0.7818608E-02  0.9400078E-01
         -4   -1    0    0    0  501 -0.00000000000E+00  0.00000000000E+00  0.34056556709E+03  0.34056556709E+03  0.00000000000E+00 0. -1.
         21   -1    0    0  501  502  0.00000000000E+00 -0.00000000000E+00 -0.19720350360E+04  0.19720350360E+04  0.00000000000E+00 0. -1.
   -9000010    2    1    2    0  502  0.50590267281E+03  0.64324409479E+02 -0.10126685190E+04  0.15107341736E+04  0.99837120843E+03 0.  0.
         13    1    3    3    0    0  0.52398503599E+03 -0.30813098606E+03 -0.95696141254E+03  0.11337019797E+04  0.10566000000E+00 0. -1.
         -4    1    3    3    0  502 -0.18082363187E+02  0.37245539554E+03 -0.55707106503E+02  0.37703219390E+03  0.00000000000E+00 0. -1.
        -13    1    1    2    0    0 -0.50590267281E+03 -0.64324409479E+02 -0.61880094985E+03  0.80186642946E+03  0.10566000000E+00 0.  1.
<mgrwt>
<rscale>  1 0.92069301E+03</rscale>
<asrwt>0</asrwt>
<pdfrwt beam="2">  1       21 0.30339000E+00 0.11210799E+04</pdfrwt>
<pdfrwt beam="1">  1       -4 0.52394704E-01 0.11210799E+04</pdfrwt>
<totfact> 0.34365364E+00</totfact>
</mgrwt>
</event>
<event>
 6    2  0.2321478E-005  0.1040028E+04  0.7818608E-02  0.9614377E-01
         21   -1    0    0  501  502  0.00000000000E+00  0.00000000000E+00  0.67620493955E+03  0.67620493955E+03  0.00000000000E+00 0.  1.
         -4   -1    0    0    0  501 -0.00000000000E+00 -0.00000000000E+00 -0.85015183154E+03  0.85015183154E+03  0.00000000000E+00 0. -1.
   -9000010    2    1    2    0  502  0.89188088144E+02  0.28862864794E+03 -0.43476948050E+03  0.11272459527E+04  0.99518738202E+03 0.  0.
         13    1    3    3    0    0  0.32774101725E+03  0.14026883047E+03  0.21711504050E+03  0.41740684130E+03  0.10566000000E+00 0. -1.
         -4    1    3    3    0  502 -0.23855292911E+03  0.14835981747E+03 -0.65188452099E+03  0.70983911145E+03  0.00000000000E+00 0. -1.
        -13    1    1    2    0    0 -0.89188088144E+02 -0.28862864794E+03  0.26082258851E+03  0.39911081835E+03  0.10566000000E+00 0.  1.
<mgrwt>
<rscale>  1 0.76351856E+03</rscale>
<asrwt>0</asrwt>
<pdfrwt beam="1">  1       21 0.10403153E+00 0.10400283E+04</pdfrwt>
<pdfrwt beam="2">  1       -4 0.13079259E+00 0.10400283E+04</pdfrwt>
<totfact> 0.11761905E+01</totfact>
</mgrwt>
</event>
<event>
 6    2  0.2321478E-005  0.1001706E+04  0.7818608E-02  0.1029254E+00
         21   -1    0    0  501  502  0.00000000000E+00  0.00000000000E+00  0.95234315994E+03  0.95234315994E+03  0.00000000000E+00 0. -1.
         -4   -1    0    0    0  501 -0.00000000000E+00 -0.00000000000E+00 -0.28679131200E+03  0.28679131200E+03  0.00000000000E+00 0. -1.
   -9000010    2    1    2    0  502  0.34991235318E+02  0.17173550668E+02  0.66041818866E+03  0.11998192966E+04  0.10009469732E+04 0.  0.
         13    1    3    3    0    0  0.28308770473E+03 -0.41184205313E+03  0.39910131476E+03  0.63955796915E+03  0.10566000000E+00 0. -1.
         -4    1    3    3    0  502 -0.24809646941E+03  0.42901560380E+03  0.26131687391E+03  0.56026132744E+03  0.00000000000E+00 0. -1.
        -13    1    1    2    0    0 -0.34991235318E+02 -0.17173550668E+02  0.51336592761E+01  0.39315175355E+02  0.10566000000E+00 0.  1.
<mgrwt>
<rscale>  1 0.44489912E+03</rscale>
<asrwt>0</asrwt>
<pdfrwt beam="1">  1       21 0.14651433E+00 0.10017056E+04</pdfrwt>
<pdfrwt beam="2">  1       -4 0.44121741E-01 0.10017056E+04</pdfrwt>
<totfact> 0.57939149E+01</totfact>
</mgrwt>
</event>
<event>
 6    2  0.2321478E-005  0.1123825E+04  0.7818608E-02  0.9439978E-01
         -4   -1    0    0    0  501 -0.00000000000E+00  0.00000000000E+00  0.10802806350E+04  0.10802806350E+04  0.00000000000E+00 0. -1.
         21   -1    0    0  501  502  0.00000000000E+00 -0.00000000000E+00 -0.57011609172E+03  0.57011609172E+03  0.00000000000E+00 0. -1.
   -9000010    2    1    2    0  502 -0.20608258538E+03  0.38786803271E+03  0.29823850697E+03  0.11627243994E+04  0.10344419651E+04 0.  0.
         13    1    3    3    0    0 -0.37443021059E+03 -0.24148042379E+03  0.24652220687E+03  0.50919935911E+03  0.10566000000E+00 0. -1.
         -4    1    3    3    0  502  0.16834762521E+03  0.62934845650E+03  0.51716300105E+02  0.65352504031E+03  0.00000000000E+00 0. -1.
        -13    1    1    2    0    0  0.20608258538E+03 -0.38786803271E+03  0.21192603630E+03  0.48767232731E+03  0.10566000000E+00 0.  1.
<mgrwt>
<rscale>  1 0.88857424E+03</rscale>
<asrwt>0</asrwt>
<pdfrwt beam="2">  1       21 0.87710168E-01 0.11238246E+04</pdfrwt>
<pdfrwt beam="1">  1       -4 0.16619702E+00 0.11238246E+04</pdfrwt>
<totfact> 0.93287309E+00</totfact>
</mgrwt>
</event>
<event>
 6    2  0.2321478E-005  0.1080920E+04  0.7818608E-02  0.9520752E-01
         -4   -1    0    0    0  501 -0.00000000000E+00  0.00000000000E+00  0.70067726749E+03  0.70067726749E+03  0.00000000000E+00 0. -1.
         21   -1    0    0  501  502  0.00000000000E+00 -0.00000000000E+00 -0.91238948042E+03  0.91238948042E+03  0.00000000000E+00 0. -1.
   -9000010    2    1    2    0  502 -0.28582362536E+03 -0.23754331589E+03 -0.45079903446E+03  0.11711566992E+04  0.10150203313E+04 0.  0.
         13    1    3    3    0    0 -0.45580228235E+03  0.21876221748E+03  0.29316848312E+01  0.50558998638E+03  0.10566000000E+00 0. -1.
         -4    1    3    3    0  502  0.16997865699E+03 -0.45630553337E+03 -0.45373071929E+03  0.66556671284E+03  0.00000000000E+00 0. -1.
        -13    1    1    2    0    0  0.28582362536E+03  0.23754331589E+03  0.23908682153E+03  0.44191004869E+03  0.10566000000E+00 0.  1.
<mgrwt>
<rscale>  1 0.82770970E+03</rscale>
<asrwt>0</asrwt>
<pdfrwt beam="2">  1       21 0.14036761E+00 0.10809201E+04</pdfrwt>
<pdfrwt beam="1">  1       -4 0.10779650E+00 0.10809201E+04</pdfrwt>
<totfact> 0.87142430E+00</totfact>
</mgrwt>
</event>
<event>
 6    2  0.2321478E-005  0.1113844E+04  0.7818608E-02  0.9445861E-01
         21   -1    0    0  501  502  0.00000000000E+00  0.00000000000E+00  0.73713639532E+03  0.73713639532E+03  0.00000000000E+00 0. -1.
         -4   -1    0    0    0  501 -0.00000000000E+00 -0.00000000000E+00 -0.85863226066E+03  0.85863226066E+03  0.00000000000E+00 0. -1.
   -9000010    2    1    2    0  502  0.96933516783E+02 -0.43106093512E+03  0.66017252037E+02  0.11157990561E+04  0.10224674174E+04 0.  0.
         13    1    3    3    0    0  0.54686335243E+03 -0.11456258325E+03  0.86126261404E+02  0.56533340232E+03  0.10566000000E+00 0. -1.
         -4    1    3    3    0  502 -0.44992983564E+03 -0.31649835187E+03 -0.20109009367E+02  0.55046565378E+03  0.00000000000E+00 0. -1.
        -13    1    1    2    0    0 -0.96933516783E+02  0.43106093512E+03 -0.18751311737E+03  0.47996959988E+03  0.10566000000E+00 0.  1.
<mgrwt>
<rscale>  1 0.88395680E+03</rscale>
<asrwt>0</asrwt>
<pdfrwt beam="1">  1       21 0.11340560E+00 0.11138444E+04</pdfrwt>
<pdfrwt beam="2">  1       -4 0.13209727E+00 0.11138444E+04</pdfrwt>
<totfact> 0.91437544E+00</totfact>
</mgrwt>
</event>
<event>
 6    2  0.2321478E-005  0.9831533E+03  0.7818608E-02  0.9843232E-01
         -4   -1    0    0    0  501 -0.00000000000E+00  0.00000000000E+00  0.47545151191E+03  0.47545151191E+03  0.00000000000E+00 0. -1.
         21   -1    0    0  501  502  0.00000000000E+00 -0.00000000000E+00 -0.84185456795E+03  0.84185456795E+03  0.00000000000E+00 0. -1.
   -9000010    2    1    2    0  502 -0.19307360694E+02 -0.16562844236E+03 -0.50059945650E+03  0.11032634669E+04  0.96890913221E+03 0.  0.
         13    1    3    3    0    0  0.43683924199E+03 -0.26832328669E+03 -0.21928018366E+03  0.55759279016E+03  0.10566000000E+00 0. -1.
         -4    1    3    3    0  502 -0.45614660269E+03  0.10269484434E+03 -0.28131927283E+03  0.54567067675E+03  0.00000000000E+00 0. -1.
        -13    1    1    2    0    0  0.19307360694E+02  0.16562844236E+03  0.13419640046E+03  0.21404261294E+03  0.10566000000E+00 0.  1.
<mgrwt>
<rscale>  1 0.63093179E+03</rscale>
<asrwt>0</asrwt>
<pdfrwt beam="2">  1       21 0.12951609E+00 0.98315333E+03</pdfrwt>
<pdfrwt beam="1">  1       -4 0.73146387E-01 0.98315333E+03</pdfrwt>
<totfact> 0.27210656E+01</totfact>
</mgrwt>
</event>
<event>
 6    2  0.2321478E-005  0.1044371E+04  0.7818608E-02  0.9728894E-01
         -4   -1    0    0    0  501 -0.00000000000E+00  0.00000000000E+00  0.22840664167E+03  0.22840664167E+03  0.00000000000E+00 0. -1.
         21   -1    0    0  501  502  0.00000000000E+00 -0.00000000000E+00 -0.17357775674E+04  0.17357775674E+04  0.00000000000E+00 0. -1.
   -9000010    2    1    2    0  502  0.35106149634E+02  0.19967040566E+03 -0.13539687494E+04  0.17099540938E+04  0.10245052054E+04 0.  0.
         13    1    3    3    0    0 -0.31650298833E+03  0.48422096770E+03 -0.62136983225E+03  0.84896676424E+03  0.10566000000E+00 0. -1.
         -4    1    3    3    0  502  0.35160913796E+03 -0.28455056205E+03 -0.73259891716E+03  0.86098732958E+03  0.00000000000E+00 0. -1.
        -13    1    1    2    0    0 -0.35106149634E+02 -0.19967040566E+03 -0.15340217630E+03  0.25423011524E+03  0.10566000000E+00 0.  1.
<mgrwt>
<rscale>  1 0.69322212E+03</rscale>
<asrwt>0</asrwt>
<pdfrwt beam="2">  1       21 0.26704271E+00 0.10443714E+04</pdfrwt>
<pdfrwt beam="1">  1       -4 0.35139483E-01 0.10443714E+04</pdfrwt>
<totfact> 0.13382857E+01</totfact>
</mgrwt>
</event>
<event>
 6    2  0.2321478E-005  0.1004827E+04  0.7818608E-02  0.9756584E-01
         21   -1    0    0  501  502  0.00000000000E+00  0.00000000000E+00  0.14156732116E+04  0.14156732116E+04  0.00000000000E+00 0. -1.
         -4   -1    0    0    0  501 -0.00000000000E+00 -0.00000000000E+00 -0.46115839457E+03  0.46115839457E+03  0.00000000000E+00 0. -1.
   -9000010    2    1    2    0  502 -0.20636712962E+03  0.22678776314E+02  0.11935634427E+04  0.15602151574E+04  0.98314593346E+03 0.  0.
         13    1    3    3    0    0 -0.55095440662E+03  0.17968367200E+03  0.94070692094E+03  0.11048830266E+04  0.10566000000E+00 0. -1.
         -4    1    3    3    0  502  0.34458727699E+03 -0.15700489569E+03  0.25285652174E+03  0.45533213078E+03  0.00000000000E+00 0. -1.
        -13    1    1    2    0    0  0.20636712962E+03 -0.22678776314E+02 -0.23904862563E+03  0.31661644882E+03  0.10566000000E+00 0.  1.
<mgrwt>
<rscale>  1 0.67745487E+03</rscale>
<asrwt>0</asrwt>
<pdfrwt beam="1">  1       21 0.21779588E+00 0.10048272E+04</pdfrwt>
<pdfrwt beam="2">  1       -4 0.70947446E-01 0.10048272E+04</pdfrwt>
<totfact> 0.63100505E+00</totfact>
</mgrwt>
</event>
<event>
 6    2  0.2321478E-005  0.9903104E+03  0.7818608E-02  0.1003136E+00
         -4   -1    0    0    0  501 -0.00000000000E+00  0.00000000000E+00  0.26234281462E+03  0.26234281462E+03  0.00000000000E+00 0. -1.
         21   -1    0    0  501  502  0.00000000000E+00 -0.00000000000E+00 -0.26066555857E+04  0.26066555857E+04  0.00000000000E+00 0. -1.
   -9000010    2    1    2    0  502 -0.33620406425E+02 -0.82933339725E+02 -0.25002368761E+04  0.26892190682E+04  0.98625883499E+03 0.  0.
         13    1    3    3    0    0  0.32371023467E+03  0.27116875234E+03 -0.67743790819E+03  0.79827497699E+03  0.10566000000E+00 0. -1.
         -4    1    3    3    0  502 -0.35733064109E+03 -0.35410209206E+03 -0.18227989679E+04  0.18909440912E+04  0.00000000000E+00 0. -1.
        -13    1    1    2    0    0  0.33620406425E+02  0.82933339725E+02  0.15592410503E+03  0.17977933212E+03  0.10566000000E+00 0.  1.
<mgrwt>
<rscale>  1 0.54296387E+03</rscale>
<asrwt>0</asrwt>
<pdfrwt beam="2">  1       21 0.40102394E+00 0.99031044E+03</pdfrwt>
<pdfrwt beam="1">  1       -4 0.40360433E-01 0.99031044E+03</pdfrwt>
<totfact> 0.14543443E+00</totfact>
</mgrwt>
</event>
<event>
 6    2  0.2321478E-005  0.1029717E+04  0.7818608E-02  0.9582683E-01
         21   -1    0    0  501  502  0.00000000000E+00  0.00000000000E+00  0.11500225053E+04  0.11500225053E+04  0.00000000000E+00 0. -1.
         -4   -1    0    0    0  501 -0.00000000000E+00 -0.00000000000E+00 -0.10418593805E+04  0.10418593805E+04  0.00000000000E+00 0. -1.
   -9000010    2    1    2    0  502  0.13313924608E+03  0.32040307837E+03  0.87431279057E+03  0.13508292637E+04  0.96950123902E+03 0.  0.
         13    1    3    3    0    0  0.45272190995E+03 -0.13015464554E+03  0.32867021163E+03  0.57438791655E+03  0.10566000000E+00 0. -1.
         -4    1    3    3    0  502 -0.31958266387E+03  0.45055772391E+03  0.54564257893E+03  0.77644134715E+03  0.00000000000E+00 0. -1.
        -13    1    1    2    0    0 -0.13313924608E+03 -0.32040307837E+03 -0.76614966580E+03  0.84105262204E+03  0.10566000000E+00 0.  1.
<mgrwt>
<rscale>  1 0.78453001E+03</rscale>
<asrwt>0</asrwt>
<pdfrwt beam="1">  1       21 0.17692654E+00 0.10297169E+04</pdfrwt>
<pdfrwt beam="2">  1       -4 0.16028606E+00 0.10297169E+04</pdfrwt>
<totfact> 0.16248619E+00</totfact>
</mgrwt>
</event>
<event>
 6    2  0.2321478E-005  0.1044795E+04  0.7818608E-02  0.9698070E-01
         -4   -1    0    0    0  501 -0.00000000000E+00  0.00000000000E+00  0.10499276904E+04  0.10499276904E+04  0.00000000000E+00 0. -1.
         21   -1    0    0  501  502  0.00000000000E+00 -0.00000000000E+00 -0.43654763855E+03  0.43654763855E+03  0.00000000000E+00 0. -1.
   -9000010    2    1    2    0  502 -0.21995056779E+03  0.44829128929E+02  0.27494828514E+03  0.10803669999E+04  0.10203961935E+04 0.  0.
         13    1    3    3    0    0  0.16672711168E+03  0.33617050548E+03  0.43121490913E+03  0.57162474364E+03  0.10566000000E+00 0. -1.
         -4    1    3    3    0  502 -0.38667767946E+03 -0.29134137655E+03 -0.15626662399E+03  0.50874225621E+03  0.00000000000E+00 0. -1.
        -13    1    1    2    0    0  0.21995056779E+03 -0.44829128929E+02  0.33843176669E+03  0.40610832907E+03  0.10566000000E+00 0.  1.
<mgrwt>
<rscale>  1 0.71131844E+03</rscale>
<asrwt>0</asrwt>
<pdfrwt beam="2">  1       21 0.67161176E-01 0.10447949E+04</pdfrwt>
<pdfrwt beam="1">  1       -4 0.16152734E+00 0.10447949E+04</pdfrwt>
<totfact> 0.18999294E+01</totfact>
</mgrwt>
</event>
<event>
 6    2  0.2321478E-005  0.1038812E+04  0.7818608E-02  0.9688418E-01
         -4   -1    0    0    0  501 -0.00000000000E+00  0.00000000000E+00  0.71236691163E+03  0.71236691163E+03  0.00000000000E+00 0. -1.
         21   -1    0    0  501  502  0.00000000000E+00 -0.00000000000E+00 -0.59631527728E+03  0.59631527728E+03  0.00000000000E+00 0. -1.
   -9000010    2    1    2    0  502  0.82587173879E+02  0.22096750660E+03 -0.14813241736E+02  0.10389176486E+04  0.10116734494E+04 0.  0.
         13    1    3    3    0    0 -0.24828186951E+03  0.33144165694E+03  0.34409600121E+03  0.53842318663E+03  0.10566000000E+00 0. -1.
         -4    1    3    3    0  502  0.33086904339E+03 -0.11047415034E+03 -0.35890924295E+03  0.50049446195E+03  0.00000000000E+00 0. -1.
        -13    1    1    2    0    0 -0.82587173879E+02 -0.22096750660E+03  0.13086487608E+03  0.26976454033E+03  0.10566000000E+00 0.  1.
<mgrwt>
<rscale>  1 0.71710580E+03</rscale>
<asrwt>0</asrwt>
<pdfrwt beam="2">  1       21 0.91740812E-01 0.10388120E+04</pdfrwt>
<pdfrwt beam="1">  1       -4 0.10959491E+00 0.10388120E+04</pdfrwt>
<totfact> 0.25026154E+01</totfact>
</mgrwt>
</event>
<event>
 6    2  0.2321478E-005  0.1017779E+04  0.7818608E-02  0.9826578E-01
         -4   -1    0    0    0  501 -0.00000000000E+00  0.00000000000E+00  0.17679534270E+03  0.17679534270E+03  0.00000000000E+00 0. -1.
         21   -1    0    0  501  502  0.00000000000E+00 -0.00000000000E+00 -0.24566463453E+04  0.24566463453E+04  0.00000000000E+00 0. -1.
   -9000010    2    1    2    0  502  0.72014171859E+02  0.14141007767E+03 -0.22533659690E+04  0.24725556440E+04  0.10053309759E+04 0.  0.
         13    1    3    3    0    0 -0.19896040699E+03  0.18496891757E+03 -0.21682573003E+04  0.21852090233E+04  0.10566000000E+00 0. -1.
         -4    1    3    3    0  502  0.27097457885E+03 -0.43558839905E+02 -0.85108668752E+02  0.28734662067E+03  0.00000000000E+00 0. -1.
        -13    1    1    2    0    0 -0.72014171859E+02 -0.14141007767E+03 -0.26485033606E+02  0.16088604409E+03  0.10566000000E+00 0.  1.
<mgrwt>
<rscale>  1 0.63955532E+03</rscale>
<asrwt>0</asrwt>
<pdfrwt beam="2">  1       21 0.37794558E+00 0.10177786E+04</pdfrwt>
<pdfrwt beam="1">  1       -4 0.27199285E-01 0.10177786E+04</pdfrwt>
<totfact> 0.44710454E+00</totfact>
</mgrwt>
</event>
<event>
 6    2  0.2321478E-005  0.1303846E+04  0.7818608E-02  0.9157575E-01
         -4   -1    0    0    0  501 -0.00000000000E+00  0.00000000000E+00  0.83147513427E+03  0.83147513427E+03  0.00000000000E+00 0. -1.
         21   -1    0    0  501  502  0.00000000000E+00 -0.00000000000E+00 -0.13179728337E+04  0.13179728337E+04  0.00000000000E+00 0. -1.
   -9000010    2    1    2    0  502 -0.20489889258E+03  0.76263899599E+03 -0.31492435744E+03  0.13413395487E+04  0.10375030794E+04 0.  0.
         13    1    3    3    0    0 -0.49932001729E+03  0.83610521964E+03 -0.35225307237E+03  0.10356035227E+04  0.10566000000E+00 0. -1.
         -4    1    3    3    0  502  0.29442112470E+03 -0.73466223655E+02  0.37328714927E+02  0.30573602609E+03  0.00000000000E+00 0. -1.
        -13    1    1    2    0    0  0.20489889258E+03 -0.76263899599E+03 -0.17157334199E+03  0.80810841923E+03  0.10566000000E+00 0.  1.
<mgrwt>
<rscale>  1 0.11502259E+04</rscale>
<asrwt>0</asrwt>
<pdfrwt beam="2">  1       21 0.20276505E+00 0.13038460E+04</pdfrwt>
<pdfrwt beam="1">  1       -4 0.12791925E+00 0.13038460E+04</pdfrwt>
<totfact> 0.18665508E+00</totfact>
</mgrwt>
</event>
<event>
 6    2  0.2321478E-005  0.1169575E+04  0.7818608E-02  0.9316929E-01
         -4   -1    0    0    0  501 -0.00000000000E+00  0.00000000000E+00  0.89195803839E+03  0.89195803839E+03  0.00000000000E+00 0. -1.
         21   -1    0    0  501  502  0.00000000000E+00 -0.00000000000E+00 -0.88587795112E+03  0.88587795112E+03  0.00000000000E+00 0.  1.
   -9000010    2    1    2    0  502  0.35962080657E+02  0.60517669149E+03 -0.36040481552E+02  0.11701302608E+04  0.10001868885E+04 0.  0.
         13    1    3    3    0    0 -0.83927869772E+02  0.25342910372E+03 -0.50533421936E+03  0.57151805077E+03  0.10566000000E+00 0. -1.
         -4    1    3    3    0  502  0.11988995043E+03  0.35174758777E+03  0.46929373781E+03  0.59861221008E+03  0.00000000000E+00 0. -1.
        -13    1    1    2    0    0 -0.35962080657E+02 -0.60517669149E+03  0.42120568820E+02  0.60770572866E+03  0.10566000000E+00 0.  1.
<mgrwt>
<rscale>  1 0.99239141E+03</rscale>
<asrwt>0</asrwt>
<pdfrwt beam="2">  1       21 0.13628891E+00 0.11695751E+04</pdfrwt>
<pdfrwt beam="1">  1       -4 0.13722431E+00 0.11695751E+04</pdfrwt>
<totfact> 0.50769696E+00</totfact>
</mgrwt>
</event>
<event>
 6    2  0.2321478E-005  0.1041476E+04  0.7818608E-02  0.9685897E-01
         -4   -1    0    0    0  501 -0.00000000000E+00  0.00000000000E+00  0.13172418151E+04  0.13172418151E+04  0.00000000000E+00 0. -1.
         21   -1    0    0  501  502  0.00000000000E+00 -0.00000000000E+00 -0.36223320902E+03  0.36223320902E+03  0.00000000000E+00 0.  1.
   -9000010    2    1    2    0  502  0.16481614222E+03  0.16903128959E+03  0.47527204876E+03  0.11447946400E+04  0.10143644857E+04 0.  0.
         13    1    3    3    0    0  0.70251513335E+02 -0.36249516506E+03  0.47914028289E+03  0.60490779601E+03  0.10566000000E+00 0. -1.
         -4    1    3    3    0  502  0.94564628883E+02  0.53152645466E+03 -0.38682341328E+01  0.53988684395E+03  0.00000000000E+00 0. -1.
        -13    1    1    2    0    0 -0.16481614222E+03 -0.16903128959E+03  0.47973655732E+03  0.53468038414E+03  0.10566000000E+00 0.  1.
<mgrwt>
<rscale>  1 0.71862732E+03</rscale>
<asrwt>0</asrwt>
<pdfrwt beam="2">  1       21 0.55728187E-01 0.10414755E+04</pdfrwt>
<pdfrwt beam="1">  1       -4 0.20265258E+00 0.10414755E+04</pdfrwt>
<totfact> 0.14927284E+01</totfact>
</mgrwt>
</event>
<event>
 6    2  0.2321478E-005  0.1017511E+04  0.7818608E-02  0.9739419E-01
         -4   -1    0    0    0  501 -0.00000000000E+00  0.00000000000E+00  0.23939462778E+04  0.23939462778E+04  0.00000000000E+00 0. -1.
         21   -1    0    0  501  502  0.00000000000E+00 -0.00000000000E+00 -0.15918326013E+03  0.15918326013E+03  0.00000000000E+00 0. -1.
   -9000010    2    1    2    0  502  0.91625230424E+02  0.19080773866E+03  0.17527065880E+04  0.20266495397E+04  0.99525132364E+03 0.  0.
         13    1    3    3    0    0  0.37726949953E+03 -0.46912729994E+02  0.15646091576E+04  0.16101350585E+04  0.10566000000E+00 0. -1.
         -4    1    3    3    0  502 -0.28564426910E+03  0.23772046865E+03  0.18809743034E+03  0.41651448113E+03  0.00000000000E+00 0. -1.
        -13    1    1    2    0    0 -0.91625230424E+02 -0.19080773866E+03  0.48205642972E+03  0.52647999827E+03  0.10566000000E+00 0.  1.
<mgrwt>
<rscale>  1 0.68717501E+03</rscale>
<asrwt>0</asrwt>
<pdfrwt beam="2">  1       21 0.24489734E-01 0.10175107E+04</pdfrwt>
<pdfrwt beam="1">  1       -4 0.36829940E+00 0.10175107E+04</pdfrwt>
<totfact> 0.74493055E+00</totfact>
</mgrwt>
</event>
<event>
 6    2  0.2321478E-005  0.1021199E+04  0.7818608E-02  0.9894141E-01
         -4   -1    0    0    0  501 -0.00000000000E+00  0.00000000000E+00  0.26127087832E+04  0.26127087832E+04  0.00000000000E+00 0. -1.
         21   -1    0    0  501  502  0.00000000000E+00 -0.00000000000E+00 -0.12839795063E+03  0.12839795063E+03  0.00000000000E+00 0.  1.
   -9000010    2    1    2    0  502  0.19173771938E+02 -0.12472108866E+03  0.23124165324E+04  0.25278682639E+04  0.10133729603E+04 0.  0.
         13    1    3    3    0    0  0.18430366545E+03  0.85650528388E+02  0.32430255675E+01  0.20325939705E+03  0.10566000000E+00 0. -1.
         -4    1    3    3    0  502 -0.16512989351E+03 -0.21037161705E+03  0.23091735068E+04  0.23246088668E+04  0.00000000000E+00 0. -1.
        -13    1    1    2    0    0 -0.19173771938E+02  0.12472108866E+03  0.17189430020E+03  0.21323847001E+03  0.10566000000E+00 0.  1.
<mgrwt>
<rscale>  1 0.60546074E+03</rscale>
<asrwt>0</asrwt>
<pdfrwt beam="2">  1       21 0.19753533E-01 0.10211992E+04</pdfrwt>
<pdfrwt beam="1">  1       -4 0.40195516E+00 0.10211992E+04</pdfrwt>
<totfact> 0.66972930E+00</totfact>
</mgrwt>
</event>
<event>
 6    2  0.2321478E-005  0.1031170E+04  0.7818608E-02  0.9655684E-01
         21   -1    0    0  501  502  0.00000000000E+00  0.00000000000E+00  0.17915152016E+04  0.17915152016E+04  0.00000000000E+00 0. -1.
         -4   -1    0    0    0  501 -0.00000000000E+00 -0.00000000000E+00 -0.23602576716E+03  0.23602576716E+03  0.00000000000E+00 0. -1.
   -9000010    2    1    2    0  502  0.42827807054E+01  0.26930366162E+03  0.12286690850E+04  0.16040384820E+04  0.99537376234E+03 0.  0.
         13    1    3    3    0    0 -0.19551985249E+03 -0.12184738202E+02  0.12432018225E+04  0.12585417209E+04  0.10566000000E+00 0. -1.
         -4    1    3    3    0  502  0.19980263320E+03  0.28148839982E+03 -0.14532737464E+02  0.34549676109E+03  0.00000000000E+00 0. -1.
        -13    1    1    2    0    0 -0.42827807054E+01 -0.26930366162E+03  0.32682034941E+03  0.42350248680E+03  0.10566000000E+00 0.  1.
<mgrwt>
<rscale>  1 0.73717752E+03</rscale>
<asrwt>0</asrwt>
<pdfrwt beam="1">  1       21 0.27561772E+00 0.10311701E+04</pdfrwt>
<pdfrwt beam="2">  1       -4 0.36311658E-01 0.10311701E+04</pdfrwt>
<totfact> 0.11093699E+01</totfact>
</mgrwt>
</event>
<event>
 6    2  0.2321478E-005  0.1163732E+04  0.7818608E-02  0.9331879E-01
         21   -1    0    0  501  502  0.00000000000E+00  0.00000000000E+00  0.81135032439E+03  0.81135032439E+03  0.00000000000E+00 0.  1.
         -4   -1    0    0    0  501 -0.00000000000E+00 -0.00000000000E+00 -0.11910455980E+04  0.11910455980E+04  0.00000000000E+00 0. -1.
   -9000010    2    1    2    0  502 -0.31163848509E+03  0.49256992347E+03 -0.67882247960E+03  0.13472464957E+04  0.10072385449E+04 0.  0.
         13    1    3    3    0    0 -0.35097417686E+03  0.67002810762E+03 -0.82112131769E+03  0.11164052881E+04  0.10566000000E+00 0. -1.
         -4    1    3    3    0  502  0.39335691776E+02 -0.17745818416E+03  0.14229883809E+03  0.23084120753E+03  0.00000000000E+00 0. -1.
        -13    1    1    2    0    0  0.31163848509E+03 -0.49256992347E+03  0.29912720595E+03  0.65514942677E+03  0.10566000000E+00 0.  1.
<mgrwt>
<rscale>  1 0.97900257E+03</rscale>
<asrwt>0</asrwt>
<pdfrwt beam="1">  1       21 0.12482313E+00 0.11637324E+04</pdfrwt>
<pdfrwt beam="2">  1       -4 0.18323778E+00 0.11637324E+04</pdfrwt>
<totfact> 0.28919890E+00</totfact>
</mgrwt>
</event>
<event>
 6    2  0.2321478E-005  0.1008333E+04  0.7818608E-02  0.9899813E-01
         -4   -1    0    0    0  501 -0.00000000000E+00  0.00000000000E+00  0.18011387616E+03  0.18011387616E+03  0.00000000000E+00 0. -1.
         21   -1    0    0  501  502  0.00000000000E+00 -0.00000000000E+00 -0.17945261124E+04  0.17945261124E+04  0.00000000000E+00 0. -1.
   -9000010    2    1    2    0  502  0.11268255920E+03  0.62194495233E+02 -0.14294846357E+04  0.17493318817E+04  0.10000850936E+04 0.  0.
         13    1    3    3    0    0  0.31206966201E+03  0.40819182360E+03 -0.41966738391E+03  0.66342200980E+03  0.10566000000E+00 0. -1.
         -4    1    3    3    0  502 -0.19938710281E+03 -0.34599732837E+03 -0.10098172518E+04  0.10859098719E+04  0.00000000000E+00 0. -1.
        -13    1    1    2    0    0 -0.11268255920E+03 -0.62194495233E+02 -0.18492760058E+03  0.22530810684E+03  0.10566000000E+00 0.  1.
<mgrwt>
<rscale>  1 0.60270353E+03</rscale>
<asrwt>0</asrwt>
<pdfrwt beam="2">  1       21 0.27608095E+00 0.10083331E+04</pdfrwt>
<pdfrwt beam="1">  1       -4 0.27709827E-01 0.10083331E+04</pdfrwt>
<totfact> 0.18853655E+01</totfact>
</mgrwt>
</event>
<event>
 6    2  0.2321478E-005  0.1259018E+04  0.7818608E-02  0.9223479E-01
         -4   -1    0    0    0  501 -0.00000000000E+00  0.00000000000E+00  0.23193060480E+04  0.23193060480E+04  0.00000000000E+00 0. -1.
         21   -1    0    0  501  502  0.00000000000E+00 -0.00000000000E+00 -0.42225996257E+03  0.42225996257E+03  0.00000000000E+00 0. -1.
   -9000010    2    1    2    0  502  0.52535309710E+03 -0.44010325325E+03  0.14638463387E+04  0.19307955240E+04  0.10561432204E+04 0.  0.
         13    1    3    3    0    0  0.39563277116E+03 -0.77209864740E+03  0.12274324985E+04  0.15030808895E+04  0.10566000000E+00 0. -1.
         -4    1    3    3    0  502  0.12972032594E+03  0.33199539416E+03  0.23641384017E+03  0.42771463446E+03  0.00000000000E+00 0. -1.
        -13    1    1    2    0    0 -0.52535309710E+03  0.44010325325E+03  0.43319974675E+03  0.81077048657E+03  0.10566000000E+00 0.  1.
<mgrwt>
<rscale>  1 0.10814338E+04</rscale>
<asrwt>0</asrwt>
<pdfrwt beam="2">  1       21 0.64963073E-01 0.12590176E+04</pdfrwt>
<pdfrwt beam="1">  1       -4 0.35681631E+00 0.12590176E+04</pdfrwt>
<totfact> 0.10996003E+00</totfact>
</mgrwt>
</event>
<event>
 6    2  0.2321478E-005  0.1007763E+04  0.7818608E-02  0.9788659E-01
         21   -1    0    0  501  502  0.00000000000E+00  0.00000000000E+00  0.40037696053E+03  0.40037696053E+03  0.00000000000E+00 0. -1.
         -4   -1    0    0    0  501 -0.00000000000E+00 -0.00000000000E+00 -0.10225695331E+04  0.10225695331E+04  0.00000000000E+00 0. -1.
   -9000010    2    1    2    0  502  0.18510992807E+03 -0.93892036026E+00 -0.30018209200E+03  0.10515204205E+04  0.99061563653E+03 0.  0.
         13    1    3    3    0    0  0.17947931480E+03  0.31389099911E+02 -0.66281683606E+03  0.68740400738E+03  0.10566000000E+00 0. -1.
         -4    1    3    3    0  502  0.56306132649E+01 -0.32328020272E+02  0.36263474406E+03  0.36411641312E+03  0.00000000000E+00 0. -1.
        -13    1    1    2    0    0 -0.18510992807E+03  0.93892036026E+00 -0.32201048053E+03  0.37142607310E+03  0.10566000000E+00 0.  1.
<mgrwt>
<rscale>  1 0.65974725E+03</rscale>
<asrwt>0</asrwt>
<pdfrwt beam="1">  1       21 0.61596456E-01 0.10077628E+04</pdfrwt>
<pdfrwt beam="2">  1       -4 0.15731839E+00 0.10077628E+04</pdfrwt>
<totfact> 0.24925129E+01</totfact>
</mgrwt>
</event>
<event>
 6    2  0.2321478E-005  0.1142793E+04  0.7818608E-02  0.9362743E-01
         -4   -1    0    0    0  501 -0.00000000000E+00  0.00000000000E+00  0.50758070756E+03  0.50758070756E+03  0.00000000000E+00 0. -1.
         21   -1    0    0  501  502  0.00000000000E+00 -0.00000000000E+00 -0.14804861292E+04  0.14804861292E+04  0.00000000000E+00 0. -1.
   -9000010    2    1    2    0  502 -0.48706089395E+03  0.25656234633E+03 -0.44813948641E+03  0.12275197640E+04  0.10014605433E+04 0.  0.
         13    1    3    3    0    0 -0.63107176466E+03  0.39268654419E+03 -0.63247846048E+01  0.74329960864E+03  0.10566000000E+00 0. -1.
         -4    1    3    3    0  502  0.14401087071E+03 -0.13612419786E+03 -0.44181470180E+03  0.48422015536E+03  0.00000000000E+00 0. -1.
        -13    1    1    2    0    0  0.48706089395E+03 -0.25656234633E+03 -0.52476593525E+03  0.76054707279E+03  0.10566000000E+00 0.  1.
<mgrwt>
<rscale>  1 0.95206252E+03</rscale>
<asrwt>0</asrwt>
<pdfrwt beam="2">  1       21 0.22776710E+00 0.11427930E+04</pdfrwt>
<pdfrwt beam="1">  1       -4 0.78089340E-01 0.11427930E+04</pdfrwt>
<totfact> 0.42791444E+00</totfact>
</mgrwt>
</event>
<event>
 6    2  0.2321478E-005  0.1050765E+04  0.7818608E-02  0.9599516E-01
         -4   -1    0    0    0  501 -0.00000000000E+00  0.00000000000E+00  0.13133476813E+04  0.13133476813E+04  0.00000000000E+00 0. -1.
         21   -1    0    0  501  502  0.00000000000E+00 -0.00000000000E+00 -0.35276401050E+03  0.35276401050E+03  0.00000000000E+00 0. -1.
   -9000010    2    1    2    0  502 -0.40923007987E+02  0.30547352375E+03  0.70074385424E+03  0.12629919730E+04  0.10045486589E+04 0.  0.
         13    1    3    3    0    0 -0.32741103936E+03  0.55416645203E+03  0.29667969460E+03  0.70874346389E+03  0.10566000000E+00 0. -1.
         -4    1    3    3    0  502  0.28648803138E+03 -0.24869292827E+03  0.40406415964E+03  0.55424850906E+03  0.00000000000E+00 0. -1.
        -13    1    1    2    0    0  0.40923007987E+02 -0.30547352375E+03  0.25983981658E+03  0.40311971887E+03  0.10566000000E+00 0.  1.
<mgrwt>
<rscale>  1 0.77328251E+03</rscale>
<asrwt>0</asrwt>
<pdfrwt beam="2">  1       21 0.54271387E-01 0.10507649E+04</pdfrwt>
<pdfrwt beam="1">  1       -4 0.20205349E+00 0.10507649E+04</pdfrwt>
<totfact> 0.15950860E+01</totfact>
</mgrwt>
</event>
<event>
 6    2  0.2321478E-005  0.1005969E+04  0.7818608E-02  0.1001084E+00
         21   -1    0    0  501  502  0.00000000000E+00  0.00000000000E+00  0.12464781277E+04  0.12464781277E+04  0.00000000000E+00 0. -1.
         -4   -1    0    0    0  501 -0.00000000000E+00 -0.00000000000E+00 -0.27665492294E+03  0.27665492294E+03  0.00000000000E+00 0. -1.
   -9000010    2    1    2    0  502 -0.25657530908E+02  0.87363146315E+02  0.10082818462E+04  0.14242912250E+04  0.10018395999E+04 0.  0.
         13    1    3    3    0    0 -0.54912047597E+02  0.34682310946E+03 -0.31191824368E+02  0.35252594698E+03  0.10566000000E+00 0. -1.
         -4    1    3    3    0  502  0.29254516689E+02 -0.25945996314E+03  0.10394736706E+04  0.10717652780E+04  0.00000000000E+00 0. -1.
        -13    1    1    2    0    0  0.25657530908E+02 -0.87363146315E+02 -0.38458641507E+02  0.98841825645E+02  0.10566000000E+00 0.  1.
<mgrwt>
<rscale>  1 0.55177483E+03</rscale>
<asrwt>0</asrwt>
<pdfrwt beam="1">  1       21 0.19176586E+00 0.10059688E+04</pdfrwt>
<pdfrwt beam="2">  1       -4 0.42562297E-01 0.10059688E+04</pdfrwt>
<totfact> 0.28433904E+01</totfact>
</mgrwt>
</event>
<event>
 6    2  0.2321478E-005  0.9955818E+03  0.7818608E-02  0.9988285E-01
         21   -1    0    0  501  502  0.00000000000E+00  0.00000000000E+00  0.24352005323E+03  0.24352005323E+03  0.00000000000E+00 0.  1.
         -4   -1    0    0    0  501 -0.00000000000E+00 -0.00000000000E+00 -0.13163195850E+04  0.13163195850E+04  0.00000000000E+00 0. -1.
   -9000010    2    1    2    0  502  0.97368975565E+02 -0.26281709422E+02 -0.82737509204E+03  0.12945009633E+04  0.99046037544E+03 0.  0.
         13    1    3    3    0    0 -0.34808532247E+03  0.18249083925E+03 -0.82108612157E+02  0.40150732681E+03  0.10566000000E+00 0. -1.
         -4    1    3    3    0  502  0.44545429803E+03 -0.20877254867E+03 -0.74526647988E+03  0.89299363646E+03  0.00000000000E+00 0. -1.
        -13    1    1    2    0    0 -0.97368975565E+02  0.26281709422E+02 -0.24542443969E+03  0.26533867494E+03  0.10566000000E+00 0.  1.
<mgrwt>
<rscale>  1 0.56166921E+03</rscale>
<asrwt>0</asrwt>
<pdfrwt beam="1">  1       21 0.37464624E-01 0.99558184E+03</pdfrwt>
<pdfrwt beam="2">  1       -4 0.20251071E+00 0.99558184E+03</pdfrwt>
<totfact> 0.35087243E+01</totfact>
</mgrwt>
</event>
<event>
 6    2  0.2321478E-005  0.1028381E+04  0.7818608E-02  0.9789101E-01
         21   -1    0    0  501  502  0.00000000000E+00  0.00000000000E+00  0.11526768747E+04  0.11526768747E+04  0.00000000000E+00 0. -1.
         -4   -1    0    0    0  501 -0.00000000000E+00 -0.00000000000E+00 -0.37386710594E+03  0.37386710594E+03  0.00000000000E+00 0. -1.
   -9000010    2    1    2    0  502  0.14861482758E+03  0.90394395070E+02  0.85428743818E+03  0.13369275168E+04  0.10135633401E+04 0.  0.
         13    1    3    3    0    0  0.18232334594E+03 -0.24674889529E+03 -0.10126583463E+03  0.32308141424E+03  0.10566000000E+00 0. -1.
         -4    1    3    3    0  502 -0.33708518362E+02  0.33714329036E+03  0.95555327281E+03  0.10138461025E+04  0.00000000000E+00 0. -1.
        -13    1    1    2    0    0 -0.14861482758E+03 -0.90394395070E+02 -0.75477669402E+02  0.18961646389E+03  0.10566000000E+00 0.  1.
<mgrwt>
<rscale>  1 0.65950761E+03</rscale>
<asrwt>0</asrwt>
<pdfrwt beam="1">  1       21 0.17733490E+00 0.10283813E+04</pdfrwt>
<pdfrwt beam="2">  1       -4 0.57518017E-01 0.10283813E+04</pdfrwt>
<totfact> 0.19066550E+01</totfact>
</mgrwt>
</event>
<event>
 6    2  0.2321478E-005  0.9884072E+03  0.7818608E-02  0.1029615E+00
         -4   -1    0    0    0  501 -0.00000000000E+00  0.00000000000E+00  0.72203444502E+03  0.72203444502E+03  0.00000000000E+00 0. -1.
         21   -1    0    0  501  502  0.00000000000E+00 -0.00000000000E+00 -0.37983789132E+03  0.37983789132E+03  0.00000000000E+00 0. -1.
   -9000010    2    1    2    0  502  0.38076578139E+02  0.12703820413E+02  0.27904192891E+03  0.10270409883E+04  0.98759180873E+03 0.  0.
         13    1    3    3    0    0  0.49673352356E+03  0.13169571508E+03  0.12626313992E+03  0.52917893616E+03  0.10566000000E+00 0. -1.
         -4    1    3    3    0  502 -0.45865694543E+03 -0.11899189467E+03  0.15277878899E+03  0.49786205213E+03  0.00000000000E+00 0. -1.
        -13    1    1    2    0    0 -0.38076578139E+02 -0.12703820413E+02  0.63154624787E+02  0.74831348055E+02  0.10566000000E+00 0.  1.
<mgrwt>
<rscale>  1 0.44370714E+03</rscale>
<asrwt>0</asrwt>
<pdfrwt beam="2">  1       21 0.58436599E-01 0.98840720E+03</pdfrwt>
<pdfrwt beam="1">  1       -4 0.11108222E+00 0.98840720E+03</pdfrwt>
<totfact> 0.69080074E+01</totfact>
</mgrwt>
</event>
<event>
 6    2  0.2321478E-005  0.9924008E+03  0.7818608E-02  0.1002268E+00
         21   -1    0    0  501  502  0.00000000000E+00  0.00000000000E+00  0.70454336810E+03  0.70454336810E+03  0.00000000000E+00 0. -1.
         -4   -1    0    0    0  501 -0.00000000000E+00 -0.00000000000E+00 -0.65443193320E+03  0.65443193320E+03  0.00000000000E+00 0. -1.
   -9000010    2    1    2    0  502 -0.52496591104E+02 -0.74791924348E+02  0.34468423984E+03  0.10505553399E+04  0.98818498924E+03 0.  0.
         13    1    3    3    0    0  0.45708022305E+03 -0.13582424527E+03  0.20212725607E+03  0.51790539167E+03  0.10566000000E+00 0. -1.
         -4    1    3    3    0  502 -0.50957681415E+03  0.61032320927E+02  0.14255698377E+03  0.53264994822E+03  0.00000000000E+00 0. -1.
        -13    1    1    2    0    0  0.52496591104E+02  0.74791924348E+02 -0.29457280494E+03  0.30841996142E+03  0.10566000000E+00 0.  1.
<mgrwt>
<rscale>  1 0.54666895E+03</rscale>
<asrwt>0</asrwt>
<pdfrwt beam="1">  1       21 0.10839129E+00 0.99240077E+03</pdfrwt>
<pdfrwt beam="2">  1       -4 0.10068184E+00 0.99240077E+03</pdfrwt>
<totfact> 0.20455267E+01</totfact>
</mgrwt>
</event>
<event>
 6    2  0.2321478E-005  0.1020584E+04  0.7818608E-02  0.9772198E-01
         21   -1    0    0  501  502  0.00000000000E+00  0.00000000000E+00  0.19519683449E+04  0.19519683449E+04  0.00000000000E+00 0. -1.
         -4   -1    0    0    0  501 -0.00000000000E+00 -0.00000000000E+00 -0.22201793237E+03  0.22201793237E+03  0.00000000000E+00 0. -1.
   -9000010    2    1    2    0  502  0.18741440512E+03 -0.16791672226E+02  0.17008943812E+04  0.19835909422E+04  0.10030878378E+04 0.  0.
         13    1    3    3    0    0  0.39517797638E+03 -0.15100571105E+03  0.20996844015E+03  0.47228711057E+03  0.10566000000E+00 0. -1.
         -4    1    3    3    0  502 -0.20776357125E+03  0.13421403882E+03  0.14909259411E+04  0.15113038317E+04  0.00000000000E+00 0. -1.
        -13    1    1    2    0    0 -0.18741440512E+03  0.16791672226E+02  0.29056031327E+02  0.19039533509E+03  0.10566000000E+00 0.  1.
<mgrwt>
<rscale>  1 0.66876158E+03</rscale>
<asrwt>0</asrwt>
<pdfrwt beam="1">  1       21 0.30030281E+00 0.10205838E+04</pdfrwt>
<pdfrwt beam="2">  1       -4 0.34156606E-01 0.10205838E+04</pdfrwt>
<totfact> 0.88142997E+00</totfact>
</mgrwt>
</event>
<event>
 6    2  0.2321478E-005  0.1061646E+04  0.7818608E-02  0.9498980E-01
         21   -1    0    0  501  502  0.00000000000E+00  0.00000000000E+00  0.54936140806E+03  0.54936140806E+03  0.00000000000E+00 0. -1.
         -4   -1    0    0    0  501 -0.00000000000E+00 -0.00000000000E+00 -0.11849206077E+04  0.11849206077E+04  0.00000000000E+00 0. -1.
   -9000010    2    1    2    0  502  0.11485711256E+03 -0.40735930294E+03 -0.12175722945E+03  0.10686047413E+04  0.97363109658E+03 0.  0.
         13    1    3    3    0    0  0.26698594314E+03 -0.56463495633E+03 -0.37924682635E+03  0.73069986602E+03  0.10566000000E+00 0. -1.
         -4    1    3    3    0  502 -0.15212883058E+03  0.15727565338E+03  0.25748959689E+03  0.33790487530E+03  0.00000000000E+00 0. -1.
        -13    1    1    2    0    0 -0.11485711256E+03  0.40735930294E+03 -0.51380197020E+03  0.66567727447E+03  0.10566000000E+00 0.  1.
<mgrwt>
<rscale>  1 0.84359081E+03</rscale>
<asrwt>0</asrwt>
<pdfrwt beam="1">  1       21 0.84517141E-01 0.10616455E+04</pdfrwt>
<pdfrwt beam="2">  1       -4 0.18229548E+00 0.10616455E+04</pdfrwt>
<totfact> 0.78827570E+00</totfact>
</mgrwt>
</event>
<event>
 6    2  0.2321478E-005  0.1018275E+04  0.7818608E-02  0.9874309E-01
         -4   -1    0    0    0  501 -0.00000000000E+00  0.00000000000E+00  0.41470969380E+03  0.41470969380E+03  0.00000000000E+00 0. -1.
         21   -1    0    0  501  502  0.00000000000E+00 -0.00000000000E+00 -0.81436978590E+03  0.81436978590E+03  0.00000000000E+00 0. -1.
   -9000010    2    1    2    0  502  0.13497950223E+03 -0.13861142293E+02 -0.39824729675E+03  0.10933827427E+04  0.10091943892E+04 0.  0.
         13    1    3    3    0    0 -0.98995664911E+02 -0.48177841462E+03 -0.23682111233E+03  0.54588902982E+03  0.10566000000E+00 0. -1.
         -4    1    3    3    0  502  0.23397516715E+03  0.46791727233E+03 -0.16142618441E+03  0.54749371284E+03  0.00000000000E+00 0. -1.
        -13    1    1    2    0    0 -0.13497950223E+03  0.13861142293E+02 -0.14127953514E+01  0.13569673704E+03  0.10566000000E+00 0.  1.
<mgrwt>
<rscale>  1 0.61522705E+03</rscale>
<asrwt>0</asrwt>
<pdfrwt beam="2">  1       21 0.12528766E+00 0.10182755E+04</pdfrwt>
<pdfrwt beam="1">  1       -4 0.63801492E-01 0.10182755E+04</pdfrwt>
<totfact> 0.40152396E+01</totfact>
</mgrwt>
</event>
<event>
 6    2  0.2321478E-005  0.1082501E+04  0.7818608E-02  0.9530410E-01
         -4   -1    0    0    0  501 -0.00000000000E+00  0.00000000000E+00  0.84791517617E+03  0.84791517617E+03  0.00000000000E+00 0. -1.
         21   -1    0    0  501  502  0.00000000000E+00 -0.00000000000E+00 -0.61313938547E+03  0.61313938547E+03  0.00000000000E+00 0. -1.
   -9000010    2    1    2    0  502  0.23419448599E+03  0.27049681842E+03  0.20763008813E+03  0.11022335946E+04  0.10216619096E+04 0.  0.
         13    1    3    3    0    0  0.12817916013E+03  0.63558456845E+03  0.29471502189E+03  0.71221808180E+03  0.10566000000E+00 0. -1.
         -4    1    3    3    0  502  0.10601532587E+03 -0.36508775003E+03 -0.87084933762E+02  0.39001551281E+03  0.00000000000E+00 0. -1.
        -13    1    1    2    0    0 -0.23419448599E+03 -0.27049681842E+03  0.27145702575E+02  0.35882096703E+03  0.10566000000E+00 0.  1.
<mgrwt>
<rscale>  1 0.82078456E+03</rscale>
<asrwt>0</asrwt>
<pdfrwt beam="2">  1       21 0.94329136E-01 0.10825011E+04</pdfrwt>
<pdfrwt beam="1">  1       -4 0.13044849E+00 0.10825011E+04</pdfrwt>
<totfact> 0.15026755E+01</totfact>
</mgrwt>
</event>
<event>
 6    2  0.2321478E-005  0.1019967E+04  0.7818608E-02  0.1006958E+00
         -4   -1    0    0    0  501 -0.00000000000E+00  0.00000000000E+00  0.50225838575E+03  0.50225838575E+03  0.00000000000E+00 0. -1.
         21   -1    0    0  501  502  0.00000000000E+00 -0.00000000000E+00 -0.72678051251E+03  0.72678051251E+03  0.00000000000E+00 0. -1.
   -9000010    2    1    2    0  502 -0.61983239841E+02  0.37992236364E+02 -0.35474551861E+03  0.10798964328E+04  0.10173723952E+04 0.  0.
         13    1    3    3    0    0 -0.27700072433E+03  0.45954875781E+03 -0.11238842489E+03  0.54822042219E+03  0.10566000000E+00 0. -1.
         -4    1    3    3    0  502  0.21501748449E+03 -0.42155652145E+03 -0.24235709372E+03  0.53167601064E+03  0.00000000000E+00 0. -1.
        -13    1    1    2    0    0  0.61983239841E+02 -0.37992236364E+02  0.13022339186E+03  0.14914246544E+03  0.10566000000E+00 0.  1.
<mgrwt>
<rscale>  1 0.52701578E+03</rscale>
<asrwt>0</asrwt>
<pdfrwt beam="2">  1       21 0.11181239E+00 0.10199666E+04</pdfrwt>
<pdfrwt beam="1">  1       -4 0.77270521E-01 0.10199666E+04</pdfrwt>
<totfact> 0.35069641E+01</totfact>
</mgrwt>
</event>
<event>
 6    2  0.2321478E-005  0.1236240E+04  0.7818608E-02  0.9224477E-01
         -4   -1    0    0    0  501 -0.00000000000E+00  0.00000000000E+00  0.39903441916E+03  0.39903441916E+03  0.00000000000E+00 0. -1.
         21   -1    0    0  501  502  0.00000000000E+00 -0.00000000000E+00 -0.25875861974E+04  0.25875861974E+04  0.00000000000E+00 0.  1.
   -9000010    2    1    2    0  502  0.49921789835E+03  0.52054967897E+03 -0.17496638299E+04  0.21423380094E+04  0.10040409109E+04 0.  0.
         13    1    3    3    0    0  0.19306968632E+03 -0.75273425372E+02 -0.13425623638E+04  0.13584607849E+04  0.10566000000E+00 0. -1.
         -4    1    3    3    0  502  0.30614821203E+03  0.59582310434E+03 -0.40710146608E+03  0.78387722450E+03  0.00000000000E+00 0. -1.
        -13    1    1    2    0    0 -0.49921789835E+03 -0.52054967897E+03 -0.43888794832E+03  0.84428260710E+03  0.10566000000E+00 0.  1.
<mgrwt>
<rscale>  1 0.10804317E+04</rscale>
<asrwt>0</asrwt>
<pdfrwt beam="2">  1       21 0.39809017E+00 0.12362397E+04</pdfrwt>
<pdfrwt beam="1">  1       -4 0.61389912E-01 0.12362397E+04</pdfrwt>
<totfact> 0.59566033E-01</totfact>
</mgrwt>
</event>
<event>
 6    2  0.2321478E-005  0.1016245E+04  0.7818608E-02  0.9820221E-01
         21   -1    0    0  501  502  0.00000000000E+00  0.00000000000E+00  0.99327541398E+03  0.99327541398E+03  0.00000000000E+00 0. -1.
         -4   -1    0    0    0  501 -0.00000000000E+00 -0.00000000000E+00 -0.35113708891E+03  0.35113708891E+03  0.00000000000E+00 0. -1.
   -9000010    2    1    2    0  502 -0.15752753117E+03 -0.40926223150E+02  0.52467285997E+03  0.11436937308E+04  0.10031270413E+04 0.  0.
         13    1    3    3    0    0  0.80573350675E+02 -0.42337480144E+02 -0.28529018471E+03  0.29945788973E+03  0.10566000000E+00 0. -1.
         -4    1    3    3    0  502 -0.23810088185E+03  0.14112569939E+01  0.80996304468E+03  0.84423584106E+03  0.00000000000E+00 0. -1.
        -13    1    1    2    0    0  0.15752753117E+03  0.40926223150E+02  0.11746546510E+03  0.20071877210E+03  0.10566000000E+00 0.  1.
<mgrwt>
<rscale>  1 0.64288585E+03</rscale>
<asrwt>0</asrwt>
<pdfrwt beam="1">  1       21 0.15281160E+00 0.10162449E+04</pdfrwt>
<pdfrwt beam="2">  1       -4 0.54021091E-01 0.10162449E+04</pdfrwt>
<totfact> 0.33617356E+01</totfact>
</mgrwt>
</event>
<event>
 6    2  0.2321478E-005  0.9905317E+03  0.7818608E-02  0.1025455E+00
         21   -1    0    0  501  502  0.00000000000E+00  0.00000000000E+00  0.12998781091E+04  0.12998781091E+04  0.00000000000E+00 0. -1.
         -4   -1    0    0    0  501 -0.00000000000E+00 -0.00000000000E+00 -0.22859279513E+03  0.22859279513E+03  0.00000000000E+00 0. -1.
   -9000010    2    1    2    0  502  0.41965599723E+02  0.16656860873E+02  0.10957658751E+04  0.14771106900E+04  0.98950218548E+03 0.  0.
         13    1    3    3    0    0  0.75064911438E+02  0.33838822349E+03  0.11003472672E+04  0.11536487552E+04  0.10566000000E+00 0. -1.
         -4    1    3    3    0  502 -0.33099311715E+02 -0.32173136262E+03 -0.45813921544E+01  0.32346193483E+03  0.00000000000E+00 0. -1.
        -13    1    1    2    0    0 -0.41965599723E+02 -0.16656860873E+02 -0.24480561055E+02  0.51360214250E+02  0.10566000000E+00 0.  1.
<mgrwt>
<rscale>  1 0.45768545E+03</rscale>
<asrwt>0</asrwt>
<pdfrwt beam="1">  1       21 0.19998124E+00 0.99053174E+03</pdfrwt>
<pdfrwt beam="2">  1       -4 0.35168123E-01 0.99053174E+03</pdfrwt>
<totfact> 0.36781121E+01</totfact>
</mgrwt>
</event>
<event>
 6    2  0.2321478E-005  0.1012571E+04  0.7818608E-02  0.9739603E-01
         21   -1    0    0  501  502  0.00000000000E+00  0.00000000000E+00  0.43138394782E+03  0.43138394782E+03  0.00000000000E+00 0. -1.
         -4   -1    0    0    0  501 -0.00000000000E+00 -0.00000000000E+00 -0.88078271912E+03  0.88078271912E+03  0.00000000000E+00 0. -1.
   -9000010    2    1    2    0  502 -0.12733256201E+03  0.17280096724E+03 -0.32189609539E+03  0.10625054982E+04  0.98955903409E+03 0.  0.
         13    1    3    3    0    0 -0.53439770796E+03  0.10673768564E+03 -0.35243192823E+03  0.64898545362E+03  0.10566000000E+00 0. -1.
         -4    1    3    3    0  502  0.40706514595E+03  0.66063281598E+02  0.30535832842E+02  0.41352004463E+03  0.00000000000E+00 0. -1.
        -13    1    1    2    0    0  0.12733256201E+03 -0.17280096724E+03 -0.12750267591E+03  0.24966116869E+03  0.10566000000E+00 0.  1.
<mgrwt>
<rscale>  1 0.68706995E+03</rscale>
<asrwt>0</asrwt>
<pdfrwt beam="1">  1       21 0.66366762E-01 0.10125714E+04</pdfrwt>
<pdfrwt beam="2">  1       -4 0.13550503E+00 0.10125714E+04</pdfrwt>
<totfact> 0.31346296E+01</totfact>
</mgrwt>
</event>
<event>
 6    2  0.2321478E-005  0.1003272E+04  0.7818608E-02  0.9945710E-01
         -4   -1    0    0    0  501 -0.00000000000E+00  0.00000000000E+00  0.15356375227E+04  0.15356375227E+04  0.00000000000E+00 0. -1.
         21   -1    0    0  501  502  0.00000000000E+00 -0.00000000000E+00 -0.20288803984E+03  0.20288803984E+03  0.00000000000E+00 0. -1.
   -9000010    2    1    2    0  502 -0.10687306684E+03 -0.36104224584E+02  0.11860963703E+04  0.15535052554E+04  0.99690953030E+03 0.  0.
         13    1    3    3    0    0 -0.29684441174E+03 -0.85574977886E+02 -0.40251986085E+02  0.31154440320E+03  0.10566000000E+00 0. -1.
         -4    1    3    3    0  502  0.18997134489E+03  0.49470753302E+02  0.12263483564E+04  0.12419608522E+04  0.00000000000E+00 0. -1.
        -13    1    1    2    0    0  0.10687306684E+03  0.36104224584E+02  0.14665311257E+03  0.18502030710E+03  0.10566000000E+00 0.  1.
<mgrwt>
<rscale>  1 0.58096202E+03</rscale>
<asrwt>0</asrwt>
<pdfrwt beam="2">  1       21 0.31213546E-01 0.10032716E+04</pdfrwt>
<pdfrwt beam="1">  1       -4 0.23625192E+00 0.10032716E+04</pdfrwt>
<totfact> 0.31014718E+01</totfact>
</mgrwt>
</event>
<event>
 6    2  0.2321478E-005  0.1051714E+04  0.7818608E-02  0.9660644E-01
         21   -1    0    0  501  502  0.00000000000E+00  0.00000000000E+00  0.23211931746E+03  0.23211931746E+03  0.00000000000E+00 0. -1.
         -4   -1    0    0    0  501 -0.00000000000E+00 -0.00000000000E+00 -0.21824038670E+04  0.21824038670E+04  0.00000000000E+00 0. -1.
   -9000010    2    1    2    0  502 -0.23275062438E+03 -0.90251328653E+02 -0.10732544396E+04  0.15026569769E+04  0.10216578404E+04 0.  0.
         13    1    3    3    0    0 -0.17908907021E+03  0.21519162717E+03  0.93675880691E+02  0.29522112604E+03  0.10566000000E+00 0. -1.
         -4    1    3    3    0  502 -0.53661554170E+02 -0.30544295582E+03 -0.11669303203E+04  0.12074358509E+04  0.00000000000E+00 0. -1.
        -13    1    1    2    0    0  0.23275062438E+03  0.90251328653E+02 -0.87703010995E+03  0.91186620751E+03  0.10566000000E+00 0.  1.
<mgrwt>
<rscale>  1 0.73409144E+03</rscale>
<asrwt>0</asrwt>
<pdfrwt beam="1">  1       21 0.35710664E-01 0.10517143E+04</pdfrwt>
<pdfrwt beam="2">  1       -4 0.33575445E+00 0.10517143E+04</pdfrwt>
<totfact> 0.56377526E+00</totfact>
</mgrwt>
</event>
<event>
 6    2  0.2321478E-005  0.1025505E+04  0.7818608E-02  0.9665612E-01
         21   -1    0    0  501  502  0.00000000000E+00  0.00000000000E+00  0.15460058109E+04  0.15460058109E+04  0.00000000000E+00 0. -1.
         -4   -1    0    0    0  501 -0.00000000000E+00 -0.00000000000E+00 -0.32468032196E+03  0.32468032196E+03  0.00000000000E+00 0. -1.
   -9000010    2    1    2    0  502 -0.24415208553E+02 -0.26365835343E+03  0.58304306355E+03  0.11796605939E+04  0.99073108013E+03 0.  0.
         13    1    3    3    0    0 -0.44068496650E+03 -0.11285041291E+03  0.57973026089E+03  0.73690273575E+03  0.10566000000E+00 0. -1.
         -4    1    3    3    0  502  0.41626975795E+03 -0.15080794052E+03  0.33128026570E+01  0.44275785817E+03  0.00000000000E+00 0. -1.
        -13    1    1    2    0    0  0.24415208553E+02  0.26365835343E+03  0.63828242541E+03  0.69102553896E+03  0.10566000000E+00 0.  1.
<mgrwt>
<rscale>  1 0.73101657E+03</rscale>
<asrwt>0</asrwt>
<pdfrwt beam="1">  1       21 0.23784705E+00 0.10255047E+04</pdfrwt>
<pdfrwt beam="2">  1       -4 0.49950819E-01 0.10255047E+04</pdfrwt>
<totfact> 0.99856236E+00</totfact>
</mgrwt>
</event>
<event>
 6    2  0.2321478E-005  0.1057810E+04  0.7818608E-02  0.9583640E-01
         -4   -1    0    0    0  501 -0.00000000000E+00  0.00000000000E+00  0.86306757527E+03  0.86306757527E+03  0.00000000000E+00 0. -1.
         21   -1    0    0  501  502  0.00000000000E+00 -0.00000000000E+00 -0.54939149470E+03  0.54939149470E+03  0.00000000000E+00 0. -1.
   -9000010    2    1    2    0  502 -0.40444044534E+02 -0.31642263467E+03  0.22693198162E+03  0.10818784378E+04  0.10085652312E+04 0.  0.
         13    1    3    3    0    0  0.25783677299E+03 -0.11196794078E+03 -0.32017319052E+03  0.42606044684E+03  0.10566000000E+00 0. -1.
         -4    1    3    3    0  502 -0.29828081753E+03 -0.20445469389E+03  0.54710517213E+03  0.65581799101E+03  0.00000000000E+00 0. -1.
        -13    1    1    2    0    0  0.40444044534E+02  0.31642263467E+03  0.86744098956E+02  0.33058063213E+03  0.10566000000E+00 0.  1.
<mgrwt>
<rscale>  1 0.78388524E+03</rscale>
<asrwt>0</asrwt>
<pdfrwt beam="2">  1       21 0.84521769E-01 0.10578104E+04</pdfrwt>
<pdfrwt beam="1">  1       -4 0.13277963E+00 0.10578104E+04</pdfrwt>
<totfact> 0.18756135E+01</totfact>
</mgrwt>
</event>
<event>
 6    2  0.2321478E-005  0.1039426E+04  0.7818608E-02  0.9996874E-01
         21   -1    0    0  501  502  0.00000000000E+00  0.00000000000E+00  0.11615106469E+04  0.11615106469E+04  0.00000000000E+00 0. -1.
         -4   -1    0    0    0  501 -0.00000000000E+00 -0.00000000000E+00 -0.27313737313E+03  0.27313737313E+03  0.00000000000E+00 0. -1.
   -9000010    2    1    2    0  502 -0.58986943328E+02  0.62927402042E+02  0.83437870491E+03  0.13328897671E+04  0.10358416822E+04 0.  0.
         13    1    3    3    0    0 -0.25348319212E+02 -0.41877917898E+03  0.72521013876E+03  0.83782354620E+03  0.10566000000E+00 0. -1.
         -4    1    3    3    0  502 -0.33638624116E+02  0.48170658102E+03  0.10916856615E+03  0.49506622089E+03  0.00000000000E+00 0. -1.
        -13    1    1    2    0    0  0.58986943328E+02 -0.62927402042E+02  0.53994568850E+02  0.10175825293E+03  0.10566000000E+00 0.  1.
<mgrwt>
<rscale>  1 0.55787517E+03</rscale>
<asrwt>0</asrwt>
<pdfrwt beam="1">  1       21 0.17869394E+00 0.10394264E+04</pdfrwt>
<pdfrwt beam="2">  1       -4 0.42021135E-01 0.10394264E+04</pdfrwt>
<totfact> 0.36065312E+01</totfact>
</mgrwt>
</event>
<event>
 6    2  0.2321478E-005  0.1063678E+04  0.7818608E-02  0.9568789E-01
         -4   -1    0    0    0  501 -0.00000000000E+00  0.00000000000E+00  0.40952380950E+03  0.40952380950E+03  0.00000000000E+00 0. -1.
         21   -1    0    0  501  502  0.00000000000E+00 -0.00000000000E+00 -0.11993955583E+04  0.11993955583E+04  0.00000000000E+00 0. -1.
   -9000010    2    1    2    0  502 -0.99986381875E+02  0.31470239986E+03 -0.67268534551E+03  0.12585373744E+04  0.10111260414E+04 0.  0.
         13    1    3    3    0    0 -0.87002760862E+02  0.68034570645E+03 -0.34681581184E+03  0.76858374897E+03  0.10566000000E+00 0. -1.
         -4    1    3    3    0  502 -0.12983621012E+02 -0.36564330659E+03 -0.32586953367E+03  0.48995362540E+03  0.00000000000E+00 0. -1.
        -13    1    1    2    0    0  0.99986381875E+02 -0.31470239986E+03 -0.11718640329E+03  0.35038199343E+03  0.10566000000E+00 0.  1.
<mgrwt>
<rscale>  1 0.79396855E+03</rscale>
<asrwt>0</asrwt>
<pdfrwt beam="2">  1       21 0.18452239E+00 0.10636779E+04</pdfrwt>
<pdfrwt beam="1">  1       -4 0.63003663E-01 0.10636779E+04</pdfrwt>
<totfact> 0.13808032E+01</totfact>
</mgrwt>
</event>
<event>
 6    2  0.2321478E-005  0.9663867E+03  0.7818608E-02  0.9793956E-01
         -4   -1    0    0    0  501 -0.00000000000E+00  0.00000000000E+00  0.12685100638E+04  0.12685100638E+04  0.00000000000E+00 0. -1.
         21   -1    0    0  501  502  0.00000000000E+00 -0.00000000000E+00 -0.27510605839E+03  0.27510605839E+03  0.00000000000E+00 0. -1.
   -9000010    2    1    2    0  502  0.14955008566E+03  0.14210036330E+03  0.88585183081E+03  0.13109678409E+04  0.94411094279E+03 0.  0.
         13    1    3    3    0    0  0.24209519972E+03  0.47528139067E+03  0.25421325398E+03  0.59086959281E+03  0.10566000000E+00 0. -1.
         -4    1    3    3    0  502 -0.92545114064E+02 -0.33318102736E+03  0.63163857683E+03  0.72009824807E+03  0.00000000000E+00 0. -1.
        -13    1    1    2    0    0 -0.14955008566E+03 -0.14210036330E+03  0.10755217460E+03  0.23264828131E+03  0.10566000000E+00 0.  1.
<mgrwt>
<rscale>  1 0.65687932E+03</rscale>
<asrwt>0</asrwt>
<pdfrwt beam="2">  1       21 0.42324010E-01 0.96638668E+03</pdfrwt>
<pdfrwt beam="1">  1       -4 0.19515539E+00 0.96638668E+03</pdfrwt>
<totfact> 0.30506805E+01</totfact>
</mgrwt>
</event>
<event>
 6    2  0.2321478E-005  0.1031253E+04  0.7818608E-02  0.9650584E-01
         21   -1    0    0  501  502  0.00000000000E+00  0.00000000000E+00  0.58177598968E+03  0.58177598968E+03  0.00000000000E+00 0. -1.
         -4   -1    0    0    0  501 -0.00000000000E+00 -0.00000000000E+00 -0.74182411172E+03  0.74182411172E+03  0.00000000000E+00 0. -1.
   -9000010    2    1    2    0  502 -0.26895284315E+03 -0.52159913355E+02 -0.63814867936E+02  0.10332259656E+04  0.99419679650E+03 0.  0.
         13    1    3    3    0    0 -0.23504393312E+03 -0.37525229441E+03  0.30808052172E+03  0.53941964553E+03  0.10566000000E+00 0. -1.
         -4    1    3    3    0  502 -0.33908910027E+02  0.32309238105E+03 -0.37189538966E+03  0.49380632005E+03  0.00000000000E+00 0. -1.
        -13    1    1    2    0    0  0.26895284315E+03  0.52159913355E+02 -0.96233254108E+02  0.29037413583E+03  0.10566000000E+00 0.  1.
<mgrwt>
<rscale>  1 0.74036765E+03</rscale>
<asrwt>0</asrwt>
<pdfrwt beam="1">  1       21 0.89503998E-01 0.10312534E+04</pdfrwt>
<pdfrwt beam="2">  1       -4 0.11412679E+00 0.10312534E+04</pdfrwt>
<totfact> 0.24053904E+01</totfact>
</mgrwt>
</event>
<event>
 6    2  0.2321478E-005  0.1010949E+04  0.7818608E-02  0.1026204E+00
         -4   -1    0    0    0  501 -0.00000000000E+00  0.00000000000E+00  0.35473170130E+03  0.35473170130E+03  0.00000000000E+00 0. -1.
         21   -1    0    0  501  502  0.00000000000E+00 -0.00000000000E+00 -0.10756034678E+04  0.10756034678E+04  0.00000000000E+00 0. -1.
   -9000010    2    1    2    0  502 -0.40183322006E+02  0.10482112759E+02 -0.83353221344E+03  0.13102645168E+04  0.10100953317E+04 0.  0.
         13    1    3    3    0    0 -0.14744155842E+03 -0.40562100930E+03 -0.74400317101E+02  0.43795300510E+03  0.10566000000E+00 0. -1.
         -4    1    3    3    0  502  0.10725823641E+03  0.41610312206E+03 -0.75913189634E+03  0.87231151173E+03  0.00000000000E+00 0. -1.
        -13    1    1    2    0    0  0.40183322006E+02 -0.10482112759E+02  0.11266044696E+03  0.12007065224E+03  0.10566000000E+00 0.  1.
<mgrwt>
<rscale>  1 0.45512679E+03</rscale>
<asrwt>0</asrwt>
<pdfrwt beam="2">  1       21 0.16547746E+00 0.10109486E+04</pdfrwt>
<pdfrwt beam="1">  1       -4 0.54574108E-01 0.10109486E+04</pdfrwt>
<totfact> 0.26219968E+01</totfact>
</mgrwt>
</event>
<event>
 6    2  0.2321478E-005  0.9935819E+03  0.7818608E-02  0.9966981E-01
         21   -1    0    0  501  502  0.00000000000E+00  0.00000000000E+00  0.87960688352E+03  0.87960688352E+03  0.00000000000E+00 0. -1.
         -4   -1    0    0    0  501 -0.00000000000E+00 -0.00000000000E+00 -0.65461029589E+03  0.65461029589E+03  0.00000000000E+00 0. -1.
   -9000010    2    1    2    0  502 -0.28138942623E+02  0.10483274700E+03  0.58854439242E+03  0.11548114303E+04  0.98763517188E+03 0.  0.
         13    1    3    3    0    0  0.11265103800E+03 -0.42712595403E+03  0.29448847882E+03  0.53089576405E+03  0.10566000000E+00 0. -1.
         -4    1    3    3    0  502 -0.14078998063E+03  0.53195870103E+03  0.29405591361E+03  0.62391566624E+03  0.00000000000E+00 0. -1.
        -13    1    1    2    0    0  0.28138942623E+02 -0.10483274700E+03 -0.36354780479E+03  0.37940574912E+03  0.10566000000E+00 0.  1.
<mgrwt>
<rscale>  1 0.57122054E+03</rscale>
<asrwt>0</asrwt>
<pdfrwt beam="1">  1       21 0.13532414E+00 0.99358187E+03</pdfrwt>
<pdfrwt beam="2">  1       -4 0.10070928E+00 0.99358187E+03</pdfrwt>
<totfact> 0.11474097E+01</totfact>
</mgrwt>
</event>
<event>
 6    2  0.2321478E-005  0.1022284E+04  0.7818608E-02  0.9968545E-01
         21   -1    0    0  501  502  0.00000000000E+00  0.00000000000E+00  0.46432901783E+03  0.46432901783E+03  0.00000000000E+00 0. -1.
         -4   -1    0    0    0  501 -0.00000000000E+00 -0.00000000000E+00 -0.84878477237E+03  0.84878477237E+03  0.00000000000E+00 0. -1.
   -9000010    2    1    2    0  502  0.96002675820E+02 -0.24831238653E+02 -0.11832553393E+03  0.10291095479E+04  0.10174637219E+04 0.  0.
         13    1    3    3    0    0 -0.61009655355E+02 -0.19084300663E+03  0.40843084664E+03  0.45492746551E+03  0.10566000000E+00 0. -1.
         -4    1    3    3    0  502  0.15701233118E+03  0.16601176797E+03 -0.52675638057E+03  0.57418208237E+03  0.00000000000E+00 0. -1.
        -13    1    1    2    0    0 -0.96002675820E+02  0.24831238653E+02 -0.26613022060E+03  0.28400424232E+03  0.10566000000E+00 0.  1.
<mgrwt>
<rscale>  1 0.57051256E+03</rscale>
<asrwt>0</asrwt>
<pdfrwt beam="1">  1       21 0.71435233E-01 0.10222845E+04</pdfrwt>
<pdfrwt beam="2">  1       -4 0.13058227E+00 0.10222845E+04</pdfrwt>
<totfact> 0.29124459E+01</totfact>
</mgrwt>
</event>
<event>
 6    2  0.2321478E-005  0.1009480E+04  0.7818608E-02  0.9875767E-01
         21   -1    0    0  501  502  0.00000000000E+00  0.00000000000E+00  0.15313890548E+04  0.15313890548E+04  0.00000000000E+00 0. -1.
         -4   -1    0    0    0  501 -0.00000000000E+00 -0.00000000000E+00 -0.33277886204E+03  0.33277886204E+03  0.00000000000E+00 0. -1.
   -9000010    2    1    2    0  502 -0.90395491167E+02 -0.10508068274E+03  0.13323281034E+04  0.16715704468E+04  0.99991814117E+03 0.  0.
         13    1    3    3    0    0  0.23445553134E+03  0.36664245654E+03  0.62103284332E+03  0.75833890232E+03  0.10566000000E+00 0. -1.
         -4    1    3    3    0  502 -0.32485102251E+03 -0.47172313928E+03  0.71129526003E+03  0.91323154452E+03  0.00000000000E+00 0. -1.
        -13    1    1    2    0    0  0.90395491167E+02  0.10508068274E+03 -0.13371791054E+03  0.19259747006E+03  0.10566000000E+00 0.  1.
<mgrwt>
<rscale>  1 0.61450229E+03</rscale>
<asrwt>0</asrwt>
<pdfrwt beam="1">  1       21 0.23559831E+00 0.10094799E+04</pdfrwt>
<pdfrwt beam="2">  1       -4 0.51196749E-01 0.10094799E+04</pdfrwt>
<totfact> 0.98235567E+00</totfact>
</mgrwt>
</event>
<event>
 6    2  0.2321478E-005  0.1057380E+04  0.7818608E-02  0.9549290E-01
         -4   -1    0    0    0  501 -0.00000000000E+00  0.00000000000E+00  0.10600596095E+04  0.10600596095E+04  0.00000000000E+00 0. -1.
         21   -1    0    0  501  502  0.00000000000E+00 -0.00000000000E+00 -0.54695495217E+03  0.54695495217E+03  0.00000000000E+00 0. -1.
   -9000010    2    1    2    0  502 -0.32343158339E+03 -0.15709518217E+03  0.10419398026E+03  0.10625011657E+04  0.99436686200E+03 0.  0.
         13    1    3    3    0    0 -0.52207024624E+02  0.14699580937E+03 -0.39114351899E+03  0.42110165638E+03  0.10566000000E+00 0. -1.
         -4    1    3    3    0  502 -0.27122455877E+03 -0.30409099154E+03  0.49533749926E+03  0.64139950934E+03  0.00000000000E+00 0. -1.
        -13    1    1    2    0    0  0.32343158339E+03  0.15709518217E+03  0.40891067711E+03  0.54451339599E+03  0.10566000000E+00 0.  1.
<mgrwt>
<rscale>  1 0.80745367E+03</rscale>
<asrwt>0</asrwt>
<pdfrwt beam="2">  1       21 0.84146916E-01 0.10573799E+04</pdfrwt>
<pdfrwt beam="1">  1       -4 0.16308609E+00 0.10573799E+04</pdfrwt>
<totfact> 0.10934912E+01</totfact>
</mgrwt>
</event>
<event>
 6    2  0.2321478E-005  0.1020673E+04  0.7818608E-02  0.9650904E-01
         -4   -1    0    0    0  501 -0.00000000000E+00  0.00000000000E+00  0.28477961570E+03  0.28477961570E+03  0.00000000000E+00 0. -1.
         21   -1    0    0  501  502  0.00000000000E+00 -0.00000000000E+00 -0.16223785860E+04  0.16223785860E+04  0.00000000000E+00 0. -1.
   -9000010    2    1    2    0  502  0.17767592691E+03 -0.21933048902E+03 -0.12453990137E+04  0.16102147027E+04  0.98086598836E+03 0.  0.
         13    1    3    3    0    0  0.24465880158E+03 -0.59151833300E+03 -0.72895541889E+03  0.97011745750E+03  0.10566000000E+00 0. -1.
         -4    1    3    3    0  502 -0.66982874669E+02  0.37218784399E+03 -0.51644359484E+03  0.64009724524E+03  0.00000000000E+00 0. -1.
        -13    1    1    2    0    0 -0.17767592691E+03  0.21933048902E+03 -0.92199956585E+02  0.29694349896E+03  0.10566000000E+00 0.  1.
<mgrwt>
<rscale>  1 0.74016723E+03</rscale>
<asrwt>0</asrwt>
<pdfrwt beam="2">  1       21 0.24959671E+00 0.10206727E+04</pdfrwt>
<pdfrwt beam="1">  1       -4 0.43812248E-01 0.10206727E+04</pdfrwt>
<totfact> 0.11053030E+01</totfact>
</mgrwt>
</event>
<event>
 6    2  0.2321478E-005  0.9817308E+03  0.7818608E-02  0.1045298E+00
         21   -1    0    0  501  502  0.00000000000E+00  0.00000000000E+00  0.56298664135E+03  0.56298664135E+03  0.00000000000E+00 0. -1.
         -4   -1    0    0    0  501 -0.00000000000E+00 -0.00000000000E+00 -0.49479951315E+03  0.49479951315E+03  0.00000000000E+00 0. -1.
   -9000010    2    1    2    0  502  0.24334142179E+02 -0.88591199128E+01  0.13044294472E+03  0.99035891716E+03  0.98138921356E+03 0.  0.
         13    1    3    3    0    0 -0.40842269871E+02 -0.35887139084E+03 -0.27265407109E+03  0.45254504728E+03  0.10566000000E+00 0. -1.
         -4    1    3    3    0  502  0.65176412050E+02  0.35001227092E+03  0.40309701581E+03  0.53781386988E+03  0.00000000000E+00 0. -1.
        -13    1    1    2    0    0 -0.24334142179E+02  0.88591199128E+01 -0.62255816523E+02  0.67427237347E+02  0.10566000000E+00 0.  1.
<mgrwt>
<rscale>  1 0.39564525E+03</rscale>
<asrwt>0</asrwt>
<pdfrwt beam="1">  1       21 0.86613329E-01 0.98173083E+03</pdfrwt>
<pdfrwt beam="2">  1       -4 0.76123002E-01 0.98173083E+03</pdfrwt>
<totfact> 0.68382264E+01</totfact>
</mgrwt>
</event>
<event>
 6    2  0.2321478E-005  0.1070988E+04  0.7818608E-02  0.9485124E-01
         21   -1    0    0  501  502  0.00000000000E+00  0.00000000000E+00  0.72080804337E+03  0.72080804337E+03  0.00000000000E+00 0. -1.
         -4   -1    0    0    0  501 -0.00000000000E+00 -0.00000000000E+00 -0.78943924943E+03  0.78943924943E+03  0.00000000000E+00 0. -1.
   -9000010    2    1    2    0  502  0.49547487229E+02 -0.42993075003E+03  0.64442048206E+01  0.10710073449E+04  0.97965289865E+03 0.  0.
         13    1    3    3    0    0  0.41166712996E+03 -0.51964031886E+03 -0.12660529501E+03  0.67492577279E+03  0.10566000000E+00 0. -1.
         -4    1    3    3    0  502 -0.36211964274E+03  0.89709568833E+02  0.13304949983E+03  0.39608157215E+03  0.00000000000E+00 0. -1.
        -13    1    1    2    0    0 -0.49547487229E+02  0.42993075003E+03 -0.75075410889E+02  0.43923994786E+03  0.10566000000E+00 0.  1.
<mgrwt>
<rscale>  1 0.85389473E+03</rscale>
<asrwt>0</asrwt>
<pdfrwt beam="1">  1       21 0.11089355E+00 0.10709880E+04</pdfrwt>
<pdfrwt beam="2">  1       -4 0.12145219E+00 0.10709880E+04</pdfrwt>
<totfact> 0.12054967E+01</totfact>
</mgrwt>
</event>
<event>
 6    2  0.2321478E-005  0.1471674E+04  0.7818608E-02  0.8979740E-01
         -4   -1    0    0    0  501 -0.00000000000E+00  0.00000000000E+00  0.12086837179E+04  0.12086837179E+04  0.00000000000E+00 0. -1.
         21   -1    0    0  501  502  0.00000000000E+00 -0.00000000000E+00 -0.13749169650E+04  0.13749169650E+04  0.00000000000E+00 0.  1.
   -9000010    2    1    2    0  502 -0.10468568227E+04  0.29768631029E+03 -0.24696153220E+03  0.14922513283E+04  0.99060470508E+03 0.  0.
         13    1    3    3    0    0 -0.63017772213E+03 -0.99407022842E+02  0.29390574877E+03  0.70241463394E+03  0.10566000000E+00 0. -1.
         -4    1    3    3    0  502 -0.41667910061E+03  0.39709333313E+03 -0.54086728097E+03  0.78983669434E+03  0.00000000000E+00 0. -1.
        -13    1    1    2    0    0  0.10468568227E+04 -0.29768631029E+03  0.80728285166E+02  0.10913493546E+04  0.10566000000E+00 0.  1.
<mgrwt>
<rscale>  1 0.13647458E+04</rscale>
<asrwt>0</asrwt>
<pdfrwt beam="2">  1       21 0.21152569E+00 0.14716739E+04</pdfrwt>
<pdfrwt beam="1">  1       -4 0.18595134E+00 0.14716739E+04</pdfrwt>
<totfact> 0.57008660E-01</totfact>
</mgrwt>
</event>
<event>
 6    2  0.2321478E-005  0.1226237E+04  0.7818608E-02  0.9228683E-01
         -4   -1    0    0    0  501 -0.00000000000E+00  0.00000000000E+00  0.10897701170E+04  0.10897701170E+04  0.00000000000E+00 0. -1.
         21   -1    0    0  501  502  0.00000000000E+00 -0.00000000000E+00 -0.11276411402E+04  0.11276411402E+04  0.00000000000E+00 0.  1.
   -9000010    2    1    2    0  502 -0.68204763753E+03 -0.25335534914E+03 -0.53328163790E+03  0.13371785600E+04  0.98705586631E+03 0.  0.
         13    1    3    3    0    0  0.21458853580E+03 -0.23839015085E+03 -0.71976406383E+02  0.32872285889E+03  0.10566000000E+00 0. -1.
         -4    1    3    3    0  502 -0.89663617333E+03 -0.14965198296E+02 -0.46130523152E+03  0.10084557011E+04  0.00000000000E+00 0. -1.
        -13    1    1    2    0    0  0.68204763753E+03  0.25335534914E+03  0.49541061473E+03  0.88023269716E+03  0.10566000000E+00 0.  1.
<mgrwt>
<rscale>  1 0.10762212E+04</rscale>
<asrwt>0</asrwt>
<pdfrwt beam="2">  1       21 0.17348325E+00 0.12262370E+04</pdfrwt>
<pdfrwt beam="1">  1       -4 0.16765694E+00 0.12262370E+04</pdfrwt>
<totfact> 0.14776356E+00</totfact>
</mgrwt>
</event>
<event>
 6    2  0.2321478E-005  0.9968163E+03  0.7818608E-02  0.9813243E-01
         -4   -1    0    0    0  501 -0.00000000000E+00  0.00000000000E+00  0.61666659063E+03  0.61666659063E+03  0.00000000000E+00 0. -1.
         21   -1    0    0  501  502  0.00000000000E+00 -0.00000000000E+00 -0.60909077941E+03  0.60909077941E+03  0.00000000000E+00 0. -1.
   -9000010    2    1    2    0  502  0.77621697059E+02 -0.15845354938E+03 -0.12559621496E+03  0.10046975255E+04  0.98107596713E+03 0.  0.
         13    1    3    3    0    0 -0.41372547499E+02  0.25457577217E+03 -0.41351012434E+03  0.48735115221E+03  0.10566000000E+00 0. -1.
         -4    1    3    3    0  502  0.11899424456E+03 -0.41302932155E+03  0.28791390938E+03  0.51734637325E+03  0.00000000000E+00 0. -1.
        -13    1    1    2    0    0 -0.77621697059E+02  0.15845354938E+03  0.13317202618E+03  0.22105984458E+03  0.10566000000E+00 0.  1.
<mgrwt>
<rscale>  1 0.64656677E+03</rscale>
<asrwt>0</asrwt>
<pdfrwt beam="2">  1       21 0.93706274E-01 0.99681629E+03</pdfrwt>
<pdfrwt beam="1">  1       -4 0.94871783E-01 0.99681629E+03</pdfrwt>
<totfact> 0.33846200E+01</totfact>
</mgrwt>
</event>
<event>
 6    2  0.2321478E-005  0.9667263E+03  0.7818608E-02  0.1001406E+00
         21   -1    0    0  501  502  0.00000000000E+00  0.00000000000E+00  0.88210532758E+03  0.88210532758E+03  0.00000000000E+00 0. -1.
         -4   -1    0    0    0  501 -0.00000000000E+00 -0.00000000000E+00 -0.32351517814E+03  0.32351517814E+03  0.00000000000E+00 0. -1.
   -9000010    2    1    2    0  502 -0.52968462183E+02 -0.86657538119E+02  0.50015583147E+03  0.10884464148E+04  0.96137638585E+03 0.  0.
         13    1    3    3    0    0  0.21130170980E+03  0.22012941342E+02  0.70535815529E+03  0.73665671825E+03  0.10566000000E+00 0. -1.
         -4    1    3    3    0  502 -0.26427017198E+03 -0.10867047946E+03 -0.20520232382E+03  0.35178969656E+03  0.00000000000E+00 0. -1.
        -13    1    1    2    0    0  0.52968462183E+02  0.86657538119E+02  0.58434317968E+02  0.11717409090E+03  0.10566000000E+00 0.  1.
<mgrwt>
<rscale>  1 0.55037969E+03</rscale>
<asrwt>0</asrwt>
<pdfrwt beam="1">  1       21 0.13570851E+00 0.96672630E+03</pdfrwt>
<pdfrwt beam="2">  1       -4 0.49771566E-01 0.96672630E+03</pdfrwt>
<totfact> 0.55709346E+01</totfact>
</mgrwt>
</event>
<event>
 6    2  0.2321478E-005  0.1169128E+04  0.7818608E-02  0.9251878E-01
         21   -1    0    0  501  502  0.00000000000E+00  0.00000000000E+00  0.96880076723E+03  0.96880076723E+03  0.00000000000E+00 0.  1.
         -4   -1    0    0    0  501 -0.00000000000E+00 -0.00000000000E+00 -0.11219231229E+04  0.11219231229E+04  0.00000000000E+00 0. -1.
   -9000010    2    1    2    0  502  0.52495726637E+03 -0.56388731227E+03 -0.46682646489E+03  0.12588829728E+04  0.87938066750E+03 0.  0.
         13    1    3    3    0    0  0.10925424681E+03 -0.59430791430E+03 -0.56870595111E+03  0.82979808233E+03  0.10566000000E+00 0. -1.
         -4    1    3    3    0  502  0.41570301956E+03  0.30420602032E+02  0.10187948622E+03  0.42908489045E+03  0.00000000000E+00 0. -1.
        -13    1    1    2    0    0 -0.52495726637E+03  0.56388731227E+03  0.31370410923E+03  0.83184091734E+03  0.10566000000E+00 0.  1.
<mgrwt>
<rscale>  1 0.10533642E+04</rscale>
<asrwt>0</asrwt>
<pdfrwt beam="1">  1       21 0.14904627E+00 0.11691276E+04</pdfrwt>
<pdfrwt beam="2">  1       -4 0.17260356E+00 0.11691276E+04</pdfrwt>
<totfact> 0.21234250E+00</totfact>
</mgrwt>
</event>
<event>
 6    2  0.2321478E-005  0.1015802E+04  0.7818608E-02  0.9764528E-01
         -4   -1    0    0    0  501 -0.00000000000E+00  0.00000000000E+00  0.16166221471E+04  0.16166221471E+04  0.00000000000E+00 0. -1.
         21   -1    0    0  501  502  0.00000000000E+00 -0.00000000000E+00 -0.33334086401E+03  0.33334086401E+03  0.00000000000E+00 0. -1.
   -9000010    2    1    2    0  502  0.49979366274E+02 -0.18924678428E+03  0.48059314059E+03  0.11237544735E+04  0.99676580371E+03 0.  0.
         13    1    3    3    0    0 -0.18734779574E+03  0.34707840340E+03  0.53039573307E+02  0.39796459915E+03  0.10566000000E+00 0. -1.
         -4    1    3    3    0  502  0.23732716201E+03 -0.53632518768E+03  0.42755356728E+03  0.72578987432E+03  0.00000000000E+00 0. -1.
        -13    1    1    2    0    0 -0.49979366274E+02  0.18924678428E+03  0.80268814252E+03  0.82620853767E+03  0.10566000000E+00 0.  1.
<mgrwt>
<rscale>  1 0.67301411E+03</rscale>
<asrwt>0</asrwt>
<pdfrwt beam="2">  1       21 0.51283211E-01 0.10158023E+04</pdfrwt>
<pdfrwt beam="1">  1       -4 0.24871110E+00 0.10158023E+04</pdfrwt>
<totfact> 0.91525029E+00</totfact>
</mgrwt>
</event>
<event>
 6    2  0.2321478E-005  0.1047411E+04  0.7818608E-02  0.9531879E-01
         -4   -1    0    0    0  501 -0.00000000000E+00  0.00000000000E+00  0.32698623988E+03  0.32698623988E+03  0.00000000000E+00 0. -1.
         21   -1    0    0  501  502  0.00000000000E+00 -0.00000000000E+00 -0.16882472683E+04  0.16882472683E+04  0.00000000000E+00 0. -1.
   -9000010    2    1    2    0  502  0.30331600466E+03 -0.24983441991E+03 -0.11935959738E+04  0.15879988914E+04  0.97090230938E+03 0.  0.
         13    1    3    3    0    0 -0.18938703432E+03 -0.33270503930E+03 -0.11568879923E+03  0.39992999559E+03  0.10566000000E+00 0. -1.
         -4    1    3    3    0  502  0.49270303898E+03  0.82870619395E+02 -0.10779071746E+04  0.11880688958E+04  0.00000000000E+00 0. -1.
        -13    1    1    2    0    0 -0.30331600466E+03  0.24983441991E+03 -0.16766505457E+03  0.42723461674E+03  0.10566000000E+00 0.  1.
<mgrwt>
<rscale>  1 0.81973775E+03</rscale>
<asrwt>0</asrwt>
<pdfrwt beam="2">  1       21 0.25973035E+00 0.10474107E+04</pdfrwt>
<pdfrwt beam="1">  1       -4 0.50305575E-01 0.10474107E+04</pdfrwt>
<totfact> 0.71117125E+00</totfact>
</mgrwt>
</event>
<event>
 6    2  0.2321478E-005  0.1037106E+04  0.7818608E-02  0.9653643E-01
         21   -1    0    0  501  502  0.00000000000E+00  0.00000000000E+00  0.71298465410E+03  0.71298465410E+03  0.00000000000E+00 0. -1.
         -4   -1    0    0    0  501 -0.00000000000E+00 -0.00000000000E+00 -0.99067225893E+03  0.99067225893E+03  0.00000000000E+00 0. -1.
   -9000010    2    1    2    0  502  0.21060805756E+03  0.16342310003E+03  0.28966526418E+03  0.10767979555E+04  0.10022599504E+04 0.  0.
         13    1    3    3    0    0 -0.23625878851E+03  0.81155155590E+02  0.51293345674E+03  0.57053055714E+03  0.10566000000E+00 0. -1.
         -4    1    3    3    0  502  0.44686684607E+03  0.82267944443E+02 -0.22326819256E+03  0.50626739833E+03  0.00000000000E+00 0. -1.
        -13    1    1    2    0    0 -0.21060805756E+03 -0.16342310003E+03 -0.56735286901E+03  0.62685895756E+03  0.10566000000E+00 0.  1.
<mgrwt>
<rscale>  1 0.73845249E+03</rscale>
<asrwt>0</asrwt>
<pdfrwt beam="1">  1       21 0.10968995E+00 0.10371055E+04</pdfrwt>
<pdfrwt beam="2">  1       -4 0.15241112E+00 0.10371055E+04</pdfrwt>
<totfact> 0.68774452E+00</totfact>
</mgrwt>
</event>
<event>
 6    2  0.2321478E-005  0.9881551E+03  0.7818608E-02  0.1000207E+00
         21   -1    0    0  501  502  0.00000000000E+00  0.00000000000E+00  0.19360639345E+03  0.19360639345E+03  0.00000000000E+00 0. -1.
         -4   -1    0    0    0  501 -0.00000000000E+00 -0.00000000000E+00 -0.16720948559E+04  0.16720948559E+04  0.00000000000E+00 0. -1.
   -9000010    2    1    2    0  502 -0.58988960461E+02 -0.79202873692E+02 -0.14634233523E+04  0.17658024938E+04  0.98320788564E+03 0.  0.
         13    1    3    3    0    0  0.14269368757E+03  0.38668191054E+03 -0.98696435338E+03  0.10695714256E+04  0.10566000000E+00 0. -1.
         -4    1    3    3    0  502 -0.20168264803E+03 -0.46588478423E+03 -0.47645899891E+03  0.69623106821E+03  0.00000000000E+00 0. -1.
        -13    1    1    2    0    0  0.58988960461E+02  0.79202873692E+02 -0.15065110168E+02  0.99898755576E+02  0.10566000000E+00 0.  1.
<mgrwt>
<rscale>  1 0.55559725E+03</rscale>
<asrwt>0</asrwt>
<pdfrwt beam="1">  1       21 0.29785599E-01 0.98815512E+03</pdfrwt>
<pdfrwt beam="2">  1       -4 0.25724536E+00 0.98815512E+03</pdfrwt>
<totfact> 0.25299134E+01</totfact>
</mgrwt>
</event>
<event>
 6    2  0.2321478E-005  0.1081746E+04  0.7818608E-02  0.9491183E-01
         21   -1    0    0  501  502  0.00000000000E+00  0.00000000000E+00  0.19344886961E+04  0.19344886961E+04  0.00000000000E+00 0. -1.
         -4   -1    0    0    0  501 -0.00000000000E+00 -0.00000000000E+00 -0.29385546416E+03  0.29385546416E+03  0.00000000000E+00 0. -1.
   -9000010    2    1    2    0  502  0.30910673714E+03  0.27112003572E+03  0.10409876454E+04  0.15012761516E+04  0.10005607211E+04 0.  0.
         13    1    3    3    0    0  0.27072537182E+03 -0.20745278249E+03 -0.14863519851E+02  0.34139393565E+03  0.10566000000E+00 0. -1.
         -4    1    3    3    0  502  0.38381365317E+02  0.47857281821E+03  0.10558511653E+04  0.11598822159E+04  0.00000000000E+00 0. -1.
        -13    1    1    2    0    0 -0.30910673714E+03 -0.27112003572E+03  0.59964558650E+03  0.72706800871E+03  0.10566000000E+00 0.  1.
<mgrwt>
<rscale>  1 0.84937009E+03</rscale>
<asrwt>0</asrwt>
<pdfrwt beam="1">  1       21 0.29761364E+00 0.10817462E+04</pdfrwt>
<pdfrwt beam="2">  1       -4 0.45208534E-01 0.10817462E+04</pdfrwt>
<totfact> 0.51259427E+00</totfact>
</mgrwt>
</event>
<event>
 6    2  0.2321478E-005  0.7910834E+03  0.7818608E-02  0.9926866E-01
         21   -1    0    0  501  502  0.00000000000E+00  0.00000000000E+00  0.64112692202E+03  0.64112692202E+03  0.00000000000E+00 0. -1.
         -4   -1    0    0    0  501 -0.00000000000E+00 -0.00000000000E+00 -0.44623582380E+03  0.44623582380E+03  0.00000000000E+00 0. -1.
   -9000010    2    1    2    0  502  0.62099886863E+01 -0.24429569837E+03  0.28267026466E+02  0.79158826305E+03  0.75239218578E+03 0.  0.
         13    1    3    3    0    0 -0.15959685151E+03 -0.32529122720E+03  0.29500528646E+03  0.46724048167E+03  0.10566000000E+00 0. -1.
         -4    1    3    3    0  502  0.16580684019E+03  0.80995528833E+02 -0.26673825999E+03  0.32434778139E+03  0.00000000000E+00 0. -1.
        -13    1    1    2    0    0 -0.62099886863E+01  0.24429569837E+03  0.16662407176E+03  0.29577448276E+03  0.10566000000E+00 0.  1.
<mgrwt>
<rscale>  1 0.58976744E+03</rscale>
<asrwt>0</asrwt>
<pdfrwt beam="1">  1       21 0.98634912E-01 0.79108340E+03</pdfrwt>
<pdfrwt beam="2">  1       -4 0.68651665E-01 0.79108340E+03</pdfrwt>
<totfact> 0.64025788E+01</totfact>
</mgrwt>
</event>
<event>
 6    2  0.2321478E-005  0.1051649E+04  0.7818608E-02  0.9597387E-01
         21   -1    0    0  501  502  0.00000000000E+00  0.00000000000E+00  0.22563150050E+03  0.22563150050E+03  0.00000000000E+00 0. -1.
         -4   -1    0    0    0  501 -0.00000000000E+00 -0.00000000000E+00 -0.25240523531E+04  0.25240523531E+04  0.00000000000E+00 0. -1.
   -9000010    2    1    2    0  502  0.26095614012E+03 -0.16673623668E+03 -0.11417501052E+04  0.15522756906E+04  0.10050211129E+04 0.  0.
         13    1    3    3    0    0  0.58303993931E+02 -0.87587469615E+02 -0.12866071962E+04  0.12909024011E+04  0.10566000000E+00 0. -1.
         -4    1    3    3    0  502  0.20265214619E+03 -0.79148767068E+02  0.14485709101E+03  0.26137328957E+03  0.00000000000E+00 0. -1.
        -13    1    1    2    0    0 -0.26095614012E+03  0.16673623668E+03 -0.11566707474E+04  0.11974081630E+04  0.10566000000E+00 0.  1.
<mgrwt>
<rscale>  1 0.77469375E+03</rscale>
<asrwt>0</asrwt>
<pdfrwt beam="1">  1       21 0.34712536E-01 0.10516494E+04</pdfrwt>
<pdfrwt beam="2">  1       -4 0.38831577E+00 0.10516494E+04</pdfrwt>
<totfact> 0.26945319E+00</totfact>
</mgrwt>
</event>
<event>
 6    2  0.2321478E-005  0.1139544E+04  0.7818608E-02  0.9369189E-01
         -4   -1    0    0    0  501 -0.00000000000E+00  0.00000000000E+00  0.75691276516E+03  0.75691276516E+03  0.00000000000E+00 0. -1.
         21   -1    0    0  501  502  0.00000000000E+00 -0.00000000000E+00 -0.95472562462E+03  0.95472562462E+03  0.00000000000E+00 0. -1.
   -9000010    2    1    2    0  502  0.45172147489E+03 -0.30039212464E+03 -0.25001955092E+03  0.11666491521E+04  0.10021340972E+04 0.  0.
         13    1    3    3    0    0  0.57144728067E+03  0.32441991375E+02 -0.47809942574E+03  0.74577714463E+03  0.10566000000E+00 0. -1.
         -4    1    3    3    0  502 -0.11972580578E+03 -0.33283411601E+03  0.22807987482E+03  0.42087200744E+03  0.00000000000E+00 0. -1.
        -13    1    1    2    0    0 -0.45172147489E+03  0.30039212464E+03  0.52206691458E+02  0.54498923771E+03  0.10566000000E+00 0.  1.
<mgrwt>
<rscale>  1 0.94655278E+03</rscale>
<asrwt>0</asrwt>
<pdfrwt beam="2">  1       21 0.14688087E+00 0.11395440E+04</pdfrwt>
<pdfrwt beam="1">  1       -4 0.11644812E+00 0.11395440E+04</pdfrwt>
<totfact> 0.63118452E+00</totfact>
</mgrwt>
</event>
<event>
 6    2  0.2321478E-005  0.1289775E+04  0.7818608E-02  0.9155626E-01
         21   -1    0    0  501  502  0.00000000000E+00  0.00000000000E+00  0.10952773120E+04  0.10952773120E+04  0.00000000000E+00 0.  1.
         -4   -1    0    0    0  501 -0.00000000000E+00 -0.00000000000E+00 -0.11528729784E+04  0.11528729784E+04  0.00000000000E+00 0. -1.
   -9000010    2    1    2    0  502  0.52552497189E+03  0.63184964030E+03 -0.41082280287E+03  0.13536225461E+04  0.99403629613E+03 0.  0.
         13    1    3    3    0    0  0.25950489026E+03  0.88219701202E+03 -0.34660656134E+03  0.98272604301E+03  0.10566000000E+00 0. -1.
         -4    1    3    3    0  502  0.26602008163E+03 -0.25034737172E+03 -0.64216241532E+02  0.37089650313E+03  0.00000000000E+00 0. -1.
        -13    1    1    2    0    0 -0.52552497189E+03 -0.63184964030E+03  0.35322713648E+03  0.89452774420E+03  0.10566000000E+00 0.  1.
<mgrwt>
<rscale>  1 0.11523420E+04</rscale>
<asrwt>0</asrwt>
<pdfrwt beam="1">  1       21 0.16850420E+00 0.12897746E+04</pdfrwt>
<pdfrwt beam="2">  1       -4 0.17736507E+00 0.12897746E+04</pdfrwt>
<totfact> 0.13603305E+00</totfact>
</mgrwt>
</event>
<event>
 6    2  0.2321478E-005  0.1031352E+04  0.7818608E-02  0.9633951E-01
         -4   -1    0    0    0  501 -0.00000000000E+00  0.00000000000E+00  0.33198571221E+03  0.33198571221E+03  0.00000000000E+00 0. -1.
         21   -1    0    0  501  502  0.00000000000E+00 -0.00000000000E+00 -0.15122986281E+04  0.15122986281E+04  0.00000000000E+00 0. -1.
   -9000010    2    1    2    0  502  0.17880569373E+03 -0.22805622894E+03 -0.11623330489E+04  0.15539321293E+04  0.98980090226E+03 0.  0.
         13    1    3    3    0    0  0.50692398631E+03 -0.29258773864E+02 -0.25368196255E+03  0.56761126930E+03  0.10566000000E+00 0. -1.
         -4    1    3    3    0  502 -0.32811829257E+03 -0.19879745507E+03 -0.90865108639E+03  0.98632086000E+03  0.00000000000E+00 0. -1.
        -13    1    1    2    0    0 -0.17880569373E+03  0.22805622894E+03 -0.17979866961E+02  0.29035221103E+03  0.10566000000E+00 0.  1.
<mgrwt>
<rscale>  1 0.75089273E+03</rscale>
<asrwt>0</asrwt>
<pdfrwt beam="2">  1       21 0.23266133E+00 0.10313520E+04</pdfrwt>
<pdfrwt beam="1">  1       -4 0.51074725E-01 0.10313520E+04</pdfrwt>
<totfact> 0.10282727E+01</totfact>
</mgrwt>
</event>
<event>
 6    2  0.2321478E-005  0.1085985E+04  0.7818608E-02  0.9519286E-01
         -4   -1    0    0    0  501 -0.00000000000E+00  0.00000000000E+00  0.51257746400E+03  0.51257746400E+03  0.00000000000E+00 0. -1.
         21   -1    0    0  501  502  0.00000000000E+00 -0.00000000000E+00 -0.10621436357E+04  0.10621436357E+04  0.00000000000E+00 0.  1.
   -9000010    2    1    2    0  502  0.35946378707E+03  0.80414514180E+02 -0.28979326091E+03  0.11239853849E+04  0.10216077050E+04 0.  0.
         13    1    3    3    0    0  0.96090762745E+02 -0.32466448437E+03  0.23384414323E+03  0.41148943678E+03  0.10566000000E+00 0. -1.
         -4    1    3    3    0  502  0.26337302433E+03  0.40507899855E+03 -0.52363740413E+03  0.71249594807E+03  0.00000000000E+00 0. -1.
        -13    1    1    2    0    0 -0.35946378707E+03 -0.80414514180E+02 -0.25977291083E+03  0.45073571488E+03  0.10566000000E+00 0.  1.
<mgrwt>
<rscale>  1 0.82876735E+03</rscale>
<asrwt>0</asrwt>
<pdfrwt beam="2">  1       21 0.16340671E+00 0.10859848E+04</pdfrwt>
<pdfrwt beam="1">  1       -4 0.78858071E-01 0.10859848E+04</pdfrwt>
<totfact> 0.11931140E+01</totfact>
</mgrwt>
</event>
<event>
 6    2  0.2321478E-005  0.1174517E+04  0.7818608E-02  0.9313862E-01
         21   -1    0    0  501  502  0.00000000000E+00  0.00000000000E+00  0.79423682758E+03  0.79423682758E+03  0.00000000000E+00 0.  1.
         -4   -1    0    0    0  501 -0.00000000000E+00 -0.00000000000E+00 -0.11395399313E+04  0.11395399313E+04  0.00000000000E+00 0. -1.
   -9000010    2    1    2    0  502 -0.20027816705E+03 -0.57125603019E+03  0.10516057501E+03  0.11792157386E+04  0.10065019700E+04 0.  0.
         13    1    3    3    0    0  0.40508516865E+03 -0.14414278872E+03  0.83675683540E+02  0.43803283962E+03  0.10566000000E+00 0. -1.
         -4    1    3    3    0  502 -0.60536333570E+03 -0.42711324147E+03  0.21484891468E+02  0.74118289903E+03  0.00000000000E+00 0. -1.
        -13    1    1    2    0    0  0.20027816705E+03  0.57125603019E+03 -0.45046367868E+03  0.75456102020E+03  0.10566000000E+00 0.  1.
<mgrwt>
<rscale>  1 0.99516627E+03</rscale>
<asrwt>0</asrwt>
<pdfrwt beam="1">  1       21 0.12219028E+00 0.11745174E+04</pdfrwt>
<pdfrwt beam="2">  1       -4 0.17531384E+00 0.11745174E+04</pdfrwt>
<totfact> 0.34726736E+00</totfact>
</mgrwt>
</event>
<event>
 6    2  0.2321478E-005  0.1039910E+04  0.7818608E-02  0.9815701E-01
         21   -1    0    0  501  502  0.00000000000E+00  0.00000000000E+00  0.68279244058E+03  0.68279244058E+03  0.00000000000E+00 0. -1.
         -4   -1    0    0    0  501 -0.00000000000E+00 -0.00000000000E+00 -0.52538581289E+03  0.52538581289E+03  0.00000000000E+00 0. -1.
   -9000010    2    1    2    0  502 -0.13736379250E+03  0.69973686110E+02  0.16912988391E+03  0.10535736800E+04  0.10284198818E+04 0.  0.
         13    1    3    3    0    0 -0.52150567021E+03  0.10540585163E+03  0.34025752402E+03  0.63154869285E+03  0.10566000000E+00 0. -1.
         -4    1    3    3    0  502  0.38414187771E+03 -0.35432165518E+02 -0.17112764011E+03  0.42202498715E+03  0.00000000000E+00 0. -1.
        -13    1    1    2    0    0  0.13736379250E+03 -0.69973686110E+02 -0.11723256212E+02  0.15460457347E+03  0.10566000000E+00 0.  1.
<mgrwt>
<rscale>  1 0.64526681E+03</rscale>
<asrwt>0</asrwt>
<pdfrwt beam="1">  1       21 0.10504499E+00 0.10399099E+04</pdfrwt>
<pdfrwt beam="2">  1       -4 0.80828586E-01 0.10399099E+04</pdfrwt>
<totfact> 0.36973815E+01</totfact>
</mgrwt>
</event>
<event>
 6    2  0.2321478E-005  0.1002149E+04  0.7818608E-02  0.1042554E+00
         21   -1    0    0  501  502  0.00000000000E+00  0.00000000000E+00  0.29088486092E+03  0.29088486092E+03  0.00000000000E+00 0. -1.
         -4   -1    0    0    0  501 -0.00000000000E+00 -0.00000000000E+00 -0.91012407429E+03  0.91012407429E+03  0.00000000000E+00 0. -1.
   -9000010    2    1    2    0  502  0.24496686073E+02  0.97155466457E+01 -0.60933412963E+03  0.11728557591E+04  0.10018024110E+04 0.  0.
         13    1    3    3    0    0 -0.47241790859E+02 -0.28437348891E+03 -0.77563425124E+03  0.82747119035E+03  0.10566000000E+00 0. -1.
         -4    1    3    3    0  502  0.71738476933E+02  0.29408903556E+03  0.16630012161E+03  0.34538456879E+03  0.00000000000E+00 0. -1.
        -13    1    1    2    0    0 -0.24496686073E+02 -0.97155466457E+01 -0.99050837325E+01  0.28153176073E+02  0.10566000000E+00 0.  1.
<mgrwt>
<rscale>  1 0.40355949E+03</rscale>
<asrwt>0</asrwt>
<pdfrwt beam="1">  1       21 0.44751518E-01 0.10021490E+04</pdfrwt>
<pdfrwt beam="2">  1       -4 0.14001909E+00 0.10021490E+04</pdfrwt>
<totfact> 0.68377311E+01</totfact>
</mgrwt>
</event>
<event>
 6    2  0.2321478E-005  0.9888836E+03  0.7818608E-02  0.9961728E-01
         21   -1    0    0  501  502  0.00000000000E+00  0.00000000000E+00  0.36443539432E+03  0.36443539432E+03  0.00000000000E+00 0. -1.
         -4   -1    0    0    0  501 -0.00000000000E+00 -0.00000000000E+00 -0.86973383422E+03  0.86973383422E+03  0.00000000000E+00 0. -1.
   -9000010    2    1    2    0  502 -0.66866101925E+02 -0.89786530802E+02 -0.36366181818E+03  0.10536321396E+04  0.98252637162E+03 0.  0.
         13    1    3    3    0    0  0.22764263370E+03 -0.88234835289E+02 -0.61801256909E+03  0.66448935399E+03  0.10566000000E+00 0. -1.
         -4    1    3    3    0  502 -0.29450873563E+03 -0.15516955124E+01  0.25435075091E+03  0.38914278563E+03  0.00000000000E+00 0. -1.
        -13    1    1    2    0    0  0.66866101925E+02  0.89786530802E+02 -0.14163662172E+03  0.18053708892E+03  0.10566000000E+00 0.  1.
<mgrwt>
<rscale>  1 0.57360707E+03</rscale>
<asrwt>0</asrwt>
<pdfrwt beam="1">  1       21 0.56066985E-01 0.98888360E+03</pdfrwt>
<pdfrwt beam="2">  1       -4 0.13380520E+00 0.98888360E+03</pdfrwt>
<totfact> 0.47314168E+01</totfact>
</mgrwt>
</event>
<event>
 6    2  0.2321478E-005  0.1021854E+04  0.7818608E-02  0.9821144E-01
         -4   -1    0    0    0  501 -0.00000000000E+00  0.00000000000E+00  0.26929975017E+04  0.26929975017E+04  0.00000000000E+00 0. -1.
         21   -1    0    0  501  502  0.00000000000E+00 -0.00000000000E+00 -0.14117825578E+03  0.14117825578E+03  0.00000000000E+00 0. -1.
   -9000010    2    1    2    0  502  0.15888396281E+03 -0.15195239665E+02  0.18402381572E+04  0.21049140308E+04  0.10093124358E+04 0.  0.
         13    1    3    3    0    0 -0.40434308559E+03  0.14118093913E+03  0.64262742531E+03  0.77226640957E+03  0.10566000000E+00 0. -1.
         -4    1    3    3    0  502  0.56322704840E+03 -0.15637617880E+03  0.11976107319E+04  0.13326476213E+04  0.00000000000E+00 0. -1.
        -13    1    1    2    0    0 -0.15888396281E+03  0.15195239665E+02  0.71158108875E+03  0.72926172666E+03  0.10566000000E+00 0.  1.
<mgrwt>
<rscale>  1 0.64240086E+03</rscale>
<asrwt>0</asrwt>
<pdfrwt beam="2">  1       21 0.21719734E-01 0.10218545E+04</pdfrwt>
<pdfrwt beam="1">  1       -4 0.41430727E+00 0.10218545E+04</pdfrwt>
<totfact> 0.45642490E+00</totfact>
</mgrwt>
</event>
<event>
 6    2  0.2321478E-005  0.1031430E+04  0.7818608E-02  0.9656426E-01
         -4   -1    0    0    0  501 -0.00000000000E+00  0.00000000000E+00  0.24958438949E+03  0.24958438949E+03  0.00000000000E+00 0. -1.
         21   -1    0    0  501  502  0.00000000000E+00 -0.00000000000E+00 -0.22247781950E+04  0.22247781950E+04  0.00000000000E+00 0. -1.
   -9000010    2    1    2    0  502 -0.20163602868E+03  0.17723816148E+03 -0.19484045747E+04  0.22045698344E+04  0.99588017063E+03 0.  0.
         13    1    3    3    0    0 -0.45381821331E+02 -0.39578666809E+03 -0.10916703522E+04  0.11620889662E+04  0.10566000000E+00 0. -1.
         -4    1    3    3    0  502 -0.15625420735E+03  0.57302482958E+03 -0.85673422250E+03  0.10424808682E+04  0.00000000000E+00 0. -1.
        -13    1    1    2    0    0  0.20163602868E+03 -0.17723816148E+03 -0.26789230851E+02  0.26979275009E+03  0.10566000000E+00 0.  1.
<mgrwt>
<rscale>  1 0.73671493E+03</rscale>
<asrwt>0</asrwt>
<pdfrwt beam="2">  1       21 0.34227356E+00 0.10314300E+04</pdfrwt>
<pdfrwt beam="1">  1       -4 0.38397600E-01 0.10314300E+04</pdfrwt>
<totfact> 0.38018792E+00</totfact>
</mgrwt>
</event>
<event>
 6    2  0.2321478E-005  0.1027891E+04  0.7818608E-02  0.9775159E-01
         -4   -1    0    0    0  501 -0.00000000000E+00  0.00000000000E+00  0.21535993861E+03  0.21535993861E+03  0.00000000000E+00 0. -1.
         21   -1    0    0  501  502  0.00000000000E+00 -0.00000000000E+00 -0.18186535681E+04  0.18186535681E+04  0.00000000000E+00 0.  1.
   -9000010    2    1    2    0  502 -0.12350533630E+03 -0.13420851948E+03 -0.11340225036E+04  0.15305446442E+04  0.10115801374E+04 0.  0.
         13    1    3    3    0    0  0.40130870101E+03 -0.12154249770E+03 -0.81419688854E+03  0.91582631362E+03  0.10566000000E+00 0. -1.
         -4    1    3    3    0  502 -0.52481403731E+03 -0.12666021781E+02 -0.31982561511E+03  0.61471833058E+03  0.00000000000E+00 0. -1.
        -13    1    1    2    0    0  0.12350533630E+03  0.13420851948E+03 -0.46927112583E+03  0.50346886249E+03  0.10566000000E+00 0.  1.
<mgrwt>
<rscale>  1 0.66712868E+03</rscale>
<asrwt>0</asrwt>
<pdfrwt beam="2">  1       21 0.27979287E+00 0.10278910E+04</pdfrwt>
<pdfrwt beam="1">  1       -4 0.33132297E-01 0.10278910E+04</pdfrwt>
<totfact> 0.12551815E+01</totfact>
</mgrwt>
</event>
<event>
 6    2  0.2321478E-005  0.9917420E+03  0.7818608E-02  0.1006714E+00
         21   -1    0    0  501  502  0.00000000000E+00  0.00000000000E+00  0.49080800080E+03  0.49080800080E+03  0.00000000000E+00 0. -1.
         -4   -1    0    0    0  501 -0.00000000000E+00 -0.00000000000E+00 -0.59295378853E+03  0.59295378853E+03  0.00000000000E+00 0. -1.
   -9000010    2    1    2    0  502 -0.12399344826E+02  0.78719139119E+02 -0.59857493431E+02  0.99354672621E+03  0.98853514405E+03 0.  0.
         13    1    3    3    0    0 -0.35504000933E+03  0.15349344838E+03  0.30117127159E+03  0.49022218730E+03  0.10566000000E+00 0. -1.
         -4    1    3    3    0  502  0.34264066451E+03 -0.74774309259E+02 -0.36102876502E+03  0.50332453891E+03  0.00000000000E+00 0. -1.
        -13    1    1    2    0    0  0.12399344826E+02 -0.78719139119E+02 -0.42288294301E+02  0.90215063125E+02  0.10566000000E+00 0.  1.
<mgrwt>
<rscale>  1 0.52801913E+03</rscale>
<asrwt>0</asrwt>
<pdfrwt beam="1">  1       21 0.75508924E-01 0.99174199E+03</pdfrwt>
<pdfrwt beam="2">  1       -4 0.91223659E-01 0.99174199E+03</pdfrwt>
<totfact> 0.62100309E+01</totfact>
</mgrwt>
</event>
<event>
 6    2  0.2321478E-005  0.9992798E+03  0.7818608E-02  0.9866576E-01
         21   -1    0    0  501  502  0.00000000000E+00  0.00000000000E+00  0.48851029829E+03  0.48851029829E+03  0.00000000000E+00 0. -1.
         -4   -1    0    0    0  501 -0.00000000000E+00 -0.00000000000E+00 -0.78103023601E+03  0.78103023601E+03  0.00000000000E+00 0. -1.
   -9000010    2    1    2    0  502  0.18995205437E+02 -0.14598359656E+03 -0.68690080437E+02  0.10016378571E+04  0.98837646737E+03 0.  0.
         13    1    3    3    0    0 -0.24143104825E+03  0.30187497027E+03 -0.24116785533E+03  0.45560881724E+03  0.10566000000E+00 0. -1.
         -4    1    3    3    0  502  0.26042625369E+03 -0.44785856683E+03  0.17247777489E+03  0.54602903982E+03  0.00000000000E+00 0. -1.
        -13    1    1    2    0    0 -0.18995205437E+02  0.14598359656E+03 -0.22382985729E+03  0.26790267724E+03  0.10566000000E+00 0.  1.
<mgrwt>
<rscale>  1 0.61908858E+03</rscale>
<asrwt>0</asrwt>
<pdfrwt beam="1">  1       21 0.75155432E-01 0.99927978E+03</pdfrwt>
<pdfrwt beam="2">  1       -4 0.12015850E+00 0.99927978E+03</pdfrwt>
<totfact> 0.32078863E+01</totfact>
</mgrwt>
</event>
<event>
 6    2  0.2321478E-005  0.1096352E+04  0.7818608E-02  0.9431152E-01
         -4   -1    0    0    0  501 -0.00000000000E+00  0.00000000000E+00  0.54603659705E+03  0.54603659705E+03  0.00000000000E+00 0. -1.
         21   -1    0    0  501  502  0.00000000000E+00 -0.00000000000E+00 -0.24058571239E+04  0.24058571239E+04  0.00000000000E+00 0. -1.
   -9000010    2    1    2    0  502  0.46472243203E+03  0.14930271652E+03 -0.21288297617E+04  0.23945570008E+04  0.98169691627E+03 0.  0.
         13    1    3    3    0    0  0.73253677066E+03  0.25042413600E+03 -0.17947881877E+04  0.19546321951E+04  0.10566000000E+00 0. -1.
         -4    1    3    3    0  502 -0.26781433862E+03 -0.10112141948E+03 -0.33404157408E+03  0.43992480569E+03  0.00000000000E+00 0. -1.
        -13    1    1    2    0    0 -0.46472243203E+03 -0.14930271652E+03  0.26900923492E+03  0.55733672016E+03  0.10566000000E+00 0.  1.
<mgrwt>
<rscale>  1 0.89555738E+03</rscale>
<asrwt>0</asrwt>
<pdfrwt beam="2">  1       21 0.37013186E+00 0.10963517E+04</pdfrwt>
<pdfrwt beam="1">  1       -4 0.84005632E-01 0.10963517E+04</pdfrwt>
<totfact> 0.45860530E-01</totfact>
</mgrwt>
</event>
<event>
 6    2  0.2321478E-005  0.9752833E+03  0.7818608E-02  0.1028159E+00
         21   -1    0    0  501  502  0.00000000000E+00  0.00000000000E+00  0.41548151707E+03  0.41548151707E+03  0.00000000000E+00 0. -1.
         -4   -1    0    0    0  501 -0.00000000000E+00 -0.00000000000E+00 -0.77039055454E+03  0.77039055454E+03  0.00000000000E+00 0. -1.
   -9000010    2    1    2    0  502 -0.36469390301E+02 -0.23951301470E+02 -0.16268539884E+03  0.98875885623E+03  0.97430685900E+03 0.  0.
         13    1    3    3    0    0  0.43093856531E+03 -0.73342085322E+02  0.10264907887E+03  0.44902555953E+03  0.10566000000E+00 0. -1.
         -4    1    3    3    0  502 -0.46740795561E+03  0.49390783852E+02 -0.26533447772E+03  0.53973329670E+03  0.00000000000E+00 0. -1.
        -13    1    1    2    0    0  0.36469390301E+02  0.23951301470E+02 -0.19222363862E+03  0.19711321538E+03  0.10566000000E+00 0.  1.
<mgrwt>
<rscale>  1 0.44853640E+03</rscale>
<asrwt>0</asrwt>
<pdfrwt beam="1">  1       21 0.63920234E-01 0.97528331E+03</pdfrwt>
<pdfrwt beam="2">  1       -4 0.11852162E+00 0.97528331E+03</pdfrwt>
<totfact> 0.48188959E+01</totfact>
</mgrwt>
</event>
<event>
 6    2  0.2321478E-005  0.1011041E+04  0.7818608E-02  0.9832152E-01
         -4   -1    0    0    0  501 -0.00000000000E+00  0.00000000000E+00  0.86009929016E+03  0.86009929016E+03  0.00000000000E+00 0. -1.
         21   -1    0    0  501  502  0.00000000000E+00 -0.00000000000E+00 -0.40483543730E+03  0.40483543730E+03  0.00000000000E+00 0. -1.
   -9000010    2    1    2    0  502 -0.15890532930E+03 -0.43708047322E+01  0.44786440937E+03  0.11057971438E+04  0.99846621695E+03 0.  0.
         13    1    3    3    0    0 -0.28093940934E+03  0.43716957469E+03  0.37756777307E+03  0.64234073760E+03  0.10566000000E+00 0. -1.
         -4    1    3    3    0  502  0.12203408004E+03 -0.44154037942E+03  0.70296636300E+02  0.46345640618E+03  0.00000000000E+00 0. -1.
        -13    1    1    2    0    0  0.15890532930E+03  0.43708047322E+01  0.73994434933E+01  0.15913758368E+03  0.10566000000E+00 0.  1.
<mgrwt>
<rscale>  1 0.63665253E+03</rscale>
<asrwt>0</asrwt>
<pdfrwt beam="2">  1       21 0.62282375E-01 0.10110414E+04</pdfrwt>
<pdfrwt beam="1">  1       -4 0.13232297E+00 0.10110414E+04</pdfrwt>
<totfact> 0.38475055E+01</totfact>
</mgrwt>
</event>
<event>
 6    2  0.2321478E-005  0.9061351E+03  0.7818608E-02  0.9954810E-01
         21   -1    0    0  501  502  0.00000000000E+00  0.00000000000E+00  0.50437284069E+03  0.50437284069E+03  0.00000000000E+00 0. -1.
         -4   -1    0    0    0  501 -0.00000000000E+00 -0.00000000000E+00 -0.60361140449E+03  0.60361140449E+03  0.00000000000E+00 0. -1.
   -9000010    2    1    2    0  502 -0.14376033623E+03  0.38167203475E+02  0.36145624922E+02  0.90685578023E+03  0.89384401896E+03 0.  0.
         13    1    3    3    0    0 -0.87787001086E+02  0.44269005312E+03  0.16203257849E+03  0.47951601469E+03  0.10566000000E+00 0. -1.
         -4    1    3    3    0  502 -0.55973335148E+02 -0.40452284964E+03 -0.12588695357E+03  0.42733976554E+03  0.00000000000E+00 0. -1.
        -13    1    1    2    0    0  0.14376033623E+03 -0.38167203475E+02 -0.13538418872E+03  0.20112846495E+03  0.10566000000E+00 0.  1.
<mgrwt>
<rscale>  1 0.57676932E+03</rscale>
<asrwt>0</asrwt>
<pdfrwt beam="1">  1       21 0.77595822E-01 0.90613514E+03</pdfrwt>
<pdfrwt beam="2">  1       -4 0.92863292E-01 0.90613514E+03</pdfrwt>
<totfact> 0.56269307E+01</totfact>
</mgrwt>
</event>
<event>
 6    2  0.2321478E-005  0.1014824E+04  0.7818608E-02  0.9858327E-01
         -4   -1    0    0    0  501 -0.00000000000E+00  0.00000000000E+00  0.40325900866E+03  0.40325900866E+03  0.00000000000E+00 0. -1.
         21   -1    0    0  501  502  0.00000000000E+00 -0.00000000000E+00 -0.83332538752E+03  0.83332538752E+03  0.00000000000E+00 0. -1.
   -9000010    2    1    2    0  502 -0.13995663734E+03 -0.35392116571E+02 -0.36879627971E+03  0.10797580640E+04  0.10045030207E+04 0.  0.
         13    1    3    3    0    0  0.41531457479E+03 -0.12731268425E+03 -0.62144455870E+02  0.43881278487E+03  0.10566000000E+00 0. -1.
         -4    1    3    3    0  502 -0.55527121213E+03  0.91920567682E+02 -0.30665182384E+03  0.64094527914E+03  0.00000000000E+00 0. -1.
        -13    1    1    2    0    0  0.13995663734E+03  0.35392116571E+02 -0.61270099145E+02  0.15682633218E+03  0.10566000000E+00 0.  1.
<mgrwt>
<rscale>  1 0.62324155E+03</rscale>
<asrwt>0</asrwt>
<pdfrwt beam="2">  1       21 0.12820390E+00 0.10148235E+04</pdfrwt>
<pdfrwt beam="1">  1       -4 0.62039848E-01 0.10148235E+04</pdfrwt>
<totfact> 0.40195606E+01</totfact>
</mgrwt>
</event>
<event>
 6    2  0.2321478E-005  0.1076729E+04  0.7818608E-02  0.9546848E-01
         -4   -1    0    0    0  501 -0.00000000000E+00  0.00000000000E+00  0.82676744059E+03  0.82676744059E+03  0.00000000000E+00 0. -1.
         21   -1    0    0  501  502  0.00000000000E+00 -0.00000000000E+00 -0.80597637727E+03  0.80597637727E+03  0.00000000000E+00 0. -1.
   -9000010    2    1    2    0  502  0.51482019949E+02 -0.33953822030E+03 -0.34534444195E+03  0.11307559487E+04  0.10204947969E+04 0.  0.
         13    1    3    3    0    0  0.48674642253E+03 -0.40177471080E+03 -0.14508119128E+03  0.64760602322E+03  0.10566000000E+00 0. -1.
         -4    1    3    3    0  502 -0.43526440258E+03  0.62236490498E+02 -0.20026325067E+03  0.48314992546E+03  0.00000000000E+00 0. -1.
        -13    1    1    2    0    0 -0.51482019949E+02  0.33953822030E+03  0.36613550527E+03  0.50198786918E+03  0.10566000000E+00 0.  1.
<mgrwt>
<rscale>  1 0.80916300E+03</rscale>
<asrwt>0</asrwt>
<pdfrwt beam="2">  1       21 0.12399637E+00 0.10767294E+04</pdfrwt>
<pdfrwt beam="1">  1       -4 0.12719499E+00 0.10767294E+04</pdfrwt>
<totfact> 0.80278692E+00</totfact>
</mgrwt>
</event>
<event>
 6    2  0.2321478E-005  0.1072073E+04  0.7818608E-02  0.9511993E-01
         -4   -1    0    0    0  501 -0.00000000000E+00  0.00000000000E+00  0.19161714982E+04  0.19161714982E+04  0.00000000000E+00 0. -1.
         21   -1    0    0  501  502  0.00000000000E+00 -0.00000000000E+00 -0.27994368165E+03  0.27994368165E+03  0.00000000000E+00 0. -1.
   -9000010    2    1    2    0  502  0.67199971216E+02 -0.38694608747E+03  0.11955811158E+04  0.16058502929E+04  0.99754591271E+03 0.  0.
         13    1    3    3    0    0  0.51444340290E+03 -0.32545100508E+03  0.56663041952E+03  0.83164921390E+03  0.10566000000E+00 0. -1.
         -4    1    3    3    0  502 -0.44724343168E+03 -0.61495082383E+02  0.62895069630E+03  0.77420107899E+03  0.00000000000E+00 0. -1.
        -13    1    1    2    0    0 -0.67199971216E+02  0.38694608747E+03  0.44064670069E+03  0.59026488692E+03  0.10566000000E+00 0.  1.
<mgrwt>
<rscale>  1 0.83405378E+03</rscale>
<asrwt>0</asrwt>
<pdfrwt beam="2">  1       21 0.43068260E-01 0.10720732E+04</pdfrwt>
<pdfrwt beam="1">  1       -4 0.29479561E+00 0.10720732E+04</pdfrwt>
<totfact> 0.68665244E+00</totfact>
</mgrwt>
</event>
<event>
 6    2  0.2321478E-005  0.1038638E+04  0.7818608E-02  0.9704182E-01
         -4   -1    0    0    0  501 -0.00000000000E+00  0.00000000000E+00  0.24304567017E+03  0.24304567017E+03  0.00000000000E+00 0. -1.
         21   -1    0    0  501  502  0.00000000000E+00 -0.00000000000E+00 -0.27850982814E+04  0.27850982814E+04  0.00000000000E+00 0. -1.
   -9000010    2    1    2    0  502  0.10107500727E+03 -0.19973483657E+03 -0.25975576500E+04  0.27975122484E+04  0.10142282155E+04 0.  0.
         13    1    3    3    0    0  0.25817740162E+03  0.25415991428E+03 -0.36650714737E+03  0.51534486799E+03  0.10566000000E+00 0. -1.
         -4    1    3    3    0  502 -0.15710239435E+03 -0.45389475085E+03 -0.22310505026E+04  0.22821673804E+04  0.00000000000E+00 0. -1.
        -13    1    1    2    0    0 -0.10107500727E+03  0.19973483657E+03  0.55505038687E+02  0.23063170319E+03  0.10566000000E+00 0.  1.
<mgrwt>
<rscale>  1 0.70768325E+03</rscale>
<asrwt>0</asrwt>
<pdfrwt beam="2">  1       21 0.42847664E+00 0.10386381E+04</pdfrwt>
<pdfrwt beam="1">  1       -4 0.37391643E-01 0.10386381E+04</pdfrwt>
<totfact> 0.11033575E+00</totfact>
</mgrwt>
</event>
<event>
 6    2  0.2321478E-005  0.1007771E+04  0.7818608E-02  0.1010177E+00
         21   -1    0    0  501  502  0.00000000000E+00  0.00000000000E+00  0.42192496710E+03  0.42192496710E+03  0.00000000000E+00 0. -1.
         -4   -1    0    0    0  501 -0.00000000000E+00 -0.00000000000E+00 -0.72206829416E+03  0.72206829416E+03  0.00000000000E+00 0. -1.
   -9000010    2    1    2    0  502 -0.67026275960E+02  0.12708154992E+02 -0.20744903048E+03  0.10289008521E+04  0.10054590217E+04 0.  0.
         13    1    3    3    0    0 -0.18621680369E+02  0.44839381803E+03 -0.34871358009E+03  0.56833524889E+03  0.10566000000E+00 0. -1.
         -4    1    3    3    0  502 -0.48404595591E+02 -0.43568566303E+03  0.14126454961E+03  0.46056560317E+03  0.00000000000E+00 0. -1.
        -13    1    1    2    0    0  0.67026275960E+02 -0.12708154992E+02 -0.92694296577E+02  0.11509240920E+03  0.10566000000E+00 0.  1.
<mgrwt>
<rscale>  1 0.51404360E+03</rscale>
<asrwt>0</asrwt>
<pdfrwt beam="1">  1       21 0.64911534E-01 0.10077707E+04</pdfrwt>
<pdfrwt beam="2">  1       -4 0.11108743E+00 0.10077707E+04</pdfrwt>
<totfact> 0.54509180E+01</totfact>
</mgrwt>
</event>
<event>
 6    2  0.2321478E-005  0.8670953E+03  0.7818608E-02  0.9824636E-01
         21   -1    0    0  501  502  0.00000000000E+00  0.00000000000E+00  0.18539809185E+03  0.18539809185E+03  0.00000000000E+00 0. -1.
         -4   -1    0    0    0  501 -0.00000000000E+00 -0.00000000000E+00 -0.17259835049E+04  0.17259835049E+04  0.00000000000E+00 0. -1.
   -9000010    2    1    2    0  502 -0.26040750429E+02  0.25694946590E+03 -0.10997755250E+04  0.14004857979E+04  0.82773976347E+03 0.  0.
         13    1    3    3    0    0  0.26145675852E+03 -0.56835625526E+02 -0.56105646328E+02  0.27338211283E+03  0.10566000000E+00 0. -1.
         -4    1    3    3    0  502 -0.28749750894E+03  0.31378509143E+03 -0.10436698787E+04  0.11271036851E+04  0.00000000000E+00 0. -1.
        -13    1    1    2    0    0  0.26040750429E+02 -0.25694946590E+03 -0.44080988799E+03  0.51089579879E+03  0.10566000000E+00 0.  1.
<mgrwt>
<rscale>  1 0.64057030E+03</rscale>
<asrwt>0</asrwt>
<pdfrwt beam="1">  1       21 0.28522783E-01 0.86709530E+03</pdfrwt>
<pdfrwt beam="2">  1       -4 0.26553593E+00 0.86709530E+03</pdfrwt>
<totfact> 0.24888547E+01</totfact>
</mgrwt>
</event>
<event>
 6    2  0.2321478E-005  0.1098214E+04  0.7818608E-02  0.9453325E-01
         21   -1    0    0  501  502  0.00000000000E+00  0.00000000000E+00  0.34482052447E+03  0.34482052447E+03  0.00000000000E+00 0. -1.
         -4   -1    0    0    0  501 -0.00000000000E+00 -0.00000000000E+00 -0.17987593521E+04  0.17987593521E+04  0.00000000000E+00 0. -1.
   -9000010    2    1    2    0  502  0.37819376754E+03  0.24192237327E+03 -0.83815536456E+03  0.13815127896E+04  0.10022555623E+04 0.  0.
         13    1    3    3    0    0  0.16466500665E+03  0.19510618332E+03 -0.10479058144E+04  0.10785581089E+04  0.10566000000E+00 0. -1.
         -4    1    3    3    0  502  0.21352876089E+03  0.46816189957E+02  0.20975044984E+03  0.30295468074E+03  0.00000000000E+00 0. -1.
        -13    1    1    2    0    0 -0.37819376754E+03 -0.24192237327E+03 -0.61578346309E+03  0.76206708700E+03  0.10566000000E+00 0.  1.
<mgrwt>
<rscale>  1 0.87814220E+03</rscale>
<asrwt>0</asrwt>
<pdfrwt beam="1">  1       21 0.53049311E-01 0.10982136E+04</pdfrwt>
<pdfrwt beam="2">  1       -4 0.27673221E+00 0.10982136E+04</pdfrwt>
<totfact> 0.56508230E+00</totfact>
</mgrwt>
</event>
<event>
 6    2  0.2321478E-005  0.1007614E+04  0.7818608E-02  0.9917046E-01
         21   -1    0    0  501  502  0.00000000000E+00  0.00000000000E+00  0.89306123363E+03  0.89306123363E+03  0.00000000000E+00 0. -1.
         -4   -1    0    0    0  501 -0.00000000000E+00 -0.00000000000E+00 -0.42467424903E+03  0.42467424903E+03  0.00000000000E+00 0. -1.
   -9000010    2    1    2    0  502 -0.29067160889E+01 -0.12200394416E+03  0.57111725765E+03  0.11582145387E+04  0.10001962729E+04 0.  0.
         13    1    3    3    0    0 -0.19045843646E+01  0.43099775866E+03  0.37550334046E+03  0.57163403089E+03  0.10566000000E+00 0. -1.
         -4    1    3    3    0  502 -0.10021317242E+01 -0.55300170281E+03  0.19561391719E+03  0.58658050784E+03  0.00000000000E+00 0. -1.
        -13    1    1    2    0    0  0.29067160889E+01  0.12200394416E+03 -0.10273027305E+03  0.15952094393E+03  0.10566000000E+00 0.  1.
<mgrwt>
<rscale>  1 0.59442212E+03</rscale>
<asrwt>0</asrwt>
<pdfrwt beam="1">  1       21 0.13739404E+00 0.10076140E+04</pdfrwt>
<pdfrwt beam="2">  1       -4 0.65334500E-01 0.10076140E+04</pdfrwt>
<totfact> 0.29834023E+01</totfact>
</mgrwt>
</event>
<event>
 6    2  0.2321478E-005  0.1141576E+04  0.7818608E-02  0.9361369E-01
         -4   -1    0    0    0  501 -0.00000000000E+00  0.00000000000E+00  0.77350149838E+03  0.77350149838E+03  0.00000000000E+00 0. -1.
         21   -1    0    0  501  502  0.00000000000E+00 -0.00000000000E+00 -0.13118541099E+04  0.13118541099E+04  0.00000000000E+00 0. -1.
   -9000010    2    1    2    0  502  0.37323097581E+03  0.41076822609E+03 -0.87312606190E+03  0.14372004022E+04  0.99757905911E+03 0.  0.
         13    1    3    3    0    0  0.25693923815E+03  0.63235514845E+03 -0.95504618813E+03  0.11738841674E+04  0.10566000000E+00 0. -1.
         -4    1    3    3    0  502  0.11629173766E+03 -0.22158692236E+03  0.81920126234E+02  0.26331623476E+03  0.00000000000E+00 0. -1.
        -13    1    1    2    0    0 -0.37323097581E+03 -0.41076822609E+03  0.33477345042E+03  0.64815520606E+03  0.10566000000E+00 0.  1.
<mgrwt>
<rscale>  1 0.95324185E+03</rscale>
<asrwt>0</asrwt>
<pdfrwt beam="2">  1       21 0.20182371E+00 0.11415760E+04</pdfrwt>
<pdfrwt beam="1">  1       -4 0.11900023E+00 0.11415760E+04</pdfrwt>
<totfact> 0.23272442E+00</totfact>
</mgrwt>
</event>
<event>
 6    2  0.2321478E-005  0.1022223E+04  0.7818608E-02  0.9946688E-01
         -4   -1    0    0    0  501 -0.00000000000E+00  0.00000000000E+00  0.23846277276E+04  0.23846277276E+04  0.00000000000E+00 0. -1.
         21   -1    0    0  501  502  0.00000000000E+00 -0.00000000000E+00 -0.14312333456E+03  0.14312333456E+03  0.00000000000E+00 0. -1.
   -9000010    2    1    2    0  502  0.10421319693E+03  0.21042526424E+02  0.17660679958E+04  0.20405724940E+04  0.10166792803E+04 0.  0.
         13    1    3    3    0    0 -0.40394105397E+03 -0.11885159714E+03  0.11774340377E+04  0.12504579167E+04  0.10566000000E+00 0. -1.
         -4    1    3    3    0  502  0.50815425090E+03  0.13989412356E+03  0.58863395811E+03  0.79011457724E+03  0.00000000000E+00 0. -1.
        -13    1    1    2    0    0 -0.10421319693E+03 -0.21042526424E+02  0.47543639718E+03  0.48717856814E+03  0.10566000000E+00 0.  1.
<mgrwt>
<rscale>  1 0.58050956E+03</rscale>
<asrwt>0</asrwt>
<pdfrwt beam="2">  1       21 0.22018976E-01 0.10222230E+04</pdfrwt>
<pdfrwt beam="1">  1       -4 0.36686577E+00 0.10222230E+04</pdfrwt>
<totfact> 0.93743775E+00</totfact>
</mgrwt>
</event>
<event>
 6    2  0.2321478E-005  0.1008688E+04  0.7818608E-02  0.9800716E-01
         21   -1    0    0  501  502  0.00000000000E+00  0.00000000000E+00  0.83716806858E+03  0.83716806858E+03  0.00000000000E+00 0. -1.
         -4   -1    0    0    0  501 -0.00000000000E+00 -0.00000000000E+00 -0.61365770828E+03  0.61365770828E+03  0.00000000000E+00 0. -1.
   -9000010    2    1    2    0  502 -0.12769938753E+03  0.12318208518E+03  0.49726627756E+03  0.11245999761E+04  0.99296042002E+03 0.  0.
         13    1    3    3    0    0 -0.50768475736E+03 -0.37264561716E+02  0.49799081296E+03  0.71212872529E+03  0.10566000000E+00 0. -1.
         -4    1    3    3    0  502  0.37998536983E+03  0.16044664690E+03 -0.72453539964E+00  0.41247125080E+03  0.00000000000E+00 0. -1.
        -13    1    1    2    0    0  0.12769938753E+03 -0.12318208518E+03 -0.27375591726E+03  0.32622580077E+03  0.10566000000E+00 0.  1.
<mgrwt>
<rscale>  1 0.65324130E+03</rscale>
<asrwt>0</asrwt>
<pdfrwt beam="1">  1       21 0.12879509E+00 0.10086879E+04</pdfrwt>
<pdfrwt beam="2">  1       -4 0.94408878E-01 0.10086879E+04</pdfrwt>
<totfact> 0.15254868E+01</totfact>
</mgrwt>
</event>
<event>
 6    2  0.2321478E-005  0.1043744E+04  0.7818608E-02  0.9723186E-01
         -4   -1    0    0    0  501 -0.00000000000E+00  0.00000000000E+00  0.12351377771E+04  0.12351377771E+04  0.00000000000E+00 0. -1.
         21   -1    0    0  501  502  0.00000000000E+00 -0.00000000000E+00 -0.33666477711E+03  0.33666477711E+03  0.00000000000E+00 0. -1.
   -9000010    2    1    2    0  502 -0.75906494413E+02  0.19258345682E+03  0.87775610295E+03  0.13637655750E+04  0.10230105491E+04 0.  0.
         13    1    3    3    0    0 -0.67189386030E+02 -0.11864272527E+03  0.10145648315E+04  0.10236856541E+04  0.10566000000E+00 0. -1.
         -4    1    3    3    0  502 -0.87171083834E+01  0.31122618209E+03 -0.13680872858E+03  0.34007992092E+03  0.00000000000E+00 0. -1.
        -13    1    1    2    0    0  0.75906494413E+02 -0.19258345682E+03  0.20716897060E+02  0.20803697921E+03  0.10566000000E+00 0.  1.
<mgrwt>
<rscale>  1 0.69652953E+03</rscale>
<asrwt>0</asrwt>
<pdfrwt beam="2">  1       21 0.51794582E-01 0.10437436E+04</pdfrwt>
<pdfrwt beam="1">  1       -4 0.19002119E+00 0.10437436E+04</pdfrwt>
<totfact> 0.21277170E+01</totfact>
</mgrwt>
</event>
<event>
 6    2  0.2321478E-005  0.1054281E+04  0.7818608E-02  0.9541050E-01
         -4   -1    0    0    0  501 -0.00000000000E+00  0.00000000000E+00  0.10649656576E+04  0.10649656576E+04  0.00000000000E+00 0. -1.
         21   -1    0    0  501  502  0.00000000000E+00 -0.00000000000E+00 -0.48870741003E+03  0.48870741003E+03  0.00000000000E+00 0.  1.
   -9000010    2    1    2    0  502  0.37277016672E+03 -0.18975964560E+02  0.32314656270E+03  0.11026927791E+04  0.98599694714E+03 0.  0.
         13    1    3    3    0    0  0.62347805170E+03 -0.20881161513E+02 -0.78983790632E+02  0.62880788338E+03  0.10566000000E+00 0. -1.
         -4    1    3    3    0  502 -0.25070788498E+03  0.19051969523E+01  0.40213035333E+03  0.47388489577E+03  0.00000000000E+00 0. -1.
        -13    1    1    2    0    0 -0.37277016672E+03  0.18975964560E+02  0.25311168490E+03  0.45098028850E+03  0.10566000000E+00 0.  1.
<mgrwt>
<rscale>  1 0.81323855E+03</rscale>
<asrwt>0</asrwt>
<pdfrwt beam="2">  1       21 0.75185756E-01 0.10542806E+04</pdfrwt>
<pdfrwt beam="1">  1       -4 0.16384087E+00 0.10542806E+04</pdfrwt>
<totfact> 0.14074585E+01</totfact>
</mgrwt>
</event>
<event>
 6    2  0.2321478E-005  0.1042527E+04  0.7818608E-02  0.9618020E-01
         21   -1    0    0  501  502  0.00000000000E+00  0.00000000000E+00  0.18772818919E+04  0.18772818919E+04  0.00000000000E+00 0. -1.
         -4   -1    0    0    0  501 -0.00000000000E+00 -0.00000000000E+00 -0.25271727408E+03  0.25271727408E+03  0.00000000000E+00 0. -1.
   -9000010    2    1    2    0  502  0.27363674017E+03  0.11344682340E+03  0.14509466267E+04  0.17866473561E+04  0.99955760931E+03 0.  0.
         13    1    3    3    0    0  0.10151018440E+03  0.55494255485E+03  0.70530310763E+03  0.90317110313E+03  0.10566000000E+00 0. -1.
         -4    1    3    3    0  502  0.17212655577E+03 -0.44149573146E+03  0.74564351907E+03  0.88347625301E+03  0.00000000000E+00 0. -1.
        -13    1    1    2    0    0 -0.27363674017E+03 -0.11344682340E+03  0.17361799110E+03  0.34335180982E+03  0.10566000000E+00 0.  1.
<mgrwt>
<rscale>  1 0.76114903E+03</rscale>
<asrwt>0</asrwt>
<pdfrwt beam="1">  1       21 0.28881259E+00 0.10425271E+04</pdfrwt>
<pdfrwt beam="2">  1       -4 0.38879582E-01 0.10425271E+04</pdfrwt>
<totfact> 0.79793398E+00</totfact>
</mgrwt>
</event>
<event>
 6    2  0.2321478E-005  0.1071340E+04  0.7818608E-02  0.9548564E-01
         -4   -1    0    0    0  501 -0.00000000000E+00  0.00000000000E+00  0.53306801317E+03  0.53306801317E+03  0.00000000000E+00 0. -1.
         21   -1    0    0  501  502  0.00000000000E+00 -0.00000000000E+00 -0.95583225443E+03  0.95583225443E+03  0.00000000000E+00 0. -1.
   -9000010    2    1    2    0  502  0.28077891012E+02  0.34542281073E+03 -0.24326578422E+03  0.10986119211E+04  0.10137379471E+04 0.  0.
         13    1    3    3    0    0  0.11786870220E+03 -0.13874331985E+03  0.30903338453E+03  0.35867029941E+03  0.10566000000E+00 0. -1.
         -4    1    3    3    0  502 -0.89790811185E+02  0.48416613058E+03 -0.55229916875E+03  0.73994162173E+03  0.00000000000E+00 0. -1.
        -13    1    1    2    0    0 -0.28077891012E+02 -0.34542281073E+03 -0.17949845705E+03  0.39028834646E+03  0.10566000000E+00 0.  1.
<mgrwt>
<rscale>  1 0.80796191E+03</rscale>
<asrwt>0</asrwt>
<pdfrwt beam="2">  1       21 0.14705111E+00 0.10713402E+04</pdfrwt>
<pdfrwt beam="1">  1       -4 0.82010464E-01 0.10713402E+04</pdfrwt>
<totfact> 0.14715801E+01</totfact>
</mgrwt>
</event>
<event>
 6    2  0.2321478E-005  0.1042768E+04  0.7818608E-02  0.9614759E-01
         -4   -1    0    0    0  501 -0.00000000000E+00  0.00000000000E+00  0.72600141006E+03  0.72600141006E+03  0.00000000000E+00 0. -1.
         21   -1    0    0  501  502  0.00000000000E+00 -0.00000000000E+00 -0.67921498869E+03  0.67921498869E+03  0.00000000000E+00 0. -1.
   -9000010    2    1    2    0  502 -0.26380383102E+03 -0.14144077105E+03 -0.14039980912E+03  0.10521772380E+04  0.99888281634E+03 0.  0.
         13    1    3    3    0    0 -0.21117914217E+03  0.22665008885E+03 -0.46490033335E+03  0.55865841440E+03  0.10566000000E+00 0. -1.
         -4    1    3    3    0  502 -0.52624688855E+02 -0.36809085990E+03  0.32450052423E+03  0.49351882360E+03  0.00000000000E+00 0. -1.
        -13    1    1    2    0    0  0.26380383102E+03  0.14144077105E+03  0.18718623049E+03  0.35303916075E+03  0.10566000000E+00 0.  1.
<mgrwt>
<rscale>  1 0.76326966E+03</rscale>
<asrwt>0</asrwt>
<pdfrwt beam="2">  1       21 0.10449461E+00 0.10427679E+04</pdfrwt>
<pdfrwt beam="1">  1       -4 0.11169252E+00 0.10427679E+04</pdfrwt>
<totfact> 0.17314595E+01</totfact>
</mgrwt>
</event>
<event>
 6    2  0.2321478E-005  0.1010087E+04  0.7818608E-02  0.9975973E-01
         -4   -1    0    0    0  501 -0.00000000000E+00  0.00000000000E+00  0.59121016412E+03  0.59121016412E+03  0.00000000000E+00 0. -1.
         21   -1    0    0  501  502  0.00000000000E+00 -0.00000000000E+00 -0.56747880332E+03  0.56747880332E+03  0.00000000000E+00 0. -1.
   -9000010    2    1    2    0  502  0.97340682617E+02  0.24620835262E+02 -0.81340459014E+02  0.10133566156E+04  0.10050840592E+04 0.  0.
         13    1    3    3    0    0 -0.80098113109E+02 -0.79121469489E+02 -0.51834324394E+03  0.53042967900E+03  0.10566000000E+00 0. -1.
         -4    1    3    3    0  502  0.17743879573E+03  0.10374230475E+03  0.43700278493E+03  0.48292693656E+03  0.00000000000E+00 0. -1.
        -13    1    1    2    0    0 -0.97340682617E+02 -0.24620835262E+02  0.10507181981E+03  0.14533235188E+03  0.10566000000E+00 0.  1.
<mgrwt>
<rscale>  1 0.56716465E+03</rscale>
<asrwt>0</asrwt>
<pdfrwt beam="2">  1       21 0.87304431E-01 0.10100868E+04</pdfrwt>
<pdfrwt beam="1">  1       -4 0.90955410E-01 0.10100868E+04</pdfrwt>
<totfact> 0.44326820E+01</totfact>
</mgrwt>
</event>
<event>
 6    2  0.2321478E-005  0.1004074E+04  0.7818608E-02  0.1008079E+00
         21   -1    0    0  501  502  0.00000000000E+00  0.00000000000E+00  0.58128336036E+03  0.58128336036E+03  0.00000000000E+00 0. -1.
         -4   -1    0    0    0  501 -0.00000000000E+00 -0.00000000000E+00 -0.50364878246E+03  0.50364878246E+03  0.00000000000E+00 0. -1.
   -9000010    2    1    2    0  502 -0.18097493596E+02  0.71341810732E+02  0.97218474993E+02  0.10087697281E+04  0.10013729371E+04 0.  0.
         13    1    3    3    0    0 -0.16324044948E+03  0.51342759999E+03  0.49132438095E+02  0.54098923503E+03  0.10566000000E+00 0. -1.
         -4    1    3    3    0  502  0.14514295588E+03 -0.44208578926E+03  0.48086036898E+02  0.46778049302E+03  0.00000000000E+00 0. -1.
        -13    1    1    2    0    0  0.18097493596E+02 -0.71341810732E+02 -0.19583897095E+02  0.76162414763E+02  0.10566000000E+00 0.  1.
<mgrwt>
<rscale>  1 0.52245158E+03</rscale>
<asrwt>0</asrwt>
<pdfrwt beam="1">  1       21 0.89428209E-01 0.10040742E+04</pdfrwt>
<pdfrwt beam="2">  1       -4 0.77484428E-01 0.10040742E+04</pdfrwt>
<totfact> 0.60712568E+01</totfact>
</mgrwt>
</event>
<event>
 6    2  0.2321478E-005  0.1020046E+04  0.7818608E-02  0.1041021E+00
         21   -1    0    0  501  502  0.00000000000E+00  0.00000000000E+00  0.14981942254E+04  0.14981942254E+04  0.00000000000E+00 0. -1.
         -4   -1    0    0    0  501 -0.00000000000E+00 -0.00000000000E+00 -0.18322539207E+03  0.18322539207E+03  0.00000000000E+00 0. -1.
   -9000010    2    1    2    0  502 -0.15362273789E+02 -0.21131999461E+02  0.12952555089E+04  0.16486906215E+04  0.10197114156E+04 0.  0.
         13    1    3    3    0    0 -0.84750820924E+02  0.92667601185E+02  0.14437216385E+04  0.14491729250E+04  0.10566000000E+00 0. -1.
         -4    1    3    3    0  502  0.69388547135E+02 -0.11379960065E+03 -0.14846612955E+03  0.19951769647E+03  0.00000000000E+00 0. -1.
        -13    1    1    2    0    0  0.15362273789E+02  0.21131999461E+02  0.19713324424E+02  0.32728996030E+02  0.10566000000E+00 0.  1.
<mgrwt>
<rscale>  1 0.40806880E+03</rscale>
<asrwt>0</asrwt>
<pdfrwt beam="1">  1       21 0.23049141E+00 0.10200460E+04</pdfrwt>
<pdfrwt beam="2">  1       -4 0.28188523E-01 0.10200460E+04</pdfrwt>
<totfact> 0.35467752E+01</totfact>
</mgrwt>
</event>
<event>
 6    2  0.2321478E-005  0.1004150E+04  0.7818608E-02  0.9801303E-01
         21   -1    0    0  501  502  0.00000000000E+00  0.00000000000E+00  0.25892558418E+03  0.25892558418E+03  0.00000000000E+00 0.  1.
         -4   -1    0    0    0  501 -0.00000000000E+00 -0.00000000000E+00 -0.13744659017E+04  0.13744659017E+04  0.00000000000E+00 0. -1.
   -9000010    2    1    2    0  502 -0.91035389910E+02 -0.15470092739E+03 -0.10144488782E+04  0.14273834535E+04  0.98797630416E+03 0.  0.
         13    1    3    3    0    0 -0.10246990946E+03  0.13876661380E+03  0.14869030424E+03  0.22773904626E+03  0.10566000000E+00 0. -1.
         -4    1    3    3    0  502  0.11434519551E+02 -0.29346754119E+03 -0.11631391825E+04  0.11996444072E+04  0.00000000000E+00 0. -1.
        -13    1    1    2    0    0  0.91035389910E+02  0.15470092739E+03 -0.10109143931E+03  0.20600803241E+03  0.10566000000E+00 0.  1.
<mgrwt>
<rscale>  1 0.65292661E+03</rscale>
<asrwt>0</asrwt>
<pdfrwt beam="1">  1       21 0.39834705E-01 0.10041499E+04</pdfrwt>
<pdfrwt beam="2">  1       -4 0.21145630E+00 0.10041499E+04</pdfrwt>
<totfact> 0.26976404E+01</totfact>
</mgrwt>
</event>
<event>
 6    2  0.2321478E-005  0.1081297E+04  0.7818608E-02  0.9505891E-01
         -4   -1    0    0    0  501 -0.00000000000E+00  0.00000000000E+00  0.24873805828E+03  0.24873805828E+03  0.00000000000E+00 0. -1.
         21   -1    0    0  501  502  0.00000000000E+00 -0.00000000000E+00 -0.23574807151E+04  0.23574807151E+04  0.00000000000E+00 0. -1.
   -9000010    2    1    2    0  502  0.18832146538E+03  0.34267892994E+03 -0.18315498825E+04  0.21269175438E+04  0.10081217401E+04 0.  0.
         13    1    3    3    0    0  0.17311806613E+03 -0.34716432612E+03 -0.74107351087E+03  0.83647049788E+03  0.10566000000E+00 0. -1.
         -4    1    3    3    0  502  0.15203399243E+02  0.68984325606E+03 -0.10904763716E+04  0.12904470459E+04  0.00000000000E+00 0. -1.
        -13    1    1    2    0    0 -0.18832146538E+03 -0.34267892994E+03 -0.27719277431E+03  0.47930122954E+03  0.10566000000E+00 0.  1.
<mgrwt>
<rscale>  1 0.83850857E+03</rscale>
<asrwt>0</asrwt>
<pdfrwt beam="2">  1       21 0.36268934E+00 0.10812970E+04</pdfrwt>
<pdfrwt beam="1">  1       -4 0.38267393E-01 0.10812970E+04</pdfrwt>
<totfact> 0.28152780E+00</totfact>
</mgrwt>
</event>
<event>
 6    2  0.2321478E-005  0.1101675E+04  0.7818608E-02  0.9441228E-01
         -4   -1    0    0    0  501 -0.00000000000E+00  0.00000000000E+00  0.45856891140E+03  0.45856891140E+03  0.00000000000E+00 0. -1.
         21   -1    0    0  501  502  0.00000000000E+00 -0.00000000000E+00 -0.14272506426E+04  0.14272506426E+04  0.00000000000E+00 0. -1.
   -9000010    2    1    2    0  502 -0.46412674637E+03  0.73076548585E+01 -0.88728205681E+03  0.14145521600E+04  0.99911026745E+03 0.  0.
         13    1    3    3    0    0  0.10516583863E+02 -0.29755528129E+03  0.67754645614E+02  0.30535298775E+03  0.10566000000E+00 0. -1.
         -4    1    3    3    0  502 -0.47464333023E+03  0.30486293615E+03 -0.95503670242E+03  0.11091991723E+04  0.00000000000E+00 0. -1.
        -13    1    1    2    0    0  0.46412674637E+03 -0.73076548585E+01 -0.81399674441E+02  0.47126739403E+03  0.10566000000E+00 0.  1.
<mgrwt>
<rscale>  1 0.88759082E+03</rscale>
<asrwt>0</asrwt>
<pdfrwt beam="2">  1       21 0.21957702E+00 0.11016753E+04</pdfrwt>
<pdfrwt beam="1">  1       -4 0.70549065E-01 0.11016753E+04</pdfrwt>
<totfact> 0.61348382E+00</totfact>
</mgrwt>
</event>
<event>
 6    2  0.2321478E-005  0.7570253E+03  0.7818608E-02  0.1008980E+00
         21   -1    0    0  501  502  0.00000000000E+00  0.00000000000E+00  0.36317919443E+03  0.36317919443E+03  0.00000000000E+00 0. -1.
         -4   -1    0    0    0  501 -0.00000000000E+00 -0.00000000000E+00 -0.67976459411E+03  0.67976459411E+03  0.00000000000E+00 0. -1.
   -9000010    2    1    2    0  502  0.66743713272E+02  0.15309186810E+03 -0.91307349100E+02  0.76251188133E+03  0.73837354627E+03 0.  0.
         13    1    3    3    0    0 -0.53051938511E+02  0.71267541461E+02 -0.40620270994E+03  0.41580551148E+03  0.10566000000E+00 0. -1.
         -4    1    3    3    0  502  0.11979565178E+03  0.81824326640E+02  0.31489536084E+03  0.34670636985E+03  0.00000000000E+00 0. -1.
        -13    1    1    2    0    0 -0.66743713272E+02 -0.15309186810E+03 -0.22527805058E+03  0.28043190720E+03  0.10566000000E+00 0.  1.
<mgrwt>
<rscale>  1 0.51882092E+03</rscale>
<asrwt>0</asrwt>
<pdfrwt beam="1">  1       21 0.55873722E-01 0.75702532E+03</pdfrwt>
<pdfrwt beam="2">  1       -4 0.10457917E+00 0.75702532E+03</pdfrwt>
<totfact> 0.90040063E+01</totfact>
</mgrwt>
</event>
<event>
 6    2  0.2321478E-005  0.1046105E+04  0.7818608E-02  0.9628992E-01
         -4   -1    0    0    0  501 -0.00000000000E+00  0.00000000000E+00  0.21391327349E+04  0.21391327349E+04  0.00000000000E+00 0. -1.
         21   -1    0    0  501  502  0.00000000000E+00 -0.00000000000E+00 -0.23096347815E+03  0.23096347815E+03  0.00000000000E+00 0. -1.
   -9000010    2    1    2    0  502 -0.14983694393E+03 -0.23940897320E+03  0.11186093350E+04  0.15315423106E+04  0.10072572851E+04 0.  0.
         13    1    3    3    0    0 -0.47933306144E+03 -0.14198168909E+03  0.17886610775E+03  0.53095393349E+03  0.10566000000E+00 0. -1.
         -4    1    3    3    0  502  0.32949611750E+03 -0.97427284106E+02  0.93974322730E+03  0.10005883771E+04  0.00000000000E+00 0. -1.
        -13    1    1    2    0    0  0.14983694393E+03  0.23940897320E+03  0.78955992173E+03  0.83855390249E+03  0.10566000000E+00 0.  1.
<mgrwt>
<rscale>  1 0.75406676E+03</rscale>
<asrwt>0</asrwt>
<pdfrwt beam="2">  1       21 0.35532844E-01 0.10461047E+04</pdfrwt>
<pdfrwt beam="1">  1       -4 0.32909733E+00 0.10461047E+04</pdfrwt>
<totfact> 0.62837439E+00</totfact>
</mgrwt>
</event>
<event>
 6    2  0.2321478E-005  0.1066383E+04  0.7818608E-02  0.9547788E-01
         21   -1    0    0  501  502  0.00000000000E+00  0.00000000000E+00  0.16441133055E+04  0.16441133055E+04  0.00000000000E+00 0.  1.
         -4   -1    0    0    0  501 -0.00000000000E+00 -0.00000000000E+00 -0.34322179034E+03  0.34322179034E+03  0.00000000000E+00 0. -1.
   -9000010    2    1    2    0  502  0.32906372855E+03  0.12600498355E+03  0.12300117867E+04  0.16279131427E+04  0.10064849782E+04 0.  0.
         13    1    3    3    0    0  0.62533120180E+03 -0.16879759183E+03  0.71823939380E+03  0.96716057453E+03  0.10566000000E+00 0. -1.
         -4    1    3    3    0  502 -0.29626747325E+03  0.29480257538E+03  0.51177239293E+03  0.66075256815E+03  0.00000000000E+00 0. -1.
        -13    1    1    2    0    0 -0.32906372855E+03 -0.12600498355E+03  0.70879728381E+02  0.35942195312E+03  0.10566000000E+00 0.  1.
<mgrwt>
<rscale>  1 0.80850487E+03</rscale>
<asrwt>0</asrwt>
<pdfrwt beam="1">  1       21 0.25294051E+00 0.10663828E+04</pdfrwt>
<pdfrwt beam="2">  1       -4 0.52803353E-01 0.10663828E+04</pdfrwt>
<totfact> 0.70644867E+00</totfact>
</mgrwt>
</event>
<event>
 6    2  0.2321478E-005  0.9330638E+03  0.7818608E-02  0.1014701E+00
         21   -1    0    0  501  502  0.00000000000E+00  0.00000000000E+00  0.30513135866E+03  0.30513135866E+03  0.00000000000E+00 0. -1.
         -4   -1    0    0    0  501 -0.00000000000E+00 -0.00000000000E+00 -0.85301517675E+03  0.85301517675E+03  0.00000000000E+00 0. -1.
   -9000010    2    1    2    0  502  0.24755269884E+02 -0.70581486186E+02 -0.45268406324E+03  0.10370780669E+04  0.93006101206E+03 0.  0.
         13    1    3    3    0    0 -0.31017565078E+03  0.11093620394E+03  0.11886292627E+03  0.35020591384E+03  0.10566000000E+00 0. -1.
         -4    1    3    3    0  502  0.33493092066E+03 -0.18151769012E+03 -0.57154698951E+03  0.68687215307E+03  0.00000000000E+00 0. -1.
        -13    1    1    2    0    0 -0.24755269884E+02  0.70581486186E+02 -0.95199754848E+02  0.12106846851E+03  0.10566000000E+00 0.  1.
<mgrwt>
<rscale>  1 0.49648308E+03</rscale>
<asrwt>0</asrwt>
<pdfrwt beam="1">  1       21 0.46943287E-01 0.93306380E+03</pdfrwt>
<pdfrwt beam="2">  1       -4 0.13123310E+00 0.93306380E+03</pdfrwt>
<totfact> 0.73445862E+01</totfact>
</mgrwt>
</event>
<event>
 6    2  0.2321478E-005  0.1015888E+04  0.7818608E-02  0.9868934E-01
         21   -1    0    0  501  502  0.00000000000E+00  0.00000000000E+00  0.73042777897E+03  0.73042777897E+03  0.00000000000E+00 0. -1.
         -4   -1    0    0    0  501 -0.00000000000E+00 -0.00000000000E+00 -0.45718135528E+03  0.45718135528E+03  0.00000000000E+00 0. -1.
   -9000010    2    1    2    0  502  0.98188861918E+02  0.98451502220E+02  0.22568815286E+03  0.10406548857E+04  0.10063268345E+04 0.  0.
         13    1    3    3    0    0 -0.14650345353E+03 -0.25435686404E+03 -0.26019225705E+03  0.39225081003E+03  0.10566000000E+00 0. -1.
         -4    1    3    3    0  502  0.24469231545E+03  0.35280836626E+03  0.48588040991E+03  0.64840407562E+03  0.00000000000E+00 0. -1.
        -13    1    1    2    0    0 -0.98188861918E+02 -0.98451502220E+02  0.47558270831E+02  0.14695424860E+03  0.10566000000E+00 0.  1.
<mgrwt>
<rscale>  1 0.61790800E+03</rscale>
<asrwt>0</asrwt>
<pdfrwt beam="1">  1       21 0.11237350E+00 0.10158875E+04</pdfrwt>
<pdfrwt beam="2">  1       -4 0.70335593E-01 0.10158875E+04</pdfrwt>
<totfact> 0.42849385E+01</totfact>
</mgrwt>
</event>
<event>
 6    2  0.2321478E-005  0.1041607E+04  0.7818608E-02  0.9621060E-01
         -4   -1    0    0    0  501 -0.00000000000E+00  0.00000000000E+00  0.31312243693E+03  0.31312243693E+03  0.00000000000E+00 0. -1.
         21   -1    0    0  501  502  0.00000000000E+00 -0.00000000000E+00 -0.17968819898E+04  0.17968819898E+04  0.00000000000E+00 0. -1.
   -9000010    2    1    2    0  502 -0.22750516103E+03 -0.18612866349E+03 -0.14876294129E+04  0.18160359511E+04  0.99927114848E+03 0.  0.
         13    1    3    3    0    0 -0.43461159073E+03 -0.98899988097E+02 -0.16630450766E+03  0.47573694714E+03  0.10566000000E+00 0. -1.
         -4    1    3    3    0  502  0.20710642970E+03 -0.87228675388E+02 -0.13213249052E+04  0.13402990040E+04  0.00000000000E+00 0. -1.
        -13    1    1    2    0    0  0.22750516103E+03  0.18612866349E+03  0.38698599678E+01  0.29396847560E+03  0.10566000000E+00 0.  1.
<mgrwt>
<rscale>  1 0.75917819E+03</rscale>
<asrwt>0</asrwt>
<pdfrwt beam="2">  1       21 0.27644338E+00 0.10416071E+04</pdfrwt>
<pdfrwt beam="1">  1       -4 0.48172683E-01 0.10416071E+04</pdfrwt>
<totfact> 0.61240188E+00</totfact>
</mgrwt>
</event>
<event>
 6    2  0.2321478E-005  0.1130199E+04  0.7818608E-02  0.9379363E-01
         21   -1    0    0  501  502  0.00000000000E+00  0.00000000000E+00  0.59395699012E+03  0.59395699012E+03  0.00000000000E+00 0.  1.
         -4   -1    0    0    0  501 -0.00000000000E+00 -0.00000000000E+00 -0.12123144466E+04  0.12123144466E+04  0.00000000000E+00 0. -1.
   -9000010    2    1    2    0  502  0.44712659097E+03 -0.29573348430E+03 -0.57602330235E+03  0.12685236577E+04  0.99497183031E+03 0.  0.
         13    1    3    3    0    0  0.18141217542E+03  0.28730209245E+03  0.82574641666E+02  0.34967335090E+03  0.10566000000E+00 0. -1.
         -4    1    3    3    0  502  0.26571441555E+03 -0.58303557675E+03 -0.65859794401E+03  0.91885030677E+03  0.00000000000E+00 0. -1.
        -13    1    1    2    0    0 -0.44712659097E+03  0.29573348430E+03 -0.42334154118E+02  0.53774777903E+03  0.10566000000E+00 0.  1.
<mgrwt>
<rscale>  1 0.93793633E+03</rscale>
<asrwt>0</asrwt>
<pdfrwt beam="1">  1       21 0.91377999E-01 0.11301988E+04</pdfrwt>
<pdfrwt beam="2">  1       -4 0.18650991E+00 0.11301988E+04</pdfrwt>
<totfact> 0.60633534E+00</totfact>
</mgrwt>
</event>
<event>
 6    2  0.2321478E-005  0.1027847E+04  0.7818608E-02  0.9821560E-01
         21   -1    0    0  501  502  0.00000000000E+00  0.00000000000E+00  0.43171606818E+03  0.43171606818E+03  0.00000000000E+00 0. -1.
         -4   -1    0    0    0  501 -0.00000000000E+00 -0.00000000000E+00 -0.81817163846E+03  0.81817163846E+03  0.00000000000E+00 0. -1.
   -9000010    2    1    2    0  502  0.41665196145E+02  0.15097660802E+03 -0.29875509045E+03  0.10703847538E+04  0.10158439804E+04 0.  0.
         13    1    3    3    0    0  0.50125543078E+03  0.22595212940E+03 -0.79015943533E+02  0.55547718420E+03  0.10566000000E+00 0. -1.
         -4    1    3    3    0  502 -0.45959023464E+03 -0.74975521381E+02 -0.21973914692E+03  0.51490756964E+03  0.00000000000E+00 0. -1.
        -13    1    1    2    0    0 -0.41665196145E+02 -0.15097660802E+03 -0.87700479829E+02  0.17950295281E+03  0.10566000000E+00 0.  1.
<mgrwt>
<rscale>  1 0.64218229E+03</rscale>
<asrwt>0</asrwt>
<pdfrwt beam="1">  1       21 0.66417857E-01 0.10278467E+04</pdfrwt>
<pdfrwt beam="2">  1       -4 0.12587256E+00 0.10278467E+04</pdfrwt>
<totfact> 0.37775301E+01</totfact>
</mgrwt>
</event>
<event>
 6    2  0.2321478E-005  0.1011916E+04  0.7818608E-02  0.9650978E-01
         21   -1    0    0  501  502  0.00000000000E+00  0.00000000000E+00  0.23782102276E+03  0.23782102276E+03  0.00000000000E+00 0. -1.
         -4   -1    0    0    0  501 -0.00000000000E+00 -0.00000000000E+00 -0.17807954917E+04  0.17807954917E+04  0.00000000000E+00 0. -1.
   -9000010    2    1    2    0  502  0.12125252687E+03  0.26297801382E+03 -0.12071521639E+04  0.15751796613E+04  0.96959528028E+03 0.  0.
         13    1    3    3    0    0  0.57037630277E+02 -0.34193799738E+03 -0.20468245738E+03  0.40257894237E+03  0.10566000000E+00 0. -1.
         -4    1    3    3    0  502  0.64214896588E+02  0.60491601120E+03 -0.10024697065E+04  0.11726007189E+04  0.00000000000E+00 0. -1.
        -13    1    1    2    0    0 -0.12125252687E+03 -0.26297801382E+03 -0.33582230508E+03  0.44343685320E+03  0.10566000000E+00 0.  1.
<mgrwt>
<rscale>  1 0.74012081E+03</rscale>
<asrwt>0</asrwt>
<pdfrwt beam="1">  1       21 0.36587850E-01 0.10119163E+04</pdfrwt>
<pdfrwt beam="2">  1       -4 0.27396854E+00 0.10119163E+04</pdfrwt>
<totfact> 0.13079866E+01</totfact>
</mgrwt>
</event>
<event>
 6    2  0.2321478E-005  0.1002441E+04  0.7818608E-02  0.9820242E-01
         -4   -1    0    0    0  501 -0.00000000000E+00  0.00000000000E+00  0.71169400812E+03  0.71169400812E+03  0.00000000000E+00 0. -1.
         21   -1    0    0  501  502  0.00000000000E+00 -0.00000000000E+00 -0.50847509908E+03  0.50847509908E+03  0.00000000000E+00 0. -1.
   -9000010    2    1    2    0  502 -0.13593010837E+03  0.10136159630E+03  0.70636607066E+02  0.10049268123E+04  0.98799655879E+03 0.  0.
         13    1    3    3    0    0 -0.46010574882E+03  0.36219485093E+03  0.61041779374E+02  0.58873467719E+03  0.10566000000E+00 0. -1.
         -4    1    3    3    0  502  0.32417564045E+03 -0.26083325463E+03  0.95948276923E+01  0.41619213507E+03  0.00000000000E+00 0. -1.
        -13    1    1    2    0    0  0.13593010837E+03 -0.10136159630E+03  0.13258230197E+03  0.21524229493E+03  0.10566000000E+00 0.  1.
<mgrwt>
<rscale>  1 0.64287441E+03</rscale>
<asrwt>0</asrwt>
<pdfrwt beam="2">  1       21 0.78226937E-01 0.10024412E+04</pdfrwt>
<pdfrwt beam="1">  1       -4 0.10949139E+00 0.10024412E+04</pdfrwt>
<totfact> 0.36792118E+01</totfact>
</mgrwt>
</event>
<event>
 6    2  0.2321478E-005  0.1117646E+04  0.7818608E-02  0.9406332E-01
         21   -1    0    0  501  502  0.00000000000E+00  0.00000000000E+00  0.38694465045E+04  0.38694465045E+04  0.00000000000E+00 0.  1.
         -4   -1    0    0    0  501 -0.00000000000E+00 -0.00000000000E+00 -0.25691871949E+03  0.25691871949E+03  0.00000000000E+00 0. -1.
   -9000010    2    1    2    0  502  0.38496897248E+03  0.32423270736E+03  0.34018355586E+04  0.35807287298E+04  0.99790035115E+03 0.  0.
         13    1    3    3    0    0  0.35266352754E+03  0.20635617341E+03  0.38496847781E+03  0.56138683101E+03  0.10566000000E+00 0. -1.
         -4    1    3    3    0  502  0.32305444946E+02  0.11787653395E+03  0.30168670808E+04  0.30193418988E+04  0.00000000000E+00 0. -1.
        -13    1    1    2    0    0 -0.38496897248E+03 -0.32423270736E+03  0.21069222643E+03  0.54563649414E+03  0.10566000000E+00 0.  1.
<mgrwt>
<rscale>  1 0.91556389E+03</rscale>
<asrwt>0</asrwt>
<pdfrwt beam="1">  1       21 0.59529942E+00 0.11176462E+04</pdfrwt>
<pdfrwt beam="2">  1       -4 0.39525960E-01 0.11176462E+04</pdfrwt>
<totfact> 0.59200579E-02</totfact>
</mgrwt>
</event>
<event>
 6    2  0.2321478E-005  0.1039761E+04  0.7818608E-02  0.9591094E-01
         -4   -1    0    0    0  501 -0.00000000000E+00  0.00000000000E+00  0.36200454015E+03  0.36200454015E+03  0.00000000000E+00 0. -1.
         21   -1    0    0  501  502  0.00000000000E+00 -0.00000000000E+00 -0.13200699966E+04  0.13200699966E+04  0.00000000000E+00 0. -1.
   -9000010    2    1    2    0  502  0.32425326089E+03 -0.45354358677E+02 -0.61583778671E+03  0.12084533969E+04  0.98686687949E+03 0.  0.
         13    1    3    3    0    0 -0.12873344842E+02 -0.41179945310E+03  0.57226230149E+01  0.41204037685E+03  0.10566000000E+00 0. -1.
         -4    1    3    3    0  502  0.33712660573E+03  0.36644509442E+03 -0.62156040973E+03  0.79641302002E+03  0.00000000000E+00 0. -1.
        -13    1    1    2    0    0 -0.32425326089E+03  0.45354358677E+02 -0.34222766976E+03  0.47362113990E+03  0.10566000000E+00 0.  1.
<mgrwt>
<rscale>  1 0.77888476E+03</rscale>
<asrwt>0</asrwt>
<pdfrwt beam="2">  1       21 0.20308769E+00 0.10397612E+04</pdfrwt>
<pdfrwt beam="1">  1       -4 0.55693007E-01 0.10397612E+04</pdfrwt>
<totfact> 0.13426184E+01</totfact>
</mgrwt>
</event>
<event>
 6    2  0.2321478E-005  0.1029944E+04  0.7818608E-02  0.9659716E-01
         21   -1    0    0  501  502  0.00000000000E+00  0.00000000000E+00  0.46332687115E+03  0.46332687115E+03  0.00000000000E+00 0. -1.
         -4   -1    0    0    0  501 -0.00000000000E+00 -0.00000000000E+00 -0.10742591355E+04  0.10742591355E+04  0.00000000000E+00 0. -1.
   -9000010    2    1    2    0  502 -0.62529581032E+01  0.26656568954E+03 -0.20225152405E+03  0.10496143630E+04  0.99483077241E+03 0.  0.
         13    1    3    3    0    0  0.59173180723E+02 -0.31850077155E+03 -0.31313156041E+03  0.45055032136E+03  0.10566000000E+00 0. -1.
         -4    1    3    3    0  502 -0.65426138826E+02  0.58506646109E+03  0.11088003636E+03  0.59906404165E+03  0.00000000000E+00 0. -1.
        -13    1    1    2    0    0  0.62529581032E+01 -0.26656568954E+03 -0.40868074026E+03  0.48797164359E+03  0.10566000000E+00 0.  1.
<mgrwt>
<rscale>  1 0.73466803E+03</rscale>
<asrwt>0</asrwt>
<pdfrwt beam="1">  1       21 0.71281059E-01 0.10299440E+04</pdfrwt>
<pdfrwt beam="2">  1       -4 0.16527063E+00 0.10299440E+04</pdfrwt>
<totfact> 0.15580176E+01</totfact>
</mgrwt>
</event>
<event>
 6    2  0.2321478E-005  0.9986463E+03  0.7818608E-02  0.9882384E-01
         -4   -1    0    0    0  501 -0.00000000000E+00  0.00000000000E+00  0.11370267454E+04  0.11370267454E+04  0.00000000000E+00 0. -1.
         21   -1    0    0  501  502  0.00000000000E+00 -0.00000000000E+00 -0.48614107164E+03  0.48614107164E+03  0.00000000000E+00 0. -1.
   -9000010    2    1    2    0  502 -0.13322800023E+03  0.43481518626E+02  0.43252277433E+02  0.99958245960E+03  0.98876387046E+03 0.  0.
         13    1    3    3    0    0  0.29330553249E+03  0.31926700867E+03 -0.14611704847E+03  0.45750383740E+03  0.10566000000E+00 0. -1.
         -4    1    3    3    0  502 -0.42653353273E+03 -0.27578549004E+03  0.18936932590E+03  0.54207862221E+03  0.00000000000E+00 0. -1.
        -13    1    1    2    0    0  0.13322800023E+03 -0.43481518626E+02  0.60763339638E+03  0.62358535748E+03  0.10566000000E+00 0.  1.
<mgrwt>
<rscale>  1 0.61122684E+03</rscale>
<asrwt>0</asrwt>
<pdfrwt beam="2">  1       21 0.74790934E-01 0.99864625E+03</pdfrwt>
<pdfrwt beam="1">  1       -4 0.17492719E+00 0.99864625E+03</pdfrwt>
<totfact> 0.11920054E+01</totfact>
</mgrwt>
</event>
<event>
 6    2  0.2321478E-005  0.1115591E+04  0.7818608E-02  0.9417652E-01
         -4   -1    0    0    0  501 -0.00000000000E+00  0.00000000000E+00  0.15284783067E+04  0.15284783067E+04  0.00000000000E+00 0. -1.
         21   -1    0    0  501  502  0.00000000000E+00 -0.00000000000E+00 -0.43732763578E+03  0.43732763578E+03  0.00000000000E+00 0.  1.
   -9000010    2    1    2    0  502 -0.48052862164E+03 -0.73263382775E+02  0.56863271431E+03  0.12521531518E+04  0.10041260242E+04 0.  0.
         13    1    3    3    0    0 -0.41890070000E+03  0.39015624586E+03  0.53485589473E+03  0.78343508470E+03  0.10566000000E+00 0. -1.
         -4    1    3    3    0  502 -0.61627921643E+02 -0.46341962863E+03  0.33776819582E+02  0.46871806714E+03  0.00000000000E+00 0. -1.
        -13    1    1    2    0    0  0.48052862164E+03  0.73263382775E+02  0.52251795663E+03  0.71365279067E+03  0.10566000000E+00 0.  1.
<mgrwt>
<rscale>  1 0.90637137E+03</rscale>
<asrwt>0</asrwt>
<pdfrwt beam="2">  1       21 0.67281176E-01 0.11155915E+04</pdfrwt>
<pdfrwt beam="1">  1       -4 0.23515051E+00 0.11155915E+04</pdfrwt>
<totfact> 0.60077402E+00</totfact>
</mgrwt>
</event>
<event>
 6    2  0.2321478E-005  0.8124223E+03  0.7818608E-02  0.1000791E+00
         -4   -1    0    0    0  501 -0.00000000000E+00  0.00000000000E+00  0.20133010251E+03  0.20133010251E+03  0.00000000000E+00 0. -1.
         21   -1    0    0  501  502  0.00000000000E+00 -0.00000000000E+00 -0.12119445982E+04  0.12119445982E+04  0.00000000000E+00 0. -1.
   -9000010    2    1    2    0  502 -0.11554191539E+03  0.13071784776E+03 -0.85606921977E+03  0.11802053046E+04  0.79346894203E+03 0.  0.
         13    1    3    3    0    0  0.42516221185E+02  0.24791791884E+03 -0.93496369487E+03  0.96820867866E+03  0.10566000000E+00 0. -1.
         -4    1    3    3    0  502 -0.15805813657E+03 -0.11720007108E+03  0.78894475096E+02  0.21199662592E+03  0.00000000000E+00 0. -1.
        -13    1    1    2    0    0  0.11554191539E+03 -0.13071784776E+03 -0.15454527590E+03  0.23306939611E+03  0.10566000000E+00 0.  1.
<mgrwt>
<rscale>  1 0.55304670E+03</rscale>
<asrwt>0</asrwt>
<pdfrwt beam="2">  1       21 0.18645302E+00 0.81242234E+03</pdfrwt>
<pdfrwt beam="1">  1       -4 0.30973861E-01 0.81242234E+03</pdfrwt>
<totfact> 0.60042505E+01</totfact>
</mgrwt>
</event>
<event>
 6    2  0.2321478E-005  0.1020538E+04  0.7818608E-02  0.9951349E-01
         21   -1    0    0  501  502  0.00000000000E+00  0.00000000000E+00  0.14073322139E+04  0.14073322139E+04  0.00000000000E+00 0. -1.
         -4   -1    0    0    0  501 -0.00000000000E+00 -0.00000000000E+00 -0.37097910690E+03  0.37097910690E+03  0.00000000000E+00 0. -1.
   -9000010    2    1    2    0  502 -0.10028435351E+03 -0.32012196441E+02  0.12052585337E+04  0.15792867329E+04  0.10150944386E+04 0.  0.
         13    1    3    3    0    0 -0.48999929923E+03 -0.10861341648E+02  0.10509187680E+04  0.11595893885E+04  0.10566000000E+00 0. -1.
         -4    1    3    3    0  502  0.38971494572E+03 -0.21150854794E+02  0.15433976577E+03  0.41969734438E+03  0.00000000000E+00 0. -1.
        -13    1    1    2    0    0  0.10028435351E+03  0.32012196441E+02 -0.16890542668E+03  0.19902458794E+03  0.10566000000E+00 0.  1.
<mgrwt>
<rscale>  1 0.57835966E+03</rscale>
<asrwt>0</asrwt>
<pdfrwt beam="1">  1       21 0.21651265E+00 0.10205383E+04</pdfrwt>
<pdfrwt beam="2">  1       -4 0.57073710E-01 0.10205383E+04</pdfrwt>
<totfact> 0.10366486E+01</totfact>
</mgrwt>
</event>
<event>
 6    2  0.2321478E-005  0.1264828E+04  0.7818608E-02  0.9185798E-01
         -4   -1    0    0    0  501 -0.00000000000E+00  0.00000000000E+00  0.12704321446E+04  0.12704321446E+04  0.00000000000E+00 0. -1.
         21   -1    0    0  501  502  0.00000000000E+00 -0.00000000000E+00 -0.82465842541E+03  0.82465842541E+03  0.00000000000E+00 0. -1.
   -9000010    2    1    2    0  502  0.72910691244E+03 -0.27139244822E+03  0.34178397833E+03  0.13101927244E+04  0.99726522877E+03 0.  0.
         13    1    3    3    0    0  0.48463712612E+03 -0.29301738715E+03 -0.28722174123E+03  0.63500289210E+03  0.10566000000E+00 0. -1.
         -4    1    3    3    0  502  0.24446978633E+03  0.21624938929E+02  0.62900571955E+03  0.67518983230E+03  0.00000000000E+00 0. -1.
        -13    1    1    2    0    0 -0.72910691244E+03  0.27139244822E+03  0.10398974091E+03  0.78489784565E+03  0.10566000000E+00 0.  1.
<mgrwt>
<rscale>  1 0.11201223E+04</rscale>
<asrwt>0</asrwt>
<pdfrwt beam="2">  1       21 0.12687053E+00 0.12648275E+04</pdfrwt>
<pdfrwt beam="1">  1       -4 0.19545110E+00 0.12648275E+04</pdfrwt>
<totfact> 0.22584688E+00</totfact>
</mgrwt>
</event>
<event>
 6    2  0.2321478E-005  0.1026893E+04  0.7818608E-02  0.9735769E-01
         21   -1    0    0  501  502  0.00000000000E+00  0.00000000000E+00  0.52621825597E+03  0.52621825597E+03  0.00000000000E+00 0. -1.
         -4   -1    0    0    0  501 -0.00000000000E+00 -0.00000000000E+00 -0.73483847016E+03  0.73483847016E+03  0.00000000000E+00 0. -1.
   -9000010    2    1    2    0  502  0.60794408230E+02 -0.19937112187E+03 -0.22742848413E+03  0.10517756556E+04  0.10055165389E+04 0.  0.
         13    1    3    3    0    0 -0.44903089471E+03 -0.66321557689E+02  0.49395231255E+02  0.45658207746E+03  0.10566000000E+00 0. -1.
         -4    1    3    3    0  502  0.50982530294E+03 -0.13304956418E+03 -0.27682371539E+03  0.59519357813E+03  0.00000000000E+00 0. -1.
        -13    1    1    2    0    0 -0.60794408230E+02  0.19937112187E+03  0.18808269937E+02  0.20928107055E+03  0.10566000000E+00 0.  1.
<mgrwt>
<rscale>  1 0.68926472E+03</rscale>
<asrwt>0</asrwt>
<pdfrwt beam="1">  1       21 0.80956655E-01 0.10268926E+04</pdfrwt>
<pdfrwt beam="2">  1       -4 0.11305207E+00 0.10268926E+04</pdfrwt>
<totfact> 0.31300039E+01</totfact>
</mgrwt>
</event>
<event>
 6    2  0.2321478E-005  0.1029596E+04  0.7818608E-02  0.9898224E-01
         21   -1    0    0  501  502  0.00000000000E+00  0.00000000000E+00  0.37294762527E+03  0.37294762527E+03  0.00000000000E+00 0. -1.
         -4   -1    0    0    0  501 -0.00000000000E+00 -0.00000000000E+00 -0.92108670952E+03  0.92108670952E+03  0.00000000000E+00 0. -1.
   -9000010    2    1    2    0  502  0.12075170641E+03  0.13607770334E+02 -0.40529402833E+03  0.11064953597E+04  0.10224004038E+04 0.  0.
         13    1    3    3    0    0 -0.41445656256E+03 -0.10636236550E+02  0.30733793667E+02  0.41573062073E+03  0.10566000000E+00 0. -1.
         -4    1    3    3    0  502  0.53520826897E+03  0.24244006884E+02 -0.43602782199E+03  0.69076473896E+03  0.00000000000E+00 0. -1.
        -13    1    1    2    0    0 -0.12075170641E+03 -0.13607770334E+02 -0.14284505592E+03  0.18753897510E+03  0.10566000000E+00 0.  1.
<mgrwt>
<rscale>  1 0.60347418E+03</rscale>
<asrwt>0</asrwt>
<pdfrwt beam="1">  1       21 0.57376558E-01 0.10295964E+04</pdfrwt>
<pdfrwt beam="2">  1       -4 0.14170565E+00 0.10295964E+04</pdfrwt>
<totfact> 0.38572072E+01</totfact>
</mgrwt>
</event>
<event>
 6    2  0.2321478E-005  0.1018906E+04  0.7818608E-02  0.9677345E-01
         -4   -1    0    0    0  501 -0.00000000000E+00  0.00000000000E+00  0.87805010082E+03  0.87805010082E+03  0.00000000000E+00 0. -1.
         21   -1    0    0  501  502  0.00000000000E+00 -0.00000000000E+00 -0.89330423183E+03  0.89330423183E+03  0.00000000000E+00 0. -1.
   -9000010    2    1    2    0  502  0.23656540237E+03  0.10663207854E+03 -0.56382774977E+03  0.11645045851E+04  0.98530990429E+03 0.  0.
         13    1    3    3    0    0  0.60153971653E+03  0.38129571140E+02 -0.17680912244E+03  0.62814438762E+03  0.10566000000E+00 0. -1.
         -4    1    3    3    0  502 -0.36497431416E+03  0.68502507396E+02 -0.38701862733E+03  0.53636019746E+03  0.00000000000E+00 0. -1.
        -13    1    1    2    0    0 -0.23656540237E+03 -0.10663207854E+03  0.54857361875E+03  0.60684974757E+03  0.10566000000E+00 0.  1.
<mgrwt>
<rscale>  1 0.72381826E+03</rscale>
<asrwt>0</asrwt>
<pdfrwt beam="2">  1       21 0.13743142E+00 0.10189059E+04</pdfrwt>
<pdfrwt beam="1">  1       -4 0.13508463E+00 0.10189059E+04</pdfrwt>
<totfact> 0.52646304E+00</totfact>
</mgrwt>
</event>
<event>
 6    2  0.2321478E-005  0.1027387E+04  0.7818608E-02  0.9635580E-01
         21   -1    0    0  501  502  0.00000000000E+00  0.00000000000E+00  0.21770051324E+04  0.21770051324E+04  0.00000000000E+00 0. -1.
         -4   -1    0    0    0  501 -0.00000000000E+00 -0.00000000000E+00 -0.19978531827E+03  0.19978531827E+03  0.00000000000E+00 0. -1.
   -9000010    2    1    2    0  502  0.12271249019E+03  0.26446013758E+03  0.15494814434E+04  0.18591441964E+04  0.98515322660E+03 0.  0.
         13    1    3    3    0    0  0.43279444557E+03  0.38144138619E+03  0.13602100285E+04  0.14774910816E+04  0.10566000000E+00 0. -1.
         -4    1    3    3    0  502 -0.31008195537E+03 -0.11698124861E+03  0.18927141490E+03  0.38165311485E+03  0.00000000000E+00 0. -1.
        -13    1    1    2    0    0 -0.12271249019E+03 -0.26446013758E+03  0.42773837067E+03  0.51764625423E+03  0.10566000000E+00 0.  1.
<mgrwt>
<rscale>  1 0.74985345E+03</rscale>
<asrwt>0</asrwt>
<pdfrwt beam="1">  1       21 0.33492385E+00 0.10273872E+04</pdfrwt>
<pdfrwt beam="2">  1       -4 0.30736204E-01 0.10273872E+04</pdfrwt>
<totfact> 0.65970253E+00</totfact>
</mgrwt>
</event>
<event>
 6    2  0.2321478E-005  0.1069930E+04  0.7818608E-02  0.9534761E-01
         21   -1    0    0  501  502  0.00000000000E+00  0.00000000000E+00  0.63288936146E+03  0.63288936146E+03  0.00000000000E+00 0. -1.
         -4   -1    0    0    0  501 -0.00000000000E+00 -0.00000000000E+00 -0.81337529141E+03  0.81337529141E+03  0.00000000000E+00 0. -1.
   -9000010    2    1    2    0  502  0.34063643183E+03 -0.13110054249E+03 -0.13894944938E+03  0.10789149267E+04  0.10057484470E+04 0.  0.
         13    1    3    3    0    0  0.26812495551E+03 -0.16007662334E+03 -0.56511468004E+03  0.64565480705E+03  0.10566000000E+00 0. -1.
         -4    1    3    3    0  502  0.72511476328E+02  0.28976080845E+02  0.42616523066E+03  0.43326011966E+03  0.00000000000E+00 0. -1.
        -13    1    1    2    0    0 -0.34063643183E+03  0.13110054249E+03 -0.41536480563E+02  0.36734972617E+03  0.10566000000E+00 0.  1.
<mgrwt>
<rscale>  1 0.81768874E+03</rscale>
<asrwt>0</asrwt>
<pdfrwt beam="1">  1       21 0.97367595E-01 0.10699301E+04</pdfrwt>
<pdfrwt beam="2">  1       -4 0.12513466E+00 0.10699301E+04</pdfrwt>
<totfact> 0.15484041E+01</totfact>
</mgrwt>
</event>
<event>
 6    2  0.2321478E-005  0.1053665E+04  0.7818608E-02  0.9824247E-01
         21   -1    0    0  501  502  0.00000000000E+00  0.00000000000E+00  0.12936870960E+04  0.12936870960E+04  0.00000000000E+00 0. -1.
         -4   -1    0    0    0  501 -0.00000000000E+00 -0.00000000000E+00 -0.27853207121E+03  0.27853207121E+03  0.00000000000E+00 0. -1.
   -9000010    2    1    2    0  502 -0.29418393980E+02 -0.14108093871E+03  0.85636918813E+03  0.13577845006E+04  0.10437630433E+04 0.  0.
         13    1    3    3    0    0 -0.46631023843E+02 -0.52986328074E+03  0.80554776216E+03  0.96531692047E+03  0.10566000000E+00 0. -1.
         -4    1    3    3    0  502  0.17212629863E+02  0.38878234203E+03  0.50821425970E+02  0.39246758011E+03  0.00000000000E+00 0. -1.
        -13    1    1    2    0    0  0.29418393980E+02  0.14108093871E+03  0.15878583670E+03  0.21443466667E+03  0.10566000000E+00 0.  1.
<mgrwt>
<rscale>  1 0.64077381E+03</rscale>
<asrwt>0</asrwt>
<pdfrwt beam="1">  1       21 0.19902878E+00 0.10536653E+04</pdfrwt>
<pdfrwt beam="2">  1       -4 0.42851089E-01 0.10536653E+04</pdfrwt>
<totfact> 0.24818465E+01</totfact>
</mgrwt>
</event>
<event>
 6    2  0.2321478E-005  0.1003912E+04  0.7818608E-02  0.9899754E-01
         -4   -1    0    0    0  501 -0.00000000000E+00  0.00000000000E+00  0.73643619602E+03  0.73643619602E+03  0.00000000000E+00 0. -1.
         21   -1    0    0  501  502  0.00000000000E+00 -0.00000000000E+00 -0.48584190385E+03  0.48584190385E+03  0.00000000000E+00 0. -1.
   -9000010    2    1    2    0  502 -0.38819795056E+02 -0.12452936292E+03  0.79391942990E+02  0.10070461453E+04  0.99540158706E+03 0.  0.
         13    1    3    3    0    0  0.22303883444E+03 -0.16933744745E+03  0.46259847103E+03  0.54075766231E+03  0.10566000000E+00 0. -1.
         -4    1    3    3    0  502 -0.26185862950E+03  0.44808084537E+02 -0.38320652804E+03  0.46628848304E+03  0.00000000000E+00 0. -1.
        -13    1    1    2    0    0  0.38819795056E+02  0.12452936292E+03  0.17120234919E+03  0.21523195452E+03  0.10566000000E+00 0.  1.
<mgrwt>
<rscale>  1 0.60273196E+03</rscale>
<asrwt>0</asrwt>
<pdfrwt beam="2">  1       21 0.74744908E-01 0.10039118E+04</pdfrwt>
<pdfrwt beam="1">  1       -4 0.11329788E+00 0.10039118E+04</pdfrwt>
<totfact> 0.37600610E+01</totfact>
</mgrwt>
</event>
<event>
 6    2  0.2321478E-005  0.1273861E+04  0.7818608E-02  0.9183715E-01
         -4   -1    0    0    0  501 -0.00000000000E+00  0.00000000000E+00  0.31456282027E+04  0.31456282027E+04  0.00000000000E+00 0. -1.
         21   -1    0    0  501  502  0.00000000000E+00 -0.00000000000E+00 -0.36318164595E+03  0.36318164595E+03  0.00000000000E+00 0. -1.
   -9000010    2    1    2    0  502 -0.62345957404E+03  0.44763276657E+03  0.12000337221E+04  0.17500866400E+04  0.10166835197E+04 0.  0.
         13    1    3    3    0    0  0.23030884819E+03  0.32918474916E+03  0.48784948931E+03  0.63198251559E+03  0.10566000000E+00 0. -1.
         -4    1    3    3    0  502 -0.85376842223E+03  0.11844801741E+03  0.71218423279E+03  0.11181041244E+04  0.00000000000E+00 0. -1.
        -13    1    1    2    0    0  0.62345957404E+03 -0.44763276657E+03  0.15824128347E+04  0.17587232087E+04  0.10566000000E+00 0.  1.
<mgrwt>
<rscale>  1 0.11223106E+04</rscale>
<asrwt>0</asrwt>
<pdfrwt beam="2">  1       21 0.55874101E-01 0.12738612E+04</pdfrwt>
<pdfrwt beam="1">  1       -4 0.48394278E+00 0.12738612E+04</pdfrwt>
<totfact> 0.18800519E-01</totfact>
</mgrwt>
</event>
<event>
 6    2  0.2321478E-005  0.1006909E+04  0.7818608E-02  0.9856160E-01
         -4   -1    0    0    0  501 -0.00000000000E+00  0.00000000000E+00  0.12726159134E+04  0.12726159134E+04  0.00000000000E+00 0. -1.
         21   -1    0    0  501  502  0.00000000000E+00 -0.00000000000E+00 -0.26604069832E+03  0.26604069832E+03  0.00000000000E+00 0.  1.
   -9000010    2    1    2    0  502  0.13621706449E+03  0.59976326408E+02  0.81106137649E+03  0.12929374211E+04  0.99584856787E+03 0.  0.
         13    1    3    3    0    0  0.47642790553E+03  0.28892722472E+03  0.28476650258E+03  0.62574312821E+03  0.10566000000E+00 0. -1.
         -4    1    3    3    0  502 -0.34021084104E+03 -0.22895089831E+03  0.52629487391E+03  0.66719429291E+03  0.00000000000E+00 0. -1.
        -13    1    1    2    0    0 -0.13621706449E+03 -0.59976326408E+02  0.19551383864E+03  0.24571919064E+03  0.10566000000E+00 0.  1.
<mgrwt>
<rscale>  1 0.62433842E+03</rscale>
<asrwt>0</asrwt>
<pdfrwt beam="2">  1       21 0.40929339E-01 0.10069094E+04</pdfrwt>
<pdfrwt beam="1">  1       -4 0.19578706E+00 0.10069094E+04</pdfrwt>
<totfact> 0.32295392E+01</totfact>
</mgrwt>
</event>
<event>
 6    2  0.2321478E-005  0.1008079E+04  0.7818608E-02  0.9914246E-01
         -4   -1    0    0    0  501 -0.00000000000E+00  0.00000000000E+00  0.49350394201E+03  0.49350394201E+03  0.00000000000E+00 0. -1.
         21   -1    0    0  501  502  0.00000000000E+00 -0.00000000000E+00 -0.68715873821E+03  0.68715873821E+03  0.00000000000E+00 0. -1.
   -9000010    2    1    2    0  502  0.92989882329E+02 -0.80462949912E+02 -0.76757277590E+02  0.10109969926E+04  0.10005507658E+04 0.  0.
         13    1    3    3    0    0 -0.99815335613E+02 -0.23263462286E+03 -0.47779876505E+03  0.54071585886E+03  0.10566000000E+00 0. -1.
         -4    1    3    3    0  502  0.19280521794E+03  0.15217167295E+03  0.40104148746E+03  0.47028113377E+03  0.00000000000E+00 0. -1.
        -13    1    1    2    0    0 -0.92989882329E+02  0.80462949912E+02 -0.11689751861E+03  0.16966568759E+03  0.10566000000E+00 0.  1.
<mgrwt>
<rscale>  1 0.59575820E+03</rscale>
<asrwt>0</asrwt>
<pdfrwt beam="2">  1       21 0.10571673E+00 0.10080790E+04</pdfrwt>
<pdfrwt beam="1">  1       -4 0.75923684E-01 0.10080790E+04</pdfrwt>
<totfact> 0.42108003E+01</totfact>
</mgrwt>
</event>
<event>
 6    2  0.2321478E-005  0.1061314E+04  0.7818608E-02  0.9590036E-01
         -4   -1    0    0    0  501 -0.00000000000E+00  0.00000000000E+00  0.28130175384E+04  0.28130175384E+04  0.00000000000E+00 0. -1.
         21   -1    0    0  501  502  0.00000000000E+00 -0.00000000000E+00 -0.18000285907E+03  0.18000285907E+03  0.00000000000E+00 0. -1.
   -9000010    2    1    2    0  502  0.28143609586E+03 -0.12753597825E+03  0.16435761514E+04  0.19564586225E+04  0.10153403735E+04 0.  0.
         13    1    3    3    0    0  0.23176019704E+03  0.59707336199E+01 -0.65928644264E+02  0.24102911835E+03  0.10566000000E+00 0. -1.
         -4    1    3    3    0  502  0.49675898820E+02 -0.13350671187E+03  0.17095047957E+04  0.17154295041E+04  0.00000000000E+00 0. -1.
        -13    1    1    2    0    0 -0.28143609586E+03  0.12753597825E+03  0.98943852793E+03  0.10365617751E+04  0.10566000000E+00 0.  1.
<mgrwt>
<rscale>  1 0.77959189E+03</rscale>
<asrwt>0</asrwt>
<pdfrwt beam="2">  1       21 0.27692750E-01 0.10613142E+04</pdfrwt>
<pdfrwt beam="1">  1       -4 0.43277189E+00 0.10613142E+04</pdfrwt>
<totfact> 0.20701697E+00</totfact>
</mgrwt>
</event>
<event>
 6    2  0.2321478E-005  0.1021383E+04  0.7818608E-02  0.9906119E-01
         21   -1    0    0  501  502  0.00000000000E+00  0.00000000000E+00  0.90225898050E+03  0.90225898050E+03  0.00000000000E+00 0. -1.
         -4   -1    0    0    0  501 -0.00000000000E+00 -0.00000000000E+00 -0.39505211340E+03  0.39505211340E+03  0.00000000000E+00 0. -1.
   -9000010    2    1    2    0  502 -0.54920589721E+02 -0.10821210218E+03  0.56016552462E+03  0.11649073145E+04  0.10141486608E+04 0.  0.
         13    1    3    3    0    0  0.46502523259E+03  0.64138249139E+01  0.13709646669E+03  0.48485570683E+03  0.10566000000E+00 0. -1.
         -4    1    3    3    0  502 -0.51994582231E+03 -0.11462592710E+03  0.42306905792E+03  0.68005160766E+03  0.00000000000E+00 0. -1.
        -13    1    1    2    0    0  0.54920589721E+02  0.10821210218E+03 -0.52958657509E+02  0.13240377942E+03  0.10566000000E+00 0.  1.
<mgrwt>
<rscale>  1 0.59965665E+03</rscale>
<asrwt>0</asrwt>
<pdfrwt beam="1">  1       21 0.13880907E+00 0.10213832E+04</pdfrwt>
<pdfrwt beam="2">  1       -4 0.60777248E-01 0.10213832E+04</pdfrwt>
<totfact> 0.33965043E+01</totfact>
</mgrwt>
</event>
<event>
 6    2  0.2321478E-005  0.9543660E+03  0.7818608E-02  0.9694752E-01
         21   -1    0    0  501  502  0.00000000000E+00  0.00000000000E+00  0.10566255729E+04  0.10566255729E+04  0.00000000000E+00 0. -1.
         -4   -1    0    0    0  501 -0.00000000000E+00 -0.00000000000E+00 -0.52756804333E+03  0.52756804333E+03  0.00000000000E+00 0. -1.
   -9000010    2    1    2    0  502  0.11558552066E+03 -0.27447013892E+03  0.74964498572E+03  0.12135823552E+04  0.90670869553E+03 0.  0.
         13    1    3    3    0    0  0.16006565307E+03 -0.33384460400E+03  0.93946172459E+03  0.10097829351E+04  0.10566000000E+00 0. -1.
         -4    1    3    3    0  502 -0.44480132411E+02  0.59374465080E+02 -0.18981673887E+03  0.20379942011E+03  0.00000000000E+00 0. -1.
        -13    1    1    2    0    0 -0.11558552066E+03  0.27447013892E+03 -0.22058745620E+03  0.37061126095E+03  0.10566000000E+00 0.  1.
<mgrwt>
<rscale>  1 0.71330117E+03</rscale>
<asrwt>0</asrwt>
<pdfrwt beam="1">  1       21 0.16255778E+00 0.95436603E+03</pdfrwt>
<pdfrwt beam="2">  1       -4 0.81164314E-01 0.95436603E+03</pdfrwt>
<totfact> 0.11514527E+01</totfact>
</mgrwt>
</event>
<event>
 6    2  0.2321478E-005  0.9996968E+03  0.7818608E-02  0.1019979E+00
         -4   -1    0    0    0  501 -0.00000000000E+00  0.00000000000E+00  0.51619913624E+03  0.51619913624E+03  0.00000000000E+00 0. -1.
         21   -1    0    0  501  502  0.00000000000E+00 -0.00000000000E+00 -0.53883998676E+03  0.53883998676E+03  0.00000000000E+00 0. -1.
   -9000010    2    1    2    0  502  0.51586029754E+02 -0.46030945682E+01 -0.39773957090E+02  0.10004876661E+04  0.99835429353E+03 0.  0.
         13    1    3    3    0    0 -0.76009629093E+02  0.37637690146E+03 -0.32882817417E+03  0.50553438553E+03  0.10566000000E+00 0. -1.
         -4    1    3    3    0  502  0.12759565885E+03 -0.38097999602E+03  0.28905421708E+03  0.49495328056E+03  0.00000000000E+00 0. -1.
        -13    1    1    2    0    0 -0.51586029754E+02  0.46030945682E+01  0.17133106565E+02  0.54551456901E+02  0.10566000000E+00 0.  1.
<mgrwt>
<rscale>  1 0.47694137E+03</rscale>
<asrwt>0</asrwt>
<pdfrwt beam="2">  1       21 0.82898460E-01 0.99969676E+03</pdfrwt>
<pdfrwt beam="1">  1       -4 0.79415252E-01 0.99969676E+03</pdfrwt>
<totfact> 0.68816415E+01</totfact>
</mgrwt>
</event>
<event>
 6    2  0.2321478E-005  0.1002705E+04  0.7818608E-02  0.9872244E-01
         -4   -1    0    0    0  501 -0.00000000000E+00  0.00000000000E+00  0.17417502857E+04  0.17417502857E+04  0.00000000000E+00 0. -1.
         21   -1    0    0  501  502  0.00000000000E+00 -0.00000000000E+00 -0.20841246626E+03  0.20841246626E+03  0.00000000000E+00 0. -1.
   -9000010    2    1    2    0  502  0.84325245395E+02 -0.11556765884E+03  0.10751406453E+04  0.14701509893E+04  0.99244641833E+03 0.  0.
         13    1    3    3    0    0 -0.33387881004E+03  0.43895110299E+02  0.94625220991E+03  0.10043879213E+04  0.10566000000E+00 0. -1.
         -4    1    3    3    0  502  0.41820405543E+03 -0.15946276914E+03  0.12888843542E+03  0.46576306799E+03  0.00000000000E+00 0. -1.
        -13    1    1    2    0    0 -0.84325245395E+02  0.11556765884E+03  0.45819717409E+03  0.48001176266E+03  0.10566000000E+00 0.  1.
<mgrwt>
<rscale>  1 0.61625518E+03</rscale>
<asrwt>0</asrwt>
<pdfrwt beam="2">  1       21 0.32063457E-01 0.10027046E+04</pdfrwt>
<pdfrwt beam="1">  1       -4 0.26796157E+00 0.10027046E+04</pdfrwt>
<totfact> 0.18689821E+01</totfact>
</mgrwt>
</event>
<event>
 6    2  0.2321478E-005  0.1054840E+04  0.7818608E-02  0.9556452E-01
         -4   -1    0    0    0  501 -0.00000000000E+00  0.00000000000E+00  0.14047924890E+04  0.14047924890E+04  0.00000000000E+00 0. -1.
         21   -1    0    0  501  502  0.00000000000E+00 -0.00000000000E+00 -0.37402518664E+03  0.37402518664E+03  0.00000000000E+00 0. -1.
   -9000010    2    1    2    0  502  0.34955308196E+03  0.51353495014E+02  0.57254887287E+03  0.12002084130E+04  0.99391321765E+03 0.  0.
         13    1    3    3    0    0  0.47788680170E+03  0.36079150918E+03  0.61991439484E+03  0.86188176476E+03  0.10566000000E+00 0. -1.
         -4    1    3    3    0  502 -0.12833371974E+03 -0.30943801416E+03 -0.47365521968E+02  0.33832664823E+03  0.00000000000E+00 0. -1.
        -13    1    1    2    0    0 -0.34955308196E+03 -0.51353495014E+02  0.45821842952E+03  0.57860926269E+03  0.10566000000E+00 0.  1.
<mgrwt>
<rscale>  1 0.80246765E+03</rscale>
<asrwt>0</asrwt>
<pdfrwt beam="2">  1       21 0.57542337E-01 0.10548403E+04</pdfrwt>
<pdfrwt beam="1">  1       -4 0.21612192E+00 0.10548403E+04</pdfrwt>
<totfact> 0.11351528E+01</totfact>
</mgrwt>
</event>
<event>
 6    2  0.2321478E-005  0.1023718E+04  0.7818608E-02  0.1001310E+00
         -4   -1    0    0    0  501 -0.00000000000E+00  0.00000000000E+00  0.18733086444E+03  0.18733086444E+03  0.00000000000E+00 0. -1.
         21   -1    0    0  501  502  0.00000000000E+00 -0.00000000000E+00 -0.16717654273E+04  0.16717654273E+04  0.00000000000E+00 0. -1.
   -9000010    2    1    2    0  502  0.72907691111E+02 -0.45207720713E+02 -0.14255410576E+04  0.17550399341E+04  0.10201169512E+04 0.  0.
         13    1    3    3    0    0 -0.42212367921E+03  0.52737658262E+02 -0.10282881644E+04  0.11128100562E+04  0.10566000000E+00 0. -1.
         -4    1    3    3    0  502  0.49503137032E+03 -0.97945378976E+02 -0.39725289324E+03  0.64222987789E+03  0.00000000000E+00 0. -1.
        -13    1    1    2    0    0 -0.72907691111E+02  0.45207720713E+02 -0.58893505284E+02  0.10405635763E+03  0.10566000000E+00 0.  1.
<mgrwt>
<rscale>  1 0.55079447E+03</rscale>
<asrwt>0</asrwt>
<pdfrwt beam="2">  1       21 0.25719469E+00 0.10237177E+04</pdfrwt>
<pdfrwt beam="1">  1       -4 0.28820132E-01 0.10237177E+04</pdfrwt>
<totfact> 0.22902336E+01</totfact>
</mgrwt>
</event>
<event>
 6    2  0.2321478E-005  0.1032488E+04  0.7818608E-02  0.9725536E-01
         21   -1    0    0  501  502  0.00000000000E+00  0.00000000000E+00  0.30393445188E+03  0.30393445188E+03  0.00000000000E+00 0. -1.
         -4   -1    0    0    0  501 -0.00000000000E+00 -0.00000000000E+00 -0.13155830801E+04  0.13155830801E+04  0.00000000000E+00 0. -1.
   -9000010    2    1    2    0  502  0.10712230371E+03 -0.18315003596E+03 -0.71952532062E+03  0.12584702198E+04  0.10104511287E+04 0.  0.
         13    1    3    3    0    0  0.46094196128E+02  0.40758567199E+03 -0.44180656935E+03  0.60286301165E+03  0.10566000000E+00 0. -1.
         -4    1    3    3    0  502  0.61028107584E+02 -0.59073570795E+03 -0.27771875126E+03  0.65560720814E+03  0.00000000000E+00 0. -1.
        -13    1    1    2    0    0 -0.10712230371E+03  0.18315003596E+03 -0.29212330760E+03  0.36104731218E+03  0.10566000000E+00 0.  1.
<mgrwt>
<rscale>  1 0.69516560E+03</rscale>
<asrwt>0</asrwt>
<pdfrwt beam="1">  1       21 0.46759146E-01 0.10324876E+04</pdfrwt>
<pdfrwt beam="2">  1       -4 0.20239740E+00 0.10324876E+04</pdfrwt>
<totfact> 0.21953692E+01</totfact>
</mgrwt>
</event>
<event>
 6    2  0.2321478E-005  0.1002308E+04  0.7818608E-02  0.9793148E-01
         -4   -1    0    0    0  501 -0.00000000000E+00  0.00000000000E+00  0.34653645001E+03  0.34653645001E+03  0.00000000000E+00 0. -1.
         21   -1    0    0  501  502  0.00000000000E+00 -0.00000000000E+00 -0.13864796449E+04  0.13864796449E+04  0.00000000000E+00 0. -1.
   -9000010    2    1    2    0  502 -0.17731818462E+03  0.54116586062E+02 -0.11435527909E+04  0.15206360039E+04  0.98501295794E+03 0.  0.
         13    1    3    3    0    0  0.16393266180E+03  0.30849768078E+02  0.12393256496E+03  0.20780981116E+03  0.10566000000E+00 0. -1.
         -4    1    3    3    0  502 -0.34125084642E+03  0.23266817984E+02 -0.12674853559E+04  0.13128261928E+04  0.00000000000E+00 0. -1.
        -13    1    1    2    0    0  0.17731818462E+03 -0.54116586062E+02  0.10360959606E+03  0.21238009098E+03  0.10566000000E+00 0.  1.
<mgrwt>
<rscale>  1 0.65731543E+03</rscale>
<asrwt>0</asrwt>
<pdfrwt beam="2">  1       21 0.21330456E+00 0.10023078E+04</pdfrwt>
<pdfrwt beam="1">  1       -4 0.53313299E-01 0.10023078E+04</pdfrwt>
<totfact> 0.12637595E+01</totfact>
</mgrwt>
</event>
<event>
 6    2  0.2321478E-005  0.1005904E+04  0.7818608E-02  0.9807030E-01
         21   -1    0    0  501  502  0.00000000000E+00  0.00000000000E+00  0.33178490191E+03  0.33178490191E+03  0.00000000000E+00 0. -1.
         -4   -1    0    0    0  501 -0.00000000000E+00 -0.00000000000E+00 -0.14329324277E+04  0.14329324277E+04  0.00000000000E+00 0. -1.
   -9000010    2    1    2    0  502  0.16989727654E+03  0.42929174990E+02 -0.47110351432E+03  0.11107574943E+04  0.99052293831E+03 0.  0.
         13    1    3    3    0    0  0.11824119416E+03 -0.22301541923E+02  0.30621017777E+03  0.32900307431E+03  0.10566000000E+00 0. -1.
         -4    1    3    3    0  502  0.51656082382E+02  0.65230716913E+02 -0.77731369209E+03  0.78175442000E+03  0.00000000000E+00 0. -1.
        -13    1    1    2    0    0 -0.16989727654E+03 -0.42929174990E+02 -0.63004401151E+03  0.65395983535E+03  0.10566000000E+00 0.  1.
<mgrwt>
<rscale>  1 0.64986627E+03</rscale>
<asrwt>0</asrwt>
<pdfrwt beam="1">  1       21 0.51043832E-01 0.10059044E+04</pdfrwt>
<pdfrwt beam="2">  1       -4 0.22045114E+00 0.10059044E+04</pdfrwt>
<totfact> 0.13922505E+01</totfact>
</mgrwt>
</event>
<event>
 6    2  0.2321478E-005  0.1073931E+04  0.7818608E-02  0.9533890E-01
         21   -1    0    0  501  502  0.00000000000E+00  0.00000000000E+00  0.37718834993E+03  0.37718834993E+03  0.00000000000E+00 0.  1.
         -4   -1    0    0    0  501 -0.00000000000E+00 -0.00000000000E+00 -0.13877226752E+04  0.13877226752E+04  0.00000000000E+00 0. -1.
   -9000010    2    1    2    0  502 -0.14984290085E+03 -0.32955717947E+03 -0.84659713625E+03  0.13674990945E+04  0.10110718238E+04 0.  0.
         13    1    3    3    0    0  0.35351461834E+03 -0.39286539018E+03 -0.61183484590E+03  0.80849099563E+03  0.10566000000E+00 0. -1.
         -4    1    3    3    0  502 -0.50335751920E+03  0.63308210704E+02 -0.23476229034E+03  0.55900809890E+03  0.00000000000E+00 0. -1.
        -13    1    1    2    0    0  0.14984290085E+03  0.32955717947E+03 -0.16393718902E+03  0.39741193061E+03  0.10566000000E+00 0.  1.
<mgrwt>
<rscale>  1 0.81830717E+03</rscale>
<asrwt>0</asrwt>
<pdfrwt beam="1">  1       21 0.58028976E-01 0.10739307E+04</pdfrwt>
<pdfrwt beam="2">  1       -4 0.21349580E+00 0.10739307E+04</pdfrwt>
<totfact> 0.11560665E+01</totfact>
</mgrwt>
</event>
<event>
 6    2  0.2321478E-005  0.1060731E+04  0.7818608E-02  0.9650555E-01
         -4   -1    0    0    0  501 -0.00000000000E+00  0.00000000000E+00  0.93353215331E+03  0.93353215331E+03  0.00000000000E+00 0. -1.
         21   -1    0    0  501  502  0.00000000000E+00 -0.00000000000E+00 -0.67890328896E+03  0.67890328896E+03  0.00000000000E+00 0. -1.
   -9000010    2    1    2    0  502 -0.12584824843E+03 -0.21806872672E+03 -0.21246932057E+03  0.10818014095E+04  0.10304170642E+04 0.  0.
         13    1    3    3    0    0 -0.15963065048E+03  0.24475729744E+03  0.28030228329E+03  0.40491660920E+03  0.10566000000E+00 0. -1.
         -4    1    3    3    0  502  0.33782402045E+02 -0.46282602416E+03 -0.49277160386E+03  0.67688480031E+03  0.00000000000E+00 0. -1.
        -13    1    1    2    0    0  0.12584824843E+03  0.21806872672E+03  0.46709818492E+03  0.53063403276E+03  0.10566000000E+00 0.  1.
<mgrwt>
<rscale>  1 0.74038595E+03</rscale>
<asrwt>0</asrwt>
<pdfrwt beam="2">  1       21 0.10444666E+00 0.10607314E+04</pdfrwt>
<pdfrwt beam="1">  1       -4 0.14362033E+00 0.10607314E+04</pdfrwt>
<totfact> 0.90993120E+00</totfact>
</mgrwt>
</event>
<event>
 6    2  0.2321478E-005  0.1016526E+04  0.7818608E-02  0.9735756E-01
         21   -1    0    0  501  502  0.00000000000E+00  0.00000000000E+00  0.19258550981E+03  0.19258550981E+03  0.00000000000E+00 0. -1.
         -4   -1    0    0    0  501 -0.00000000000E+00 -0.00000000000E+00 -0.19948076773E+04  0.19948076773E+04  0.00000000000E+00 0. -1.
   -9000010    2    1    2    0  502  0.20822467434E+03 -0.53089452191E+02 -0.13840679367E+04  0.17172559978E+04  0.99355327157E+03 0.  0.
         13    1    3    3    0    0  0.11805532681E+03  0.13389984499E+02  0.14309439694E+03  0.18599024026E+03  0.10566000000E+00 0. -1.
         -4    1    3    3    0  502  0.90169347523E+02 -0.66479436690E+02 -0.15271623337E+04  0.15312657575E+04  0.00000000000E+00 0. -1.
        -13    1    1    2    0    0 -0.20822467434E+03  0.53089452191E+02 -0.41815423070E+03  0.47013718929E+03  0.10566000000E+00 0.  1.
<mgrwt>
<rscale>  1 0.68927221E+03</rscale>
<asrwt>0</asrwt>
<pdfrwt beam="1">  1       21 0.29628542E-01 0.10165255E+04</pdfrwt>
<pdfrwt beam="2">  1       -4 0.30689347E+00 0.10165255E+04</pdfrwt>
<totfact> 0.12591461E+01</totfact>
</mgrwt>
</event>
<event>
 6    2  0.2321478E-005  0.1079372E+04  0.7818608E-02  0.9639033E-01
         21   -1    0    0  501  502  0.00000000000E+00  0.00000000000E+00  0.57017310938E+03  0.57017310938E+03  0.00000000000E+00 0. -1.
         -4   -1    0    0    0  501 -0.00000000000E+00 -0.00000000000E+00 -0.12669052035E+04  0.12669052035E+04  0.00000000000E+00 0. -1.
   -9000010    2    1    2    0  502  0.12800255175E+03  0.21297604837E+03  0.18896471596E+02  0.10795377492E+04  0.10503814663E+04 0.  0.
         13    1    3    3    0    0  0.43402255741E+03  0.37533701311E+03 -0.26462328073E+03  0.63188523136E+03  0.10566000000E+00 0. -1.
         -4    1    3    3    0  502 -0.30602000566E+03 -0.16236096474E+03  0.28351975232E+03  0.44765251780E+03  0.00000000000E+00 0. -1.
        -13    1    1    2    0    0 -0.12800255175E+03 -0.21297604837E+03 -0.71562856569E+03  0.75754056369E+03  0.10566000000E+00 0.  1.
<mgrwt>
<rscale>  1 0.74765689E+03</rscale>
<asrwt>0</asrwt>
<pdfrwt beam="1">  1       21 0.87718941E-01 0.10793724E+04</pdfrwt>
<pdfrwt beam="2">  1       -4 0.19490849E+00 0.10793724E+04</pdfrwt>
<totfact> 0.59037969E+00</totfact>
</mgrwt>
</event>
<event>
 6    2  0.2321478E-005  0.1742037E+04  0.7818608E-02  0.8786121E-01
         -4   -1    0    0    0  501 -0.00000000000E+00  0.00000000000E+00  0.12809121054E+04  0.12809121054E+04  0.00000000000E+00 0. -1.
         21   -1    0    0  501  502  0.00000000000E+00 -0.00000000000E+00 -0.19741336730E+04  0.19741336730E+04  0.00000000000E+00 0.  1.
   -9000010    2    1    2    0  502  0.85573613196E+03  0.11418213710E+04 -0.24361592583E+03  0.17589890899E+04  0.99932653738E+03 0.  0.
         13    1    3    3    0    0 -0.21645230924E+03  0.33684154783E+03 -0.32211395342E+02  0.40168571754E+03  0.10566000000E+00 0. -1.
         -4    1    3    3    0  502  0.10721884412E+04  0.80497982316E+03 -0.21140453049E+03  0.13573033724E+04  0.00000000000E+00 0. -1.
        -13    1    1    2    0    0 -0.85573613196E+03 -0.11418213710E+04 -0.44960564185E+03  0.14960566885E+04  0.10566000000E+00 0.  1.
<mgrwt>
<rscale>  1 0.16572630E+04</rscale>
<asrwt>0</asrwt>
<pdfrwt beam="2">  1       21 0.30371287E+00 0.17420373E+04</pdfrwt>
<pdfrwt beam="1">  1       -4 0.19706340E+00 0.17420373E+04</pdfrwt>
<totfact> 0.11685564E-01</totfact>
</mgrwt>
</event>
<event>
 6    2  0.2321478E-005  0.1000934E+04  0.7818608E-02  0.9933761E-01
         -4   -1    0    0    0  501 -0.00000000000E+00  0.00000000000E+00  0.96214051947E+03  0.96214051947E+03  0.00000000000E+00 0. -1.
         21   -1    0    0  501  502  0.00000000000E+00 -0.00000000000E+00 -0.36184079659E+03  0.36184079659E+03  0.00000000000E+00 0. -1.
   -9000010    2    1    2    0  502 -0.59103714106E+02 -0.10214715349E+03  0.37356445596E+03  0.10683718827E+04  0.99395210500E+03 0.  0.
         13    1    3    3    0    0  0.23555114744E+03 -0.39041924273E+03  0.45944656394E+03  0.64730416685E+03  0.10566000000E+00 0. -1.
         -4    1    3    3    0  502 -0.29465486154E+03  0.28827208924E+03 -0.85882107980E+02  0.42106771586E+03  0.00000000000E+00 0. -1.
        -13    1    1    2    0    0  0.59103714106E+02  0.10214715349E+03  0.22673526693E+03  0.25560943335E+03  0.10566000000E+00 0.  1.
<mgrwt>
<rscale>  1 0.58652607E+03</rscale>
<asrwt>0</asrwt>
<pdfrwt beam="2">  1       21 0.55667815E-01 0.10009336E+04</pdfrwt>
<pdfrwt beam="1">  1       -4 0.14802162E+00 0.10009336E+04</pdfrwt>
<totfact> 0.36807088E+01</totfact>
</mgrwt>
</event>
<event>
 6    2  0.2321478E-005  0.9935319E+03  0.7818608E-02  0.1029330E+00
         -4   -1    0    0    0  501 -0.00000000000E+00  0.00000000000E+00  0.29958955527E+03  0.29958955527E+03  0.00000000000E+00 0. -1.
         21   -1    0    0  501  502  0.00000000000E+00 -0.00000000000E+00 -0.92547639499E+03  0.92547639499E+03  0.00000000000E+00 0. -1.
   -9000010    2    1    2    0  502  0.36919790187E+02  0.15021542688E+02 -0.64108162084E+03  0.11824090611E+04  0.99273200091E+03 0.  0.
         13    1    3    3    0    0  0.90027150323E+02 -0.44111253652E+03 -0.55593560563E+03  0.71536673563E+03  0.10566000000E+00 0. -1.
         -4    1    3    3    0  502 -0.53107360135E+02  0.45613407921E+03 -0.85146015215E+02  0.46704232551E+03  0.00000000000E+00 0. -1.
        -13    1    1    2    0    0 -0.36919790187E+02 -0.15021542688E+02  0.15194781118E+02  0.42656889120E+02  0.10566000000E+00 0.  1.
<mgrwt>
<rscale>  1 0.44464925E+03</rscale>
<asrwt>0</asrwt>
<pdfrwt beam="2">  1       21 0.14238098E+00 0.99353185E+03</pdfrwt>
<pdfrwt beam="1">  1       -4 0.46090701E-01 0.99353185E+03</pdfrwt>
<totfact> 0.57298556E+01</totfact>
</mgrwt>
</event>
<event>
 6    2  0.2321478E-005  0.9849208E+03  0.7818608E-02  0.1000050E+00
         21   -1    0    0  501  502  0.00000000000E+00  0.00000000000E+00  0.78938951306E+03  0.78938951306E+03  0.00000000000E+00 0. -1.
         -4   -1    0    0    0  501 -0.00000000000E+00 -0.00000000000E+00 -0.43752029990E+03  0.43752029990E+03  0.00000000000E+00 0. -1.
   -9000010    2    1    2    0  502  0.17700840789E+02 -0.98650036187E+02  0.45337695984E+03  0.10842599507E+04  0.97980805445E+03 0.  0.
         13    1    3    3    0    0  0.41189217780E+03 -0.12495336125E+03 -0.62011778410E+02  0.43487237259E+03  0.10566000000E+00 0. -1.
         -4    1    3    3    0  502 -0.39419133701E+03  0.26303325064E+02  0.51538873825E+03  0.64938757810E+03  0.00000000000E+00 0. -1.
        -13    1    1    2    0    0 -0.17700840789E+02  0.98650036187E+02 -0.10150774668E+03  0.14264986226E+03  0.10566000000E+00 0.  1.
<mgrwt>
<rscale>  1 0.55628275E+03</rscale>
<asrwt>0</asrwt>
<pdfrwt beam="1">  1       21 0.12144454E+00 0.98492080E+03</pdfrwt>
<pdfrwt beam="2">  1       -4 0.67310816E-01 0.98492080E+03</pdfrwt>
<totfact> 0.38822104E+01</totfact>
</mgrwt>
</event>
<event>
 6    2  0.2321478E-005  0.1169436E+04  0.7818608E-02  0.9335032E-01
         21   -1    0    0  501  502  0.00000000000E+00  0.00000000000E+00  0.87748571287E+03  0.87748571287E+03  0.00000000000E+00 0. -1.
         -4   -1    0    0    0  501 -0.00000000000E+00 -0.00000000000E+00 -0.10832256644E+04  0.10832256644E+04  0.00000000000E+00 0. -1.
   -9000010    2    1    2    0  502  0.47676582376E+03 -0.30847289707E+03  0.29227834508E+03  0.12054078530E+04  0.10223112452E+04 0.  0.
         13    1    3    3    0    0  0.56183819708E+03  0.23792036122E+03  0.90733221157E+02  0.61684745810E+03  0.10566000000E+00 0. -1.
         -4    1    3    3    0  502 -0.85072373320E+02 -0.54639325829E+03  0.20154512392E+03  0.58856039485E+03  0.00000000000E+00 0. -1.
        -13    1    1    2    0    0 -0.47676582376E+03  0.30847289707E+03 -0.49801829662E+03  0.75530352433E+03  0.10566000000E+00 0.  1.
<mgrwt>
<rscale>  1 0.97620749E+03</rscale>
<asrwt>0</asrwt>
<pdfrwt beam="1">  1       21 0.13499780E+00 0.11694364E+04</pdfrwt>
<pdfrwt beam="2">  1       -4 0.16665010E+00 0.11694364E+04</pdfrwt>
<totfact> 0.30776666E+00</totfact>
</mgrwt>
</event>
<event>
 6    2  0.2321478E-005  0.1009923E+04  0.7818608E-02  0.9669064E-01
         21   -1    0    0  501  502  0.00000000000E+00  0.00000000000E+00  0.23596538054E+04  0.23596538054E+04  0.00000000000E+00 0. -1.
         -4   -1    0    0    0  501 -0.00000000000E+00 -0.00000000000E+00 -0.17492551450E+03  0.17492551450E+03  0.00000000000E+00 0. -1.
   -9000010    2    1    2    0  502 -0.23356728628E+03  0.14329548594E+03  0.17582794825E+04  0.20276810353E+04  0.97203722618E+03 0.  0.
         13    1    3    3    0    0 -0.15866845308E+03  0.12034075725E+03 -0.59790407443E+02  0.20792421659E+03  0.10566000000E+00 0. -1.
         -4    1    3    3    0  502 -0.74898833200E+02  0.22954728689E+02  0.18180698899E+04  0.18197568187E+04  0.00000000000E+00 0. -1.
        -13    1    1    2    0    0  0.23356728628E+03 -0.14329548594E+03  0.42644880843E+03  0.50689828456E+03  0.10566000000E+00 0.  1.
<mgrwt>
<rscale>  1 0.72888979E+03</rscale>
<asrwt>0</asrwt>
<pdfrwt beam="1">  1       21 0.36302364E+00 0.10099226E+04</pdfrwt>
<pdfrwt beam="2">  1       -4 0.26911619E-01 0.10099226E+04</pdfrwt>
<totfact> 0.56966305E+00</totfact>
</mgrwt>
</event>
<event>
 6    2  0.2321478E-005  0.1015918E+04  0.7818608E-02  0.9788454E-01
         21   -1    0    0  501  502  0.00000000000E+00  0.00000000000E+00  0.17117939679E+03  0.17117939679E+03  0.00000000000E+00 0. -1.
         -4   -1    0    0    0  501 -0.00000000000E+00 -0.00000000000E+00 -0.25909943765E+04  0.25909943765E+04  0.00000000000E+00 0. -1.
   -9000010    2    1    2    0  502  0.10483325534E+03  0.14731945075E+03 -0.14191314914E+04  0.17452861261E+04  0.99969817456E+03 0.  0.
         13    1    3    3    0    0 -0.41002902496E+03  0.26356371534E+03 -0.64984102555E+03  0.81233183060E+03  0.10566000000E+00 0. -1.
         -4    1    3    3    0  502  0.51486228030E+03 -0.11624426458E+03 -0.76929046586E+03  0.93295429555E+03  0.00000000000E+00 0. -1.
        -13    1    1    2    0    0 -0.10483325534E+03 -0.14731945075E+03 -0.10006834882E+04  0.10168876471E+04  0.10566000000E+00 0.  1.
<mgrwt>
<rscale>  1 0.65985866E+03</rscale>
<asrwt>0</asrwt>
<pdfrwt beam="1">  1       21 0.26335294E-01 0.10159180E+04</pdfrwt>
<pdfrwt beam="2">  1       -4 0.39861448E+00 0.10159180E+04</pdfrwt>
<totfact> 0.40246954E+00</totfact>
</mgrwt>
</event>
<event>
 6    2  0.2321478E-005  0.1014241E+04  0.7818608E-02  0.9880050E-01
         21   -1    0    0  501  502  0.00000000000E+00  0.00000000000E+00  0.82754024749E+03  0.82754024749E+03  0.00000000000E+00 0. -1.
         -4   -1    0    0    0  501 -0.00000000000E+00 -0.00000000000E+00 -0.41404401723E+03  0.41404401723E+03  0.00000000000E+00 0. -1.
   -9000010    2    1    2    0  502 -0.66792819937E+02  0.11707796593E+03  0.43766719437E+03  0.11046434835E+04  0.10052443094E+04 0.  0.
         13    1    3    3    0    0 -0.50645263482E+03  0.67434463431E+02  0.44696148133E+02  0.51287370277E+03  0.10566000000E+00 0. -1.
         -4    1    3    3    0  502  0.43965981488E+03  0.49643502503E+02  0.39297104624E+03  0.59176978069E+03  0.00000000000E+00 0. -1.
        -13    1    1    2    0    0  0.66792819937E+02 -0.11707796593E+03 -0.24170964111E+02  0.13694078126E+03  0.10566000000E+00 0.  1.
<mgrwt>
<rscale>  1 0.61237980E+03</rscale>
<asrwt>0</asrwt>
<pdfrwt beam="1">  1       21 0.12731388E+00 0.10142409E+04</pdfrwt>
<pdfrwt beam="2">  1       -4 0.63699080E-01 0.10142409E+04</pdfrwt>
<totfact> 0.38639216E+01</totfact>
</mgrwt>
</event>
<event>
 6    2  0.2321478E-005  0.1037384E+04  0.7818608E-02  0.1007641E+00
         -4   -1    0    0    0  501 -0.00000000000E+00  0.00000000000E+00  0.66715789435E+03  0.66715789435E+03  0.00000000000E+00 0. -1.
         21   -1    0    0  501  502  0.00000000000E+00 -0.00000000000E+00 -0.45821050611E+03  0.45821050611E+03  0.00000000000E+00 0. -1.
   -9000010    2    1    2    0  502 -0.68850175198E+01  0.67298358243E+02  0.18596170515E+03  0.10539203404E+04  0.10351762438E+04 0.  0.
         13    1    3    3    0    0 -0.39989334982E+03 -0.10631439963E+03 -0.21494188567E+03  0.46628046086E+03  0.10566000000E+00 0. -1.
         -4    1    3    3    0  502  0.39300833230E+03  0.17361275788E+03  0.40090359081E+03  0.58763987959E+03  0.00000000000E+00 0. -1.
        -13    1    1    2    0    0  0.68850175198E+01 -0.67298358243E+02  0.22985683086E+02  0.71448060012E+02  0.10566000000E+00 0.  1.
<mgrwt>
<rscale>  1 0.52422927E+03</rscale>
<asrwt>0</asrwt>
<pdfrwt beam="2">  1       21 0.70493924E-01 0.10373844E+04</pdfrwt>
<pdfrwt beam="1">  1       -4 0.10263968E+00 0.10373844E+04</pdfrwt>
<totfact> 0.54702255E+01</totfact>
</mgrwt>
</event>
<event>
 6    2  0.2321478E-005  0.1039315E+04  0.7818608E-02  0.9622764E-01
         -4   -1    0    0    0  501 -0.00000000000E+00  0.00000000000E+00  0.19236215471E+04  0.19236215471E+04  0.00000000000E+00 0. -1.
         21   -1    0    0  501  502  0.00000000000E+00 -0.00000000000E+00 -0.27653375249E+03  0.27653375249E+03  0.00000000000E+00 0. -1.
   -9000010    2    1    2    0  502 -0.10841959512E+03  0.27347000979E+03  0.82479394512E+03  0.13268238385E+04  0.99681281675E+03 0.  0.
         13    1    3    3    0    0  0.19278584622E+03 -0.72362383220E+02 -0.14649144814E+03  0.25271021457E+03  0.10566000000E+00 0. -1.
         -4    1    3    3    0  502 -0.30120544134E+03  0.34583239301E+03  0.97128539326E+03  0.10741136239E+04  0.00000000000E+00 0. -1.
        -13    1    1    2    0    0  0.10841959512E+03 -0.27347000979E+03  0.82229384946E+03  0.87333146106E+03  0.10566000000E+00 0.  1.
<mgrwt>
<rscale>  1 0.75807652E+03</rscale>
<asrwt>0</asrwt>
<pdfrwt beam="2">  1       21 0.42543655E-01 0.10393154E+04</pdfrwt>
<pdfrwt beam="1">  1       -4 0.29594177E+00 0.10393154E+04</pdfrwt>
<totfact> 0.69618011E+00</totfact>
</mgrwt>
</event>
<event>
 6    2  0.2321478E-005  0.9756315E+03  0.7818608E-02  0.9696966E-01
         -4   -1    0    0    0  501 -0.00000000000E+00  0.00000000000E+00  0.19742351889E+04  0.19742351889E+04  0.00000000000E+00 0. -1.
         21   -1    0    0  501  502  0.00000000000E+00 -0.00000000000E+00 -0.32760272097E+03  0.32760272097E+03  0.00000000000E+00 0. -1.
   -9000010    2    1    2    0  502  0.25773788810E+03 -0.10066442905E+03  0.45140332241E+03  0.10749985285E+04  0.93557187353E+03 0.  0.
         13    1    3    3    0    0  0.30623174074E+03  0.99473242422E+02  0.68903494871E+03  0.76055373032E+03  0.10566000000E+00 0. -1.
         -4    1    3    3    0  502 -0.48493852634E+02 -0.20013767147E+03 -0.23763162629E+03  0.31444479818E+03  0.00000000000E+00 0. -1.
        -13    1    1    2    0    0 -0.25773788810E+03  0.10066442905E+03  0.11952291455E+04  0.12268393814E+04  0.10566000000E+00 0.  1.
<mgrwt>
<rscale>  1 0.71197729E+03</rscale>
<asrwt>0</asrwt>
<pdfrwt beam="2">  1       21 0.50400420E-01 0.97563153E+03</pdfrwt>
<pdfrwt beam="1">  1       -4 0.30372848E+00 0.97563153E+03</pdfrwt>
<totfact> 0.43750250E+00</totfact>
</mgrwt>
</event>
<event>
 6    2  0.2321478E-005  0.1009660E+04  0.7818608E-02  0.9866335E-01
         21   -1    0    0  501  502  0.00000000000E+00  0.00000000000E+00  0.18773101702E+03  0.18773101702E+03  0.00000000000E+00 0. -1.
         -4   -1    0    0    0  501 -0.00000000000E+00 -0.00000000000E+00 -0.17793416249E+04  0.17793416249E+04  0.00000000000E+00 0. -1.
   -9000010    2    1    2    0  502  0.85770899741E+02 -0.11421147721E+03 -0.13407402100E+04  0.16783913705E+04  0.99950606457E+03 0.  0.
         13    1    3    3    0    0  0.42399459464E+03 -0.35533897064E+03 -0.52344380456E+03  0.76159741862E+03  0.10566000000E+00 0. -1.
         -4    1    3    3    0  502 -0.33822369490E+03  0.24112749343E+03 -0.81729640544E+03  0.91679395190E+03  0.00000000000E+00 0. -1.
        -13    1    1    2    0    0 -0.85770899741E+02  0.11421147721E+03 -0.25087039786E+03  0.28868127140E+03  0.10566000000E+00 0.  1.
<mgrwt>
<rscale>  1 0.61920945E+03</rscale>
<asrwt>0</asrwt>
<pdfrwt beam="1">  1       21 0.28881695E-01 0.10096600E+04</pdfrwt>
<pdfrwt beam="2">  1       -4 0.27374487E+00 0.10096600E+04</pdfrwt>
<totfact> 0.21254680E+01</totfact>
</mgrwt>
</event>
<event>
 6    2  0.2321478E-005  0.1195243E+04  0.7818608E-02  0.9277985E-01
         -4   -1    0    0    0  501 -0.00000000000E+00  0.00000000000E+00  0.11000821601E+04  0.11000821601E+04  0.00000000000E+00 0. -1.
         21   -1    0    0  501  502  0.00000000000E+00 -0.00000000000E+00 -0.79207635257E+03  0.79207635257E+03  0.00000000000E+00 0.  1.
   -9000010    2    1    2    0  502 -0.16564448903E+03  0.63364037517E+03  0.77155982963E+02  0.11977307811E+04  0.99983386440E+03 0.  0.
         13    1    3    3    0    0  0.34151378028E+03  0.59471389663E+03  0.65916514415E+02  0.68895665974E+03  0.10566000000E+00 0. -1.
         -4    1    3    3    0  502 -0.50715826932E+03  0.38926478537E+02  0.11239468548E+02  0.50877412132E+03  0.00000000000E+00 0. -1.
        -13    1    1    2    0    0  0.16564448903E+03 -0.63364037517E+03  0.23084982460E+03  0.69442773164E+03  0.10566000000E+00 0.  1.
<mgrwt>
<rscale>  1 0.10283513E+04</rscale>
<asrwt>0</asrwt>
<pdfrwt beam="2">  1       21 0.12185790E+00 0.11952431E+04</pdfrwt>
<pdfrwt beam="1">  1       -4 0.16924341E+00 0.11952431E+04</pdfrwt>
<totfact> 0.38571043E+00</totfact>
</mgrwt>
</event>
<event>
 6    2  0.2321478E-005  0.9984864E+03  0.7818608E-02  0.9927383E-01
         21   -1    0    0  501  502  0.00000000000E+00  0.00000000000E+00  0.10476502632E+04  0.10476502632E+04  0.00000000000E+00 0. -1.
         -4   -1    0    0    0  501 -0.00000000000E+00 -0.00000000000E+00 -0.40198398121E+03  0.40198398121E+03  0.00000000000E+00 0. -1.
   -9000010    2    1    2    0  502 -0.10167719412E+03  0.66207038572E+02  0.78116458282E+03  0.12677512477E+04  0.99108702793E+03 0.  0.
         13    1    3    3    0    0 -0.46355375673E+03  0.42697200856E+01  0.77200835050E+03  0.90049831777E+03  0.10566000000E+00 0. -1.
         -4    1    3    3    0  502  0.36187656261E+03  0.61937318486E+02  0.91562323207E+01  0.36725292998E+03  0.00000000000E+00 0. -1.
        -13    1    1    2    0    0  0.10167719412E+03 -0.66207038572E+02 -0.13549830087E+03  0.18188299664E+03  0.10566000000E+00 0.  1.
<mgrwt>
<rscale>  1 0.58952351E+03</rscale>
<asrwt>0</asrwt>
<pdfrwt beam="1">  1       21 0.16117696E+00 0.99848641E+03</pdfrwt>
<pdfrwt beam="2">  1       -4 0.61843690E-01 0.99848641E+03</pdfrwt>
<totfact> 0.21606851E+01</totfact>
</mgrwt>
</event>
<event>
 6    2  0.2321478E-005  0.9782321E+03  0.7818608E-02  0.9878002E-01
         21   -1    0    0  501  502  0.00000000000E+00  0.00000000000E+00  0.14068777014E+04  0.14068777014E+04  0.00000000000E+00 0. -1.
         -4   -1    0    0    0  501 -0.00000000000E+00 -0.00000000000E+00 -0.22715119013E+03  0.22715119013E+03  0.00000000000E+00 0. -1.
   -9000010    2    1    2    0  502  0.66798136494E+02  0.13567516828E+03  0.10460910596E+04  0.14322166336E+04  0.96647205772E+03 0.  0.
         13    1    3    3    0    0 -0.11337476739E+03  0.34871802961E+02 -0.16524636927E+03  0.20341153911E+03  0.10566000000E+00 0. -1.
         -4    1    3    3    0  502  0.18017290388E+03  0.10080336532E+03  0.12113374289E+04  0.12288050945E+04  0.00000000000E+00 0. -1.
        -13    1    1    2    0    0 -0.66798136494E+02 -0.13567516828E+03  0.13363545166E+03  0.20181225789E+03  0.10566000000E+00 0.  1.
<mgrwt>
<rscale>  1 0.61339341E+03</rscale>
<asrwt>0</asrwt>
<pdfrwt beam="1">  1       21 0.21644272E+00 0.97823207E+03</pdfrwt>
<pdfrwt beam="2">  1       -4 0.34946338E-01 0.97823207E+03</pdfrwt>
<totfact> 0.28879843E+01</totfact>
</mgrwt>
</event>
<event>
 6    2  0.2321478E-005  0.1054449E+04  0.7818608E-02  0.9941855E-01
         21   -1    0    0  501  502  0.00000000000E+00  0.00000000000E+00  0.17011839793E+04  0.17011839793E+04  0.00000000000E+00 0. -1.
         -4   -1    0    0    0  501 -0.00000000000E+00 -0.00000000000E+00 -0.19565410801E+03  0.19565410801E+03  0.00000000000E+00 0. -1.
   -9000010    2    1    2    0  502 -0.88883072993E+02  0.42142307485E+02  0.13984327220E+04  0.17514214951E+04  0.10498509422E+04 0.  0.
         13    1    3    3    0    0  0.10323486218E+03  0.42149543591E+03  0.19628065712E+03  0.47627927394E+03  0.10566000000E+00 0. -1.
         -4    1    3    3    0  502 -0.19211793518E+03 -0.37935312843E+03  0.12021520649E+04  0.12751422211E+04  0.00000000000E+00 0. -1.
        -13    1    1    2    0    0  0.88883072993E+02 -0.42142307485E+02  0.10709714929E+03  0.14541659223E+03  0.10566000000E+00 0.  1.
<mgrwt>
<rscale>  1 0.58275000E+03</rscale>
<asrwt>0</asrwt>
<pdfrwt beam="1">  1       21 0.26172060E+00 0.10544492E+04</pdfrwt>
<pdfrwt beam="2">  1       -4 0.30100633E-01 0.10544492E+04</pdfrwt>
<totfact> 0.19613485E+01</totfact>
</mgrwt>
</event>
<event>
 6    2  0.2321478E-005  0.1030237E+04  0.7818608E-02  0.9805956E-01
         21   -1    0    0  501  502  0.00000000000E+00  0.00000000000E+00  0.20234642695E+03  0.20234642695E+03  0.00000000000E+00 0. -1.
         -4   -1    0    0    0  501 -0.00000000000E+00 -0.00000000000E+00 -0.21122025409E+04  0.21122025409E+04  0.00000000000E+00 0. -1.
   -9000010    2    1    2    0  502 -0.13664526130E+03 -0.90119289644E+02 -0.11795257150E+04  0.15660999605E+04  0.10171503134E+04 0.  0.
         13    1    3    3    0    0 -0.27366187462E+03  0.38927626149E+03 -0.32329414763E+03  0.57527901616E+03  0.10566000000E+00 0. -1.
         -4    1    3    3    0  502  0.13701661332E+03 -0.47939555114E+03 -0.85623156732E+03  0.99082094430E+03  0.00000000000E+00 0. -1.
        -13    1    1    2    0    0  0.13664526130E+03  0.90119289644E+02 -0.73033039898E+03  0.74844900738E+03  0.10566000000E+00 0.  1.
<mgrwt>
<rscale>  1 0.65043870E+03</rscale>
<asrwt>0</asrwt>
<pdfrwt beam="1">  1       21 0.31130219E-01 0.10302370E+04</pdfrwt>
<pdfrwt beam="2">  1       -4 0.32495424E+00 0.10302370E+04</pdfrwt>
<totfact> 0.87659820E+00</totfact>
</mgrwt>
</event>
<event>
 6    2  0.2321478E-005  0.1067178E+04  0.7818608E-02  0.9473756E-01
         21   -1    0    0  501  502  0.00000000000E+00  0.00000000000E+00  0.79490708148E+03  0.79490708148E+03  0.00000000000E+00 0. -1.
         -4   -1    0    0    0  501 -0.00000000000E+00 -0.00000000000E+00 -0.73162589849E+03  0.73162589849E+03  0.00000000000E+00 0. -1.
   -9000010    2    1    2    0  502  0.36452264487E+03 -0.27273395047E+03  0.20898405310E+01  0.10671802202E+04  0.96519878189E+03 0.  0.
         13    1    3    3    0    0  0.47045117702E+03 -0.22005853069E+03  0.39776882453E+03  0.65419424930E+03  0.10566000000E+00 0. -1.
         -4    1    3    3    0  502 -0.10592853215E+03 -0.52675419777E+02 -0.39567898399E+03  0.41298597088E+03  0.00000000000E+00 0. -1.
        -13    1    1    2    0    0 -0.36452264487E+03  0.27273395047E+03  0.61191342462E+02  0.45935275978E+03  0.10566000000E+00 0.  1.
<mgrwt>
<rscale>  1 0.86246671E+03</rscale>
<asrwt>0</asrwt>
<pdfrwt beam="1">  1       21 0.12229340E+00 0.10671782E+04</pdfrwt>
<pdfrwt beam="2">  1       -4 0.11255783E+00 0.10671782E+04</pdfrwt>
<totfact> 0.11335494E+01</totfact>
</mgrwt>
</event>
<event>
 6    2  0.2321478E-005  0.1005121E+04  0.7818608E-02  0.1021905E+00
         -4   -1    0    0    0  501 -0.00000000000E+00  0.00000000000E+00  0.53499133473E+03  0.53499133473E+03  0.00000000000E+00 0. -1.
         21   -1    0    0  501  502  0.00000000000E+00 -0.00000000000E+00 -0.52131342521E+03  0.52131342521E+03  0.00000000000E+00 0. -1.
   -9000010    2    1    2    0  502 -0.33398299318E+02  0.34582038173E+02 -0.38609681975E+01  0.10051287191E+04  0.10039708517E+04 0.  0.
         13    1    3    3    0    0 -0.31032957640E+03 -0.19178988611E+03  0.34743637322E+03  0.50378552084E+03  0.10566000000E+00 0. -1.
         -4    1    3    3    0  502  0.27693127709E+03  0.22637192428E+03 -0.35129734142E+03  0.50134319824E+03  0.00000000000E+00 0. -1.
        -13    1    1    2    0    0  0.33398299318E+02 -0.34582038173E+02  0.17538877718E+02  0.51176040851E+02  0.10566000000E+00 0.  1.
<mgrwt>
<rscale>  1 0.47005390E+03</rscale>
<asrwt>0</asrwt>
<pdfrwt beam="2">  1       21 0.80202066E-01 0.10051213E+04</pdfrwt>
<pdfrwt beam="1">  1       -4 0.82306359E-01 0.10051213E+04</pdfrwt>
<totfact> 0.68497973E+01</totfact>
</mgrwt>
</event>
<event>
 6    2  0.2321478E-005  0.1646332E+04  0.7818608E-02  0.8848295E-01
         21   -1    0    0  501  502  0.00000000000E+00  0.00000000000E+00  0.13305630602E+04  0.13305630602E+04  0.00000000000E+00 0.  1.
         -4   -1    0    0    0  501 -0.00000000000E+00 -0.00000000000E+00 -0.16502588282E+04  0.16502588282E+04  0.00000000000E+00 0. -1.
   -9000010    2    1    2    0  502  0.11679199695E+04  0.59849150090E+03 -0.92192965987E+02  0.16489109799E+04  0.99407180061E+03 0.  0.
         13    1    3    3    0    0  0.13499475569E+04  0.54896416784E+03 -0.70208908626E+02  0.14589891590E+04  0.10566000000E+00 0. -1.
         -4    1    3    3    0  502 -0.18202758738E+03  0.49527333059E+02 -0.21984057361E+02  0.18992182093E+03  0.00000000000E+00 0. -1.
        -13    1    1    2    0    0 -0.11679199695E+04 -0.59849150090E+03 -0.22750280204E+03  0.13319109084E+04  0.10566000000E+00 0.  1.
<mgrwt>
<rscale>  1 0.15556051E+04</rscale>
<asrwt>0</asrwt>
<pdfrwt beam="1">  1       21 0.20470201E+00 0.16463316E+04</pdfrwt>
<pdfrwt beam="2">  1       -4 0.25388597E+00 0.16463316E+04</pdfrwt>
<totfact> 0.22457007E-01</totfact>
</mgrwt>
</event>
<event>
 6    2  0.2321478E-005  0.1058000E+04  0.7818608E-02  0.9550166E-01
         -4   -1    0    0    0  501 -0.00000000000E+00  0.00000000000E+00  0.57151980801E+03  0.57151980801E+03  0.00000000000E+00 0. -1.
         21   -1    0    0  501  502  0.00000000000E+00 -0.00000000000E+00 -0.88417913782E+03  0.88417913782E+03  0.00000000000E+00 0.  1.
   -9000010    2    1    2    0  502  0.33771286581E+03  0.11833919249E+03 -0.17544920307E+03  0.10724486696E+04  0.99564530922E+03 0.  0.
         13    1    3    3    0    0 -0.14070434188E+03 -0.30244774539E+03  0.13967924352E+03  0.36163884298E+03  0.10566000000E+00 0. -1.
         -4    1    3    3    0  502  0.47841720769E+03  0.42078693789E+03 -0.31512844659E+03  0.71080982658E+03  0.00000000000E+00 0. -1.
        -13    1    1    2    0    0 -0.33771286581E+03 -0.11833919249E+03 -0.13721012675E+03  0.38325027627E+03  0.10566000000E+00 0.  1.
<mgrwt>
<rscale>  1 0.80684196E+03</rscale>
<asrwt>0</asrwt>
<pdfrwt beam="2">  1       21 0.13602756E+00 0.10579999E+04</pdfrwt>
<pdfrwt beam="1">  1       -4 0.87926125E-01 0.10579999E+04</pdfrwt>
<totfact> 0.15513714E+01</totfact>
</mgrwt>
</event>
<event>
 6    2  0.2321478E-005  0.1051163E+04  0.7818608E-02  0.9593212E-01
         21   -1    0    0  501  502  0.00000000000E+00  0.00000000000E+00  0.60590242799E+03  0.60590242799E+03  0.00000000000E+00 0. -1.
         -4   -1    0    0    0  501 -0.00000000000E+00 -0.00000000000E+00 -0.78450315447E+03  0.78450315447E+03  0.00000000000E+00 0. -1.
   -9000010    2    1    2    0  502  0.14261392510E+03 -0.28039166382E+03 -0.21751402317E+03  0.10734316520E+04  0.10029880081E+04 0.  0.
         13    1    3    3    0    0  0.69037960273E+02  0.71872450891E+02  0.37070259165E+03  0.38386496555E+03  0.10566000000E+00 0. -1.
         -4    1    3    3    0  502  0.73575964831E+02 -0.35226411471E+03 -0.58821661482E+03  0.68956668645E+03  0.00000000000E+00 0. -1.
        -13    1    1    2    0    0 -0.14261392510E+03  0.28039166382E+03  0.38913296685E+02  0.31697393046E+03  0.10566000000E+00 0.  1.
<mgrwt>
<rscale>  1 0.77747068E+03</rscale>
<asrwt>0</asrwt>
<pdfrwt beam="1">  1       21 0.93215758E-01 0.10511628E+04</pdfrwt>
<pdfrwt beam="2">  1       -4 0.12069279E+00 0.10511628E+04</pdfrwt>
<totfact> 0.18918270E+01</totfact>
</mgrwt>
</event>
<event>
 6    2  0.2321478E-005  0.9483745E+03  0.7818608E-02  0.9705261E-01
         21   -1    0    0  501  502  0.00000000000E+00  0.00000000000E+00  0.65452673559E+03  0.65452673559E+03  0.00000000000E+00 0. -1.
         -4   -1    0    0    0  501 -0.00000000000E+00 -0.00000000000E+00 -0.68054608131E+03  0.68054608131E+03  0.00000000000E+00 0. -1.
   -9000010    2    1    2    0  502 -0.25943618347E+03 -0.13613858388E+03  0.19482131372E+03  0.96817847878E+03  0.90198302378E+03 0.  0.
         13    1    3    3    0    0 -0.10861613202E+03 -0.33017082792E+03 -0.27151060621E+03  0.44105357973E+03  0.10566000000E+00 0. -1.
         -4    1    3    3    0  502 -0.15082005145E+03  0.19403224405E+03  0.46633191993E+03  0.52712489905E+03  0.00000000000E+00 0. -1.
        -13    1    1    2    0    0  0.25943618347E+03  0.13613858388E+03 -0.22084065944E+03  0.36689433811E+03  0.10566000000E+00 0.  1.
<mgrwt>
<rscale>  1 0.70704436E+03</rscale>
<asrwt>0</asrwt>
<pdfrwt beam="1">  1       21 0.10069642E+00 0.94837452E+03</pdfrwt>
<pdfrwt beam="2">  1       -4 0.10469940E+00 0.94837452E+03</pdfrwt>
<totfact> 0.22472418E+01</totfact>
</mgrwt>
</event>
<event>
 6    2  0.2321478E-005  0.1005444E+04  0.7818608E-02  0.9782482E-01
         21   -1    0    0  501  502  0.00000000000E+00  0.00000000000E+00  0.95847394276E+03  0.95847394276E+03  0.00000000000E+00 0. -1.
         -4   -1    0    0    0  501 -0.00000000000E+00 -0.00000000000E+00 -0.39114383278E+03  0.39114383278E+03  0.00000000000E+00 0. -1.
   -9000010    2    1    2    0  502  0.74723483097E+02 -0.17493718577E+03  0.35927163700E+03  0.10677047442E+04  0.98728450497E+03 0.  0.
         13    1    3    3    0    0  0.89896722362E+01  0.41288436724E+03  0.17091902243E+03  0.44695373173E+03  0.10566000000E+00 0. -1.
         -4    1    3    3    0  502  0.65733810861E+02 -0.58782155301E+03  0.18835261457E+03  0.62075101247E+03  0.00000000000E+00 0. -1.
        -13    1    1    2    0    0 -0.74723483097E+02  0.17493718577E+03  0.20805847299E+03  0.28191303134E+03  0.10566000000E+00 0.  1.
<mgrwt>
<rscale>  1 0.66311207E+03</rscale>
<asrwt>0</asrwt>
<pdfrwt beam="1">  1       21 0.14745753E+00 0.10054438E+04</pdfrwt>
<pdfrwt beam="2">  1       -4 0.60175974E-01 0.10054438E+04</pdfrwt>
<totfact> 0.29447073E+01</totfact>
</mgrwt>
</event>
<event>
 6    2  0.2321478E-005  0.1001634E+04  0.7818608E-02  0.9723694E-01
         -4   -1    0    0    0  501 -0.00000000000E+00  0.00000000000E+00  0.57898447513E+03  0.57898447513E+03  0.00000000000E+00 0. -1.
         21   -1    0    0  501  502  0.00000000000E+00 -0.00000000000E+00 -0.10541005561E+04  0.10541005561E+04  0.00000000000E+00 0. -1.
   -9000010    2    1    2    0  502  0.10909468789E+03  0.20681652118E+03 -0.76521282799E+03  0.12604848996E+04  0.97395933468E+03 0.  0.
         13    1    3    3    0    0 -0.14278503753E+03 -0.34929866180E+03 -0.39610079065E+03  0.54707674927E+03  0.10566000000E+00 0. -1.
         -4    1    3    3    0  502  0.25187972543E+03  0.55611518299E+03 -0.36911203734E+03  0.71340815032E+03  0.00000000000E+00 0. -1.
        -13    1    1    2    0    0 -0.10909468789E+03 -0.20681652118E+03  0.29009674698E+03  0.37260013169E+03  0.10566000000E+00 0.  1.
<mgrwt>
<rscale>  1 0.69623406E+03</rscale>
<asrwt>0</asrwt>
<pdfrwt beam="2">  1       21 0.16216931E+00 0.10016344E+04</pdfrwt>
<pdfrwt beam="1">  1       -4 0.89074536E-01 0.10016344E+04</pdfrwt>
<totfact> 0.92844364E+00</totfact>
</mgrwt>
</event>
<event>
 6    2  0.2321478E-005  0.1008350E+04  0.7818608E-02  0.9991007E-01
         -4   -1    0    0    0  501 -0.00000000000E+00  0.00000000000E+00  0.43802045034E+03  0.43802045034E+03  0.00000000000E+00 0. -1.
         21   -1    0    0  501  502  0.00000000000E+00 -0.00000000000E+00 -0.82811023469E+03  0.82811023469E+03  0.00000000000E+00 0. -1.
   -9000010    2    1    2    0  502  0.88712046852E+02 -0.37312556398E+02 -0.49539686002E+03  0.11234714916E+04  0.10037470246E+04 0.  0.
         13    1    3    3    0    0  0.32390499878E+03  0.28686308805E+03 -0.57047006745E+03  0.71598951706E+03  0.10566000000E+00 0. -1.
         -4    1    3    3    0  502 -0.23519295193E+03 -0.32417564445E+03  0.75073207429E+02  0.40748197453E+03  0.00000000000E+00 0. -1.
        -13    1    1    2    0    0 -0.88712046852E+02  0.37312556398E+02  0.10530707567E+03  0.14265919344E+03  0.10566000000E+00 0.  1.
<mgrwt>
<rscale>  1 0.56046310E+03</rscale>
<asrwt>0</asrwt>
<pdfrwt beam="2">  1       21 0.12740157E+00 0.10083502E+04</pdfrwt>
<pdfrwt beam="1">  1       -4 0.67387763E-01 0.10083502E+04</pdfrwt>
<totfact> 0.34070676E+01</totfact>
</mgrwt>
</event>
<event>
 6    2  0.2321478E-005  0.1025942E+04  0.7818608E-02  0.9910223E-01
         -4   -1    0    0    0  501 -0.00000000000E+00  0.00000000000E+00  0.16092602437E+03  0.16092602437E+03  0.00000000000E+00 0. -1.
         21   -1    0    0  501  502  0.00000000000E+00 -0.00000000000E+00 -0.39126195749E+04  0.39126195749E+04  0.00000000000E+00 0. -1.
   -9000010    2    1    2    0  502  0.64546821388E+02 -0.98987568171E+02 -0.38071827496E+04  0.39429933370E+04  0.10191129164E+04 0.  0.
         13    1    3    3    0    0  0.49542050045E+03  0.14425305033E+02 -0.27725727183E+04  0.28165242856E+04  0.10566000000E+00 0. -1.
         -4    1    3    3    0  502 -0.43087367906E+03 -0.11341287320E+03 -0.10346100312E+04  0.11264690514E+04  0.00000000000E+00 0. -1.
        -13    1    1    2    0    0 -0.64546821388E+02  0.98987568171E+02  0.55489199039E+02  0.13055226225E+03  0.10566000000E+00 0.  1.
<mgrwt>
<rscale>  1 0.59768376E+03</rscale>
<asrwt>0</asrwt>
<pdfrwt beam="2">  1       21 0.60194142E+00 0.10259415E+04</pdfrwt>
<pdfrwt beam="1">  1       -4 0.24757852E-01 0.10259415E+04</pdfrwt>
<totfact> 0.13475495E-01</totfact>
</mgrwt>
</event>
<event>
 6    2  0.2321478E-005  0.1002831E+04  0.7818608E-02  0.9886876E-01
         -4   -1    0    0    0  501 -0.00000000000E+00  0.00000000000E+00  0.80768664467E+03  0.80768664467E+03  0.00000000000E+00 0. -1.
         21   -1    0    0  501  502  0.00000000000E+00 -0.00000000000E+00 -0.43808208387E+03  0.43808208387E+03  0.00000000000E+00 0. -1.
   -9000010    2    1    2    0  502  0.82462681397E+02  0.10865688577E+03  0.19071086035E+03  0.10208034426E+04  0.99351025336E+03 0.  0.
         13    1    3    3    0    0 -0.46365376621E+01 -0.16251316303E+03  0.54355698472E+03  0.56735018502E+03  0.10566000000E+00 0. -1.
         -4    1    3    3    0  502  0.87099219060E+02  0.27117004880E+03 -0.35284612437E+03  0.45345325758E+03  0.00000000000E+00 0. -1.
        -13    1    1    2    0    0 -0.82462681397E+02 -0.10865688577E+03  0.17889370045E+03  0.22496528593E+03  0.10566000000E+00 0.  1.
<mgrwt>
<rscale>  1 0.60901574E+03</rscale>
<asrwt>0</asrwt>
<pdfrwt beam="2">  1       21 0.67397244E-01 0.10028305E+04</pdfrwt>
<pdfrwt beam="1">  1       -4 0.12425948E+00 0.10028305E+04</pdfrwt>
<totfact> 0.37838665E+01</totfact>
</mgrwt>
</event>
<event>
 6    2  0.2321478E-005  0.1036835E+04  0.7818608E-02  0.9677710E-01
         -4   -1    0    0    0  501 -0.00000000000E+00  0.00000000000E+00  0.23606493287E+04  0.23606493287E+04  0.00000000000E+00 0. -1.
         21   -1    0    0  501  502  0.00000000000E+00 -0.00000000000E+00 -0.22475300318E+03  0.22475300318E+03  0.00000000000E+00 0. -1.
   -9000010    2    1    2    0  502 -0.63134781670E+02 -0.23771348316E+03  0.10639565528E+04  0.14856075382E+04  0.10072400462E+04 0.  0.
         13    1    3    3    0    0  0.31261243909E+02  0.34903580387E+03  0.71545442791E+03  0.79666699902E+03  0.10566000000E+00 0. -1.
         -4    1    3    3    0  502 -0.94396025580E+02 -0.58674928703E+03  0.34850212491E+03  0.68894053920E+03  0.00000000000E+00 0. -1.
        -13    1    1    2    0    0  0.63134781670E+02  0.23771348316E+03  0.10719397727E+04  0.10997947937E+04  0.10566000000E+00 0.  1.
<mgrwt>
<rscale>  1 0.72359561E+03</rscale>
<asrwt>0</asrwt>
<pdfrwt beam="2">  1       21 0.34577387E-01 0.10368347E+04</pdfrwt>
<pdfrwt beam="1">  1       -4 0.36317680E+00 0.10368347E+04</pdfrwt>
<totfact> 0.40110159E+00</totfact>
</mgrwt>
</event>
<event>
 6    2  0.2321478E-005  0.1034724E+04  0.7818608E-02  0.9637637E-01
         21   -1    0    0  501  502  0.00000000000E+00  0.00000000000E+00  0.55912829106E+03  0.55912829106E+03  0.00000000000E+00 0. -1.
         -4   -1    0    0    0  501 -0.00000000000E+00 -0.00000000000E+00 -0.91360452035E+03  0.91360452035E+03  0.00000000000E+00 0. -1.
   -9000010    2    1    2    0  502  0.25828774867E+03  0.11662606547E+03 -0.20777865146E+02  0.10349328461E+04  0.99515831703E+03 0.  0.
         13    1    3    3    0    0 -0.97616401327E+02 -0.16343333110E+01  0.43435260496E+03  0.44518965560E+03  0.10566000000E+00 0. -1.
         -4    1    3    3    0  502  0.35590414999E+03  0.11826039878E+03 -0.45513047010E+03  0.58974319048E+03  0.00000000000E+00 0. -1.
        -13    1    1    2    0    0 -0.25828774867E+03 -0.11662606547E+03 -0.33369836414E+03  0.43779996534E+03  0.10566000000E+00 0.  1.
<mgrwt>
<rscale>  1 0.74854432E+03</rscale>
<asrwt>0</asrwt>
<pdfrwt beam="1">  1       21 0.86019738E-01 0.10347243E+04</pdfrwt>
<pdfrwt beam="2">  1       -4 0.14055454E+00 0.10347243E+04</pdfrwt>
<totfact> 0.15538957E+01</totfact>
</mgrwt>
</event>
<event>
 6    2  0.2321478E-005  0.1088366E+04  0.7818608E-02  0.9465478E-01
         21   -1    0    0  501  502  0.00000000000E+00  0.00000000000E+00  0.16829318094E+04  0.16829318094E+04  0.00000000000E+00 0.  1.
         -4   -1    0    0    0  501 -0.00000000000E+00 -0.00000000000E+00 -0.36666551590E+03  0.36666551590E+03  0.00000000000E+00 0. -1.
   -9000010    2    1    2    0  502  0.35334942601E+03 -0.26533561300E+03  0.71034884159E+03  0.12996674792E+04  0.99462619879E+03 0.  0.
         13    1    3    3    0    0  0.27972798603E+03 -0.20354824186E+03 -0.18967043217E+03  0.39453075537E+03  0.10566000000E+00 0. -1.
         -4    1    3    3    0  502  0.73621439985E+02 -0.61787371139E+02  0.90001927376E+03  0.90513672382E+03  0.00000000000E+00 0. -1.
        -13    1    1    2    0    0 -0.35334942601E+03  0.26533561300E+03  0.60591745189E+03  0.74992984609E+03  0.10566000000E+00 0.  1.
<mgrwt>
<rscale>  1 0.86877546E+03</rscale>
<asrwt>0</asrwt>
<pdfrwt beam="1">  1       21 0.25891258E+00 0.10883658E+04</pdfrwt>
<pdfrwt beam="2">  1       -4 0.56410080E-01 0.10883658E+04</pdfrwt>
<totfact> 0.56012547E+00</totfact>
</mgrwt>
</event>
<event>
 6    2  0.2321478E-005  0.1069328E+04  0.7818608E-02  0.9517122E-01
         21   -1    0    0  501  502  0.00000000000E+00  0.00000000000E+00  0.24846833666E+04  0.24846833666E+04  0.00000000000E+00 0. -1.
         -4   -1    0    0    0  501 -0.00000000000E+00 -0.00000000000E+00 -0.27126205100E+03  0.27126205100E+03  0.00000000000E+00 0. -1.
   -9000010    2    1    2    0  502 -0.29358244236E+03 -0.25483080212E+03  0.20906774504E+04  0.23482746488E+04  0.99615874054E+03 0.  0.
         13    1    3    3    0    0  0.58116693244E+02  0.35754224313E+03  0.75527183899E+03  0.83764525164E+03  0.10566000000E+00 0. -1.
         -4    1    3    3    0  502 -0.35169913561E+03 -0.61237304525E+03  0.13354056114E+04  0.15106293971E+04  0.00000000000E+00 0. -1.
        -13    1    1    2    0    0  0.29358244236E+03  0.25483080212E+03  0.12274386526E+03  0.40767076888E+03  0.10566000000E+00 0.  1.
<mgrwt>
<rscale>  1 0.83033189E+03</rscale>
<asrwt>0</asrwt>
<pdfrwt beam="1">  1       21 0.38225896E+00 0.10693277E+04</pdfrwt>
<pdfrwt beam="2">  1       -4 0.41732625E-01 0.10693277E+04</pdfrwt>
<totfact> 0.17696423E+00</totfact>
</mgrwt>
</event>
<event>
 6    2  0.2321478E-005  0.1055075E+04  0.7818608E-02  0.9774829E-01
         21   -1    0    0  501  502  0.00000000000E+00  0.00000000000E+00  0.11558397090E+04  0.11558397090E+04  0.00000000000E+00 0. -1.
         -4   -1    0    0    0  501 -0.00000000000E+00 -0.00000000000E+00 -0.37324423507E+03  0.37324423507E+03  0.00000000000E+00 0. -1.
   -9000010    2    1    2    0  502  0.13170885103E+03  0.10563038567E+03  0.84224488057E+03  0.13500223270E+04  0.10414791619E+04 0.  0.
         13    1    3    3    0    0  0.10379117069E+03  0.19758126436E+03 -0.20220515952E+03  0.30116092184E+03  0.10566000000E+00 0. -1.
         -4    1    3    3    0  502  0.27917680337E+02 -0.91950878693E+02  0.10444500401E+04  0.10488614052E+04  0.00000000000E+00 0. -1.
        -13    1    1    2    0    0 -0.13170885103E+03 -0.10563038567E+03 -0.59649406678E+02  0.17906161704E+03  0.10566000000E+00 0.  1.
<mgrwt>
<rscale>  1 0.66731016E+03</rscale>
<asrwt>0</asrwt>
<pdfrwt beam="1">  1       21 0.17782149E+00 0.10550753E+04</pdfrwt>
<pdfrwt beam="2">  1       -4 0.57422190E-01 0.10550753E+04</pdfrwt>
<totfact> 0.18921550E+01</totfact>
</mgrwt>
</event>
<event>
 6    2  0.2321478E-005  0.1030940E+04  0.7818608E-02  0.9756286E-01
         21   -1    0    0  501  502  0.00000000000E+00  0.00000000000E+00  0.53910458671E+03  0.53910458671E+03  0.00000000000E+00 0. -1.
         -4   -1    0    0    0  501 -0.00000000000E+00 -0.00000000000E+00 -0.72305137753E+03  0.72305137753E+03  0.00000000000E+00 0. -1.
   -9000010    2    1    2    0  502 -0.33071023180E+02 -0.18955603798E+03 -0.58792384715E+02  0.10326155089E+04  0.10128242990E+04 0.  0.
         13    1    3    3    0    0 -0.32020042594E+03 -0.42100717013E+03 -0.28413261326E+03  0.60042210415E+03  0.10566000000E+00 0. -1.
         -4    1    3    3    0  502  0.28712940276E+03  0.23145113215E+03  0.22534022854E+03  0.43219340475E+03  0.00000000000E+00 0. -1.
        -13    1    1    2    0    0  0.33071023180E+02  0.18955603798E+03 -0.12515440611E+03  0.22954045534E+03  0.10566000000E+00 0.  1.
<mgrwt>
<rscale>  1 0.67762178E+03</rscale>
<asrwt>0</asrwt>
<pdfrwt beam="1">  1       21 0.82939167E-01 0.10309405E+04</pdfrwt>
<pdfrwt beam="2">  1       -4 0.11123867E+00 0.10309405E+04</pdfrwt>
<totfact> 0.30752610E+01</totfact>
</mgrwt>
</event>
<event>
 6    2  0.2321478E-005  0.1032931E+04  0.7818608E-02  0.9692333E-01
         21   -1    0    0  501  502  0.00000000000E+00  0.00000000000E+00  0.58121883481E+03  0.58121883481E+03  0.00000000000E+00 0. -1.
         -4   -1    0    0    0  501 -0.00000000000E+00 -0.00000000000E+00 -0.81209906420E+03  0.81209906420E+03  0.00000000000E+00 0. -1.
   -9000010    2    1    2    0  502 -0.17099835824E+03  0.16382865935E+03  0.39762297296E+02  0.10336963527E+04  0.10054187392E+04 0.  0.
         13    1    3    3    0    0 -0.17726585072E+03 -0.31360773201E+03  0.31846998307E+03  0.48082858972E+03  0.10566000000E+00 0. -1.
         -4    1    3    3    0  502  0.62674924803E+01  0.47743639136E+03 -0.27870768577E+03  0.55286776300E+03  0.00000000000E+00 0. -1.
        -13    1    1    2    0    0  0.17099835824E+03 -0.16382865935E+03 -0.27064252668E+03  0.35962154629E+03  0.10566000000E+00 0.  1.
<mgrwt>
<rscale>  1 0.71475114E+03</rscale>
<asrwt>0</asrwt>
<pdfrwt beam="1">  1       21 0.89418283E-01 0.10329313E+04</pdfrwt>
<pdfrwt beam="2">  1       -4 0.12493832E+00 0.10329313E+04</pdfrwt>
<totfact> 0.19200729E+01</totfact>
</mgrwt>
</event>
<event>
 6    2  0.2321478E-005  0.1072139E+04  0.7818608E-02  0.9415496E-01
         21   -1    0    0  501  502  0.00000000000E+00  0.00000000000E+00  0.10699706686E+04  0.10699706686E+04  0.00000000000E+00 0.  1.
         -4   -1    0    0    0  501 -0.00000000000E+00 -0.00000000000E+00 -0.62025513618E+03  0.62025513618E+03  0.00000000000E+00 0. -1.
   -9000010    2    1    2    0  502 -0.58693999329E+02 -0.54870045456E+03  0.36115770929E+03  0.11313343363E+04  0.91921994922E+03 0.  0.
         13    1    3    3    0    0  0.27168409510E+03 -0.42188517812E+03 -0.13710534254E+03  0.52018961655E+03  0.10566000000E+00 0. -1.
         -4    1    3    3    0  502 -0.33037809443E+03 -0.12681527644E+03  0.49826305182E+03  0.61114471971E+03  0.00000000000E+00 0. -1.
        -13    1    1    2    0    0  0.58693999329E+02  0.54870045456E+03  0.88557823136E+02  0.55889146853E+03  0.10566000000E+00 0.  1.
<mgrwt>
<rscale>  1 0.90811293E+03</rscale>
<asrwt>0</asrwt>
<pdfrwt beam="1">  1       21 0.16461087E+00 0.10721392E+04</pdfrwt>
<pdfrwt beam="2">  1       -4 0.95423867E-01 0.10721392E+04</pdfrwt>
<totfact> 0.74902956E+00</totfact>
</mgrwt>
</event>
<event>
 6    2  0.2321478E-005  0.9978611E+03  0.7818608E-02  0.1012391E+00
         -4   -1    0    0    0  501 -0.00000000000E+00  0.00000000000E+00  0.11582894088E+04  0.11582894088E+04  0.00000000000E+00 0. -1.
         21   -1    0    0  501  502  0.00000000000E+00 -0.00000000000E+00 -0.28252682697E+03  0.28252682697E+03  0.00000000000E+00 0. -1.
   -9000010    2    1    2    0  502  0.44215547061E+02 -0.48515221124E+02  0.61553548446E+03  0.11724379679E+04  0.99569981155E+03 0.  0.
         13    1    3    3    0    0  0.16554455488E+03  0.81759867135E+01  0.86959140827E+03  0.88524633572E+03  0.10566000000E+00 0. -1.
         -4    1    3    3    0  502 -0.12132900782E+03 -0.56691207838E+02 -0.25405592381E+03  0.28719163220E+03  0.00000000000E+00 0. -1.
        -13    1    1    2    0    0 -0.44215547061E+02  0.48515221124E+02  0.26022709733E+03  0.26837826781E+03  0.10566000000E+00 0.  1.
<mgrwt>
<rscale>  1 0.50535495E+03</rscale>
<asrwt>0</asrwt>
<pdfrwt beam="2">  1       21 0.43465666E-01 0.99786114E+03</pdfrwt>
<pdfrwt beam="1">  1       -4 0.17819837E+00 0.99786114E+03</pdfrwt>
<totfact> 0.37559033E+01</totfact>
</mgrwt>
</event>
<event>
 6    2  0.2321478E-005  0.1020851E+04  0.7818608E-02  0.9722464E-01
         21   -1    0    0  501  502  0.00000000000E+00  0.00000000000E+00  0.27257331589E+03  0.27257331589E+03  0.00000000000E+00 0. -1.
         -4   -1    0    0    0  501 -0.00000000000E+00 -0.00000000000E+00 -0.14768282466E+04  0.14768282466E+04  0.00000000000E+00 0. -1.
   -9000010    2    1    2    0  502  0.27624339293E+02  0.22005002595E+03 -0.83582165088E+03  0.13193687604E+04  0.99646925479E+03 0.  0.
         13    1    3    3    0    0 -0.15174199111E+03  0.29476450966E+03  0.11345884355E+03  0.35040643311E+03  0.10566000000E+00 0. -1.
         -4    1    3    3    0  502  0.17936633040E+03 -0.74714483707E+02 -0.94928049443E+03  0.96896232727E+03  0.00000000000E+00 0. -1.
        -13    1    1    2    0    0 -0.27624339293E+02 -0.22005002595E+03 -0.36843327986E+03  0.43003280214E+03  0.10566000000E+00 0.  1.
<mgrwt>
<rscale>  1 0.69694883E+03</rscale>
<asrwt>0</asrwt>
<pdfrwt beam="1">  1       21 0.41934356E-01 0.10208507E+04</pdfrwt>
<pdfrwt beam="2">  1       -4 0.22720435E+00 0.10208507E+04</pdfrwt>
<totfact> 0.19175447E+01</totfact>
</mgrwt>
</event>
<event>
 6    2  0.2321478E-005  0.1000079E+04  0.7818608E-02  0.1014281E+00
         21   -1    0    0  501  502  0.00000000000E+00  0.00000000000E+00  0.10996872167E+04  0.10996872167E+04  0.00000000000E+00 0. -1.
         -4   -1    0    0    0  501 -0.00000000000E+00 -0.00000000000E+00 -0.25773124256E+03  0.25773124256E+03  0.00000000000E+00 0. -1.
   -9000010    2    1    2    0  502 -0.58701702005E+02 -0.18446466797E+02  0.81556136263E+03  0.12904643807E+04  0.99818426139E+03 0.  0.
         13    1    3    3    0    0 -0.39197509087E+03  0.28894685026E+03  0.20113865949E+03  0.52686955278E+03  0.10566000000E+00 0. -1.
         -4    1    3    3    0  502  0.33327338886E+03 -0.30739331706E+03  0.61442270314E+03  0.76359482793E+03  0.00000000000E+00 0. -1.
        -13    1    1    2    0    0  0.58701702005E+02  0.18446466797E+02  0.26394611529E+02  0.66954078572E+02  0.10566000000E+00 0.  1.
<mgrwt>
<rscale>  1 0.49808193E+03</rscale>
<asrwt>0</asrwt>
<pdfrwt beam="1">  1       21 0.16918265E+00 0.10000790E+04</pdfrwt>
<pdfrwt beam="2">  1       -4 0.39650961E-01 0.10000790E+04</pdfrwt>
<totfact> 0.47949699E+01</totfact>
</mgrwt>
</event>
<event>
 6    2  0.2321478E-005  0.1076580E+04  0.7818608E-02  0.9532309E-01
         -4   -1    0    0    0  501 -0.00000000000E+00  0.00000000000E+00  0.69650194367E+03  0.69650194367E+03  0.00000000000E+00 0. -1.
         21   -1    0    0  501  502  0.00000000000E+00 -0.00000000000E+00 -0.79861777942E+03  0.79861777942E+03  0.00000000000E+00 0. -1.
   -9000010    2    1    2    0  502  0.21391875845E+03  0.29120848453E+03  0.99798846791E+02  0.10811956155E+04  0.10141304316E+04 0.  0.
         13    1    3    3    0    0 -0.10048212088E+02  0.52487122290E+03 -0.26952634276E+03  0.59011458871E+03  0.10566000000E+00 0. -1.
         -4    1    3    3    0  502  0.22396697054E+03 -0.23366273837E+03  0.36932518956E+03  0.49108102675E+03  0.00000000000E+00 0. -1.
        -13    1    1    2    0    0 -0.21391875845E+03 -0.29120848453E+03 -0.20191468254E+03  0.41392410762E+03  0.10566000000E+00 0.  1.
<mgrwt>
<rscale>  1 0.81943123E+03</rscale>
<asrwt>0</asrwt>
<pdfrwt beam="2">  1       21 0.12286427E+00 0.10765798E+04</pdfrwt>
<pdfrwt beam="1">  1       -4 0.10715415E+00 0.10765798E+04</pdfrwt>
<totfact> 0.12628386E+01</totfact>
</mgrwt>
</event>
<event>
 6    2  0.2321478E-005  0.1013313E+04  0.7818608E-02  0.9816850E-01
         21   -1    0    0  501  502  0.00000000000E+00  0.00000000000E+00  0.42711464907E+03  0.42711464907E+03  0.00000000000E+00 0. -1.
         -4   -1    0    0    0  501 -0.00000000000E+00 -0.00000000000E+00 -0.83061729097E+03  0.83061729097E+03  0.00000000000E+00 0. -1.
   -9000010    2    1    2    0  502 -0.96653226724E+02  0.13495270769E+03 -0.28138251089E+03  0.10516556990E+04  0.99962468572E+03 0.  0.
         13    1    3    3    0    0 -0.15815816271E+03 -0.42189370736E+03 -0.88688791498E+02  0.45921021073E+03  0.10566000000E+00 0. -1.
         -4    1    3    3    0  502  0.61504935987E+02  0.55684641504E+03 -0.19269371939E+03  0.59244548829E+03  0.00000000000E+00 0. -1.
        -13    1    1    2    0    0  0.96653226724E+02 -0.13495270769E+03 -0.12212013101E+03  0.20607624101E+03  0.10566000000E+00 0.  1.
<mgrwt>
<rscale>  1 0.64466045E+03</rscale>
<asrwt>0</asrwt>
<pdfrwt beam="1">  1       21 0.65709946E-01 0.10133132E+04</pdfrwt>
<pdfrwt beam="2">  1       -4 0.12778728E+00 0.10133132E+04</pdfrwt>
<totfact> 0.37285348E+01</totfact>
</mgrwt>
</event>
<event>
 6    2  0.2321478E-005  0.1135421E+04  0.7818608E-02  0.9373115E-01
         -4   -1    0    0    0  501 -0.00000000000E+00  0.00000000000E+00  0.60929587793E+03  0.60929587793E+03  0.00000000000E+00 0. -1.
         21   -1    0    0  501  502  0.00000000000E+00 -0.00000000000E+00 -0.11568542687E+04  0.11568542687E+04  0.00000000000E+00 0.  1.
   -9000010    2    1    2    0  502  0.54071023874E+03  0.34681989537E+01 -0.32135778105E+03  0.11800219033E+04  0.99839935799E+03 0.  0.
         13    1    3    3    0    0  0.77764009944E+03 -0.85044160213E+01  0.35851948479E+01  0.77769487212E+03  0.10566000000E+00 0. -1.
         -4    1    3    3    0  502 -0.23692986069E+03  0.11972614975E+02 -0.32494297590E+03  0.40232703114E+03  0.00000000000E+00 0. -1.
        -13    1    1    2    0    0 -0.54071023874E+03 -0.34681989537E+01 -0.22620060973E+03  0.58612824338E+03  0.10566000000E+00 0.  1.
<mgrwt>
<rscale>  1 0.94321594E+03</rscale>
<asrwt>0</asrwt>
<pdfrwt beam="2">  1       21 0.17797758E+00 0.11354210E+04</pdfrwt>
<pdfrwt beam="1">  1       -4 0.93737828E-01 0.11354210E+04</pdfrwt>
<totfact> 0.61618011E+00</totfact>
</mgrwt>
</event>
<event>
 6    2  0.2321478E-005  0.1020695E+04  0.7818608E-02  0.9770969E-01
         21   -1    0    0  501  502  0.00000000000E+00  0.00000000000E+00  0.46438366874E+03  0.46438366874E+03  0.00000000000E+00 0. -1.
         -4   -1    0    0    0  501 -0.00000000000E+00 -0.00000000000E+00 -0.78824202228E+03  0.78824202228E+03  0.00000000000E+00 0. -1.
   -9000010    2    1    2    0  502 -0.32496593876E+02 -0.18605155656E+03 -0.28590799994E+03  0.10599823656E+04  0.10030693001E+04 0.  0.
         13    1    3    3    0    0  0.40761329418E+02  0.79823618603E+02  0.35294367607E+03  0.36414632458E+03  0.10566000000E+00 0. -1.
         -4    1    3    3    0  502 -0.73257923294E+02 -0.26587517517E+03 -0.63885167601E+03  0.69583604106E+03  0.00000000000E+00 0. -1.
        -13    1    1    2    0    0  0.32496593876E+02  0.18605155656E+03 -0.37950353601E+02  0.19264332539E+03  0.10566000000E+00 0.  1.
<mgrwt>
<rscale>  1 0.66944043E+03</rscale>
<asrwt>0</asrwt>
<pdfrwt beam="1">  1       21 0.71443641E-01 0.10206955E+04</pdfrwt>
<pdfrwt beam="2">  1       -4 0.12126800E+00 0.10206955E+04</pdfrwt>
<totfact> 0.35170689E+01</totfact>
</mgrwt>
</event>
<event>
 6    2  0.2321478E-005  0.1013030E+04  0.7818608E-02  0.9823409E-01
         -4   -1    0    0    0  501 -0.00000000000E+00  0.00000000000E+00  0.18670215138E+03  0.18670215138E+03  0.00000000000E+00 0. -1.
         21   -1    0    0  501  502  0.00000000000E+00 -0.00000000000E+00 -0.20301102078E+04  0.20301102078E+04  0.00000000000E+00 0. -1.
   -9000010    2    1    2    0  502  0.16206379111E+03  0.13294143701E+02 -0.12912340625E+04  0.16411930949E+04  0.99989397640E+03 0.  0.
         13    1    3    3    0    0 -0.24306333222E+03 -0.23876132003E+03 -0.10552445735E+04  0.11088858700E+04  0.10566000000E+00 0. -1.
         -4    1    3    3    0  502  0.40512712334E+03  0.25205546373E+03 -0.23598948892E+03  0.53230722495E+03  0.00000000000E+00 0. -1.
        -13    1    1    2    0    0 -0.16206379111E+03 -0.13294143701E+02 -0.55217399396E+03  0.57561926429E+03  0.10566000000E+00 0.  1.
<mgrwt>
<rscale>  1 0.64121299E+03</rscale>
<asrwt>0</asrwt>
<pdfrwt beam="2">  1       21 0.31232465E+00 0.10130298E+04</pdfrwt>
<pdfrwt beam="1">  1       -4 0.28723408E-01 0.10130298E+04</pdfrwt>
<totfact> 0.10450318E+01</totfact>
</mgrwt>
</event>
<event>
 6    2  0.2321478E-005  0.1027934E+04  0.7818608E-02  0.9727049E-01
         -4   -1    0    0    0  501 -0.00000000000E+00  0.00000000000E+00  0.51659261360E+03  0.51659261360E+03  0.00000000000E+00 0. -1.
         21   -1    0    0  501  502  0.00000000000E+00 -0.00000000000E+00 -0.79185664349E+03  0.79185664349E+03  0.00000000000E+00 0. -1.
   -9000010    2    1    2    0  502  0.98041156504E+02 -0.19013860386E+03 -0.34365291819E+03  0.10838567188E+04  0.10054269251E+04 0.  0.
         13    1    3    3    0    0  0.69423990325E+02 -0.58136529374E+03 -0.38299501591E+02  0.58674709900E+03  0.10566000000E+00 0. -1.
         -4    1    3    3    0  502  0.28617166179E+02  0.39122668989E+03 -0.30535341659E+03  0.49710961981E+03  0.00000000000E+00 0. -1.
        -13    1    1    2    0    0 -0.98041156504E+02  0.19013860386E+03  0.68388888298E+02  0.22459253828E+03  0.10566000000E+00 0.  1.
<mgrwt>
<rscale>  1 0.69428901E+03</rscale>
<asrwt>0</asrwt>
<pdfrwt beam="2">  1       21 0.12182410E+00 0.10279339E+04</pdfrwt>
<pdfrwt beam="1">  1       -4 0.79475788E-01 0.10279339E+04</pdfrwt>
<totfact> 0.26351716E+01</totfact>
</mgrwt>
</event>
<event>
 6    2  0.2321478E-005  0.9955615E+03  0.7818608E-02  0.9752151E-01
         -4   -1    0    0    0  501 -0.00000000000E+00  0.00000000000E+00  0.78490440501E+03  0.78490440501E+03  0.00000000000E+00 0. -1.
         21   -1    0    0  501  502  0.00000000000E+00 -0.00000000000E+00 -0.46805574117E+03  0.46805574117E+03  0.00000000000E+00 0. -1.
   -9000010    2    1    2    0  502  0.41435058327E+02  0.21262104180E+03  0.25570103755E+03  0.10278743518E+04  0.97170885093E+03 0.  0.
         13    1    3    3    0    0  0.24928052758E+03 -0.18506884275E+02  0.54729305365E+03  0.60167514818E+03  0.10566000000E+00 0. -1.
         -4    1    3    3    0  502 -0.20784546925E+03  0.23112792607E+03 -0.29159201610E+03  0.42619920360E+03  0.00000000000E+00 0. -1.
        -13    1    1    2    0    0 -0.41435058327E+02 -0.21262104180E+03  0.61147626293E+02  0.22508579440E+03  0.10566000000E+00 0.  1.
<mgrwt>
<rscale>  1 0.67994865E+03</rscale>
<asrwt>0</asrwt>
<pdfrwt beam="2">  1       21 0.72008576E-01 0.99556148E+03</pdfrwt>
<pdfrwt beam="1">  1       -4 0.12075452E+00 0.99556148E+03</pdfrwt>
<totfact> 0.34986729E+01</totfact>
</mgrwt>
</event>
<event>
 6    2  0.2321478E-005  0.1042304E+04  0.7818608E-02  0.9648054E-01
         21   -1    0    0  501  502  0.00000000000E+00  0.00000000000E+00  0.27153457623E+03  0.27153457623E+03  0.00000000000E+00 0. -1.
         -4   -1    0    0    0  501 -0.00000000000E+00 -0.00000000000E+00 -0.20749392630E+04  0.20749392630E+04  0.00000000000E+00 0. -1.
   -9000010    2    1    2    0  502  0.13428528167E+03  0.23149966061E+03 -0.81681667648E+03  0.13242309410E+04  0.10073596540E+04 0.  0.
         13    1    3    3    0    0  0.46017484984E+03  0.36302491327E+03 -0.77298349672E+03  0.97007807801E+03  0.10566000000E+00 0. -1.
         -4    1    3    3    0  502 -0.32588956817E+03 -0.13152525266E+03 -0.43833179762E+02  0.35415286301E+03  0.00000000000E+00 0. -1.
        -13    1    1    2    0    0 -0.13428528167E+03 -0.23149966061E+03 -0.98658801026E+03  0.10222428982E+04  0.10566000000E+00 0.  1.
<mgrwt>
<rscale>  1 0.74195691E+03</rscale>
<asrwt>0</asrwt>
<pdfrwt beam="1">  1       21 0.41774551E-01 0.10423042E+04</pdfrwt>
<pdfrwt beam="2">  1       -4 0.31922142E+00 0.10423042E+04</pdfrwt>
<totfact> 0.51791836E+00</totfact>
</mgrwt>
</event>
<event>
 6    2  0.2321478E-005  0.1032192E+04  0.7818608E-02  0.9827257E-01
         21   -1    0    0  501  502  0.00000000000E+00  0.00000000000E+00  0.22016064407E+04  0.22016064407E+04  0.00000000000E+00 0. -1.
         -4   -1    0    0    0  501 -0.00000000000E+00 -0.00000000000E+00 -0.17014075047E+03  0.17014075047E+03  0.00000000000E+00 0. -1.
   -9000010    2    1    2    0  502 -0.15162116005E+03  0.73346927099E+01  0.19314595584E+04  0.21899670727E+04  0.10209686479E+04 0.  0.
         13    1    3    3    0    0  0.24597927243E+03  0.11917120753E+03  0.16891197536E+04  0.17110912110E+04  0.10566000000E+00 0. -1.
         -4    1    3    3    0  502 -0.39760043249E+03 -0.11183651482E+03  0.24233980484E+03  0.47887586175E+03  0.00000000000E+00 0. -1.
        -13    1    1    2    0    0  0.15162116005E+03 -0.73346927099E+01  0.10000613179E+03  0.18178011842E+03  0.10566000000E+00 0.  1.
<mgrwt>
<rscale>  1 0.63920057E+03</rscale>
<asrwt>0</asrwt>
<pdfrwt beam="1">  1       21 0.33870866E+00 0.10321917E+04</pdfrwt>
<pdfrwt beam="2">  1       -4 0.26175502E-01 0.10321917E+04</pdfrwt>
<totfact> 0.85275090E+00</totfact>
</mgrwt>
</event>
<event>
 6    2  0.2321478E-005  0.1164216E+04  0.7818608E-02  0.9299913E-01
         -4   -1    0    0    0  501 -0.00000000000E+00  0.00000000000E+00  0.20048064635E+04  0.20048064635E+04  0.00000000000E+00 0. -1.
         21   -1    0    0  501  502  0.00000000000E+00 -0.00000000000E+00 -0.45316655844E+03  0.45316655844E+03  0.00000000000E+00 0.  1.
   -9000010    2    1    2    0  502  0.72311453449E+02 -0.64999923578E+03  0.61805530596E+03  0.13181010258E+04  0.96315626981E+03 0.  0.
         13    1    3    3    0    0  0.31618761008E+03 -0.96212559913E+02  0.63159491186E+03  0.71284192168E+03  0.10566000000E+00 0. -1.
         -4    1    3    3    0  502 -0.24387615663E+03 -0.55378667587E+03 -0.13539605902E+02  0.60525910408E+03  0.00000000000E+00 0. -1.
        -13    1    1    2    0    0 -0.72311453449E+02  0.64999923578E+03  0.93358459907E+03  0.11398719961E+04  0.10566000000E+00 0.  1.
<mgrwt>
<rscale>  1 0.10079083E+04</rscale>
<asrwt>0</asrwt>
<pdfrwt beam="2">  1       21 0.69717933E-01 0.11642156E+04</pdfrwt>
<pdfrwt beam="1">  1       -4 0.30843176E+00 0.11642156E+04</pdfrwt>
<totfact> 0.19321741E+00</totfact>
</mgrwt>
</event>
<event>
 6    2  0.2321478E-005  0.1019107E+04  0.7818608E-02  0.9941513E-01
         -4   -1    0    0    0  501 -0.00000000000E+00  0.00000000000E+00  0.14307183095E+04  0.14307183095E+04  0.00000000000E+00 0. -1.
         21   -1    0    0  501  502  0.00000000000E+00 -0.00000000000E+00 -0.24789311164E+03  0.24789311164E+03  0.00000000000E+00 0. -1.
   -9000010    2    1    2    0  502 -0.10854224325E+03  0.10811509918E+02  0.84578916770E+03  0.13243634796E+04  0.10132526844E+04 0.  0.
         13    1    3    3    0    0  0.35753949017E+03 -0.18389396522E+03  0.68499284234E+03  0.79427116447E+03  0.10566000000E+00 0. -1.
         -4    1    3    3    0  502 -0.46608173342E+03  0.19470547514E+03  0.16079632536E+03  0.53009231510E+03  0.00000000000E+00 0. -1.
        -13    1    1    2    0    0  0.10854224325E+03 -0.10811509918E+02  0.33703603016E+03  0.35424794157E+03  0.10566000000E+00 0.  1.
<mgrwt>
<rscale>  1 0.58290875E+03</rscale>
<asrwt>0</asrwt>
<pdfrwt beam="2">  1       21 0.38137403E-01 0.10191071E+04</pdfrwt>
<pdfrwt beam="1">  1       -4 0.22011050E+00 0.10191071E+04</pdfrwt>
<totfact> 0.25951603E+01</totfact>
</mgrwt>
</event>
<event>
 6    2  0.2321478E-005  0.1188401E+04  0.7818608E-02  0.9290042E-01
         -4   -1    0    0    0  501 -0.00000000000E+00  0.00000000000E+00  0.21871384032E+04  0.21871384032E+04  0.00000000000E+00 0. -1.
         21   -1    0    0  501  502  0.00000000000E+00 -0.00000000000E+00 -0.49060129194E+03  0.49060129194E+03  0.00000000000E+00 0. -1.
   -9000010    2    1    2    0  502  0.50907464181E+03  0.38372347710E+03  0.43725466179E+03  0.12662890242E+04  0.10029434459E+04 0.  0.
         13    1    3    3    0    0  0.62785508061E+03  0.35047275963E+03 -0.90125566592E+02  0.72467633217E+03  0.10566000000E+00 0. -1.
         -4    1    3    3    0  502 -0.11878043880E+03  0.33250717475E+02  0.52738022838E+03  0.54161269201E+03  0.00000000000E+00 0. -1.
        -13    1    1    2    0    0 -0.50907464181E+03 -0.38372347710E+03  0.12592824494E+04  0.14114506709E+04  0.10566000000E+00 0.  1.
<mgrwt>
<rscale>  1 0.10170481E+04</rscale>
<asrwt>0</asrwt>
<pdfrwt beam="2">  1       21 0.75477123E-01 0.11884007E+04</pdfrwt>
<pdfrwt beam="1">  1       -4 0.33648283E+00 0.11884007E+04</pdfrwt>
<totfact> 0.10653129E+00</totfact>
</mgrwt>
</event>
<event>
 6    2  0.2321478E-005  0.1019866E+04  0.7818608E-02  0.9780052E-01
         21   -1    0    0  501  502  0.00000000000E+00  0.00000000000E+00  0.13814608944E+04  0.13814608944E+04  0.00000000000E+00 0. -1.
         -4   -1    0    0    0  501 -0.00000000000E+00 -0.00000000000E+00 -0.26365646156E+03  0.26365646156E+03  0.00000000000E+00 0. -1.
   -9000010    2    1    2    0  502 -0.14527528365E+03 -0.11249250974E+03  0.98963934961E+03  0.14210955434E+04  0.10031784629E+04 0.  0.
         13    1    3    3    0    0  0.28026265560E+03  0.20412431271E+03  0.77478696368E+03  0.84882786324E+03  0.10566000000E+00 0. -1.
         -4    1    3    3    0  502 -0.42553793925E+03 -0.31661682245E+03  0.21485238593E+03  0.57226768015E+03  0.00000000000E+00 0. -1.
        -13    1    1    2    0    0  0.14527528365E+03  0.11249250974E+03  0.12816508326E+03  0.22402181260E+03  0.10566000000E+00 0.  1.
<mgrwt>
<rscale>  1 0.66444155E+03</rscale>
<asrwt>0</asrwt>
<pdfrwt beam="1">  1       21 0.21253244E+00 0.10198659E+04</pdfrwt>
<pdfrwt beam="2">  1       -4 0.40562533E-01 0.10198659E+04</pdfrwt>
<totfact> 0.22576526E+01</totfact>
</mgrwt>
</event>
<event>
 6    2  0.2321478E-005  0.1032461E+04  0.7818608E-02  0.9642741E-01
         -4   -1    0    0    0  501 -0.00000000000E+00  0.00000000000E+00  0.41864164851E+03  0.41864164851E+03  0.00000000000E+00 0. -1.
         21   -1    0    0  501  502  0.00000000000E+00 -0.00000000000E+00 -0.13185670376E+04  0.13185670376E+04  0.00000000000E+00 0. -1.
   -9000010    2    1    2    0  502  0.11804771212E+03 -0.25429905821E+03 -0.10020961758E+04  0.14388093661E+04  0.99366612754E+03 0.  0.
         13    1    3    3    0    0  0.40408876673E+03 -0.41579341005E+03 -0.94011642716E+03  0.11045319366E+04  0.10566000000E+00 0. -1.
         -4    1    3    3    0  502 -0.28604105462E+03  0.16149435184E+03 -0.61979748645E+02  0.33427742946E+03  0.00000000000E+00 0. -1.
        -13    1    1    2    0    0 -0.11804771212E+03  0.25429905821E+03  0.10217078675E+03  0.29839931999E+03  0.10566000000E+00 0.  1.
<mgrwt>
<rscale>  1 0.74530720E+03</rscale>
<asrwt>0</asrwt>
<pdfrwt beam="2">  1       21 0.20285647E+00 0.10324610E+04</pdfrwt>
<pdfrwt beam="1">  1       -4 0.64406408E-01 0.10324610E+04</pdfrwt>
<totfact> 0.98271759E+00</totfact>
</mgrwt>
</event>
<event>
 6    2  0.2321478E-005  0.9907778E+03  0.7818608E-02  0.9979146E-01
         21   -1    0    0  501  502  0.00000000000E+00  0.00000000000E+00  0.26338140326E+03  0.26338140326E+03  0.00000000000E+00 0. -1.
         -4   -1    0    0    0  501 -0.00000000000E+00 -0.00000000000E+00 -0.11442229479E+04  0.11442229479E+04  0.00000000000E+00 0. -1.
   -9000010    2    1    2    0  502 -0.10002171545E+03 -0.33010140431E+02 -0.81904334910E+03  0.12854853884E+04  0.98516326722E+03 0.  0.
         13    1    3    3    0    0  0.18995184862E+02  0.33762052790E+03 -0.82980992202E+03  0.89606526311E+03  0.10566000000E+00 0. -1.
         -4    1    3    3    0  502 -0.11901690031E+03 -0.37063066833E+03  0.10766572921E+02  0.38942012526E+03  0.00000000000E+00 0. -1.
        -13    1    1    2    0    0  0.10002171545E+03  0.33010140431E+02 -0.61798195506E+02  0.12211896275E+03  0.10566000000E+00 0.  1.
<mgrwt>
<rscale>  1 0.56574197E+03</rscale>
<asrwt>0</asrwt>
<pdfrwt beam="1">  1       21 0.40520215E-01 0.99077781E+03</pdfrwt>
<pdfrwt beam="2">  1       -4 0.17603430E+00 0.99077781E+03</pdfrwt>
<totfact> 0.45129714E+01</totfact>
</mgrwt>
</event>
<event>
 6    2  0.2321478E-005  0.1002725E+04  0.7818608E-02  0.9612916E-01
         -4   -1    0    0    0  501 -0.00000000000E+00  0.00000000000E+00  0.32602661092E+03  0.32602661092E+03  0.00000000000E+00 0. -1.
         21   -1    0    0  501  502  0.00000000000E+00 -0.00000000000E+00 -0.14099177308E+04  0.14099177308E+04  0.00000000000E+00 0. -1.
   -9000010    2    1    2    0  502  0.14952254358E+03  0.30398357869E+03 -0.91481189088E+03  0.13573273796E+04  0.94376576154E+03 0.  0.
         13    1    3    3    0    0 -0.30254155642E+03  0.57752887858E+02 -0.43436380719E+00  0.30800485265E+03  0.10566000000E+00 0. -1.
         -4    1    3    3    0  502  0.45206410000E+03  0.24623069083E+03 -0.91437752707E+03  0.10493225270E+04  0.00000000000E+00 0. -1.
        -13    1    1    2    0    0 -0.14952254358E+03 -0.30398357869E+03 -0.16907922902E+03  0.37861696211E+03  0.10566000000E+00 0.  1.
<mgrwt>
<rscale>  1 0.76447190E+03</rscale>
<asrwt>0</asrwt>
<pdfrwt beam="2">  1       21 0.21691042E+00 0.10027247E+04</pdfrwt>
<pdfrwt beam="1">  1       -4 0.50157939E-01 0.10027247E+04</pdfrwt>
<totfact> 0.13609342E+01</totfact>
</mgrwt>
</event>
<event>
 6    2  0.2321478E-005  0.1229176E+04  0.7818608E-02  0.9256655E-01
         -4   -1    0    0    0  501 -0.00000000000E+00  0.00000000000E+00  0.15596882222E+04  0.15596882222E+04  0.00000000000E+00 0. -1.
         21   -1    0    0  501  502  0.00000000000E+00 -0.00000000000E+00 -0.58147008635E+03  0.58147008635E+03  0.00000000000E+00 0.  1.
   -9000010    2    1    2    0  502  0.46311066919E+03  0.45802309258E+03  0.47380703875E+03  0.13173335630E+04  0.10424096897E+04 0.  0.
         13    1    3    3    0    0  0.35994403997E+03  0.45492467215E+03 -0.21662653173E+03  0.61922793433E+03  0.10566000000E+00 0. -1.
         -4    1    3    3    0  502  0.10316662922E+03  0.30984204319E+01  0.69043357048E+03  0.69810562871E+03  0.00000000000E+00 0. -1.
        -13    1    1    2    0    0 -0.46311066919E+03 -0.45802309258E+03  0.50441109708E+03  0.82382474549E+03  0.10566000000E+00 0.  1.
<mgrwt>
<rscale>  1 0.10487313E+04</rscale>
<asrwt>0</asrwt>
<pdfrwt beam="2">  1       21 0.89456937E-01 0.12291764E+04</pdfrwt>
<pdfrwt beam="1">  1       -4 0.23995203E+00 0.12291764E+04</pdfrwt>
<totfact> 0.28337327E+00</totfact>
</mgrwt>
</event>
<event>
 6    2  0.2321478E-005  0.1011267E+04  0.7818608E-02  0.1006102E+00
         -4   -1    0    0    0  501 -0.00000000000E+00  0.00000000000E+00  0.83699199822E+03  0.83699199822E+03  0.00000000000E+00 0. -1.
         21   -1    0    0  501  502  0.00000000000E+00 -0.00000000000E+00 -0.35551198200E+03  0.35551198200E+03  0.00000000000E+00 0. -1.
   -9000010    2    1    2    0  502  0.32710533233E+02  0.69271602079E+02  0.42319494559E+03  0.10962455029E+04  0.10083609010E+04 0.  0.
         13    1    3    3    0    0  0.41526053289E+03  0.12036234747E+03 -0.10226012504E+03  0.44428093500E+03  0.10566000000E+00 0. -1.
         -4    1    3    3    0  502 -0.38254999966E+03 -0.51090745388E+02  0.52545507063E+03  0.65196456787E+03  0.00000000000E+00 0. -1.
        -13    1    1    2    0    0 -0.32710533233E+02 -0.69271602079E+02  0.58285070639E+02  0.96258477353E+02  0.10566000000E+00 0.  1.
<mgrwt>
<rscale>  1 0.53053687E+03</rscale>
<asrwt>0</asrwt>
<pdfrwt beam="2">  1       21 0.54694151E-01 0.10112667E+04</pdfrwt>
<pdfrwt beam="1">  1       -4 0.12876800E+00 0.10112667E+04</pdfrwt>
<totfact> 0.55049739E+01</totfact>
</mgrwt>
</event>
<event>
 6    2  0.2321478E-005  0.9933509E+03  0.7818608E-02  0.1005731E+00
         -4   -1    0    0    0  501 -0.00000000000E+00  0.00000000000E+00  0.18697591529E+03  0.18697591529E+03  0.00000000000E+00 0. -1.
         21   -1    0    0  501  502  0.00000000000E+00 -0.00000000000E+00 -0.15757029714E+04  0.15757029714E+04  0.00000000000E+00 0. -1.
   -9000010    2    1    2    0  502 -0.10899312077E+02 -0.81035115171E+02 -0.13380952122E+04  0.16665067510E+04  0.98998003486E+03 0.  0.
         13    1    3    3    0    0 -0.16909101967E+03  0.16165895042E+03  0.57716071059E+02  0.24094925858E+03  0.10566000000E+00 0. -1.
         -4    1    3    3    0  502  0.15819170759E+03 -0.24269406559E+03 -0.13958112832E+04  0.14255574924E+04  0.00000000000E+00 0. -1.
        -13    1    1    2    0    0  0.10899312077E+02  0.81035115171E+02 -0.50631843889E+02  0.96172135643E+02  0.10566000000E+00 0.  1.
<mgrwt>
<rscale>  1 0.53206993E+03</rscale>
<asrwt>0</asrwt>
<pdfrwt beam="2">  1       21 0.24241585E+00 0.99335087E+03</pdfrwt>
<pdfrwt beam="1">  1       -4 0.28765525E-01 0.99335087E+03</pdfrwt>
<totfact> 0.28660694E+01</totfact>
</mgrwt>
</event>
<event>
 6    2  0.2321478E-005  0.1331137E+04  0.7818608E-02  0.9116096E-01
         21   -1    0    0  501  502  0.00000000000E+00  0.00000000000E+00  0.85621287943E+03  0.85621287943E+03  0.00000000000E+00 0.  1.
         -4   -1    0    0    0  501 -0.00000000000E+00 -0.00000000000E+00 -0.14949071742E+04  0.14949071742E+04  0.00000000000E+00 0. -1.
   -9000010    2    1    2    0  502 -0.52191151831E+03  0.69401773163E+03 -0.65291671346E+03  0.14826417677E+04  0.10088974834E+04 0.  0.
         13    1    3    3    0    0  0.28233333749E+03  0.12962238843E+03 -0.14667927932E+02  0.31101324139E+03  0.10566000000E+00 0. -1.
         -4    1    3    3    0  502 -0.80424485581E+03  0.56439534319E+03 -0.63824878553E+03  0.11716285263E+04  0.00000000000E+00 0. -1.
        -13    1    1    2    0    0  0.52191151831E+03 -0.69401773163E+03  0.14222418663E+02  0.86847828592E+03  0.10566000000E+00 0.  1.
<mgrwt>
<rscale>  1 0.11963062E+04</rscale>
<asrwt>0</asrwt>
<pdfrwt beam="1">  1       21 0.13172506E+00 0.13311372E+04</pdfrwt>
<pdfrwt beam="2">  1       -4 0.22998571E+00 0.13311372E+04</pdfrwt>
<totfact> 0.12076199E+00</totfact>
</mgrwt>
</event>
<event>
 6    2  0.2321478E-005  0.9993143E+03  0.7818608E-02  0.1006640E+00
         -4   -1    0    0    0  501 -0.00000000000E+00  0.00000000000E+00  0.49414213152E+03  0.49414213152E+03  0.00000000000E+00 0. -1.
         21   -1    0    0  501  502  0.00000000000E+00 -0.00000000000E+00 -0.62959095792E+03  0.62959095792E+03  0.00000000000E+00 0. -1.
   -9000010    2    1    2    0  502  0.20473920767E+02  0.75339166197E+02 -0.20389842040E+03  0.10199037608E+04  0.99625997818E+03 0.  0.
         13    1    3    3    0    0 -0.17325372305E+03 -0.15745712338E+02 -0.56991809124E+03  0.59587869729E+03  0.10566000000E+00 0. -1.
         -4    1    3    3    0  502  0.19372764381E+03  0.91084878535E+02  0.36601967083E+03  0.42402506354E+03  0.00000000000E+00 0. -1.
        -13    1    1    2    0    0 -0.20473920767E+02 -0.75339166197E+02  0.68449594003E+02  0.10382932860E+03  0.10566000000E+00 0.  1.
<mgrwt>
<rscale>  1 0.52832349E+03</rscale>
<asrwt>0</asrwt>
<pdfrwt beam="2">  1       21 0.96860147E-01 0.99931432E+03</pdfrwt>
<pdfrwt beam="1">  1       -4 0.76021867E-01 0.99931432E+03</pdfrwt>
<totfact> 0.52234487E+01</totfact>
</mgrwt>
</event>
<event>
 6    2  0.2321478E-005  0.1024777E+04  0.7818608E-02  0.9700213E-01
         21   -1    0    0  501  502  0.00000000000E+00  0.00000000000E+00  0.54873546313E+03  0.54873546313E+03  0.00000000000E+00 0. -1.
         -4   -1    0    0    0  501 -0.00000000000E+00 -0.00000000000E+00 -0.72491817888E+03  0.72491817888E+03  0.00000000000E+00 0. -1.
   -9000010    2    1    2    0  502 -0.22850696237E+03  0.59718293180E+02 -0.12986504763E+03  0.10329732649E+04  0.99718961536E+03 0.  0.
         13    1    3    3    0    0  0.80173287011E+02  0.34007037637E+03 -0.40385942361E+03  0.53402065694E+03  0.10566000000E+00 0. -1.
         -4    1    3    3    0  502 -0.30868024938E+03 -0.28035208319E+03  0.27399437598E+03  0.49895260795E+03  0.00000000000E+00 0. -1.
        -13    1    1    2    0    0  0.22850696237E+03 -0.59718293180E+02 -0.46317668118E+02  0.24068037713E+03  0.10566000000E+00 0.  1.
<mgrwt>
<rscale>  1 0.71004138E+03</rscale>
<asrwt>0</asrwt>
<pdfrwt beam="1">  1       21 0.84420841E-01 0.10247775E+04</pdfrwt>
<pdfrwt beam="2">  1       -4 0.11152587E+00 0.10247775E+04</pdfrwt>
<totfact> 0.29313716E+01</totfact>
</mgrwt>
</event>
<event>
 6    2  0.2321478E-005  0.9921054E+03  0.7818608E-02  0.9988107E-01
         21   -1    0    0  501  502  0.00000000000E+00  0.00000000000E+00  0.57249727847E+03  0.57249727847E+03  0.00000000000E+00 0. -1.
         -4   -1    0    0    0  501 -0.00000000000E+00 -0.00000000000E+00 -0.52811032592E+03  0.52811032592E+03  0.00000000000E+00 0. -1.
   -9000010    2    1    2    0  502 -0.51999400390E+02  0.87720569230E+02  0.72728737771E+02  0.99476761261E+03  0.98685069686E+03 0.  0.
         13    1    3    3    0    0  0.39450734490E+03 -0.11492026940E+03 -0.17355445543E+03  0.44605366680E+03  0.10566000000E+00 0. -1.
         -4    1    3    3    0  502 -0.44650674529E+03  0.20264083863E+03  0.24628319320E+03  0.54871394581E+03  0.00000000000E+00 0. -1.
        -13    1    1    2    0    0  0.51999400390E+02 -0.87720569230E+02 -0.28341785213E+02  0.10583999178E+03  0.10566000000E+00 0.  1.
<mgrwt>
<rscale>  1 0.56174797E+03</rscale>
<asrwt>0</asrwt>
<pdfrwt beam="1">  1       21 0.88076505E-01 0.99210540E+03</pdfrwt>
<pdfrwt beam="2">  1       -4 0.81247742E-01 0.99210540E+03</pdfrwt>
<totfact> 0.56541305E+01</totfact>
</mgrwt>
</event>
<event>
 6    2  0.2321478E-005  0.1098797E+04  0.7818608E-02  0.9542022E-01
         -4   -1    0    0    0  501 -0.00000000000E+00  0.00000000000E+00  0.81173156705E+03  0.81173156705E+03  0.00000000000E+00 0. -1.
         21   -1    0    0  501  502  0.00000000000E+00 -0.00000000000E+00 -0.73805298995E+03  0.73805298995E+03  0.00000000000E+00 0. -1.
   -9000010    2    1    2    0  502  0.31729185447E+03 -0.85427651342E+02 -0.20641282386E+03  0.11180170170E+04  0.10485150414E+04 0.  0.
         13    1    3    3    0    0  0.45262471058E+03 -0.94814587862E+02  0.32780327228E+03  0.56684559731E+03  0.10566000000E+00 0. -1.
         -4    1    3    3    0  502 -0.13533285611E+03  0.93869365209E+01 -0.53421609614E+03  0.55117141970E+03  0.00000000000E+00 0. -1.
        -13    1    1    2    0    0 -0.31729185447E+03  0.85427651342E+02  0.28009140096E+03  0.43176753998E+03  0.10566000000E+00 0.  1.
<mgrwt>
<rscale>  1 0.81255380E+03</rscale>
<asrwt>0</asrwt>
<pdfrwt beam="2">  1       21 0.11354661E+00 0.10987974E+04</pdfrwt>
<pdfrwt beam="1">  1       -4 0.12488178E+00 0.10987974E+04</pdfrwt>
<totfact> 0.10544436E+01</totfact>
</mgrwt>
</event>
<event>
 6    2  0.2321478E-005  0.9976935E+03  0.7818608E-02  0.1016876E+00
         -4   -1    0    0    0  501 -0.00000000000E+00  0.00000000000E+00  0.59089428374E+03  0.59089428374E+03  0.00000000000E+00 0. -1.
         21   -1    0    0  501  502  0.00000000000E+00 -0.00000000000E+00 -0.60342265601E+03  0.60342265601E+03  0.00000000000E+00 0. -1.
   -9000010    2    1    2    0  502 -0.52990739870E+02  0.21674133457E+02 -0.18313324134E+03  0.10143618923E+04  0.99604943551E+03 0.  0.
         13    1    3    3    0    0 -0.15072932950E+03 -0.37721116135E+03 -0.38240021465E+03  0.55788666084E+03  0.10566000000E+00 0. -1.
         -4    1    3    3    0  502  0.97738589625E+02  0.39888529481E+03  0.19926697331E+03  0.45647523149E+03  0.00000000000E+00 0. -1.
        -13    1    1    2    0    0  0.52990739870E+02 -0.21674133457E+02  0.17060486908E+03  0.17995504741E+03  0.10566000000E+00 0.  1.
<mgrwt>
<rscale>  1 0.48831000E+03</rscale>
<asrwt>0</asrwt>
<pdfrwt beam="2">  1       21 0.92834255E-01 0.99769347E+03</pdfrwt>
<pdfrwt beam="1">  1       -4 0.90906812E-01 0.99769347E+03</pdfrwt>
<totfact> 0.38305992E+01</totfact>
</mgrwt>
</event>
<event>
 6    2  0.2321478E-005  0.1183322E+04  0.7818608E-02  0.9343367E-01
         21   -1    0    0  501  502  0.00000000000E+00  0.00000000000E+00  0.46910521006E+03  0.46910521006E+03  0.00000000000E+00 0. -1.
         -4   -1    0    0    0  501 -0.00000000000E+00 -0.00000000000E+00 -0.15748271402E+04  0.15748271402E+04  0.00000000000E+00 0. -1.
   -9000010    2    1    2    0  502  0.15076902614E+03  0.50997760198E+03 -0.69823091665E+03  0.13739641488E+04  0.10570915833E+04 0.  0.
         13    1    3    3    0    0 -0.83352524946E+02  0.12107465707E+03  0.26842135241E+03  0.30603390268E+03  0.10566000000E+00 0. -1.
         -4    1    3    3    0  502  0.23412155109E+03  0.38890294491E+03 -0.96665226906E+03  0.10679302461E+04  0.00000000000E+00 0. -1.
        -13    1    1    2    0    0 -0.15076902614E+03 -0.50997760198E+03 -0.40749101349E+03  0.66996820149E+03  0.10566000000E+00 0.  1.
<mgrwt>
<rscale>  1 0.96886612E+03</rscale>
<asrwt>0</asrwt>
<pdfrwt beam="1">  1       21 0.72170033E-01 0.11833220E+04</pdfrwt>
<pdfrwt beam="2">  1       -4 0.24228110E+00 0.11833220E+04</pdfrwt>
<totfact> 0.45781687E+00</totfact>
</mgrwt>
</event>
<event>
 6    2  0.2321478E-005  0.1064573E+04  0.7818608E-02  0.9687375E-01
         -4   -1    0    0    0  501 -0.00000000000E+00  0.00000000000E+00  0.46365255490E+03  0.46365255490E+03  0.00000000000E+00 0. -1.
         21   -1    0    0  501  502  0.00000000000E+00 -0.00000000000E+00 -0.91985973923E+03  0.91985973923E+03  0.00000000000E+00 0. -1.
   -9000010    2    1    2    0  502 -0.84327369843E+02  0.20314518755E+03 -0.46874780273E+03  0.11632026239E+04  0.10416029806E+04 0.  0.
         13    1    3    3    0    0 -0.53541916516E+03  0.14005689216E+03 -0.43961608230E+03  0.70678987432E+03  0.10566000000E+00 0. -1.
         -4    1    3    3    0  502  0.45109179532E+03  0.63088295395E+02 -0.29131720430E+02  0.45641274956E+03  0.00000000000E+00 0. -1.
        -13    1    1    2    0    0  0.84327369843E+02 -0.20314518755E+03  0.12540618396E+02  0.22030967025E+03  0.10566000000E+00 0.  1.
<mgrwt>
<rscale>  1 0.71773449E+03</rscale>
<asrwt>0</asrwt>
<pdfrwt beam="2">  1       21 0.14151688E+00 0.10645731E+04</pdfrwt>
<pdfrwt beam="1">  1       -4 0.71331162E-01 0.10645731E+04</pdfrwt>
<totfact> 0.22499703E+01</totfact>
</mgrwt>
</event>
<event>
 6    2  0.2321478E-005  0.1052702E+04  0.7818608E-02  0.9965026E-01
         -4   -1    0    0    0  501 -0.00000000000E+00  0.00000000000E+00  0.32562113968E+03  0.32562113968E+03  0.00000000000E+00 0. -1.
         21   -1    0    0  501  502  0.00000000000E+00 -0.00000000000E+00 -0.10057590073E+04  0.10057590073E+04  0.00000000000E+00 0. -1.
   -9000010    2    1    2    0  502 -0.56718282360E+02 -0.72222753082E+02 -0.62720611320E+03  0.12253854707E+04  0.10486891597E+04 0.  0.
         13    1    3    3    0    0 -0.40042538267E+03 -0.14086147270E+03 -0.74346857197E+03  0.85611212481E+03  0.10566000000E+00 0. -1.
         -4    1    3    3    0  502  0.34370710031E+03  0.68638719617E+02  0.11626245877E+03  0.36927334585E+03  0.00000000000E+00 0. -1.
        -13    1    1    2    0    0  0.56718282360E+02  0.72222753082E+02 -0.52931754431E+02  0.10599467632E+03  0.10566000000E+00 0.  1.
<mgrwt>
<rscale>  1 0.57210742E+03</rscale>
<asrwt>0</asrwt>
<pdfrwt beam="2">  1       21 0.15473215E+00 0.10527023E+04</pdfrwt>
<pdfrwt beam="1">  1       -4 0.50095561E-01 0.10527023E+04</pdfrwt>
<totfact> 0.37968106E+01</totfact>
</mgrwt>
</event>
<event>
 6    2  0.2321478E-005  0.1003936E+04  0.7818608E-02  0.9926981E-01
         -4   -1    0    0    0  501 -0.00000000000E+00  0.00000000000E+00  0.20724116798E+03  0.20724116798E+03  0.00000000000E+00 0. -1.
         21   -1    0    0  501  502  0.00000000000E+00 -0.00000000000E+00 -0.16126917371E+04  0.16126917371E+04  0.00000000000E+00 0. -1.
   -9000010    2    1    2    0  502 -0.50711638266E+02 -0.10822982848E+03 -0.13635754267E+04  0.16932881076E+04  0.99679551811E+03 0.  0.
         13    1    3    3    0    0 -0.38976494835E+03  0.12572890793E+03 -0.11671453535E+04  0.12369125921E+04  0.10566000000E+00 0. -1.
         -4    1    3    3    0  502  0.33905331009E+03 -0.23395873641E+03 -0.19643007318E+03  0.45637551542E+03  0.00000000000E+00 0. -1.
        -13    1    1    2    0    0  0.50711638266E+02  0.10822982848E+03 -0.41875142475E+02  0.12664479756E+03  0.10566000000E+00 0.  1.
<mgrwt>
<rscale>  1 0.58971320E+03</rscale>
<asrwt>0</asrwt>
<pdfrwt beam="2">  1       21 0.24810642E+00 0.10039356E+04</pdfrwt>
<pdfrwt beam="1">  1       -4 0.31883257E-01 0.10039356E+04</pdfrwt>
<totfact> 0.21515207E+01</totfact>
</mgrwt>
</event>
<event>
 6    2  0.2321478E-005  0.1082504E+04  0.7818608E-02  0.9490192E-01
         21   -1    0    0  501  502  0.00000000000E+00  0.00000000000E+00  0.16252740952E+04  0.16252740952E+04  0.00000000000E+00 0. -1.
         -4   -1    0    0    0  501 -0.00000000000E+00 -0.00000000000E+00 -0.36425043228E+03  0.36425043228E+03  0.00000000000E+00 0. -1.
   -9000010    2    1    2    0  502  0.31552441251E+03 -0.26450392131E+03  0.11113879887E+04  0.15514505321E+04  0.10011480974E+04 0.  0.
         13    1    3    3    0    0  0.49001581016E+03  0.14445460268E+03  0.94961039922E+03  0.10783054057E+04  0.10566000000E+00 0. -1.
         -4    1    3    3    0  502 -0.17449139765E+03 -0.40895852398E+03  0.16177758944E+03  0.47314512640E+03  0.00000000000E+00 0. -1.
        -13    1    1    2    0    0 -0.31552441251E+03  0.26450392131E+03  0.14963567428E+03  0.43807399542E+03  0.10566000000E+00 0.  1.
<mgrwt>
<rscale>  1 0.85010817E+03</rscale>
<asrwt>0</asrwt>
<pdfrwt beam="1">  1       21 0.25004216E+00 0.10825043E+04</pdfrwt>
<pdfrwt beam="2">  1       -4 0.56038529E-01 0.10825043E+04</pdfrwt>
<totfact> 0.64740614E+00</totfact>
</mgrwt>
</event>
<event>
 6    2  0.2321478E-005  0.9615224E+03  0.7818608E-02  0.9815925E-01
         -4   -1    0    0    0  501 -0.00000000000E+00  0.00000000000E+00  0.99299037094E+03  0.99299037094E+03  0.00000000000E+00 0. -1.
         21   -1    0    0  501  502  0.00000000000E+00 -0.00000000000E+00 -0.36981249359E+03  0.36981249359E+03  0.00000000000E+00 0. -1.
   -9000010    2    1    2    0  502 -0.16961589171E+03  0.95956295669E+02  0.34167024735E+03  0.10204233699E+04  0.94156685084E+03 0.  0.
         13    1    3    3    0    0 -0.65479365564E+02 -0.31336087440E+03 -0.16553225492E+03  0.36039356751E+03  0.10566000000E+00 0. -1.
         -4    1    3    3    0  502 -0.10413652614E+03  0.40931717007E+03  0.50720250227E+03  0.66002980244E+03  0.00000000000E+00 0. -1.
        -13    1    1    2    0    0  0.16961589171E+03 -0.95956295669E+02  0.28150763000E+03  0.34237949458E+03  0.10566000000E+00 0.  1.
<mgrwt>
<rscale>  1 0.64514878E+03</rscale>
<asrwt>0</asrwt>
<pdfrwt beam="2">  1       21 0.56894230E-01 0.96152238E+03</pdfrwt>
<pdfrwt beam="1">  1       -4 0.15276775E+00 0.96152238E+03</pdfrwt>
<totfact> 0.32345884E+01</totfact>
</mgrwt>
</event>
<event>
 6    2  0.2321478E-005  0.1007184E+04  0.7818608E-02  0.1000776E+00
         21   -1    0    0  501  502  0.00000000000E+00  0.00000000000E+00  0.92787675866E+03  0.92787675866E+03  0.00000000000E+00 0. -1.
         -4   -1    0    0    0  501 -0.00000000000E+00 -0.00000000000E+00 -0.63085145114E+03  0.63085145114E+03  0.00000000000E+00 0. -1.
   -9000010    2    1    2    0  502 -0.36384206066E+01 -0.91535573212E+02  0.64691446712E+03  0.11970454283E+04  0.10030091876E+04 0.  0.
         13    1    3    3    0    0  0.42723237073E+03  0.16350466248E+03  0.49455905253E+03  0.67368385824E+03  0.10566000000E+00 0. -1.
         -4    1    3    3    0  502 -0.43087079134E+03 -0.25504023569E+03  0.15235541460E+03  0.52336157005E+03  0.00000000000E+00 0. -1.
        -13    1    1    2    0    0  0.36384206066E+01  0.91535573212E+02 -0.34988915960E+03  0.36168278151E+03  0.10566000000E+00 0.  1.
<mgrwt>
<rscale>  1 0.55311424E+03</rscale>
<asrwt>0</asrwt>
<pdfrwt beam="1">  1       21 0.14275027E+00 0.10071839E+04</pdfrwt>
<pdfrwt beam="2">  1       -4 0.97054069E-01 0.10071839E+04</pdfrwt>
<totfact> 0.10827912E+01</totfact>
</mgrwt>
</event>
<event>
 6    2  0.2321478E-005  0.1001209E+04  0.7818608E-02  0.1007951E+00
         -4   -1    0    0    0  501 -0.00000000000E+00  0.00000000000E+00  0.20402618944E+04  0.20402618944E+04  0.00000000000E+00 0. -1.
         21   -1    0    0  501  502  0.00000000000E+00 -0.00000000000E+00 -0.15433376767E+03  0.15433376767E+03  0.00000000000E+00 0. -1.
   -9000010    2    1    2    0  502  0.65328410850E+02  0.35877450649E+02  0.15128714803E+04  0.18141666078E+04  0.99843145591E+03 0.  0.
         13    1    3    3    0    0 -0.46115284060E+03  0.68311150007E+02  0.82141849026E+03  0.94448753455E+03  0.10566000000E+00 0. -1.
         -4    1    3    3    0  502  0.52648125145E+03 -0.32433699358E+02  0.69145299002E+03  0.86967907321E+03  0.00000000000E+00 0. -1.
        -13    1    1    2    0    0 -0.65328410850E+02 -0.35877450649E+02  0.37305664649E+03  0.38042905434E+03  0.10566000000E+00 0.  1.
<mgrwt>
<rscale>  1 0.52297298E+03</rscale>
<asrwt>0</asrwt>
<pdfrwt beam="2">  1       21 0.23743658E-01 0.10012095E+04</pdfrwt>
<pdfrwt beam="1">  1       -4 0.31388643E+00 0.10012095E+04</pdfrwt>
<totfact> 0.17728328E+01</totfact>
</mgrwt>
</event>
<event>
 6    2  0.2321478E-005  0.1016473E+04  0.7818608E-02  0.9856046E-01
         -4   -1    0    0    0  501 -0.00000000000E+00  0.00000000000E+00  0.24556916818E+03  0.24556916818E+03  0.00000000000E+00 0. -1.
         21   -1    0    0  501  502  0.00000000000E+00 -0.00000000000E+00 -0.13791945230E+04  0.13791945230E+04  0.00000000000E+00 0. -1.
   -9000010    2    1    2    0  502 -0.70633994290E+02 -0.12632098399E+03 -0.95344514106E+03  0.13936553340E+04  0.10061169917E+04 0.  0.
         13    1    3    3    0    0 -0.50403867993E+03  0.23487927423E+02 -0.71967273997E+03  0.87894000786E+03  0.10566000000E+00 0. -1.
         -4    1    3    3    0  502  0.43340468564E+03 -0.14980891142E+03 -0.23377240109E+03  0.51471532616E+03  0.00000000000E+00 0. -1.
        -13    1    1    2    0    0  0.70633994290E+02  0.12632098399E+03 -0.18018021372E+03  0.23110835711E+03  0.10566000000E+00 0.  1.
<mgrwt>
<rscale>  1 0.62439588E+03</rscale>
<asrwt>0</asrwt>
<pdfrwt beam="2">  1       21 0.21218377E+00 0.10164731E+04</pdfrwt>
<pdfrwt beam="1">  1       -4 0.37779872E-01 0.10164731E+04</pdfrwt>
<totfact> 0.26236837E+01</totfact>
</mgrwt>
</event>
<event>
 6    2  0.2321478E-005  0.1071573E+04  0.7818608E-02  0.9594588E-01
         -4   -1    0    0    0  501 -0.00000000000E+00  0.00000000000E+00  0.47634553417E+03  0.47634553417E+03  0.00000000000E+00 0. -1.
         21   -1    0    0  501  502  0.00000000000E+00 -0.00000000000E+00 -0.13843800528E+04  0.13843800528E+04  0.00000000000E+00 0. -1.
   -9000010    2    1    2    0  502 -0.95453410697E+02  0.27970515362E+03 -0.10778419119E+04  0.15198724095E+04  0.10300109842E+04 0.  0.
         13    1    3    3    0    0  0.23953401513E+03  0.29815948133E+03  0.88579577505E+01  0.38256253775E+03  0.10566000000E+00 0. -1.
         -4    1    3    3    0  502 -0.33498742582E+03 -0.18454327702E+02 -0.10866998697E+04  0.11373098718E+04  0.00000000000E+00 0. -1.
        -13    1    1    2    0    0  0.95453410697E+02 -0.27970515362E+03  0.16980739332E+03  0.34085317743E+03  0.10566000000E+00 0.  1.
<mgrwt>
<rscale>  1 0.77655451E+03</rscale>
<asrwt>0</asrwt>
<pdfrwt beam="2">  1       21 0.21298155E+00 0.10715731E+04</pdfrwt>
<pdfrwt beam="1">  1       -4 0.73283928E-01 0.10715731E+04</pdfrwt>
<totfact> 0.62567160E+00</totfact>
</mgrwt>
</event>
<event>
 6    2  0.2321478E-005  0.1028089E+04  0.7818608E-02  0.9667690E-01
         21   -1    0    0  501  502  0.00000000000E+00  0.00000000000E+00  0.15771963277E+04  0.15771963277E+04  0.00000000000E+00 0. -1.
         -4   -1    0    0    0  501 -0.00000000000E+00 -0.00000000000E+00 -0.29647017991E+03  0.29647017991E+03  0.00000000000E+00 0. -1.
   -9000010    2    1    2    0  502  0.16538310729E+03 -0.20185925410E+03  0.12380123409E+04  0.16092365337E+04  0.99441889285E+03 0.  0.
         13    1    3    3    0    0 -0.37137397059E+02  0.39535761074E+03  0.45741786893E+03  0.60573752122E+03  0.10566000000E+00 0. -1.
         -4    1    3    3    0  502  0.20252050435E+03 -0.59721686484E+03  0.78059447196E+03  0.10034990125E+04  0.00000000000E+00 0. -1.
        -13    1    1    2    0    0 -0.16538310729E+03  0.20185925410E+03  0.42713806884E+02  0.26442997392E+03  0.10566000000E+00 0.  1.
<mgrwt>
<rscale>  1 0.72973558E+03</rscale>
<asrwt>0</asrwt>
<pdfrwt beam="1">  1       21 0.24264558E+00 0.10280893E+04</pdfrwt>
<pdfrwt beam="2">  1       -4 0.45610798E-01 0.10280893E+04</pdfrwt>
<totfact> 0.11249469E+01</totfact>
</mgrwt>
</event>
<event>
 6    2  0.2321478E-005  0.1016052E+04  0.7818608E-02  0.9773750E-01
         21   -1    0    0  501  502  0.00000000000E+00  0.00000000000E+00  0.16476911346E+03  0.16476911346E+03  0.00000000000E+00 0. -1.
         -4   -1    0    0    0  501 -0.00000000000E+00 -0.00000000000E+00 -0.25161417037E+04  0.25161417037E+04  0.00000000000E+00 0. -1.
   -9000010    2    1    2    0  502  0.11745001224E+03 -0.14899263020E+03 -0.15210874344E+04  0.18292261570E+04  0.99818236862E+03 0.  0.
         13    1    3    3    0    0  0.41990165757E+03 -0.41194331573E+03 -0.69109600390E+03  0.90753974854E+03  0.10566000000E+00 0. -1.
         -4    1    3    3    0  502 -0.30245164533E+03  0.26295068554E+03 -0.82999143054E+03  0.92168640847E+03  0.00000000000E+00 0. -1.
        -13    1    1    2    0    0 -0.11745001224E+03  0.14899263020E+03 -0.83028515585E+03  0.85168466020E+03  0.10566000000E+00 0.  1.
<mgrwt>
<rscale>  1 0.66790492E+03</rscale>
<asrwt>0</asrwt>
<pdfrwt beam="1">  1       21 0.25349096E-01 0.10160518E+04</pdfrwt>
<pdfrwt beam="2">  1       -4 0.38709870E+00 0.10160518E+04</pdfrwt>
<totfact> 0.52059280E+00</totfact>
</mgrwt>
</event>
<event>
 6    2  0.2321478E-005  0.1004155E+04  0.7818608E-02  0.9860371E-01
         21   -1    0    0  501  502  0.00000000000E+00  0.00000000000E+00  0.23575333324E+03  0.23575333324E+03  0.00000000000E+00 0. -1.
         -4   -1    0    0    0  501 -0.00000000000E+00 -0.00000000000E+00 -0.16584694422E+04  0.16584694422E+04  0.00000000000E+00 0. -1.
   -9000010    2    1    2    0  502 -0.23242813954E+02  0.14619177132E+03 -0.14284540813E+04  0.17460836588E+04  0.99318418165E+03 0.  0.
         13    1    3    3    0    0  0.31007485196E+03 -0.31046542777E+03 -0.62615298888E+03  0.76459320708E+03  0.10566000000E+00 0. -1.
         -4    1    3    3    0  502 -0.33331766591E+03  0.45665719909E+03 -0.80230109244E+03  0.98149045172E+03  0.00000000000E+00 0. -1.
        -13    1    1    2    0    0  0.23242813954E+02 -0.14619177132E+03  0.57379723083E+01  0.14813911669E+03  0.10566000000E+00 0.  1.
<mgrwt>
<rscale>  1 0.62220933E+03</rscale>
<asrwt>0</asrwt>
<pdfrwt beam="1">  1       21 0.36269744E-01 0.10041549E+04</pdfrwt>
<pdfrwt beam="2">  1       -4 0.25514914E+00 0.10041549E+04</pdfrwt>
<totfact> 0.17408128E+01</totfact>
</mgrwt>
</event>
<event>
 6    2  0.2321478E-005  0.1037288E+04  0.7818608E-02  0.9925621E-01
         21   -1    0    0  501  502  0.00000000000E+00  0.00000000000E+00  0.39754329665E+03  0.39754329665E+03  0.00000000000E+00 0. -1.
         -4   -1    0    0    0  501 -0.00000000000E+00 -0.00000000000E+00 -0.12700217338E+04  0.12700217338E+04  0.00000000000E+00 0. -1.
   -9000010    2    1    2    0  502  0.10198400727E+03 -0.37994031788E+02 -0.29288814891E+03  0.10778454381E+04  0.10315633943E+04 0.  0.
         13    1    3    3    0    0 -0.16890633061E+03  0.52187695857E+02  0.34018059167E+03  0.38337416480E+03  0.10566000000E+00 0. -1.
         -4    1    3    3    0  502  0.27089033788E+03 -0.90181727644E+02 -0.63306874058E+03  0.69447127332E+03  0.00000000000E+00 0. -1.
        -13    1    1    2    0    0 -0.10198400727E+03  0.37994031788E+02 -0.57959028823E+03  0.58971959232E+03  0.10566000000E+00 0.  1.
<mgrwt>
<rscale>  1 0.59035509E+03</rscale>
<asrwt>0</asrwt>
<pdfrwt beam="1">  1       21 0.61160507E-01 0.10372884E+04</pdfrwt>
<pdfrwt beam="2">  1       -4 0.19538796E+00 0.10372884E+04</pdfrwt>
<totfact> 0.13575635E+01</totfact>
</mgrwt>
</event>
<event>
 6    2  0.2321478E-005  0.1016772E+04  0.7818608E-02  0.9780644E-01
         21   -1    0    0  501  502  0.00000000000E+00  0.00000000000E+00  0.50124528289E+03  0.50124528289E+03  0.00000000000E+00 0. -1.
         -4   -1    0    0    0  501 -0.00000000000E+00 -0.00000000000E+00 -0.11158634378E+04  0.11158634378E+04  0.00000000000E+00 0. -1.
   -9000010    2    1    2    0  502 -0.79074981518E+02  0.16731265820E+03 -0.44541293848E+02  0.10177473798E+04  0.99978968984E+03 0.  0.
         13    1    3    3    0    0 -0.31365319722E+03  0.11666218485E+03  0.39454824005E+03  0.51735550484E+03  0.10566000000E+00 0. -1.
         -4    1    3    3    0  502  0.23457821570E+03  0.50650473356E+02 -0.43908953390E+03  0.50039187495E+03  0.00000000000E+00 0. -1.
        -13    1    1    2    0    0  0.79074981518E+02 -0.16731265820E+03 -0.57007686108E+03  0.59936134093E+03  0.10566000000E+00 0.  1.
<mgrwt>
<rscale>  1 0.66411702E+03</rscale>
<asrwt>0</asrwt>
<pdfrwt beam="1">  1       21 0.77114660E-01 0.10167722E+04</pdfrwt>
<pdfrwt beam="2">  1       -4 0.17167130E+00 0.10167722E+04</pdfrwt>
<totfact> 0.11685889E+01</totfact>
</mgrwt>
</event>
<event>
 6    2  0.2321478E-005  0.1024451E+04  0.7818608E-02  0.1001360E+00
         -4   -1    0    0    0  501 -0.00000000000E+00  0.00000000000E+00  0.11110691208E+03  0.11110691208E+03  0.00000000000E+00 0. -1.
         21   -1    0    0  501  502  0.00000000000E+00 -0.00000000000E+00 -0.29470656574E+04  0.29470656574E+04  0.00000000000E+00 0. -1.
   -9000010    2    1    2    0  502  0.68215043815E+02 -0.51494869384E+02 -0.27593878798E+04  0.29434201299E+04  0.10208798050E+04 0.  0.
         13    1    3    3    0    0  0.39088632239E+03  0.16976824021E+03 -0.53059257049E+03  0.68054526627E+03  0.10566000000E+00 0. -1.
         -4    1    3    3    0  502 -0.32267127858E+03 -0.22126310960E+03 -0.22287953093E+04  0.22628748637E+04  0.00000000000E+00 0. -1.
        -13    1    1    2    0    0 -0.68215043815E+02  0.51494869384E+02 -0.76570865506E+02  0.11475243956E+03  0.10566000000E+00 0.  1.
<mgrwt>
<rscale>  1 0.55058100E+03</rscale>
<asrwt>0</asrwt>
<pdfrwt beam="2">  1       21 0.45339470E+00 0.10244514E+04</pdfrwt>
<pdfrwt beam="1">  1       -4 0.17093372E-01 0.10244514E+04</pdfrwt>
<totfact> 0.33627108E+00</totfact>
</mgrwt>
</event>
<event>
 6    2  0.2321478E-005  0.9937031E+03  0.7818608E-02  0.1009078E+00
         -4   -1    0    0    0  501 -0.00000000000E+00  0.00000000000E+00  0.83138487170E+03  0.83138487170E+03  0.00000000000E+00 0. -1.
         21   -1    0    0  501  502  0.00000000000E+00 -0.00000000000E+00 -0.34819219644E+03  0.34819219644E+03  0.00000000000E+00 0. -1.
   -9000010    2    1    2    0  502  0.75529902478E+01  0.73229793235E+02  0.48541199531E+03  0.11059252737E+04  0.99097237879E+03 0.  0.
         13    1    3    3    0    0  0.25884236428E+03 -0.23476428372E+03  0.59815055675E+03  0.69274651797E+03  0.10566000000E+00 0. -1.
         -4    1    3    3    0  502 -0.25128937404E+03  0.30799407696E+03 -0.11273856144E+03  0.41317875572E+03  0.00000000000E+00 0. -1.
        -13    1    1    2    0    0 -0.75529902478E+01 -0.73229793235E+02 -0.22193200541E+01  0.73651794441E+02  0.10566000000E+00 0.  1.
<mgrwt>
<rscale>  1 0.51842874E+03</rscale>
<asrwt>0</asrwt>
<pdfrwt beam="2">  1       21 0.53568030E-01 0.99370313E+03</pdfrwt>
<pdfrwt beam="1">  1       -4 0.12790536E+00 0.99370313E+03</pdfrwt>
<totfact> 0.58694113E+01</totfact>
</mgrwt>
</event>
<event>
 6    2  0.2321478E-005  0.1021108E+04  0.7818608E-02  0.9808271E-01
         -4   -1    0    0    0  501 -0.00000000000E+00  0.00000000000E+00  0.86638803088E+03  0.86638803088E+03  0.00000000000E+00 0. -1.
         21   -1    0    0  501  502  0.00000000000E+00 -0.00000000000E+00 -0.40756312178E+03  0.40756312178E+03  0.00000000000E+00 0. -1.
   -9000010    2    1    2    0  502  0.10859694890E+03  0.12666505406E+03  0.38134959418E+03  0.10899952644E+04  0.10073851449E+04 0.  0.
         13    1    3    3    0    0  0.29229728797E+03 -0.37969965186E+03  0.22314856022E+03  0.52858757199E+03  0.10566000000E+00 0. -1.
         -4    1    3    3    0  502 -0.18370033907E+03  0.50636470592E+03  0.15820103396E+03  0.56140769243E+03  0.00000000000E+00 0. -1.
        -13    1    1    2    0    0 -0.10859694890E+03 -0.12666505406E+03  0.77475314925E+02  0.18395588823E+03  0.10566000000E+00 0.  1.
<mgrwt>
<rscale>  1 0.64920571E+03</rscale>
<asrwt>0</asrwt>
<pdfrwt beam="2">  1       21 0.62702019E-01 0.10211083E+04</pdfrwt>
<pdfrwt beam="1">  1       -4 0.13329047E+00 0.10211083E+04</pdfrwt>
<totfact> 0.37162044E+01</totfact>
</mgrwt>
</event>
<event>
 6    2  0.2321478E-005  0.9810647E+03  0.7818608E-02  0.9957213E-01
         -4   -1    0    0    0  501 -0.00000000000E+00  0.00000000000E+00  0.51696032552E+03  0.51696032552E+03  0.00000000000E+00 0. -1.
         21   -1    0    0  501  502  0.00000000000E+00 -0.00000000000E+00 -0.58238656702E+03  0.58238656702E+03  0.00000000000E+00 0. -1.
   -9000010    2    1    2    0  502 -0.56121866740E+02 -0.10186804606E+03 -0.56032752718E+02  0.98266351099E+03  0.97414636668E+03 0.  0.
         13    1    3    3    0    0 -0.35755399625E+03 -0.18649186607E+03  0.30438750934E+03  0.50524829871E+03  0.10566000000E+00 0. -1.
         -4    1    3    3    0  502  0.30143212951E+03  0.84623820007E+02 -0.36042026206E+03  0.47741521228E+03  0.00000000000E+00 0. -1.
        -13    1    1    2    0    0  0.56121866740E+02  0.10186804606E+03 -0.93934887820E+01  0.11668338155E+03  0.10566000000E+00 0.  1.
<mgrwt>
<rscale>  1 0.57566863E+03</rscale>
<asrwt>0</asrwt>
<pdfrwt beam="2">  1       21 0.89597933E-01 0.98106468E+03</pdfrwt>
<pdfrwt beam="1">  1       -4 0.79532358E-01 0.98106468E+03</pdfrwt>
<totfact> 0.57037537E+01</totfact>
</mgrwt>
</event>
<event>
 6    2  0.2321478E-005  0.1005882E+04  0.7818608E-02  0.9630538E-01
         21   -1    0    0  501  502  0.00000000000E+00  0.00000000000E+00  0.45144204295E+03  0.45144204295E+03  0.00000000000E+00 0. -1.
         -4   -1    0    0    0  501 -0.00000000000E+00 -0.00000000000E+00 -0.10025295934E+04  0.10025295934E+04  0.00000000000E+00 0. -1.
   -9000010    2    1    2    0  502 -0.19051742445E+03 -0.25213156448E+03 -0.29798787444E+03  0.10490930472E+04  0.95495142989E+03 0.  0.
         13    1    3    3    0    0 -0.46509943497E+03 -0.32890443337E+03  0.80424294145E+02  0.57529443675E+03  0.10566000000E+00 0. -1.
         -4    1    3    3    0  502  0.27458201051E+03  0.76772868895E+02 -0.37841216859E+03  0.47379861041E+03  0.00000000000E+00 0. -1.
        -13    1    1    2    0    0  0.19051742445E+03  0.25213156448E+03 -0.25309967604E+03  0.40487858922E+03  0.10566000000E+00 0.  1.
<mgrwt>
<rscale>  1 0.75307510E+03</rscale>
<asrwt>0</asrwt>
<pdfrwt beam="1">  1       21 0.69452622E-01 0.10058824E+04</pdfrwt>
<pdfrwt beam="2">  1       -4 0.15423532E+00 0.10058824E+04</pdfrwt>
<totfact> 0.20050865E+01</totfact>
</mgrwt>
</event>
<event>
 6    2  0.2321478E-005  0.1094043E+04  0.7818608E-02  0.9444126E-01
         -4   -1    0    0    0  501 -0.00000000000E+00  0.00000000000E+00  0.62625767891E+03  0.62625767891E+03  0.00000000000E+00 0. -1.
         21   -1    0    0  501  502  0.00000000000E+00 -0.00000000000E+00 -0.11850018503E+04  0.11850018503E+04  0.00000000000E+00 0. -1.
   -9000010    2    1    2    0  502  0.39348557719E+03  0.25543673960E+03 -0.72622017839E+03  0.13131359989E+04  0.98835802049E+03 0.  0.
         13    1    3    3    0    0  0.58263618147E+03 -0.17891462861E+03 -0.49905453729E+03  0.78773777785E+03  0.10566000000E+00 0. -1.
         -4    1    3    3    0  502 -0.18915060428E+03  0.43435136821E+03 -0.22716564110E+03  0.52539822103E+03  0.00000000000E+00 0. -1.
        -13    1    1    2    0    0 -0.39348557719E+03 -0.25543673960E+03  0.16747600699E+03  0.49812353034E+03  0.10566000000E+00 0.  1.
<mgrwt>
<rscale>  1 0.88531561E+03</rscale>
<asrwt>0</asrwt>
<pdfrwt beam="2">  1       21 0.18230797E+00 0.10940431E+04</pdfrwt>
<pdfrwt beam="1">  1       -4 0.96347337E-01 0.10940431E+04</pdfrwt>
<totfact> 0.53944318E+00</totfact>
</mgrwt>
</event>
<event>
 6    2  0.2321478E-005  0.8286262E+03  0.7818608E-02  0.9974883E-01
         21   -1    0    0  501  502  0.00000000000E+00  0.00000000000E+00  0.38564075740E+03  0.38564075740E+03  0.00000000000E+00 0. -1.
         -4   -1    0    0    0  501 -0.00000000000E+00 -0.00000000000E+00 -0.15389102322E+04  0.15389102322E+04  0.00000000000E+00 0. -1.
   -9000010    2    1    2    0  502  0.15920974444E+03 -0.89207999505E+02 -0.76192020263E+02  0.83212174057E+03  0.80827938071E+03 0.  0.
         13    1    3    3    0    0  0.15382308526E+02  0.34656174993E+03 -0.12919386480E+03  0.37017931843E+03  0.10566000000E+00 0. -1.
         -4    1    3    3    0  502  0.14382743592E+03 -0.43576974944E+03  0.53001844533E+02  0.46194242214E+03  0.00000000000E+00 0. -1.
        -13    1    1    2    0    0 -0.15920974444E+03  0.89207999505E+02 -0.10770774545E+04  0.10924292490E+04  0.10566000000E+00 0.  1.
<mgrwt>
<rscale>  1 0.56765440E+03</rscale>
<asrwt>0</asrwt>
<pdfrwt beam="1">  1       21 0.59329347E-01 0.82862619E+03</pdfrwt>
<pdfrwt beam="2">  1       -4 0.23675542E+00 0.82862619E+03</pdfrwt>
<totfact> 0.80895848E+00</totfact>
</mgrwt>
</event>
<event>
 6    2  0.2321478E-005  0.7663996E+03  0.7818608E-02  0.1037416E+00
         21   -1    0    0  501  502  0.00000000000E+00  0.00000000000E+00  0.84133006172E+02  0.84133006172E+02  0.00000000000E+00 0. -1.
         -4   -1    0    0    0  501 -0.00000000000E+00 -0.00000000000E+00 -0.21054127958E+04  0.21054127958E+04  0.00000000000E+00 0. -1.
   -9000010    2    1    2    0  502 -0.12337639905E+02 -0.67300161913E+02 -0.17634300476E+04  0.19227724342E+04  0.76333922445E+03 0.  0.
         13    1    3    3    0    0  0.20486140323E+03 -0.17461433871E+03 -0.18682187440E+03  0.32765955767E+03  0.10566000000E+00 0. -1.
         -4    1    3    3    0  502 -0.21719904314E+03  0.10731417680E+03 -0.15766081732E+04  0.15951128765E+04  0.00000000000E+00 0. -1.
        -13    1    1    2    0    0  0.12337639905E+02  0.67300161913E+02 -0.25784974198E+03  0.26677336778E+03  0.10566000000E+00 0.  1.
<mgrwt>
<rscale>  1 0.41892862E+03</rscale>
<asrwt>0</asrwt>
<pdfrwt beam="1">  1       21 0.12943537E-01 0.76639957E+03</pdfrwt>
<pdfrwt beam="2">  1       -4 0.32390971E+00 0.76639957E+03</pdfrwt>
<totfact> 0.50261551E+01</totfact>
</mgrwt>
</event>
<event>
 6    2  0.2321478E-005  0.1006580E+04  0.7818608E-02  0.1006385E+00
         -4   -1    0    0    0  501 -0.00000000000E+00  0.00000000000E+00  0.29040134933E+03  0.29040134933E+03  0.00000000000E+00 0. -1.
         21   -1    0    0  501  502  0.00000000000E+00 -0.00000000000E+00 -0.12709924425E+04  0.12709924425E+04  0.00000000000E+00 0. -1.
   -9000010    2    1    2    0  502 -0.33557822287E+02  0.69304035982E+02 -0.10522758566E+04  0.14561897362E+04  0.10036308548E+04 0.  0.
         13    1    3    3    0    0 -0.39170891832E+03  0.16038353072E+03 -0.99622135805E+03  0.10824120098E+04  0.10566000000E+00 0. -1.
         -4    1    3    3    0  502  0.35815109603E+03 -0.91079494742E+02 -0.56054498541E+02  0.37377772641E+03  0.00000000000E+00 0. -1.
        -13    1    1    2    0    0  0.33557822287E+02 -0.69304035982E+02  0.71684763430E+02  0.10520405559E+03  0.10566000000E+00 0.  1.
<mgrwt>
<rscale>  1 0.52937174E+03</rscale>
<asrwt>0</asrwt>
<pdfrwt beam="2">  1       21 0.19553730E+00 0.10065804E+04</pdfrwt>
<pdfrwt beam="1">  1       -4 0.44677131E-01 0.10065804E+04</pdfrwt>
<totfact> 0.24205736E+01</totfact>
</mgrwt>
</event>
<event>
 6    2  0.2321478E-005  0.1128222E+04  0.7818608E-02  0.9390767E-01
         -4   -1    0    0    0  501 -0.00000000000E+00  0.00000000000E+00  0.97067667321E+03  0.97067667321E+03  0.00000000000E+00 0. -1.
         21   -1    0    0  501  502  0.00000000000E+00 -0.00000000000E+00 -0.11812302184E+04  0.11812302184E+04  0.00000000000E+00 0. -1.
   -9000010    2    1    2    0  502  0.24621079709E+03 -0.45495449045E+03 -0.78835626320E+03  0.13763687964E+04  0.10026375821E+04 0.  0.
         13    1    3    3    0    0  0.42521962493E+03 -0.67680854579E+03 -0.73597893888E+03  0.10865295885E+04  0.10566000000E+00 0. -1.
         -4    1    3    3    0  502 -0.17900882784E+03  0.22185405534E+03 -0.52377324320E+02  0.28983920787E+03  0.00000000000E+00 0. -1.
        -13    1    1    2    0    0 -0.24621079709E+03  0.45495449045E+03  0.57780271803E+03  0.77553809520E+03  0.10566000000E+00 0.  1.
<mgrwt>
<rscale>  1 0.92839425E+03</rscale>
<asrwt>0</asrwt>
<pdfrwt beam="2">  1       21 0.18172772E+00 0.11282223E+04</pdfrwt>
<pdfrwt beam="1">  1       -4 0.14933487E+00 0.11282223E+04</pdfrwt>
<totfact> 0.17908889E+00</totfact>
</mgrwt>
</event>
<event>
 6    2  0.2321478E-005  0.1044881E+04  0.7818608E-02  0.9680878E-01
         21   -1    0    0  501  502  0.00000000000E+00  0.00000000000E+00  0.10862323595E+04  0.10862323595E+04  0.00000000000E+00 0. -1.
         -4   -1    0    0    0  501 -0.00000000000E+00 -0.00000000000E+00 -0.42116049765E+03  0.42116049765E+03  0.00000000000E+00 0. -1.
   -9000010    2    1    2    0  502 -0.16650841908E+03 -0.16972823479E+03  0.71283652206E+03  0.12648764634E+04  0.10174693278E+04 0.  0.
         13    1    3    3    0    0 -0.43513133417E+03  0.28233140911E+03  0.36993312782E+03  0.63710347100E+03  0.10566000000E+00 0. -1.
         -4    1    3    3    0  502  0.26862291508E+03 -0.45205964389E+03  0.34290339424E+03  0.62777299235E+03  0.00000000000E+00 0. -1.
        -13    1    1    2    0    0  0.16650841908E+03  0.16972823479E+03 -0.47764660256E+02  0.24251639376E+03  0.10566000000E+00 0.  1.
<mgrwt>
<rscale>  1 0.72166836E+03</rscale>
<asrwt>0</asrwt>
<pdfrwt beam="1">  1       21 0.16711267E+00 0.10448811E+04</pdfrwt>
<pdfrwt beam="2">  1       -4 0.64793923E-01 0.10448811E+04</pdfrwt>
<totfact> 0.17475177E+01</totfact>
</mgrwt>
</event>
<event>
 6    2  0.2321478E-005  0.1240892E+04  0.7818608E-02  0.9214872E-01
         21   -1    0    0  501  502  0.00000000000E+00  0.00000000000E+00  0.95096307978E+03  0.95096307978E+03  0.00000000000E+00 0.  1.
         -4   -1    0    0    0  501 -0.00000000000E+00 -0.00000000000E+00 -0.14619496302E+04  0.14619496302E+04  0.00000000000E+00 0. -1.
   -9000010    2    1    2    0  502 -0.63271118681E+03 -0.38201884381E+03  0.33916198000E+03  0.12864073270E+04  0.99677034432E+03 0.  0.
         13    1    3    3    0    0 -0.37928232470E+03 -0.23303902331E+03 -0.33091696716E+03  0.55467857226E+03  0.10566000000E+00 0. -1.
         -4    1    3    3    0  502 -0.25342886211E+03 -0.14897982050E+03  0.67007894716E+03  0.73172875472E+03  0.00000000000E+00 0. -1.
        -13    1    1    2    0    0  0.63271118681E+03  0.38201884381E+03 -0.85014853038E+03  0.11265053829E+04  0.10566000000E+00 0.  1.
<mgrwt>
<rscale>  1 0.10901232E+04</rscale>
<asrwt>0</asrwt>
<pdfrwt beam="1">  1       21 0.14630201E+00 0.12408920E+04</pdfrwt>
<pdfrwt beam="2">  1       -4 0.22491533E+00 0.12408920E+04</pdfrwt>
<totfact> 0.98772751E-01</totfact>
</mgrwt>
</event>
<event>
 6    2  0.2321478E-005  0.1121569E+04  0.7818608E-02  0.9396708E-01
         21   -1    0    0  501  502  0.00000000000E+00  0.00000000000E+00  0.19330582357E+04  0.19330582357E+04  0.00000000000E+00 0.  1.
         -4   -1    0    0    0  501 -0.00000000000E+00 -0.00000000000E+00 -0.34746333813E+03  0.34746333813E+03  0.00000000000E+00 0. -1.
   -9000010    2    1    2    0  502 -0.48054880854E+03  0.18653783346E+03  0.10325715820E+04  0.15245068125E+04  0.99608906660E+03 0.  0.
         13    1    3    3    0    0 -0.57540691017E+03 -0.24912813657E+03  0.37685478580E+03  0.73155825567E+03  0.10566000000E+00 0. -1.
         -4    1    3    3    0  502  0.94858101631E+02  0.43566597004E+03  0.65571679621E+03  0.79294855680E+03  0.00000000000E+00 0. -1.
        -13    1    1    2    0    0  0.48054880854E+03 -0.18653783346E+03  0.55302331558E+03  0.75601476139E+03  0.10566000000E+00 0.  1.
<mgrwt>
<rscale>  1 0.92347107E+03</rscale>
<asrwt>0</asrwt>
<pdfrwt beam="1">  1       21 0.29739357E+00 0.11215690E+04</pdfrwt>
<pdfrwt beam="2">  1       -4 0.53455900E-01 0.11215690E+04</pdfrwt>
<totfact> 0.35885448E+00</totfact>
</mgrwt>
</event>
<event>
 6    2  0.2321478E-005  0.1092449E+04  0.7818608E-02  0.9498495E-01
         -4   -1    0    0    0  501 -0.00000000000E+00  0.00000000000E+00  0.60556399046E+03  0.60556399046E+03  0.00000000000E+00 0. -1.
         21   -1    0    0  501  502  0.00000000000E+00 -0.00000000000E+00 -0.92745063701E+03  0.92745063701E+03  0.00000000000E+00 0. -1.
   -9000010    2    1    2    0  502 -0.14197023193E+03  0.36227493052E+03 -0.33811673300E+03  0.11435764438E+04  0.10208062919E+04 0.  0.
         13    1    3    3    0    0  0.51775897972E+02 -0.33850580226E+03 -0.16981029513E+01  0.34244680826E+03  0.10566000000E+00 0. -1.
         -4    1    3    3    0  502 -0.19374612991E+03  0.70078073277E+03 -0.33641863005E+03  0.80112963553E+03  0.00000000000E+00 0. -1.
        -13    1    1    2    0    0  0.14197023193E+03 -0.36227493052E+03  0.16230086438E+02  0.38943818368E+03  0.10566000000E+00 0.  1.
<mgrwt>
<rscale>  1 0.84394870E+03</rscale>
<asrwt>0</asrwt>
<pdfrwt beam="2">  1       21 0.14268471E+00 0.10924487E+04</pdfrwt>
<pdfrwt beam="1">  1       -4 0.93163691E-01 0.10924487E+04</pdfrwt>
<totfact> 0.11838528E+01</totfact>
</mgrwt>
</event>
<event>
 6    2  0.2321478E-005  0.1063528E+04  0.7818608E-02  0.9471782E-01
         21   -1    0    0  501  502  0.00000000000E+00  0.00000000000E+00  0.12018999129E+04  0.12018999129E+04  0.00000000000E+00 0. -1.
         -4   -1    0    0    0  501 -0.00000000000E+00 -0.00000000000E+00 -0.54678214551E+03  0.54678214551E+03  0.00000000000E+00 0. -1.
   -9000010    2    1    2    0  502 -0.45584350117E+03  0.82053856187E+02  0.71518729511E+03  0.12816333541E+04  0.95737404102E+03 0.  0.
         13    1    3    3    0    0  0.25422718741E+03 -0.14598583122E+03  0.84978433490E+02  0.30522888307E+03  0.10566000000E+00 0. -1.
         -4    1    3    3    0  502 -0.71007068858E+03  0.22803968741E+03  0.63020886162E+03  0.97640447104E+03  0.00000000000E+00 0. -1.
        -13    1    1    2    0    0  0.45584350117E+03 -0.82053856187E+02 -0.60069527708E+02  0.46704870431E+03  0.10566000000E+00 0.  1.
<mgrwt>
<rscale>  1 0.86396597E+03</rscale>
<asrwt>0</asrwt>
<pdfrwt beam="1">  1       21 0.18490768E+00 0.10635277E+04</pdfrwt>
<pdfrwt beam="2">  1       -4 0.84120331E-01 0.10635277E+04</pdfrwt>
<totfact> 0.71413005E+00</totfact>
</mgrwt>
</event>
<event>
 6    2  0.2321478E-005  0.1010981E+04  0.7818608E-02  0.9832026E-01
         -4   -1    0    0    0  501 -0.00000000000E+00  0.00000000000E+00  0.61873014614E+03  0.61873014614E+03  0.00000000000E+00 0. -1.
         21   -1    0    0  501  502  0.00000000000E+00 -0.00000000000E+00 -0.56652087910E+03  0.56652087910E+03  0.00000000000E+00 0. -1.
   -9000010    2    1    2    0  502 -0.91406714166E+02 -0.13017156336E+03 -0.18577122232E+02  0.10111517795E+04  0.99839019846E+03 0.  0.
         13    1    3    3    0    0 -0.21275632917E+03  0.40719268610E+03 -0.26647741331E+02  0.46019697141E+03  0.10566000000E+00 0. -1.
         -4    1    3    3    0  502  0.12134961500E+03 -0.53736424945E+03  0.80706190988E+01  0.55095480808E+03  0.00000000000E+00 0. -1.
        -13    1    1    2    0    0  0.91406714166E+02  0.13017156336E+03  0.70786389268E+02  0.17409924575E+03  0.10566000000E+00 0.  1.
<mgrwt>
<rscale>  1 0.63671780E+03</rscale>
<asrwt>0</asrwt>
<pdfrwt beam="2">  1       21 0.87157058E-01 0.10109811E+04</pdfrwt>
<pdfrwt beam="1">  1       -4 0.95189253E-01 0.10109811E+04</pdfrwt>
<totfact> 0.39954712E+01</totfact>
</mgrwt>
</event>
<event>
 6    2  0.2321478E-005  0.1068178E+04  0.7818608E-02  0.9535602E-01
         21   -1    0    0  501  502  0.00000000000E+00  0.00000000000E+00  0.46549092356E+03  0.46549092356E+03  0.00000000000E+00 0. -1.
         -4   -1    0    0    0  501 -0.00000000000E+00 -0.00000000000E+00 -0.11077618120E+04  0.11077618120E+04  0.00000000000E+00 0. -1.
   -9000010    2    1    2    0  502 -0.26984133998E+03  0.24685795163E+03 -0.51659348468E+03  0.11865383474E+04  0.10036190634E+04 0.  0.
         13    1    3    3    0    0 -0.32885031623E+03  0.15846909057E+03  0.23063128641E+03  0.43179368289E+03  0.10566000000E+00 0. -1.
         -4    1    3    3    0  502  0.59008976256E+02  0.88388861066E+02 -0.74722477109E+03  0.75474466449E+03  0.00000000000E+00 0. -1.
        -13    1    1    2    0    0  0.26984133998E+03 -0.24685795163E+03 -0.12567740374E+03  0.38671438817E+03  0.10566000000E+00 0.  1.
<mgrwt>
<rscale>  1 0.81709175E+03</rscale>
<asrwt>0</asrwt>
<pdfrwt beam="1">  1       21 0.71613989E-01 0.10681781E+04</pdfrwt>
<pdfrwt beam="2">  1       -4 0.17042489E+00 0.10681781E+04</pdfrwt>
<totfact> 0.14087458E+01</totfact>
</mgrwt>
</event>
<event>
 6    2  0.2321478E-005  0.1334640E+04  0.7818608E-02  0.9234118E-01
         -4   -1    0    0    0  501 -0.00000000000E+00  0.00000000000E+00  0.29809092312E+03  0.29809092312E+03  0.00000000000E+00 0. -1.
         21   -1    0    0  501  502  0.00000000000E+00 -0.00000000000E+00 -0.32257065930E+04  0.32257065930E+04  0.00000000000E+00 0.  1.
   -9000010    2    1    2    0  502 -0.54800507353E+03 -0.74472000845E+02 -0.24635522334E+04  0.28018484017E+04  0.12146642417E+04 0.  0.
         13    1    3    3    0    0 -0.53120467019E+03  0.33939934038E+03 -0.52744889649E+03  0.82193227426E+03  0.10566000000E+00 0. -1.
         -4    1    3    3    0  502 -0.16800403339E+02 -0.41387134123E+03 -0.19361033369E+04  0.19799161275E+04  0.00000000000E+00 0. -1.
        -13    1    1    2    0    0  0.54800507353E+03  0.74472000845E+02 -0.46406343651E+03  0.72194911441E+03  0.10566000000E+00 0.  1.
<mgrwt>
<rscale>  1 0.10708108E+04</rscale>
<asrwt>0</asrwt>
<pdfrwt beam="2">  1       21 0.49626255E+00 0.13346403E+04</pdfrwt>
<pdfrwt beam="1">  1       -4 0.45860142E-01 0.13346403E+04</pdfrwt>
<totfact> 0.23065599E-01</totfact>
</mgrwt>
</event>
<event>
 6    2  0.2321478E-005  0.1130329E+04  0.7818608E-02  0.9385358E-01
         -4   -1    0    0    0  501 -0.00000000000E+00  0.00000000000E+00  0.55784609752E+03  0.55784609752E+03  0.00000000000E+00 0. -1.
         21   -1    0    0  501  502  0.00000000000E+00 -0.00000000000E+00 -0.13914058888E+04  0.13914058888E+04  0.00000000000E+00 0. -1.
   -9000010    2    1    2    0  502 -0.18820744494E+03  0.48955623081E+03 -0.86573687640E+03  0.14237781797E+04  0.10012774942E+04 0.  0.
         13    1    3    3    0    0  0.24633117235E+03  0.42362672290E+03 -0.85340580972E+03  0.98409355960E+03  0.10566000000E+00 0. -1.
         -4    1    3    3    0  502 -0.43453861729E+03  0.65929507905E+02 -0.12331066679E+02  0.43968462008E+03  0.00000000000E+00 0. -1.
        -13    1    1    2    0    0  0.18820744494E+03 -0.48955623081E+03  0.32177085160E+02  0.52547380660E+03  0.10566000000E+00 0.  1.
<mgrwt>
<rscale>  1 0.93290522E+03</rscale>
<asrwt>0</asrwt>
<pdfrwt beam="2">  1       21 0.21406244E+00 0.11303291E+04</pdfrwt>
<pdfrwt beam="1">  1       -4 0.85822478E-01 0.11303291E+04</pdfrwt>
<totfact> 0.42470632E+00</totfact>
</mgrwt>
</event>
<event>
 6    2  0.2321478E-005  0.1013360E+04  0.7818608E-02  0.9823628E-01
         -4   -1    0    0    0  501 -0.00000000000E+00  0.00000000000E+00  0.55711011321E+03  0.55711011321E+03  0.00000000000E+00 0. -1.
         21   -1    0    0  501  502  0.00000000000E+00 -0.00000000000E+00 -0.74976589799E+03  0.74976589799E+03  0.00000000000E+00 0. -1.
   -9000010    2    1    2    0  502 -0.94133681512E+02  0.13225270833E+03  0.50380030505E+02  0.10146118370E+04  0.10002735143E+04 0.  0.
         13    1    3    3    0    0 -0.20528953555E+03 -0.38763809050E+03  0.16869818875E+03  0.46996401209E+03  0.10566000000E+00 0. -1.
         -4    1    3    3    0  502  0.11115585403E+03  0.51989079883E+03 -0.11831815824E+03  0.54464782489E+03  0.00000000000E+00 0. -1.
        -13    1    1    2    0    0  0.94133681512E+02 -0.13225270833E+03 -0.24303581529E+03  0.29226417422E+03  0.10566000000E+00 0.  1.
<mgrwt>
<rscale>  1 0.64109816E+03</rscale>
<asrwt>0</asrwt>
<pdfrwt beam="2">  1       21 0.11534860E+00 0.10133603E+04</pdfrwt>
<pdfrwt beam="1">  1       -4 0.85709248E-01 0.10133603E+04</pdfrwt>
<totfact> 0.25523050E+01</totfact>
</mgrwt>
</event>
<event>
 6    2  0.2321478E-005  0.1013339E+04  0.7818608E-02  0.9883281E-01
         21   -1    0    0  501  502  0.00000000000E+00  0.00000000000E+00  0.76789502056E+03  0.76789502056E+03  0.00000000000E+00 0. -1.
         -4   -1    0    0    0  501 -0.00000000000E+00 -0.00000000000E+00 -0.47681690900E+03  0.47681690900E+03  0.00000000000E+00 0. -1.
   -9000010    2    1    2    0  502 -0.47204360685E+02 -0.12514088249E+03  0.38203957638E+03  0.10829636950E+04  0.10044738098E+04 0.  0.
         13    1    3    3    0    0  0.41375570154E+03  0.56994049078E+02 -0.56123832221E+02  0.42141665593E+03  0.10566000000E+00 0. -1.
         -4    1    3    3    0  502 -0.46096006222E+03 -0.18213493157E+03  0.43816340860E+03  0.66154703907E+03  0.00000000000E+00 0. -1.
        -13    1    1    2    0    0  0.47204360685E+02  0.12514088249E+03 -0.90961464819E+02  0.16174823456E+03  0.10566000000E+00 0.  1.
<mgrwt>
<rscale>  1 0.61078428E+03</rscale>
<asrwt>0</asrwt>
<pdfrwt beam="1">  1       21 0.11813770E+00 0.10133391E+04</pdfrwt>
<pdfrwt beam="2">  1       -4 0.73356448E-01 0.10133391E+04</pdfrwt>
<totfact> 0.34308788E+01</totfact>
</mgrwt>
</event>
<event>
 6    2  0.2321478E-005  0.8273035E+03  0.7818608E-02  0.1009441E+00
         -4   -1    0    0    0  501 -0.00000000000E+00  0.00000000000E+00  0.10341450092E+04  0.10341450092E+04  0.00000000000E+00 0. -1.
         21   -1    0    0  501  502  0.00000000000E+00 -0.00000000000E+00 -0.27297920308E+03  0.27297920308E+03  0.00000000000E+00 0. -1.
   -9000010    2    1    2    0  502  0.11800622257E+03 -0.44581353408E+02  0.38906543348E+03  0.91422261631E+03  0.81762957077E+03 0.  0.
         13    1    3    3    0    0 -0.33023897787E+03 -0.28437665470E+02  0.31940289429E+03  0.46030935615E+03  0.10566000000E+00 0. -1.
         -4    1    3    3    0  502  0.44824520044E+03 -0.16143687938E+02  0.69662539198E+02  0.45391326015E+03  0.00000000000E+00 0. -1.
        -13    1    1    2    0    0 -0.11800622257E+03  0.44581353408E+02  0.37210037260E+03  0.39290159594E+03  0.10566000000E+00 0.  1.
<mgrwt>
<rscale>  1 0.51697266E+03</rscale>
<asrwt>0</asrwt>
<pdfrwt beam="2">  1       21 0.41996801E-01 0.82730350E+03</pdfrwt>
<pdfrwt beam="1">  1       -4 0.15909923E+00 0.82730350E+03</pdfrwt>
<totfact> 0.56357356E+01</totfact>
</mgrwt>
</event>
<event>
 6    2  0.2321478E-005  0.1002439E+04  0.7818608E-02  0.9765859E-01
         21   -1    0    0  501  502  0.00000000000E+00  0.00000000000E+00  0.18189099760E+04  0.18189099760E+04  0.00000000000E+00 0. -1.
         -4   -1    0    0    0  501 -0.00000000000E+00 -0.00000000000E+00 -0.49956936265E+03  0.49956936265E+03  0.00000000000E+00 0. -1.
   -9000010    2    1    2    0  502  0.13900321589E+03 -0.14763161367E+03  0.16499727604E+04  0.19306203241E+04  0.98171673022E+03 0.  0.
         13    1    3    3    0    0  0.47962624304E+03  0.15384092524E+03  0.58129389968E+03  0.76916251356E+03  0.10566000000E+00 0. -1.
         -4    1    3    3    0  502 -0.34062302715E+03 -0.30147253891E+03  0.10686788607E+04  0.11614578105E+04  0.00000000000E+00 0. -1.
        -13    1    1    2    0    0 -0.13900321589E+03  0.14763161367E+03 -0.33063214701E+03  0.38785901457E+03  0.10566000000E+00 0.  1.
<mgrwt>
<rscale>  1 0.67227393E+03</rscale>
<asrwt>0</asrwt>
<pdfrwt beam="1">  1       21 0.27983230E+00 0.10024394E+04</pdfrwt>
<pdfrwt beam="2">  1       -4 0.76856826E-01 0.10024394E+04</pdfrwt>
<totfact> 0.21155338E+00</totfact>
</mgrwt>
</event>
<event>
 6    2  0.2321478E-005  0.1082346E+04  0.7818608E-02  0.9538358E-01
         21   -1    0    0  501  502  0.00000000000E+00  0.00000000000E+00  0.16364818149E+04  0.16364818149E+04  0.00000000000E+00 0. -1.
         -4   -1    0    0    0  501 -0.00000000000E+00 -0.00000000000E+00 -0.83879482756E+03  0.83879482756E+03  0.00000000000E+00 0. -1.
   -9000010    2    1    2    0  502 -0.26564200243E+03  0.22511853895E+03  0.14060056590E+04  0.17743517910E+04  0.10248064867E+04 0.  0.
         13    1    3    3    0    0  0.20376120171E+03  0.42268356783E+03  0.30058244763E+03  0.55725204784E+03  0.10566000000E+00 0. -1.
         -4    1    3    3    0  502 -0.46940320414E+03 -0.19756502888E+03  0.11054232114E+04  0.12170997432E+04  0.00000000000E+00 0. -1.
        -13    1    1    2    0    0  0.26564200243E+03 -0.22511853895E+03 -0.60831867160E+03  0.70092485147E+03  0.10566000000E+00 0.  1.
<mgrwt>
<rscale>  1 0.81513974E+03</rscale>
<asrwt>0</asrwt>
<pdfrwt beam="1">  1       21 0.25176643E+00 0.10823458E+04</pdfrwt>
<pdfrwt beam="2">  1       -4 0.12904536E+00 0.10823458E+04</pdfrwt>
<totfact> 0.89649256E-01</totfact>
</mgrwt>
</event>
<event>
 6    2  0.2321478E-005  0.1237803E+04  0.7818608E-02  0.9254878E-01
         21   -1    0    0  501  502  0.00000000000E+00  0.00000000000E+00  0.38698281733E+03  0.38698281733E+03  0.00000000000E+00 0.  1.
         -4   -1    0    0    0  501 -0.00000000000E+00 -0.00000000000E+00 -0.23921166698E+04  0.23921166698E+04  0.00000000000E+00 0. -1.
   -9000010    2    1    2    0  502  0.56420932730E+03  0.30636319038E+03 -0.10234544579E+04  0.16061182365E+04  0.10582845519E+04 0.  0.
         13    1    3    3    0    0  0.56882774000E+03  0.44830157994E+03 -0.11863862572E+04  0.13899826138E+04  0.10566000000E+00 0. -1.
         -4    1    3    3    0  502 -0.46184127057E+01 -0.14193838957E+03  0.16293179928E+03  0.21613562267E+03  0.00000000000E+00 0. -1.
        -13    1    1    2    0    0 -0.56420932730E+03 -0.30636319038E+03 -0.98167939464E+03  0.11729812507E+04  0.10566000000E+00 0.  1.
<mgrwt>
<rscale>  1 0.10504514E+04</rscale>
<asrwt>0</asrwt>
<pdfrwt beam="1">  1       21 0.59535816E-01 0.12378032E+04</pdfrwt>
<pdfrwt beam="2">  1       -4 0.36801796E+00 0.12378032E+04</pdfrwt>
<totfact> 0.11321307E+00</totfact>
</mgrwt>
</event>
<event>
 6    2  0.2321478E-005  0.1006087E+04  0.7818608E-02  0.9829869E-01
         21   -1    0    0  501  502  0.00000000000E+00  0.00000000000E+00  0.31940635946E+03  0.31940635946E+03  0.00000000000E+00 0. -1.
         -4   -1    0    0    0  501 -0.00000000000E+00 -0.00000000000E+00 -0.11703698619E+04  0.11703698619E+04  0.00000000000E+00 0. -1.
   -9000010    2    1    2    0  502 -0.15324723248E+03  0.54146513827E+02 -0.86476299158E+03  0.13266597100E+04  0.99287179200E+03 0.  0.
         13    1    3    3    0    0 -0.11625159958E+03 -0.34030577114E+03 -0.85811415104E+03  0.93042052839E+03  0.10566000000E+00 0. -1.
         -4    1    3    3    0  502 -0.36995632906E+02  0.39445228497E+03 -0.66488405366E+01  0.39623918162E+03  0.00000000000E+00 0. -1.
        -13    1    1    2    0    0  0.15324723248E+03 -0.54146513827E+02  0.13799489101E+02  0.16311651138E+03  0.10566000000E+00 0.  1.
<mgrwt>
<rscale>  1 0.63783926E+03</rscale>
<asrwt>0</asrwt>
<pdfrwt beam="1">  1       21 0.49139441E-01 0.10060870E+04</pdfrwt>
<pdfrwt beam="2">  1       -4 0.18005690E+00 0.10060870E+04</pdfrwt>
<totfact> 0.28021364E+01</totfact>
</mgrwt>
</event>
<event>
 6    2  0.2321478E-005  0.1140928E+04  0.7818608E-02  0.9361808E-01
         -4   -1    0    0    0  501 -0.00000000000E+00  0.00000000000E+00  0.40145244497E+03  0.40145244497E+03  0.00000000000E+00 0. -1.
         21   -1    0    0  501  502  0.00000000000E+00 -0.00000000000E+00 -0.17995483848E+04  0.17995483848E+04  0.00000000000E+00 0. -1.
   -9000010    2    1    2    0  502 -0.53505508999E+03 -0.14772285788E+03 -0.86929030082E+03  0.14343578835E+04  0.99680034050E+03 0.  0.
         13    1    3    3    0    0  0.23116142465E+03 -0.22362886868E+03 -0.79406362888E+02  0.33128666859E+03  0.10566000000E+00 0. -1.
         -4    1    3    3    0  502 -0.76621651464E+03  0.75906010797E+02 -0.78988393794E+03  0.11030712149E+04  0.00000000000E+00 0. -1.
        -13    1    1    2    0    0  0.53505508999E+03  0.14772285788E+03 -0.52880563905E+03  0.76664294630E+03  0.10566000000E+00 0.  1.
<mgrwt>
<rscale>  1 0.95286479E+03</rscale>
<asrwt>0</asrwt>
<pdfrwt beam="2">  1       21 0.27685360E+00 0.11409281E+04</pdfrwt>
<pdfrwt beam="1">  1       -4 0.61761914E-01 0.11409281E+04</pdfrwt>
<totfact> 0.35175889E+00</totfact>
</mgrwt>
</event>
<event>
 6    2  0.2321478E-005  0.9952769E+03  0.7818608E-02  0.9860092E-01
         -4   -1    0    0    0  501 -0.00000000000E+00  0.00000000000E+00  0.12019397350E+04  0.12019397350E+04  0.00000000000E+00 0. -1.
         21   -1    0    0  501  502  0.00000000000E+00 -0.00000000000E+00 -0.27922058043E+03  0.27922058043E+03  0.00000000000E+00 0. -1.
   -9000010    2    1    2    0  502  0.60159303420E+02  0.13976470586E+03  0.72340592673E+03  0.12304032841E+04  0.98357653081E+03 0.  0.
         13    1    3    3    0    0 -0.14864099781E+03  0.51802645038E+03  0.53387679943E+03  0.75859738838E+03  0.10566000000E+00 0. -1.
         -4    1    3    3    0  502  0.20880030123E+03 -0.37826174452E+03  0.18952912730E+03  0.47180589574E+03  0.00000000000E+00 0. -1.
        -13    1    1    2    0    0 -0.60159303420E+02 -0.13976470586E+03  0.19931322779E+03  0.25075703126E+03  0.10566000000E+00 0.  1.
<mgrwt>
<rscale>  1 0.62234989E+03</rscale>
<asrwt>0</asrwt>
<pdfrwt beam="2">  1       21 0.42957013E-01 0.99527690E+03</pdfrwt>
<pdfrwt beam="1">  1       -4 0.18491380E+00 0.99527690E+03</pdfrwt>
<totfact> 0.34594096E+01</totfact>
</mgrwt>
</event>
<event>
 6    2  0.2321478E-005  0.8492458E+03  0.7818608E-02  0.9927853E-01
         21   -1    0    0  501  502  0.00000000000E+00  0.00000000000E+00  0.24492618572E+04  0.24492618572E+04  0.00000000000E+00 0. -1.
         -4   -1    0    0    0  501 -0.00000000000E+00 -0.00000000000E+00 -0.12449982939E+03  0.12449982939E+03  0.00000000000E+00 0. -1.
   -9000010    2    1    2    0  502 -0.16492448624E+03 -0.10756606344E+03  0.21455671868E+04  0.23075261774E+04  0.82610408659E+03 0.  0.
         13    1    3    3    0    0 -0.82282912943E+02 -0.18983676549E+03  0.21769548264E+04  0.21867649171E+04  0.10566000000E+00 0. -1.
         -4    1    3    3    0  502 -0.82641573295E+02  0.82270702055E+02 -0.31387639607E+02  0.12076126023E+03  0.00000000000E+00 0. -1.
        -13    1    1    2    0    0  0.16492448624E+03  0.10756606344E+03  0.17919484095E+03  0.26623550919E+03  0.10566000000E+00 0.  1.
<mgrwt>
<rscale>  1 0.58930188E+03</rscale>
<asrwt>0</asrwt>
<pdfrwt beam="1">  1       21 0.37680948E+00 0.84924585E+03</pdfrwt>
<pdfrwt beam="2">  1       -4 0.19153822E-01 0.84924585E+03</pdfrwt>
<totfact> 0.91428338E+00</totfact>
</mgrwt>
</event>
<event>
 6    2  0.2321478E-005  0.9574326E+03  0.7818608E-02  0.9981412E-01
         21   -1    0    0  501  502  0.00000000000E+00  0.00000000000E+00  0.16550955717E+04  0.16550955717E+04  0.00000000000E+00 0. -1.
         -4   -1    0    0    0  501 -0.00000000000E+00 -0.00000000000E+00 -0.34777554156E+03  0.34777554156E+03  0.00000000000E+00 0. -1.
   -9000010    2    1    2    0  502 -0.22328072468E+02 -0.11371553374E+03  0.14991231398E+04  0.17787769155E+04  0.95039326676E+03 0.  0.
         13    1    3    3    0    0  0.10509532193E+02  0.27046570812E+03  0.13308158054E+04  0.13580621740E+04  0.10566000000E+00 0. -1.
         -4    1    3    3    0  502 -0.32837604661E+02 -0.38418124186E+03  0.16830733438E+03  0.42071474146E+03  0.00000000000E+00 0. -1.
        -13    1    1    2    0    0  0.22328072468E+02  0.11371553374E+03 -0.19180310963E+03  0.22409419774E+03  0.10566000000E+00 0.  1.
<mgrwt>
<rscale>  1 0.56472855E+03</rscale>
<asrwt>0</asrwt>
<pdfrwt beam="1">  1       21 0.25463008E+00 0.95743257E+03</pdfrwt>
<pdfrwt beam="2">  1       -4 0.53503930E-01 0.95743257E+03</pdfrwt>
<totfact> 0.68174740E+00</totfact>
</mgrwt>
</event>
<event>
 6    2  0.2321478E-005  0.1052881E+04  0.7818608E-02  0.9582865E-01
         -4   -1    0    0    0  501 -0.00000000000E+00  0.00000000000E+00  0.23516501191E+04  0.23516501191E+04  0.00000000000E+00 0. -1.
         21   -1    0    0  501  502  0.00000000000E+00 -0.00000000000E+00 -0.20644249699E+03  0.20644249699E+03  0.00000000000E+00 0. -1.
   -9000010    2    1    2    0  502  0.24666630838E+02  0.32342230862E+03  0.14605842865E+04  0.18005178308E+04  0.10016723860E+04 0.  0.
         13    1    3    3    0    0  0.72113075678E+02 -0.27270110338E+03  0.75730983770E+02  0.29206400075E+03  0.10566000000E+00 0. -1.
         -4    1    3    3    0  502 -0.47446444840E+02  0.59612341200E+03  0.13848533027E+04  0.15084538301E+04  0.00000000000E+00 0. -1.
        -13    1    1    2    0    0 -0.24666630838E+02 -0.32342230862E+03  0.68462333559E+03  0.75757478521E+03  0.10566000000E+00 0.  1.
<mgrwt>
<rscale>  1 0.78440755E+03</rscale>
<asrwt>0</asrwt>
<pdfrwt beam="2">  1       21 0.31760386E-01 0.10528808E+04</pdfrwt>
<pdfrwt beam="1">  1       -4 0.36179231E+00 0.10528808E+04</pdfrwt>
<totfact> 0.48617084E+00</totfact>
</mgrwt>
</event>
<event>
 6    2  0.2321478E-005  0.1061444E+04  0.7818608E-02  0.9604378E-01
         -4   -1    0    0    0  501 -0.00000000000E+00  0.00000000000E+00  0.27577506909E+03  0.27577506909E+03  0.00000000000E+00 0. -1.
         21   -1    0    0  501  502  0.00000000000E+00 -0.00000000000E+00 -0.16711248232E+04  0.16711248232E+04  0.00000000000E+00 0. -1.
   -9000010    2    1    2    0  502  0.25812474386E+03  0.14085938026E+03 -0.10454075419E+04  0.14898120326E+04  0.10198986300E+04 0.  0.
         13    1    3    3    0    0  0.55060078019E+03 -0.15541715959E+03 -0.86269915076E+03  0.10351645031E+04  0.10566000000E+00 0. -1.
         -4    1    3    3    0  502 -0.29247603632E+03  0.29627653985E+03 -0.18270839113E+03  0.45464752950E+03  0.00000000000E+00 0. -1.
        -13    1    1    2    0    0 -0.25812474386E+03 -0.14085938026E+03 -0.34994221221E+03  0.45708785967E+03  0.10566000000E+00 0.  1.
<mgrwt>
<rscale>  1 0.77007113E+03</rscale>
<asrwt>0</asrwt>
<pdfrwt beam="2">  1       21 0.25709613E+00 0.10614438E+04</pdfrwt>
<pdfrwt beam="1">  1       -4 0.42426933E-01 0.10614438E+04</pdfrwt>
<totfact> 0.10521595E+01</totfact>
</mgrwt>
</event>
<event>
 6    2  0.2321478E-005  0.1029286E+04  0.7818608E-02  0.9765817E-01
         21   -1    0    0  501  502  0.00000000000E+00  0.00000000000E+00  0.33636792424E+03  0.33636792424E+03  0.00000000000E+00 0. -1.
         -4   -1    0    0    0  501 -0.00000000000E+00 -0.00000000000E+00 -0.12503908684E+04  0.12503908684E+04  0.00000000000E+00 0. -1.
   -9000010    2    1    2    0  502  0.17197629823E+03  0.74306365582E+02 -0.52605163449E+03  0.11559235209E+04  0.10120926740E+04 0.  0.
         13    1    3    3    0    0  0.40330276861E+03  0.10342440266E+03 -0.73376956774E+03  0.84366315550E+03  0.10566000000E+00 0. -1.
         -4    1    3    3    0  502 -0.23132647038E+03 -0.29118037081E+02  0.20771793325E+03  0.31226036536E+03  0.00000000000E+00 0. -1.
        -13    1    1    2    0    0 -0.17197629823E+03 -0.74306365582E+02 -0.38797130965E+03  0.43083527176E+03  0.10566000000E+00 0.  1.
<mgrwt>
<rscale>  1 0.67229693E+03</rscale>
<asrwt>0</asrwt>
<pdfrwt beam="1">  1       21 0.51748910E-01 0.10292856E+04</pdfrwt>
<pdfrwt beam="2">  1       -4 0.19236783E+00 0.10292856E+04</pdfrwt>
<totfact> 0.20582217E+01</totfact>
</mgrwt>
</event>
<event>
 6    2  0.2321478E-005  0.1178247E+04  0.7818608E-02  0.9297535E-01
         -4   -1    0    0    0  501 -0.00000000000E+00  0.00000000000E+00  0.45511143674E+03  0.45511143674E+03  0.00000000000E+00 0. -1.
         21   -1    0    0  501  502  0.00000000000E+00 -0.00000000000E+00 -0.19440572332E+04  0.19440572332E+04  0.00000000000E+00 0. -1.
   -9000010    2    1    2    0  502 -0.27045303953E+03  0.57610587749E+03 -0.64843589790E+03  0.13448917948E+04  0.99157551269E+03 0.  0.
         13    1    3    3    0    0 -0.47409159780E+03  0.76409924764E+03 -0.46294215463E+03  0.10113980191E+04  0.10566000000E+00 0. -1.
         -4    1    3    3    0  502  0.20363855827E+03 -0.18799337015E+03 -0.18549374326E+03  0.33349377569E+03  0.00000000000E+00 0. -1.
        -13    1    1    2    0    0  0.27045303953E+03 -0.57610587749E+03 -0.84050989853E+03  0.10542768751E+04  0.10566000000E+00 0.  1.
<mgrwt>
<rscale>  1 0.10101010E+04</rscale>
<asrwt>0</asrwt>
<pdfrwt beam="2">  1       21 0.29908573E+00 0.11782465E+04</pdfrwt>
<pdfrwt beam="1">  1       -4 0.70017145E-01 0.11782465E+04</pdfrwt>
<totfact> 0.19213986E+00</totfact>
</mgrwt>
</event>
<event>
 6    2  0.2321478E-005  0.1318457E+04  0.7818608E-02  0.9128194E-01
         21   -1    0    0  501  502  0.00000000000E+00  0.00000000000E+00  0.80032528793E+03  0.80032528793E+03  0.00000000000E+00 0.  1.
         -4   -1    0    0    0  501 -0.00000000000E+00 -0.00000000000E+00 -0.16076972550E+04  0.16076972550E+04  0.00000000000E+00 0. -1.
   -9000010    2    1    2    0  502 -0.21541160237E+03  0.82586862304E+03 -0.82325856997E+03  0.15543753464E+04  0.10049213419E+04 0.  0.
         13    1    3    3    0    0 -0.43849145171E+03  0.54930588320E+03 -0.94593446265E+03  0.11784751696E+04  0.10566000000E+00 0. -1.
         -4    1    3    3    0  502  0.22307984933E+03  0.27656273984E+03  0.12267589269E+03  0.37590017676E+03  0.00000000000E+00 0. -1.
        -13    1    1    2    0    0  0.21541160237E+03 -0.82586862304E+03  0.15886602868E+02  0.85364719661E+03  0.10566000000E+00 0.  1.
<mgrwt>
<rscale>  1 0.11826337E+04</rscale>
<asrwt>0</asrwt>
<pdfrwt beam="1">  1       21 0.12312697E+00 0.13184567E+04</pdfrwt>
<pdfrwt beam="2">  1       -4 0.24733804E+00 0.13184567E+04</pdfrwt>
<totfact> 0.11257701E+00</totfact>
</mgrwt>
</event>
<event>
 6    2  0.2321478E-005  0.1013273E+04  0.7818608E-02  0.9890912E-01
         21   -1    0    0  501  502  0.00000000000E+00  0.00000000000E+00  0.19620001218E+04  0.19620001218E+04  0.00000000000E+00 0. -1.
         -4   -1    0    0    0  501 -0.00000000000E+00 -0.00000000000E+00 -0.16796620743E+03  0.16796620743E+03  0.00000000000E+00 0. -1.
   -9000010    2    1    2    0  502 -0.10687652168E+03 -0.74921775679E+02  0.15249833998E+04  0.18309277800E+04  0.10048314797E+04 0.  0.
         13    1    3    3    0    0  0.32594319318E+03 -0.20281160030E+03  0.20348181418E+03  0.43448402763E+03  0.10566000000E+00 0. -1.
         -4    1    3    3    0  502 -0.43281971486E+03  0.12788982462E+03  0.13215015856E+04  0.13964437524E+04  0.00000000000E+00 0. -1.
        -13    1    1    2    0    0  0.10687652168E+03  0.74921775679E+02  0.26905051456E+03  0.29903854920E+03  0.10566000000E+00 0.  1.
<mgrwt>
<rscale>  1 0.60703742E+03</rscale>
<asrwt>0</asrwt>
<pdfrwt beam="1">  1       21 0.30184616E+00 0.10132730E+04</pdfrwt>
<pdfrwt beam="2">  1       -4 0.25840956E-01 0.10132730E+04</pdfrwt>
<totfact> 0.14897300E+01</totfact>
</mgrwt>
</event>
<event>
 6    2  0.2321478E-005  0.9494639E+03  0.7818608E-02  0.9862186E-01
         21   -1    0    0  501  502  0.00000000000E+00  0.00000000000E+00  0.74964142901E+03  0.74964142901E+03  0.00000000000E+00 0. -1.
         -4   -1    0    0    0  501 -0.00000000000E+00 -0.00000000000E+00 -0.43484001123E+03  0.43484001123E+03  0.00000000000E+00 0. -1.
   -9000010    2    1    2    0  502  0.17379913080E+03  0.99187793918E+01  0.34016732964E+03  0.10085611154E+04  0.93336873274E+03 0.  0.
         13    1    3    3    0    0 -0.30088768103E+03 -0.66780549709E+02 -0.13142045616E+03  0.33505877973E+03  0.10566000000E+00 0. -1.
         -4    1    3    3    0  502  0.47468681182E+03  0.76699329100E+02  0.47158778581E+03  0.67350233565E+03  0.00000000000E+00 0. -1.
        -13    1    1    2    0    0 -0.17379913080E+03 -0.99187793918E+01 -0.25365911859E+02  0.17592032486E+03  0.10566000000E+00 0.  1.
<mgrwt>
<rscale>  1 0.62129419E+03</rscale>
<asrwt>0</asrwt>
<pdfrwt beam="1">  1       21 0.11532945E+00 0.94946391E+03</pdfrwt>
<pdfrwt beam="2">  1       -4 0.66898463E-01 0.94946391E+03</pdfrwt>
<totfact> 0.45117272E+01</totfact>
</mgrwt>
</event>
<event>
 6    2  0.2321478E-005  0.1047404E+04  0.7818608E-02  0.9590159E-01
         -4   -1    0    0    0  501 -0.00000000000E+00  0.00000000000E+00  0.16303219827E+04  0.16303219827E+04  0.00000000000E+00 0. -1.
         21   -1    0    0  501  502  0.00000000000E+00 -0.00000000000E+00 -0.42792981143E+03  0.42792981143E+03  0.00000000000E+00 0. -1.
   -9000010    2    1    2    0  502  0.65423588894E+02 -0.31459273202E+03  0.28393219291E+03  0.10852062782E+04  0.99689836147E+03 0.  0.
         13    1    3    3    0    0  0.17178012208E+03 -0.21376779406E+03  0.64210307839E+03  0.69821304382E+03  0.10566000000E+00 0. -1.
         -4    1    3    3    0  502 -0.10635653319E+03 -0.10082493795E+03 -0.35817088548E+03  0.38699323440E+03  0.00000000000E+00 0. -1.
        -13    1    1    2    0    0 -0.65423588894E+02  0.31459273202E+03  0.91845997833E+03  0.97304551588E+03  0.10566000000E+00 0.  1.
<mgrwt>
<rscale>  1 0.77950935E+03</rscale>
<asrwt>0</asrwt>
<pdfrwt beam="2">  1       21 0.65835356E-01 0.10474040E+04</pdfrwt>
<pdfrwt beam="1">  1       -4 0.25081876E+00 0.10474040E+04</pdfrwt>
<totfact> 0.50827409E+00</totfact>
</mgrwt>
</event>
<event>
 6    2  0.2321478E-005  0.1008256E+04  0.7818608E-02  0.9916772E-01
         -4   -1    0    0    0  501 -0.00000000000E+00  0.00000000000E+00  0.88004308919E+03  0.88004308919E+03  0.00000000000E+00 0. -1.
         21   -1    0    0  501  502  0.00000000000E+00 -0.00000000000E+00 -0.52671487388E+03  0.52671487388E+03  0.00000000000E+00 0. -1.
   -9000010    2    1    2    0  502  0.11444686837E+03 -0.42007489320E+02 -0.25723095296E+02  0.10085838528E+04  0.10008581297E+04 0.  0.
         13    1    3    3    0    0 -0.47937658216E+02  0.31404643341E+03 -0.36978379950E+03  0.48750718041E+03  0.10566000000E+00 0. -1.
         -4    1    3    3    0  502  0.16238452658E+03 -0.35605392273E+03  0.34406070420E+03  0.52107667242E+03  0.00000000000E+00 0. -1.
        -13    1    1    2    0    0 -0.11444686837E+03  0.42007489320E+02  0.37905131060E+03  0.39817411025E+03  0.10566000000E+00 0.  1.
<mgrwt>
<rscale>  1 0.59455269E+03</rscale>
<asrwt>0</asrwt>
<pdfrwt beam="2">  1       21 0.81033058E-01 0.10082558E+04</pdfrwt>
<pdfrwt beam="1">  1       -4 0.13539124E+00 0.10082558E+04</pdfrwt>
<totfact> 0.19803389E+01</totfact>
</mgrwt>
</event>
<event>
 6    2  0.2321478E-005  0.1005294E+04  0.7818608E-02  0.9945315E-01
         21   -1    0    0  501  502  0.00000000000E+00  0.00000000000E+00  0.75924281627E+03  0.75924281627E+03  0.00000000000E+00 0. -1.
         -4   -1    0    0    0  501 -0.00000000000E+00 -0.00000000000E+00 -0.66844941704E+03  0.66844941704E+03  0.00000000000E+00 0. -1.
   -9000010    2    1    2    0  502  0.72930542417E+02 -0.85354794862E+02  0.41274567406E+03  0.10867265702E+04  0.99900517607E+03 0.  0.
         13    1    3    3    0    0 -0.30073979412E+03  0.17481183918E+03 -0.13616024240E+03  0.37355484960E+03  0.10566000000E+00 0. -1.
         -4    1    3    3    0  502  0.37367033654E+03 -0.26016663404E+03  0.54890591646E+03  0.71317172056E+03  0.00000000000E+00 0. -1.
        -13    1    1    2    0    0 -0.72930542417E+02  0.85354794862E+02 -0.32195227482E+03  0.34096566315E+03  0.10566000000E+00 0.  1.
<mgrwt>
<rscale>  1 0.58114522E+03</rscale>
<asrwt>0</asrwt>
<pdfrwt beam="1">  1       21 0.11680659E+00 0.10052938E+04</pdfrwt>
<pdfrwt beam="2">  1       -4 0.10283837E+00 0.10052938E+04</pdfrwt>
<totfact> 0.16042688E+01</totfact>
</mgrwt>
</event>
<event>
 6    2  0.2321478E-005  0.1095995E+04  0.7818608E-02  0.9530865E-01
         21   -1    0    0  501  502  0.00000000000E+00  0.00000000000E+00  0.12316835111E+04  0.12316835111E+04  0.00000000000E+00 0. -1.
         -4   -1    0    0    0  501 -0.00000000000E+00 -0.00000000000E+00 -0.43194339812E+03  0.43194339812E+03  0.00000000000E+00 0. -1.
   -9000010    2    1    2    0  502  0.15027319083E+03 -0.30965766465E+03  0.48984413982E+03  0.12004796038E+04  0.10405450959E+04 0.  0.
         13    1    3    3    0    0 -0.19426105764E+03 -0.17733482152E+03  0.71930832744E+03  0.76589129681E+03  0.10566000000E+00 0. -1.
         -4    1    3    3    0  502  0.34453424847E+03 -0.13232284313E+03 -0.22946418762E+03  0.43458830700E+03  0.00000000000E+00 0. -1.
        -13    1    1    2    0    0 -0.15027319083E+03  0.30965766465E+03  0.30989597313E+03  0.46314730538E+03  0.10566000000E+00 0.  1.
<mgrwt>
<rscale>  1 0.82045988E+03</rscale>
<asrwt>0</asrwt>
<pdfrwt beam="1">  1       21 0.18948977E+00 0.10959945E+04</pdfrwt>
<pdfrwt beam="2">  1       -4 0.66452831E-01 0.10959945E+04</pdfrwt>
<totfact> 0.11271262E+01</totfact>
</mgrwt>
</event>
<event>
 6    2  0.2321478E-005  0.1071918E+04  0.7818608E-02  0.9692333E-01
         21   -1    0    0  501  502  0.00000000000E+00  0.00000000000E+00  0.69811004930E+03  0.69811004930E+03  0.00000000000E+00 0. -1.
         -4   -1    0    0    0  501 -0.00000000000E+00 -0.00000000000E+00 -0.67579812169E+03  0.67579812169E+03  0.00000000000E+00 0. -1.
   -9000010    2    1    2    0  502 -0.20622085662E+03 -0.48738553853E+02 -0.17292475859E+03  0.10857764943E+04  0.10507640720E+04 0.  0.
         13    1    3    3    0    0 -0.14905460161E+03  0.27178503491E+03 -0.52283847042E+03  0.60781942778E+03  0.10566000000E+00 0. -1.
         -4    1    3    3    0  502 -0.57166255006E+02 -0.32052358877E+03  0.34991371183E+03  0.47795706648E+03  0.00000000000E+00 0. -1.
        -13    1    1    2    0    0  0.20622085662E+03  0.48738553853E+02  0.19523668620E+03  0.28813167674E+03  0.10566000000E+00 0.  1.
<mgrwt>
<rscale>  1 0.71475131E+03</rscale>
<asrwt>0</asrwt>
<pdfrwt beam="1">  1       21 0.10740155E+00 0.10719177E+04</pdfrwt>
<pdfrwt beam="2">  1       -4 0.10396894E+00 0.10719177E+04</pdfrwt>
<totfact> 0.19211935E+01</totfact>
</mgrwt>
</event>
<event>
 6    2  0.2321478E-005  0.9997563E+03  0.7818608E-02  0.9870396E-01
         -4   -1    0    0    0  501 -0.00000000000E+00  0.00000000000E+00  0.93208737880E+03  0.93208737880E+03  0.00000000000E+00 0. -1.
         21   -1    0    0  501  502  0.00000000000E+00 -0.00000000000E+00 -0.36321951148E+03  0.36321951148E+03  0.00000000000E+00 0. -1.
   -9000010    2    1    2    0  502  0.14398594049E+03 -0.18711150409E+02  0.41133902604E+03  0.10810700932E+04  0.98915655683E+03 0.  0.
         13    1    3    3    0    0  0.13302954108E+03 -0.32448202954E+03 -0.19546810434E+03  0.40148877603E+03  0.10566000000E+00 0. -1.
         -4    1    3    3    0  502  0.10956399408E+02  0.30577087913E+03  0.60680713038E+03  0.67958131721E+03  0.00000000000E+00 0. -1.
        -13    1    1    2    0    0 -0.14398594049E+03  0.18711150409E+02  0.15752884128E+03  0.21423679705E+03  0.10566000000E+00 0.  1.
<mgrwt>
<rscale>  1 0.61717707E+03</rscale>
<asrwt>0</asrwt>
<pdfrwt beam="2">  1       21 0.55879925E-01 0.99975635E+03</pdfrwt>
<pdfrwt beam="1">  1       -4 0.14339806E+00 0.99975635E+03</pdfrwt>
<totfact> 0.39721748E+01</totfact>
</mgrwt>
</event>
<event>
 6    2  0.2321478E-005  0.1025540E+04  0.7818608E-02  0.1003552E+00
         21   -1    0    0  501  502  0.00000000000E+00  0.00000000000E+00  0.26017786239E+04  0.26017786239E+04  0.00000000000E+00 0. -1.
         -4   -1    0    0    0  501 -0.00000000000E+00 -0.00000000000E+00 -0.13207496906E+03  0.13207496906E+03  0.00000000000E+00 0. -1.
   -9000010    2    1    2    0  502 -0.64259134110E+02 -0.46871713775E+02  0.24437052684E+04  0.26501749150E+04  0.10224507068E+04 0.  0.
         13    1    3    3    0    0 -0.25305022890E+03  0.41664883970E+03  0.85154800758E+03  0.98120573498E+03  0.10566000000E+00 0. -1.
         -4    1    3    3    0  502  0.18879109479E+03 -0.46352055348E+03  0.15921572608E+04  0.16689691801E+04  0.00000000000E+00 0. -1.
        -13    1    1    2    0    0  0.64259134110E+02  0.46871713775E+02  0.25998386446E+02  0.83678677873E+02  0.10566000000E+00 0.  1.
<mgrwt>
<rscale>  1 0.54119934E+03</rscale>
<asrwt>0</asrwt>
<pdfrwt beam="1">  1       21 0.40027360E+00 0.10255397E+04</pdfrwt>
<pdfrwt beam="2">  1       -4 0.20319228E-01 0.10255397E+04</pdfrwt>
<totfact> 0.55593492E+00</totfact>
</mgrwt>
</event>
<event>
 6    2  0.2321478E-005  0.1045969E+04  0.7818608E-02  0.9595115E-01
         -4   -1    0    0    0  501 -0.00000000000E+00  0.00000000000E+00  0.28928967287E+03  0.28928967287E+03  0.00000000000E+00 0. -1.
         21   -1    0    0  501  502  0.00000000000E+00 -0.00000000000E+00 -0.22166920921E+04  0.22166920921E+04  0.00000000000E+00 0. -1.
   -9000010    2    1    2    0  502 -0.27860060048E+03  0.15166974098E+03 -0.19226325002E+04  0.21887361689E+04  0.99670872444E+03 0.  0.
         13    1    3    3    0    0 -0.17252861646E+03  0.45803455684E+03 -0.40040234244E+03  0.63236368156E+03  0.10566000000E+00 0. -1.
         -4    1    3    3    0  502 -0.10607198402E+03 -0.30636481586E+03 -0.15222301578E+04  0.15563724874E+04  0.00000000000E+00 0. -1.
        -13    1    1    2    0    0  0.27860060048E+03 -0.15166974098E+03 -0.47699190141E+01  0.31724559604E+03  0.10566000000E+00 0.  1.
<mgrwt>
<rscale>  1 0.77620352E+03</rscale>
<asrwt>0</asrwt>
<pdfrwt beam="2">  1       21 0.34102954E+00 0.10459686E+04</pdfrwt>
<pdfrwt beam="1">  1       -4 0.44506106E-01 0.10459686E+04</pdfrwt>
<totfact> 0.28520241E+00</totfact>
</mgrwt>
</event>
<event>
 6    2  0.2321478E-005  0.1071447E+04  0.7818608E-02  0.9486369E-01
         21   -1    0    0  501  502  0.00000000000E+00  0.00000000000E+00  0.12560411382E+04  0.12560411382E+04  0.00000000000E+00 0.  1.
         -4   -1    0    0    0  501 -0.00000000000E+00 -0.00000000000E+00 -0.81195136672E+03  0.81195136672E+03  0.00000000000E+00 0. -1.
   -9000010    2    1    2    0  502 -0.16785614928E+03 -0.39624825953E+03 -0.38120443062E+03  0.11372407114E+04  0.98122945718E+03 0.  0.
         13    1    3    3    0    0 -0.50019451106E+03 -0.44904888106E+03 -0.64735668164E+02  0.67530005506E+03  0.10566000000E+00 0. -1.
         -4    1    3    3    0  502  0.33233836177E+03  0.52800621529E+02 -0.31646876245E+03  0.46194065630E+03  0.00000000000E+00 0. -1.
        -13    1    1    2    0    0  0.16785614928E+03  0.39624825953E+03  0.82529420212E+03  0.93075179358E+03  0.10566000000E+00 0.  1.
<mgrwt>
<rscale>  1 0.85296247E+03</rscale>
<asrwt>0</asrwt>
<pdfrwt beam="1">  1       21 0.19323710E+00 0.10714474E+04</pdfrwt>
<pdfrwt beam="2">  1       -4 0.12491560E+00 0.10714474E+04</pdfrwt>
<totfact> 0.23843292E+00</totfact>
</mgrwt>
</event>
<event>
 6    2  0.2321478E-005  0.1012820E+04  0.7818608E-02  0.9753126E-01
         21   -1    0    0  501  502  0.00000000000E+00  0.00000000000E+00  0.22061627008E+03  0.22061627008E+03  0.00000000000E+00 0. -1.
         -4   -1    0    0    0  501 -0.00000000000E+00 -0.00000000000E+00 -0.16961441966E+04  0.16961441966E+04  0.00000000000E+00 0. -1.
   -9000010    2    1    2    0  502  0.20194968198E+03  0.35638893217E+02 -0.12910902799E+04  0.16409506383E+04  0.99184226658E+03 0.  0.
         13    1    3    3    0    0  0.58432001333E+03  0.16409811880E+03 -0.83166059703E+03  0.10295714790E+04  0.10566000000E+00 0. -1.
         -4    1    3    3    0  502 -0.38237033135E+03 -0.12845922559E+03 -0.45942968285E+03  0.61137915929E+03  0.00000000000E+00 0. -1.
        -13    1    1    2    0    0 -0.20194968198E+03 -0.35638893217E+02 -0.18443764661E+03  0.27580982834E+03  0.10566000000E+00 0.  1.
<mgrwt>
<rscale>  1 0.67939918E+03</rscale>
<asrwt>0</asrwt>
<pdfrwt beam="1">  1       21 0.33940965E-01 0.10128203E+04</pdfrwt>
<pdfrwt beam="2">  1       -4 0.26094526E+00 0.10128203E+04</pdfrwt>
<totfact> 0.18359460E+01</totfact>
</mgrwt>
</event>
<event>
 6    2  0.2321478E-005  0.1052869E+04  0.7818608E-02  0.9621968E-01
         -4   -1    0    0    0  501 -0.00000000000E+00  0.00000000000E+00  0.27765970215E+03  0.27765970215E+03  0.00000000000E+00 0. -1.
         21   -1    0    0  501  502  0.00000000000E+00 -0.00000000000E+00 -0.17449035875E+04  0.17449035875E+04  0.00000000000E+00 0. -1.
   -9000010    2    1    2    0  502  0.22067192864E+03 -0.17834652739E+03 -0.13584305724E+04  0.17186818454E+04  0.10139181829E+04 0.  0.
         13    1    3    3    0    0 -0.56220537358E+02 -0.56339863914E+03 -0.86881354105E+03  0.10370225435E+04  0.10566000000E+00 0. -1.
         -4    1    3    3    0  502  0.27689246600E+03  0.38505211175E+03 -0.48961703137E+03  0.68165930193E+03  0.00000000000E+00 0. -1.
        -13    1    1    2    0    0 -0.22067192864E+03  0.17834652739E+03 -0.10881331292E+03  0.30388144425E+03  0.10566000000E+00 0.  1.
<mgrwt>
<rscale>  1 0.75859110E+03</rscale>
<asrwt>0</asrwt>
<pdfrwt beam="2">  1       21 0.26844671E+00 0.10528693E+04</pdfrwt>
<pdfrwt beam="1">  1       -4 0.42716877E-01 0.10528693E+04</pdfrwt>
<totfact> 0.88100657E+00</totfact>
</mgrwt>
</event>
<event>
 6    2  0.2321478E-005  0.1028674E+04  0.7818608E-02  0.9726059E-01
         -4   -1    0    0    0  501 -0.00000000000E+00  0.00000000000E+00  0.14643630825E+04  0.14643630825E+04  0.00000000000E+00 0. -1.
         21   -1    0    0  501  502  0.00000000000E+00 -0.00000000000E+00 -0.31133788760E+03  0.31133788760E+03  0.00000000000E+00 0. -1.
   -9000010    2    1    2    0  502  0.12638591763E+03 -0.17290465701E+03  0.61954485181E+03  0.12008351525E+04  0.10061311145E+04 0.  0.
         13    1    3    3    0    0 -0.38923319652E+02 -0.29617597341E+03  0.84443465634E+03  0.89571487206E+03  0.10566000000E+00 0. -1.
         -4    1    3    3    0  502  0.16530923728E+03  0.12327131639E+03 -0.22488980453E+03  0.30512028047E+03  0.00000000000E+00 0. -1.
        -13    1    1    2    0    0 -0.12638591763E+03  0.17290465701E+03  0.53348034307E+03  0.57486581756E+03  0.10566000000E+00 0.  1.
<mgrwt>
<rscale>  1 0.69486205E+03</rscale>
<asrwt>0</asrwt>
<pdfrwt beam="2">  1       21 0.47898137E-01 0.10286735E+04</pdfrwt>
<pdfrwt beam="1">  1       -4 0.22528663E+00 0.10286735E+04</pdfrwt>
<totfact> 0.14844433E+01</totfact>
</mgrwt>
</event>
<event>
 6    2  0.2321478E-005  0.9840590E+03  0.7818608E-02  0.9998447E-01
         21   -1    0    0  501  502  0.00000000000E+00  0.00000000000E+00  0.62850636573E+03  0.62850636573E+03  0.00000000000E+00 0. -1.
         -4   -1    0    0    0  501 -0.00000000000E+00 -0.00000000000E+00 -0.50310178622E+03  0.50310178622E+03  0.00000000000E+00 0. -1.
   -9000010    2    1    2    0  502 -0.85396925387E+02  0.54193955411E+02  0.20219696990E+03  0.10046171993E+04  0.97884752787E+03 0.  0.
         13    1    3    3    0    0 -0.17340282262E+02 -0.43763392759E+03 -0.61744426860E+02  0.44230817919E+03  0.10566000000E+00 0. -1.
         -4    1    3    3    0  502 -0.68056643125E+02  0.49182788300E+03  0.26394139676E+03  0.56230902011E+03  0.00000000000E+00 0. -1.
        -13    1    1    2    0    0  0.85396925387E+02 -0.54193955411E+02 -0.76792390397E+02  0.12699095265E+03  0.10566000000E+00 0.  1.
<mgrwt>
<rscale>  1 0.55718363E+03</rscale>
<asrwt>0</asrwt>
<pdfrwt beam="1">  1       21 0.96693287E-01 0.98405899E+03</pdfrwt>
<pdfrwt beam="2">  1       -4 0.77400275E-01 0.98405899E+03</pdfrwt>
<totfact> 0.50415837E+01</totfact>
</mgrwt>
</event>
<event>
 6    2  0.2321478E-005  0.1054110E+04  0.7818608E-02  0.9612875E-01
         -4   -1    0    0    0  501 -0.00000000000E+00  0.00000000000E+00  0.18153481345E+04  0.18153481345E+04  0.00000000000E+00 0. -1.
         21   -1    0    0  501  502  0.00000000000E+00 -0.00000000000E+00 -0.43595864812E+03  0.43595864812E+03  0.00000000000E+00 0. -1.
   -9000010    2    1    2    0  502  0.26844948716E+03  0.11397162552E+03  0.24794274886E+03  0.10828777563E+04  0.10129629657E+04 0.  0.
         13    1    3    3    0    0 -0.32282747576E+03 -0.17086425796E+03 -0.37515457599E+02  0.36717787853E+03  0.10566000000E+00 0. -1.
         -4    1    3    3    0  502  0.59127696292E+03  0.28483588348E+03  0.28545820646E+03  0.71569987777E+03  0.00000000000E+00 0. -1.
        -13    1    1    2    0    0 -0.26844948716E+03 -0.11397162552E+03  0.11314467375E+04  0.11684290263E+04  0.10566000000E+00 0.  1.
<mgrwt>
<rscale>  1 0.76449884E+03</rscale>
<asrwt>0</asrwt>
<pdfrwt beam="2">  1       21 0.67070562E-01 0.10541103E+04</pdfrwt>
<pdfrwt beam="1">  1       -4 0.27928432E+00 0.10541103E+04</pdfrwt>
<totfact> 0.32490253E+00</totfact>
</mgrwt>
</event>
<event>
 6    2  0.2321478E-005  0.1057885E+04  0.7818608E-02  0.9565061E-01
         21   -1    0    0  501  502  0.00000000000E+00  0.00000000000E+00  0.21821490198E+04  0.21821490198E+04  0.00000000000E+00 0. -1.
         -4   -1    0    0    0  501 -0.00000000000E+00 -0.00000000000E+00 -0.24505313441E+03  0.24505313441E+03  0.00000000000E+00 0. -1.
   -9000010    2    1    2    0  502  0.18216600603E+03  0.28708418118E+03  0.17338074801E+04  0.20310608060E+04  0.10017573753E+04 0.  0.
         13    1    3    3    0    0 -0.15572741450E+03  0.40619286919E+03  0.24399673382E+03  0.49877659516E+03  0.10566000000E+00 0. -1.
         -4    1    3    3    0  502  0.33789342053E+03 -0.11910868801E+03  0.14898107462E+04  0.15322842108E+04  0.00000000000E+00 0. -1.
        -13    1    1    2    0    0 -0.18216600603E+03 -0.28708418118E+03  0.20328840528E+03  0.39614134816E+03  0.10566000000E+00 0.  1.
<mgrwt>
<rscale>  1 0.79652473E+03</rscale>
<asrwt>0</asrwt>
<pdfrwt beam="1">  1       21 0.33571522E+00 0.10578845E+04</pdfrwt>
<pdfrwt beam="2">  1       -4 0.37700484E-01 0.10578845E+04</pdfrwt>
<totfact> 0.43172750E+00</totfact>
</mgrwt>
</event>
<event>
 6    2  0.2321478E-005  0.1070555E+04  0.7818608E-02  0.9536375E-01
         21   -1    0    0  501  502  0.00000000000E+00  0.00000000000E+00  0.11853117996E+03  0.11853117996E+03  0.00000000000E+00 0. -1.
         -4   -1    0    0    0  501 -0.00000000000E+00 -0.00000000000E+00 -0.43947963460E+04  0.43947963460E+04  0.00000000000E+00 0. -1.
   -9000010    2    1    2    0  502  0.34303230922E+03  0.11663308571E+03 -0.29413392838E+04  0.31301060816E+04  0.10073792027E+04 0.  0.
         13    1    3    3    0    0  0.50988323800E+03 -0.26989567574E+03 -0.22309514392E+04  0.23043369822E+04  0.10566000000E+00 0. -1.
         -4    1    3    3    0  502 -0.16685092878E+03  0.38652876144E+03 -0.71038784460E+03  0.82576909945E+03  0.00000000000E+00 0. -1.
        -13    1    1    2    0    0 -0.34303230922E+03 -0.11663308571E+03 -0.13349258822E+04  0.13832214443E+04  0.10566000000E+00 0.  1.
<mgrwt>
<rscale>  1 0.81654320E+03</rscale>
<asrwt>0</asrwt>
<pdfrwt beam="1">  1       21 0.18235567E-01 0.10705547E+04</pdfrwt>
<pdfrwt beam="2">  1       -4 0.67612247E+00 0.10705547E+04</pdfrwt>
<totfact> 0.38310413E-02</totfact>
</mgrwt>
</event>
<event>
 6    2  0.2321478E-005  0.1043794E+04  0.7818608E-02  0.9635767E-01
         21   -1    0    0  501  502  0.00000000000E+00  0.00000000000E+00  0.38399023142E+03  0.38399023142E+03  0.00000000000E+00 0.  1.
         -4   -1    0    0    0  501 -0.00000000000E+00 -0.00000000000E+00 -0.11372666462E+04  0.11372666462E+04  0.00000000000E+00 0. -1.
   -9000010    2    1    2    0  502  0.26400251608E+03  0.86568603393E+02 -0.59029749815E+03  0.11991488367E+04  0.10061388297E+04 0.  0.
         13    1    3    3    0    0  0.51588049372E+03  0.31419688990E+03 -0.61080898035E+03  0.85903433637E+03  0.10566000000E+00 0. -1.
         -4    1    3    3    0  502 -0.25187797764E+03 -0.22762828651E+03  0.20511482201E+02  0.34011450034E+03  0.00000000000E+00 0. -1.
        -13    1    1    2    0    0 -0.26400251608E+03 -0.86568603393E+02 -0.16297891662E+03  0.32210804091E+03  0.10566000000E+00 0.  1.
<mgrwt>
<rscale>  1 0.74973431E+03</rscale>
<asrwt>0</asrwt>
<pdfrwt beam="1">  1       21 0.59075421E-01 0.10437944E+04</pdfrwt>
<pdfrwt beam="2">  1       -4 0.17496410E+00 0.10437944E+04</pdfrwt>
<totfact> 0.20262467E+01</totfact>
</mgrwt>
</event>
<event>
 6    2  0.2321478E-005  0.1008035E+04  0.7818608E-02  0.9799112E-01
         21   -1    0    0  501  502  0.00000000000E+00  0.00000000000E+00  0.22147832254E+03  0.22147832254E+03  0.00000000000E+00 0. -1.
         -4   -1    0    0    0  501 -0.00000000000E+00 -0.00000000000E+00 -0.16157546579E+04  0.16157546579E+04  0.00000000000E+00 0. -1.
   -9000010    2    1    2    0  502  0.85321027100E+02  0.15703015240E+03 -0.12604854435E+04  0.16139883605E+04  0.99206689698E+03 0.  0.
         13    1    3    3    0    0  0.37661661726E+03  0.42868885686E+03 -0.95309597731E+03  0.11108583013E+04  0.10566000000E+00 0. -1.
         -4    1    3    3    0  502 -0.29129559016E+03 -0.27165870446E+03 -0.30738946620E+03  0.50313005922E+03  0.00000000000E+00 0. -1.
        -13    1    1    2    0    0 -0.85321027100E+02 -0.15703015240E+03 -0.13379089183E+03  0.22324461993E+03  0.10566000000E+00 0.  1.
<mgrwt>
<rscale>  1 0.65410210E+03</rscale>
<asrwt>0</asrwt>
<pdfrwt beam="1">  1       21 0.34073588E-01 0.10080352E+04</pdfrwt>
<pdfrwt beam="2">  1       -4 0.24857764E+00 0.10080352E+04</pdfrwt>
<totfact> 0.21729052E+01</totfact>
</mgrwt>
</event>
<event>
 6    2  0.2321478E-005  0.1080500E+04  0.7818608E-02  0.9461607E-01
         -4   -1    0    0    0  501 -0.00000000000E+00  0.00000000000E+00  0.62049434710E+03  0.62049434710E+03  0.00000000000E+00 0. -1.
         21   -1    0    0  501  502  0.00000000000E+00 -0.00000000000E+00 -0.97498597306E+03  0.97498597306E+03  0.00000000000E+00 0. -1.
   -9000010    2    1    2    0  502 -0.31685744767E+03 -0.33044029254E+03 -0.13871100398E+03  0.10893669761E+04  0.97871867095E+03 0.  0.
         13    1    3    3    0    0 -0.41331682871E+03  0.25385487101E+03 -0.10448137644E+03  0.49617483372E+03  0.10566000000E+00 0. -1.
         -4    1    3    3    0  502  0.96459381045E+02 -0.58429516356E+03 -0.34229627537E+02  0.59319214235E+03  0.00000000000E+00 0. -1.
        -13    1    1    2    0    0  0.31685744767E+03  0.33044029254E+03 -0.21578062198E+03  0.50611334409E+03  0.10566000000E+00 0.  1.
<mgrwt>
<rscale>  1 0.87174552E+03</rscale>
<asrwt>0</asrwt>
<pdfrwt beam="2">  1       21 0.14999784E+00 0.10804997E+04</pdfrwt>
<pdfrwt beam="1">  1       -4 0.95460669E-01 0.10804997E+04</pdfrwt>
<totfact> 0.97396892E+00</totfact>
</mgrwt>
</event>
<event>
 6    2  0.2321478E-005  0.1122550E+04  0.7818608E-02  0.9612839E-01
         -4   -1    0    0    0  501 -0.00000000000E+00  0.00000000000E+00  0.11177645680E+04  0.11177645680E+04  0.00000000000E+00 0. -1.
         21   -1    0    0  501  502  0.00000000000E+00 -0.00000000000E+00 -0.45093307926E+03  0.45093307926E+03  0.00000000000E+00 0.  1.
   -9000010    2    1    2    0  502 -0.36513495010E+02  0.23873865432E+03  0.36134786144E+03  0.11792754624E+04  0.10962613551E+04 0.  0.
         13    1    3    3    0    0 -0.49784337869E+03  0.28702630842E+03  0.41993134239E+03  0.71174045474E+03  0.10566000000E+00 0. -1.
         -4    1    3    3    0  502  0.46132988368E+03 -0.48287654102E+02 -0.58583480948E+02  0.46753500762E+03  0.00000000000E+00 0. -1.
        -13    1    1    2    0    0  0.36513495010E+02 -0.23873865432E+03  0.30548362731E+03  0.38942218491E+03  0.10566000000E+00 0.  1.
<mgrwt>
<rscale>  1 0.76452234E+03</rscale>
<asrwt>0</asrwt>
<pdfrwt beam="2">  1       21 0.69374320E-01 0.11225499E+04</pdfrwt>
<pdfrwt beam="1">  1       -4 0.17196378E+00 0.11225499E+04</pdfrwt>
<totfact> 0.14696940E+01</totfact>
</mgrwt>
</event>
<event>
 6    2  0.2321478E-005  0.1037565E+04  0.7818608E-02  0.9657082E-01
         -4   -1    0    0    0  501 -0.00000000000E+00  0.00000000000E+00  0.65267063755E+03  0.65267063755E+03  0.00000000000E+00 0. -1.
         21   -1    0    0  501  502  0.00000000000E+00 -0.00000000000E+00 -0.66970644909E+03  0.66970644909E+03  0.00000000000E+00 0. -1.
   -9000010    2    1    2    0  502 -0.76016507832E+02  0.25192088235E+03 -0.10981340035E+03  0.10433603621E+04  0.10036429753E+04 0.  0.
         13    1    3    3    0    0 -0.22917157883E+03  0.15806950434E+03 -0.52318726240E+03  0.59264703108E+03  0.10566000000E+00 0. -1.
         -4    1    3    3    0  502  0.15315507100E+03  0.93851378005E+02  0.41337386205E+03  0.45071333102E+03  0.00000000000E+00 0. -1.
        -13    1    1    2    0    0  0.76016507832E+02 -0.25192088235E+03  0.92777588809E+02  0.27901672455E+03  0.10566000000E+00 0.  1.
<mgrwt>
<rscale>  1 0.73630595E+03</rscale>
<asrwt>0</asrwt>
<pdfrwt beam="2">  1       21 0.10303176E+00 0.10375654E+04</pdfrwt>
<pdfrwt beam="1">  1       -4 0.10041087E+00 0.10375654E+04</pdfrwt>
<totfact> 0.23288008E+01</totfact>
</mgrwt>
</event>
<event>
 6    2  0.2321478E-005  0.9958987E+03  0.7818608E-02  0.9736004E-01
         -4   -1    0    0    0  501 -0.00000000000E+00  0.00000000000E+00  0.30800286945E+03  0.30800286945E+03  0.00000000000E+00 0. -1.
         21   -1    0    0  501  502  0.00000000000E+00 -0.00000000000E+00 -0.12262340558E+04  0.12262340558E+04  0.00000000000E+00 0. -1.
   -9000010    2    1    2    0  502  0.17013018783E+03  0.15228052814E+03 -0.79809318676E+03  0.12762315180E+04  0.96937119452E+03 0.  0.
         13    1    3    3    0    0  0.45223117279E+03 -0.40471978718E+02 -0.81630768644E+03  0.93408204394E+03  0.10566000000E+00 0. -1.
         -4    1    3    3    0  502 -0.28210098496E+03  0.19275250686E+03  0.18214499680E+02  0.34214947408E+03  0.00000000000E+00 0. -1.
        -13    1    1    2    0    0 -0.17013018783E+03 -0.15228052814E+03 -0.12013799964E+03  0.25800540727E+03  0.10566000000E+00 0.  1.
<mgrwt>
<rscale>  1 0.68912996E+03</rscale>
<asrwt>0</asrwt>
<pdfrwt beam="2">  1       21 0.18865139E+00 0.99589867E+03</pdfrwt>
<pdfrwt beam="1">  1       -4 0.47385058E-01 0.99589867E+03</pdfrwt>
<totfact> 0.23961959E+01</totfact>
</mgrwt>
</event>
<event>
 6    2  0.2321478E-005  0.9912562E+03  0.7818608E-02  0.1005468E+00
         21   -1    0    0  501  502  0.00000000000E+00  0.00000000000E+00  0.21180609902E+04  0.21180609902E+04  0.00000000000E+00 0. -1.
         -4   -1    0    0    0  501 -0.00000000000E+00 -0.00000000000E+00 -0.26604105117E+03  0.26604105117E+03  0.00000000000E+00 0. -1.
   -9000010    2    1    2    0  502  0.79163591462E+02  0.24819802403E+02  0.19899342997E+04  0.22231570854E+04  0.98777832161E+03 0.  0.
         13    1    3    3    0    0  0.48612308633E+03 -0.12440023922E+03  0.14271765905E+04  0.15128199186E+04  0.10566000000E+00 0. -1.
         -4    1    3    3    0  502 -0.40695949487E+03  0.14922004163E+03  0.56275770919E+03  0.71033716681E+03  0.00000000000E+00 0. -1.
        -13    1    1    2    0    0 -0.79163591462E+02 -0.24819802403E+02 -0.13791436066E+03  0.16094495594E+03  0.10566000000E+00 0.  1.
<mgrwt>
<rscale>  1 0.53316415E+03</rscale>
<asrwt>0</asrwt>
<pdfrwt beam="1">  1       21 0.32585553E+00 0.99125623E+03</pdfrwt>
<pdfrwt beam="2">  1       -4 0.40929394E-01 0.99125623E+03</pdfrwt>
<totfact> 0.42639701E+00</totfact>
</mgrwt>
</event>
<event>
 6    2  0.2321478E-005  0.1124995E+04  0.7818608E-02  0.9740399E-01
         -4   -1    0    0    0  501 -0.00000000000E+00  0.00000000000E+00  0.31653482527E+03  0.31653482527E+03  0.00000000000E+00 0. -1.
         21   -1    0    0  501  502  0.00000000000E+00 -0.00000000000E+00 -0.15588815818E+04  0.15588815818E+04  0.00000000000E+00 0. -1.
   -9000010    2    1    2    0  502  0.11215964473E+02 -0.15569644616E+03 -0.12905384952E+04  0.17120467770E+04  0.11141128209E+04 0.  0.
         13    1    3    3    0    0  0.14923742961E+03  0.43947475490E+03 -0.81476020537E+03  0.93768015550E+03  0.10566000000E+00 0. -1.
         -4    1    3    3    0  502 -0.13802146514E+03 -0.59517120105E+03 -0.47577828982E+03  0.77436662148E+03  0.00000000000E+00 0. -1.
        -13    1    1    2    0    0 -0.11215964473E+02  0.15569644616E+03  0.48191738655E+02  0.16336963011E+03  0.10566000000E+00 0.  1.
<mgrwt>
<rscale>  1 0.68661571E+03</rscale>
<asrwt>0</asrwt>
<pdfrwt beam="2">  1       21 0.23982794E+00 0.11249954E+04</pdfrwt>
<pdfrwt beam="1">  1       -4 0.48697665E-01 0.11249954E+04</pdfrwt>
<totfact> 0.10092421E+01</totfact>
</mgrwt>
</event>
<event>
 6    2  0.2321478E-005  0.9984578E+03  0.7818608E-02  0.1024083E+00
         21   -1    0    0  501  502  0.00000000000E+00  0.00000000000E+00  0.84747258032E+03  0.84747258032E+03  0.00000000000E+00 0. -1.
         -4   -1    0    0    0  501 -0.00000000000E+00 -0.00000000000E+00 -0.35435330866E+03  0.35435330866E+03  0.00000000000E+00 0. -1.
   -9000010    2    1    2    0  502 -0.38508511910E+02  0.25041651704E+02  0.54089060376E+03  0.11355529598E+04  0.99740056619E+03 0.  0.
         13    1    3    3    0    0  0.20924833656E+03  0.11023067946E+02 -0.23858118248E+03  0.31753325208E+03  0.10566000000E+00 0. -1.
         -4    1    3    3    0  502 -0.24775684847E+03  0.14018583759E+02  0.77947178624E+03  0.81801970771E+03  0.00000000000E+00 0. -1.
        -13    1    1    2    0    0  0.38508511910E+02 -0.25041651704E+02 -0.47771332100E+02  0.66272929196E+02  0.10566000000E+00 0.  1.
<mgrwt>
<rscale>  1 0.46241573E+03</rscale>
<asrwt>0</asrwt>
<pdfrwt beam="1">  1       21 0.13038040E+00 0.99845775E+03</pdfrwt>
<pdfrwt beam="2">  1       -4 0.54515894E-01 0.99845775E+03</pdfrwt>
<totfact> 0.50940440E+01</totfact>
</mgrwt>
</event>
<event>
 6    2  0.2321478E-005  0.1001572E+04  0.7818608E-02  0.9735211E-01
         -4   -1    0    0    0  501 -0.00000000000E+00  0.00000000000E+00  0.48234996649E+03  0.48234996649E+03  0.00000000000E+00 0. -1.
         21   -1    0    0  501  502  0.00000000000E+00 -0.00000000000E+00 -0.83672582326E+03  0.83672582326E+03  0.00000000000E+00 0. -1.
   -9000010    2    1    2    0  502 -0.71025569092E+02  0.21356225138E+03 -0.41783949572E+03  0.10852358631E+04  0.97595776940E+03 0.  0.
         13    1    3    3    0    0 -0.22754247893E+03  0.30603788678E+03 -0.67204812755E+03  0.77271176047E+03  0.10566000000E+00 0. -1.
         -4    1    3    3    0  502  0.15651690983E+03 -0.92475635406E+02  0.25420863184E+03  0.31252410260E+03  0.00000000000E+00 0. -1.
        -13    1    1    2    0    0  0.71025569092E+02 -0.21356225138E+03  0.63463638946E+02  0.23383992668E+03  0.10566000000E+00 0.  1.
<mgrwt>
<rscale>  1 0.68958512E+03</rscale>
<asrwt>0</asrwt>
<pdfrwt beam="2">  1       21 0.12872705E+00 0.10015723E+04</pdfrwt>
<pdfrwt beam="1">  1       -4 0.74207689E-01 0.10015723E+04</pdfrwt>
<totfact> 0.26719176E+01</totfact>
</mgrwt>
</event>
<event>
 6    2  0.2321478E-005  0.1008158E+04  0.7818608E-02  0.9816340E-01
         -4   -1    0    0    0  501 -0.00000000000E+00  0.00000000000E+00  0.87948967220E+03  0.87948967220E+03  0.00000000000E+00 0. -1.
         21   -1    0    0  501  502  0.00000000000E+00 -0.00000000000E+00 -0.39403472394E+03  0.39403472394E+03  0.00000000000E+00 0. -1.
   -9000010    2    1    2    0  502 -0.10269793559E+03  0.13400992806E+03  0.40443103207E+03  0.10862534348E+04  0.99391978457E+03 0.  0.
         13    1    3    3    0    0  0.24135070960E+03 -0.26321082005E+03  0.43143199271E+03  0.56005685096E+03  0.10566000000E+00 0. -1.
         -4    1    3    3    0  502 -0.34404864519E+03  0.39722074811E+03 -0.27000960645E+02  0.52619658386E+03  0.00000000000E+00 0. -1.
        -13    1    1    2    0    0  0.10269793559E+03 -0.13400992806E+03  0.81023916188E+02  0.18727096132E+03  0.10566000000E+00 0.  1.
<mgrwt>
<rscale>  1 0.64492992E+03</rscale>
<asrwt>0</asrwt>
<pdfrwt beam="2">  1       21 0.60620727E-01 0.10081578E+04</pdfrwt>
<pdfrwt beam="1">  1       -4 0.13530610E+00 0.10081578E+04</pdfrwt>
<totfact> 0.38596983E+01</totfact>
</mgrwt>
</event>
<event>
 6    2  0.2321478E-005  0.1038931E+04  0.7818608E-02  0.9665682E-01
         21   -1    0    0  501  502  0.00000000000E+00  0.00000000000E+00  0.22382177129E+04  0.22382177129E+04  0.00000000000E+00 0. -1.
         -4   -1    0    0    0  501 -0.00000000000E+00 -0.00000000000E+00 -0.19095528959E+03  0.19095528959E+03  0.00000000000E+00 0. -1.
   -9000010    2    1    2    0  502 -0.25377144617E+03  0.20436282091E+02  0.17728937921E+04  0.20548793404E+04  0.10072532537E+04 0.  0.
         13    1    3    3    0    0  0.34829180892E+03 -0.14800665501E+03  0.94106768545E+03  0.10143084116E+04  0.10566000000E+00 0. -1.
         -4    1    3    3    0  502 -0.60206325509E+03  0.16844293710E+03  0.83182610664E+03  0.10405709288E+04  0.00000000000E+00 0. -1.
        -13    1    1    2    0    0  0.25377144617E+03 -0.20436282091E+02  0.27436863126E+03  0.37429366212E+03  0.10566000000E+00 0.  1.
<mgrwt>
<rscale>  1 0.73097329E+03</rscale>
<asrwt>0</asrwt>
<pdfrwt beam="1">  1       21 0.34434117E+00 0.10389306E+04</pdfrwt>
<pdfrwt beam="2">  1       -4 0.29377738E-01 0.10389306E+04</pdfrwt>
<totfact> 0.62755891E+00</totfact>
</mgrwt>
</event>
<event>
 6    2  0.2321478E-005  0.9920271E+03  0.7818608E-02  0.1007786E+00
         -4   -1    0    0    0  501 -0.00000000000E+00  0.00000000000E+00  0.69591164422E+03  0.69591164422E+03  0.00000000000E+00 0. -1.
         21   -1    0    0  501  502  0.00000000000E+00 -0.00000000000E+00 -0.41884645625E+03  0.41884645625E+03  0.00000000000E+00 0. -1.
   -9000010    2    1    2    0  502  0.31646006504E+02 -0.70211012227E+02  0.29638963892E+03  0.10353572092E+04  0.98903320299E+03 0.  0.
         13    1    3    3    0    0 -0.43258470810E+03 -0.16655624275E+03 -0.22307221833E+02  0.46407772516E+03  0.10566000000E+00 0. -1.
         -4    1    3    3    0  502  0.46423071461E+03  0.96345230520E+02  0.31869686075E+03  0.57127948403E+03  0.00000000000E+00 0. -1.
        -13    1    1    2    0    0 -0.31646006504E+02  0.70211012227E+02 -0.19324450946E+02  0.79400891267E+02  0.10566000000E+00 0.  1.
<mgrwt>
<rscale>  1 0.52364180E+03</rscale>
<asrwt>0</asrwt>
<pdfrwt beam="2">  1       21 0.64437916E-01 0.99202708E+03</pdfrwt>
<pdfrwt beam="1">  1       -4 0.10706333E+00 0.99202708E+03</pdfrwt>
<totfact> 0.60751559E+01</totfact>
</mgrwt>
</event>
<event>
 6    2  0.2321478E-005  0.1280616E+04  0.7818608E-02  0.9164304E-01
         -4   -1    0    0    0  501 -0.00000000000E+00  0.00000000000E+00  0.20261057587E+04  0.20261057587E+04  0.00000000000E+00 0. -1.
         21   -1    0    0  501  502  0.00000000000E+00 -0.00000000000E+00 -0.54580075354E+03  0.54580075354E+03  0.00000000000E+00 0.  1.
   -9000010    2    1    2    0  502 -0.41415397781E+03  0.69911430883E+03  0.10261501843E+04  0.16410247009E+04  0.98979469300E+03 0.  0.
         13    1    3    3    0    0  0.29784686301E+03  0.11113019122E+03  0.10016683151E+03  0.33331078366E+03  0.10566000000E+00 0. -1.
         -4    1    3    3    0  502 -0.71200084081E+03  0.58798411760E+03  0.92598335275E+03  0.13077139173E+04  0.00000000000E+00 0. -1.
        -13    1    1    2    0    0  0.41415397781E+03 -0.69911430883E+03  0.45415482095E+03  0.93088181135E+03  0.10566000000E+00 0.  1.
<mgrwt>
<rscale>  1 0.11429591E+04</rscale>
<asrwt>0</asrwt>
<pdfrwt beam="2">  1       21 0.83969348E-01 0.12806162E+04</pdfrwt>
<pdfrwt beam="1">  1       -4 0.31170857E+00 0.12806162E+04</pdfrwt>
<totfact> 0.11735666E+00</totfact>
</mgrwt>
</event>
<event>
 6    2  0.2321478E-005  0.9884415E+03  0.7818608E-02  0.9585068E-01
         -4   -1    0    0    0  501 -0.00000000000E+00  0.00000000000E+00  0.12345939630E+04  0.12345939630E+04  0.00000000000E+00 0. -1.
         21   -1    0    0  501  502  0.00000000000E+00 -0.00000000000E+00 -0.48567548449E+03  0.48567548449E+03  0.00000000000E+00 0. -1.
   -9000010    2    1    2    0  502 -0.31389455959E+03  0.22987855647E+03  0.14091310315E+03  0.99843533018E+03  0.90864881041E+03 0.  0.
         13    1    3    3    0    0  0.22052730114E+03  0.77006739957E+02 -0.23188594396E+03  0.32914044223E+03  0.10566000000E+00 0. -1.
         -4    1    3    3    0  502 -0.53442186073E+03  0.15287181651E+03  0.37279904711E+03  0.66929488795E+03  0.00000000000E+00 0. -1.
        -13    1    1    2    0    0  0.31389455959E+03 -0.22987855647E+03  0.60800537532E+03  0.72183411726E+03  0.10566000000E+00 0.  1.
<mgrwt>
<rscale>  1 0.78292403E+03</rscale>
<asrwt>0</asrwt>
<pdfrwt beam="2">  1       21 0.74719306E-01 0.98844150E+03</pdfrwt>
<pdfrwt beam="1">  1       -4 0.18993753E+00 0.98844150E+03</pdfrwt>
<totfact> 0.94139610E+00</totfact>
</mgrwt>
</event>
<event>
 6    2  0.2321478E-005  0.1035084E+04  0.7818608E-02  0.9593973E-01
         -4   -1    0    0    0  501 -0.00000000000E+00  0.00000000000E+00  0.15437034071E+04  0.15437034071E+04  0.00000000000E+00 0. -1.
         21   -1    0    0  501  502  0.00000000000E+00 -0.00000000000E+00 -0.30117363631E+03  0.30117363631E+03  0.00000000000E+00 0. -1.
   -9000010    2    1    2    0  502  0.27187151835E+03  0.18457423882E+03  0.93943892581E+03  0.13978358332E+04  0.98153846036E+03 0.  0.
         13    1    3    3    0    0  0.56406668849E+03 -0.14177287607E+03  0.65297532508E+03  0.87444128664E+03  0.10566000000E+00 0. -1.
         -4    1    3    3    0  502 -0.29219517014E+03  0.32634711488E+03  0.28646360073E+03  0.52339454658E+03  0.00000000000E+00 0. -1.
        -13    1    1    2    0    0 -0.27187151835E+03 -0.18457423882E+03  0.30309084495E+03  0.44704121016E+03  0.10566000000E+00 0.  1.
<mgrwt>
<rscale>  1 0.77696348E+03</rscale>
<asrwt>0</asrwt>
<pdfrwt beam="2">  1       21 0.46334407E-01 0.10350843E+04</pdfrwt>
<pdfrwt beam="1">  1       -4 0.23749283E+00 0.10350843E+04</pdfrwt>
<totfact> 0.13345958E+01</totfact>
</mgrwt>
</event>
<event>
 6    2  0.2321478E-005  0.9993451E+03  0.7818608E-02  0.1021613E+00
         21   -1    0    0  501  502  0.00000000000E+00  0.00000000000E+00  0.71883748807E+03  0.71883748807E+03  0.00000000000E+00 0. -1.
         -4   -1    0    0    0  501 -0.00000000000E+00 -0.00000000000E+00 -0.44061242221E+03  0.44061242221E+03  0.00000000000E+00 0. -1.
   -9000010    2    1    2    0  502 -0.91314860700E+01  0.48496027978E+02  0.36144309106E+03  0.10627002351E+04  0.99812596039E+03 0.  0.
         13    1    3    3    0    0 -0.18168887539E+03  0.47497063530E+03  0.58579189704E+02  0.51189792387E+03  0.10566000000E+00 0. -1.
         -4    1    3    3    0  502  0.17255738932E+03 -0.42647460732E+03  0.30286390136E+03  0.55080231122E+03  0.00000000000E+00 0. -1.
        -13    1    1    2    0    0  0.91314860700E+01 -0.48496027978E+02 -0.83218025198E+02  0.96749675190E+02  0.10566000000E+00 0.  1.
<mgrwt>
<rscale>  1 0.47109098E+03</rscale>
<asrwt>0</asrwt>
<pdfrwt beam="1">  1       21 0.11059038E+00 0.99934513E+03</pdfrwt>
<pdfrwt beam="2">  1       -4 0.67786527E-01 0.99934513E+03</pdfrwt>
<totfact> 0.48532225E+01</totfact>
</mgrwt>
</event>
<event>
 6    2  0.2321478E-005  0.1139370E+04  0.7818608E-02  0.9369558E-01
         21   -1    0    0  501  502  0.00000000000E+00  0.00000000000E+00  0.75865320674E+03  0.75865320674E+03  0.00000000000E+00 0. -1.
         -4   -1    0    0    0  501 -0.00000000000E+00 -0.00000000000E+00 -0.98632587183E+03  0.98632587183E+03  0.00000000000E+00 0. -1.
   -9000010    2    1    2    0  502  0.40297173958E+03 -0.36247794328E+03 -0.34491399629E+03  0.11904323960E+04  0.10021911705E+04 0.  0.
         13    1    3    3    0    0  0.25796210695E+03 -0.64889486043E+03 -0.47447962034E+03  0.84423924914E+03  0.10566000000E+00 0. -1.
         -4    1    3    3    0  502  0.14500963263E+03  0.28641691715E+03  0.12956562406E+03  0.34619314684E+03  0.00000000000E+00 0. -1.
        -13    1    1    2    0    0 -0.40297173958E+03  0.36247794328E+03  0.11724133119E+03  0.55454668259E+03  0.10566000000E+00 0.  1.
<mgrwt>
<rscale>  1 0.94623874E+03</rscale>
<asrwt>0</asrwt>
<pdfrwt beam="1">  1       21 0.11671588E+00 0.11393698E+04</pdfrwt>
<pdfrwt beam="2">  1       -4 0.15174244E+00 0.11393698E+04</pdfrwt>
<totfact> 0.58712569E+00</totfact>
</mgrwt>
</event>
<event>
 6    2  0.2321478E-005  0.1006103E+04  0.7818608E-02  0.1004828E+00
         -4   -1    0    0    0  501 -0.00000000000E+00  0.00000000000E+00  0.50824483457E+03  0.50824483457E+03  0.00000000000E+00 0. -1.
         21   -1    0    0  501  502  0.00000000000E+00 -0.00000000000E+00 -0.61203429750E+03  0.61203429750E+03  0.00000000000E+00 0. -1.
   -9000010    2    1    2    0  502 -0.66652851664E+02 -0.45925299039E+02 -0.23658719984E+02  0.10063814462E+04  0.10028420336E+04 0.  0.
         13    1    3    3    0    0 -0.21324955923E+03  0.72447246564E+02 -0.47039680779E+03  0.52153345625E+03  0.10566000000E+00 0. -1.
         -4    1    3    3    0  502  0.14659670757E+03 -0.11837254560E+03  0.44673808781E+03  0.48484798991E+03  0.00000000000E+00 0. -1.
        -13    1    1    2    0    0  0.66652851664E+02  0.45925299039E+02 -0.80130742951E+02  0.11389768591E+03  0.10566000000E+00 0.  1.
<mgrwt>
<rscale>  1 0.53582951E+03</rscale>
<asrwt>0</asrwt>
<pdfrwt beam="2">  1       21 0.94159122E-01 0.10061033E+04</pdfrwt>
<pdfrwt beam="1">  1       -4 0.78191514E-01 0.10061033E+04</pdfrwt>
<totfact> 0.52468394E+01</totfact>
</mgrwt>
</event>
<event>
 6    2  0.2321478E-005  0.1096558E+04  0.7818608E-02  0.1000490E+00
         21   -1    0    0  501  502  0.00000000000E+00  0.00000000000E+00  0.43590619054E+03  0.43590619054E+03  0.00000000000E+00 0. -1.
         -4   -1    0    0    0  501 -0.00000000000E+00 -0.00000000000E+00 -0.10956235822E+04  0.10956235822E+04  0.00000000000E+00 0. -1.
   -9000010    2    1    2    0  502  0.44661804337E+02  0.55996731519E+02 -0.26201182696E+03  0.11274257786E+04  0.10942158736E+04 0.  0.
         13    1    3    3    0    0 -0.30224154547E+03  0.41195470019E+03 -0.35447483504E+03  0.62185934636E+03  0.10566000000E+00 0. -1.
         -4    1    3    3    0  502  0.34690334980E+03 -0.35595796867E+03  0.92463008078E+02  0.50556643226E+03  0.00000000000E+00 0. -1.
        -13    1    1    2    0    0 -0.44661804337E+02 -0.55996731519E+02 -0.39770556468E+03  0.40410399410E+03  0.10566000000E+00 0.  1.
<mgrwt>
<rscale>  1 0.55435974E+03</rscale>
<asrwt>0</asrwt>
<pdfrwt beam="1">  1       21 0.67062490E-01 0.10965577E+04</pdfrwt>
<pdfrwt beam="2">  1       -4 0.16855748E+00 0.10965577E+04</pdfrwt>
<totfact> 0.16844561E+01</totfact>
</mgrwt>
</event>
<event>
 6    2  0.2321478E-005  0.1207665E+04  0.7818608E-02  0.9259241E-01
         21   -1    0    0  501  502  0.00000000000E+00  0.00000000000E+00  0.11159198365E+04  0.11159198365E+04  0.00000000000E+00 0.  1.
         -4   -1    0    0    0  501 -0.00000000000E+00 -0.00000000000E+00 -0.80960989515E+03  0.80960989515E+03  0.00000000000E+00 0. -1.
   -9000010    2    1    2    0  502 -0.52031070606E+03  0.43821285362E+03  0.30369287091E+03  0.12452646391E+04  0.99784814755E+03 0.  0.
         13    1    3    3    0    0 -0.43262161109E+01 -0.66976520795E+01 -0.32088878201E+03  0.32098784443E+03  0.10566000000E+00 0. -1.
         -4    1    3    3    0  502 -0.51598448995E+03  0.44491050570E+03  0.62458165292E+03  0.92427679464E+03  0.00000000000E+00 0. -1.
        -13    1    1    2    0    0  0.52031070606E+03 -0.43821285362E+03  0.26170704289E+01  0.68026509255E+03  0.10566000000E+00 0.  1.
<mgrwt>
<rscale>  1 0.10462334E+04</rscale>
<asrwt>0</asrwt>
<pdfrwt beam="1">  1       21 0.17167997E+00 0.12076650E+04</pdfrwt>
<pdfrwt beam="2">  1       -4 0.12455537E+00 0.12076650E+04</pdfrwt>
<totfact> 0.33786685E+00</totfact>
</mgrwt>
</event>
<event>
 6    2  0.2321478E-005  0.1036907E+04  0.7818608E-02  0.9655825E-01
         -4   -1    0    0    0  501 -0.00000000000E+00  0.00000000000E+00  0.59745943368E+03  0.59745943368E+03  0.00000000000E+00 0. -1.
         21   -1    0    0  501  502  0.00000000000E+00 -0.00000000000E+00 -0.72561643814E+03  0.72561643814E+03  0.00000000000E+00 0. -1.
   -9000010    2    1    2    0  502  0.10149158970E+03  0.24454066055E+03 -0.18235571188E+03  0.10528200884E+04  0.10025347153E+04 0.  0.
         13    1    3    3    0    0  0.17319325837E+03  0.85394781502E+02  0.40037440567E+03  0.44450854810E+03  0.10566000000E+00 0. -1.
         -4    1    3    3    0  502 -0.71701668676E+02  0.15914587905E+03 -0.58273011755E+03  0.60831154026E+03  0.00000000000E+00 0. -1.
        -13    1    1    2    0    0 -0.10149158970E+03 -0.24454066055E+03  0.54198707429E+02  0.27025578346E+03  0.10566000000E+00 0.  1.
<mgrwt>
<rscale>  1 0.73708946E+03</rscale>
<asrwt>0</asrwt>
<pdfrwt beam="2">  1       21 0.11163330E+00 0.10369072E+04</pdfrwt>
<pdfrwt beam="1">  1       -4 0.91916836E-01 0.10369072E+04</pdfrwt>
<totfact> 0.23492576E+01</totfact>
</mgrwt>
</event>
<event>
 6    2  0.2321478E-005  0.1006223E+04  0.7818608E-02  0.9816389E-01
         -4   -1    0    0    0  501 -0.00000000000E+00  0.00000000000E+00  0.45771517793E+03  0.45771517793E+03  0.00000000000E+00 0. -1.
         21   -1    0    0  501  502  0.00000000000E+00 -0.00000000000E+00 -0.12150291228E+04  0.12150291228E+04  0.00000000000E+00 0. -1.
   -9000010    2    1    2    0  502 -0.73314723145E+02 -0.15313865846E+03 -0.97200731651E+03  0.13990295727E+04  0.99179585827E+03 0.  0.
         13    1    3    3    0    0  0.37812218663E+03 -0.10356530239E+03 -0.83855665048E+03  0.92567782037E+03  0.10566000000E+00 0. -1.
         -4    1    3    3    0  502 -0.45143690978E+03 -0.49573356074E+02 -0.13345066603E+03  0.47335175230E+03  0.00000000000E+00 0. -1.
        -13    1    1    2    0    0  0.73314723145E+02  0.15313865846E+03  0.21469337166E+03  0.27371472804E+03  0.10566000000E+00 0.  1.
<mgrwt>
<rscale>  1 0.64490362E+03</rscale>
<asrwt>0</asrwt>
<pdfrwt beam="2">  1       21 0.18692756E+00 0.10062234E+04</pdfrwt>
<pdfrwt beam="1">  1       -4 0.70417720E-01 0.10062234E+04</pdfrwt>
<totfact> 0.10441716E+01</totfact>
</mgrwt>
</event>
<event>
 6    2  0.2321478E-005  0.9670109E+03  0.7818608E-02  0.9792869E-01
         21   -1    0    0  501  502  0.00000000000E+00  0.00000000000E+00  0.55075180369E+03  0.55075180369E+03  0.00000000000E+00 0. -1.
         -4   -1    0    0    0  501 -0.00000000000E+00 -0.00000000000E+00 -0.67294839545E+03  0.67294839545E+03  0.00000000000E+00 0. -1.
   -9000010    2    1    2    0  502 -0.13932731720E+03 -0.15259502678E+03  0.29341377752E+02  0.96745595845E+03  0.94467601408E+03 0.  0.
         13    1    3    3    0    0  0.26542518724E+03  0.27216404265E+03  0.19111434944E+02  0.38064294850E+03  0.10566000000E+00 0. -1.
         -4    1    3    3    0  502 -0.40475250444E+03 -0.42475906944E+03  0.10229942808E+02  0.58681300995E+03  0.00000000000E+00 0. -1.
        -13    1    1    2    0    0  0.13932731720E+03  0.15259502678E+03 -0.15153796951E+03  0.25624424069E+03  0.10566000000E+00 0.  1.
<mgrwt>
<rscale>  1 0.65746654E+03</rscale>
<asrwt>0</asrwt>
<pdfrwt beam="1">  1       21 0.84731047E-01 0.96701092E+03</pdfrwt>
<pdfrwt beam="2">  1       -4 0.10353052E+00 0.96701092E+03</pdfrwt>
<totfact> 0.35052133E+01</totfact>
</mgrwt>
</event>
<event>
 6    2  0.2321478E-005  0.1028689E+04  0.7818608E-02  0.9691472E-01
         -4   -1    0    0    0  501 -0.00000000000E+00  0.00000000000E+00  0.13029080157E+04  0.13029080157E+04  0.00000000000E+00 0. -1.
         21   -1    0    0  501  502  0.00000000000E+00 -0.00000000000E+00 -0.44110281269E+03  0.44110281269E+03  0.00000000000E+00 0. -1.
   -9000010    2    1    2    0  502  0.86170139082E+02  0.22447862477E+03  0.21086253523E+03  0.10500783290E+04  0.10001927526E+04 0.  0.
         13    1    3    3    0    0  0.20384365272E+03  0.45910583980E+03 -0.21774138544E+03  0.54748673864E+03  0.10566000000E+00 0. -1.
         -4    1    3    3    0  502 -0.11767351363E+03 -0.23462721503E+03  0.42860392068E+03  0.50259159032E+03  0.00000000000E+00 0. -1.
        -13    1    1    2    0    0 -0.86170139082E+02 -0.22447862477E+03  0.65094266776E+03  0.69393249940E+03  0.10566000000E+00 0.  1.
<mgrwt>
<rscale>  1 0.71526851E+03</rscale>
<asrwt>0</asrwt>
<pdfrwt beam="2">  1       21 0.67861972E-01 0.10286892E+04</pdfrwt>
<pdfrwt beam="1">  1       -4 0.20044738E+00 0.10286892E+04</pdfrwt>
<totfact> 0.99420766E+00</totfact>
</mgrwt>
</event>
<event>
 6    2  0.2321478E-005  0.1010188E+04  0.7818608E-02  0.9926839E-01
         -4   -1    0    0    0  501 -0.00000000000E+00  0.00000000000E+00  0.27016424636E+03  0.27016424636E+03  0.00000000000E+00 0. -1.
         21   -1    0    0  501  502  0.00000000000E+00 -0.00000000000E+00 -0.12115961174E+04  0.12115961174E+04  0.00000000000E+00 0. -1.
   -9000010    2    1    2    0  502  0.11736426168E+03 -0.10471421148E+01 -0.75376241518E+03  0.12604115389E+04  0.10033464020E+04 0.  0.
         13    1    3    3    0    0  0.40824120567E+02 -0.49067446235E+03 -0.24418991757E+03  0.54959691032E+03  0.10566000000E+00 0. -1.
         -4    1    3    3    0  502  0.76540141114E+02  0.48962732024E+03 -0.50957249761E+03  0.71081462861E+03  0.00000000000E+00 0. -1.
        -13    1    1    2    0    0 -0.11736426168E+03  0.10471421148E+01 -0.18766945582E+03  0.22134882480E+03  0.10566000000E+00 0.  1.
<mgrwt>
<rscale>  1 0.58977993E+03</rscale>
<asrwt>0</asrwt>
<pdfrwt beam="2">  1       21 0.18639940E+00 0.10101878E+04</pdfrwt>
<pdfrwt beam="1">  1       -4 0.41563730E-01 0.10101878E+04</pdfrwt>
<totfact> 0.32561696E+01</totfact>
</mgrwt>
</event>
<event>
 6    2  0.2321478E-005  0.1125172E+04  0.7818608E-02  0.9370367E-01
         21   -1    0    0  501  502  0.00000000000E+00  0.00000000000E+00  0.26729749150E+03  0.26729749150E+03  0.00000000000E+00 0.  1.
         -4   -1    0    0    0  501 -0.00000000000E+00 -0.00000000000E+00 -0.26615693005E+04  0.26615693005E+04  0.00000000000E+00 0. -1.
   -9000010    2    1    2    0  502  0.33414016290E+03  0.45082532647E+03 -0.15603912936E+04  0.19237549333E+04  0.97525326487E+03 0.  0.
         13    1    3    3    0    0  0.33244493633E+02  0.70907670587E+03 -0.82569630676E+03  0.10888844628E+04  0.10566000000E+00 0. -1.
         -4    1    3    3    0  502  0.30089566927E+03 -0.25825137940E+03 -0.73469498687E+03  0.83487047048E+03  0.00000000000E+00 0. -1.
        -13    1    1    2    0    0 -0.33414016290E+03 -0.45082532647E+03 -0.83388051534E+03  0.10051118587E+04  0.10566000000E+00 0.  1.
<mgrwt>
<rscale>  1 0.94555020E+03</rscale>
<asrwt>0</asrwt>
<pdfrwt beam="1">  1       21 0.41122690E-01 0.11251720E+04</pdfrwt>
<pdfrwt beam="2">  1       -4 0.40947221E+00 0.11251720E+04</pdfrwt>
<totfact> 0.13368023E+00</totfact>
</mgrwt>
</event>
<event>
 6    2  0.2321478E-005  0.1103903E+04  0.7818608E-02  0.9428048E-01
         -4   -1    0    0    0  501 -0.00000000000E+00  0.00000000000E+00  0.61491163428E+03  0.61491163428E+03  0.00000000000E+00 0. -1.
         21   -1    0    0  501  502  0.00000000000E+00 -0.00000000000E+00 -0.11633319795E+04  0.11633319795E+04  0.00000000000E+00 0. -1.
   -9000010    2    1    2    0  502 -0.34767554577E+03  0.33595531379E+03 -0.82780077978E+02  0.11070021314E+04  0.99239957662E+03 0.  0.
         13    1    3    3    0    0  0.40335649951E+02 -0.21234592567E+03 -0.32725520953E+03  0.39219094856E+03  0.10566000000E+00 0. -1.
         -4    1    3    3    0  502 -0.38801119572E+03  0.54830123946E+03  0.24447513155E+03  0.71481118286E+03  0.00000000000E+00 0. -1.
        -13    1    1    2    0    0  0.34767554577E+03 -0.33595531379E+03 -0.46564026723E+03  0.67124148234E+03  0.10566000000E+00 0.  1.
<mgrwt>
<rscale>  1 0.89802985E+03</rscale>
<asrwt>0</asrwt>
<pdfrwt beam="2">  1       21 0.17897415E+00 0.11039027E+04</pdfrwt>
<pdfrwt beam="1">  1       -4 0.94601790E-01 0.11039027E+04</pdfrwt>
<totfact> 0.59509255E+00</totfact>
</mgrwt>
</event>
<event>
 6    2  0.2321478E-005  0.9864043E+03  0.7818608E-02  0.9856098E-01
         21   -1    0    0  501  502  0.00000000000E+00  0.00000000000E+00  0.11001205999E+04  0.11001205999E+04  0.00000000000E+00 0. -1.
         -4   -1    0    0    0  501 -0.00000000000E+00 -0.00000000000E+00 -0.54793945469E+03  0.54793945469E+03  0.00000000000E+00 0. -1.
   -9000010    2    1    2    0  502  0.14983993820E+03 -0.51194877701E+02  0.85562280300E+03  0.13057885638E+04  0.97361207355E+03 0.  0.
         13    1    3    3    0    0  0.46259262616E+02 -0.45586820742E+03  0.14343141508E+03  0.48013365213E+03  0.10566000000E+00 0. -1.
         -4    1    3    3    0  502  0.10358067558E+03  0.40467332972E+03  0.71219138792E+03  0.82565491167E+03  0.00000000000E+00 0. -1.
        -13    1    1    2    0    0 -0.14983993820E+03  0.51194877701E+02 -0.30344165777E+03  0.34227149080E+03  0.10566000000E+00 0.  1.
<mgrwt>
<rscale>  1 0.62436975E+03</rscale>
<asrwt>0</asrwt>
<pdfrwt beam="1">  1       21 0.16924932E+00 0.98640427E+03</pdfrwt>
<pdfrwt beam="2">  1       -4 0.84298378E-01 0.98640427E+03</pdfrwt>
<totfact> 0.93472015E+00</totfact>
</mgrwt>
</event>
<event>
 6    2  0.2321478E-005  0.1054425E+04  0.7818608E-02  0.9577159E-01
         -4   -1    0    0    0  501 -0.00000000000E+00  0.00000000000E+00  0.60500287583E+03  0.60500287583E+03  0.00000000000E+00 0. -1.
         21   -1    0    0  501  502  0.00000000000E+00 -0.00000000000E+00 -0.81858635230E+03  0.81858635230E+03  0.00000000000E+00 0. -1.
   -9000010    2    1    2    0  502 -0.60093632940E+02 -0.32381035682E+03 -0.27239220199E+03  0.10890404734E+04  0.10016722264E+04 0.  0.
         13    1    3    3    0    0  0.39760207144E+03 -0.42861795385E+03 -0.13938740976E+03  0.60102380880E+03  0.10566000000E+00 0. -1.
         -4    1    3    3    0  502 -0.45769570438E+03  0.10480759703E+03 -0.13300479222E+03  0.48801666464E+03  0.00000000000E+00 0. -1.
        -13    1    1    2    0    0  0.60093632940E+02  0.32381035682E+03  0.58808725516E+02  0.33454875469E+03  0.10566000000E+00 0.  1.
<mgrwt>
<rscale>  1 0.78826567E+03</rscale>
<asrwt>0</asrwt>
<pdfrwt beam="2">  1       21 0.12593636E+00 0.10544248E+04</pdfrwt>
<pdfrwt beam="1">  1       -4 0.93077366E-01 0.10544248E+04</pdfrwt>
<totfact> 0.16662638E+01</totfact>
</mgrwt>
</event>
<event>
 6    2  0.2321478E-005  0.1016233E+04  0.7818608E-02  0.1014760E+00
         -4   -1    0    0    0  501 -0.00000000000E+00  0.00000000000E+00  0.12791896236E+03  0.12791896236E+03  0.00000000000E+00 0. -1.
         21   -1    0    0  501  502  0.00000000000E+00 -0.00000000000E+00 -0.22550081523E+04  0.22550081523E+04  0.00000000000E+00 0. -1.
   -9000010    2    1    2    0  502 -0.55730337476E+02  0.15291170348E+02 -0.20211599080E+04  0.22622593296E+04  0.10145886903E+04 0.  0.
         13    1    3    3    0    0 -0.78767305362E+02  0.22616630425E+03 -0.97437617972E+01  0.23968820920E+03  0.10566000000E+00 0. -1.
         -4    1    3    3    0  502  0.23036967886E+02 -0.21087513390E+03 -0.20114161462E+04  0.20225711204E+04  0.00000000000E+00 0. -1.
        -13    1    1    2    0    0  0.55730337476E+02 -0.15291170348E+02 -0.10592928192E+03  0.12066778501E+03  0.10566000000E+00 0.  1.
<mgrwt>
<rscale>  1 0.49625911E+03</rscale>
<asrwt>0</asrwt>
<pdfrwt beam="2">  1       21 0.34692433E+00 0.10162332E+04</pdfrwt>
<pdfrwt beam="1">  1       -4 0.19679841E-01 0.10162332E+04</pdfrwt>
<totfact> 0.13019947E+01</totfact>
</mgrwt>
</event>
<event>
 6    2  0.2321478E-005  0.1019601E+04  0.7818608E-02  0.9793077E-01
         21   -1    0    0  501  502  0.00000000000E+00  0.00000000000E+00  0.67399664176E+03  0.67399664176E+03  0.00000000000E+00 0. -1.
         -4   -1    0    0    0  501 -0.00000000000E+00 -0.00000000000E+00 -0.66557530497E+03  0.66557530497E+03  0.00000000000E+00 0. -1.
   -9000010    2    1    2    0  502 -0.71786781869E+02  0.16086913513E+03  0.24111078302E+03  0.10477216251E+04  0.10042678793E+04 0.  0.
         13    1    3    3    0    0  0.93868684893E+02  0.24292193063E+02  0.61175166303E+03  0.61938804398E+03  0.10566000000E+00 0. -1.
         -4    1    3    3    0  502 -0.16565546676E+03  0.13657694207E+03 -0.37064088001E+03  0.42833358111E+03  0.00000000000E+00 0. -1.
        -13    1    1    2    0    0  0.71786781869E+02 -0.16086913513E+03 -0.23268944623E+03  0.29185032164E+03  0.10566000000E+00 0.  1.
<mgrwt>
<rscale>  1 0.65735401E+03</rscale>
<asrwt>0</asrwt>
<pdfrwt beam="1">  1       21 0.10369179E+00 0.10196010E+04</pdfrwt>
<pdfrwt beam="2">  1       -4 0.10239620E+00 0.10196010E+04</pdfrwt>
<totfact> 0.21892403E+01</totfact>
</mgrwt>
</event>
<event>
 6    2  0.2321478E-005  0.9716361E+03  0.7818608E-02  0.9821123E-01
         21   -1    0    0  501  502  0.00000000000E+00  0.00000000000E+00  0.10334322245E+04  0.10334322245E+04  0.00000000000E+00 0. -1.
         -4   -1    0    0    0  501 -0.00000000000E+00 -0.00000000000E+00 -0.46685939749E+03  0.46685939749E+03  0.00000000000E+00 0. -1.
   -9000010    2    1    2    0  502 -0.67681251273E+02 -0.17289559474E+03  0.75895993943E+03  0.12329221199E+04  0.95373116008E+03 0.  0.
         13    1    3    3    0    0 -0.11548735021E+03  0.36603238777E+03  0.13455825254E+03  0.40672222886E+03  0.10566000000E+00 0. -1.
         -4    1    3    3    0  502  0.47806098941E+02 -0.53892798251E+03  0.62440168689E+03  0.82619989108E+03  0.00000000000E+00 0. -1.
        -13    1    1    2    0    0  0.67681251273E+02  0.17289559474E+03 -0.19238711241E+03  0.26736950207E+03  0.10566000000E+00 0.  1.
<mgrwt>
<rscale>  1 0.64241201E+03</rscale>
<asrwt>0</asrwt>
<pdfrwt beam="1">  1       21 0.15898957E+00 0.97163613E+03</pdfrwt>
<pdfrwt beam="2">  1       -4 0.71824523E-01 0.97163613E+03</pdfrwt>
<totfact> 0.16170884E+01</totfact>
</mgrwt>
</event>
<event>
 6    2  0.2321478E-005  0.1005238E+04  0.7818608E-02  0.1004127E+00
         -4   -1    0    0    0  501 -0.00000000000E+00  0.00000000000E+00  0.20263552966E+03  0.20263552966E+03  0.00000000000E+00 0. -1.
         21   -1    0    0  501  502  0.00000000000E+00 -0.00000000000E+00 -0.14634623021E+04  0.14634623021E+04  0.00000000000E+00 0. -1.
   -9000010    2    1    2    0  502  0.12513360676E+02 -0.81998669059E+02 -0.11453823813E+04  0.15239437445E+04  0.10018100474E+04 0.  0.
         13    1    3    3    0    0 -0.27045772517E+03 -0.69283865101E+02 -0.12029268502E+04  0.12349010702E+04  0.10566000000E+00 0. -1.
         -4    1    3    3    0  502  0.28297108585E+03 -0.12714803958E+02  0.57544468881E+02  0.28904267429E+03  0.00000000000E+00 0. -1.
        -13    1    1    2    0    0 -0.12513360676E+02  0.81998669059E+02 -0.11544439115E+03  0.14215408730E+03  0.10566000000E+00 0.  1.
<mgrwt>
<rscale>  1 0.53876988E+03</rscale>
<asrwt>0</asrwt>
<pdfrwt beam="2">  1       21 0.22514804E+00 0.10052381E+04</pdfrwt>
<pdfrwt beam="1">  1       -4 0.31174697E-01 0.10052381E+04</pdfrwt>
<totfact> 0.31624859E+01</totfact>
</mgrwt>
</event>
<event>
 6    2  0.2321478E-005  0.9684790E+03  0.7818608E-02  0.9552882E-01
         21   -1    0    0  501  502  0.00000000000E+00  0.00000000000E+00  0.39123226376E+03  0.39123226376E+03  0.00000000000E+00 0. -1.
         -4   -1    0    0    0  501 -0.00000000000E+00 -0.00000000000E+00 -0.14175503826E+04  0.14175503826E+04  0.00000000000E+00 0. -1.
   -9000010    2    1    2    0  502  0.68347092547E+02 -0.45708856740E+03 -0.44415628245E+03  0.10654699945E+04  0.85108767024E+03 0.  0.
         13    1    3    3    0    0  0.40659359117E+03 -0.37829860314E+02 -0.82396660336E+02  0.41657972528E+03  0.10566000000E+00 0. -1.
         -4    1    3    3    0  502 -0.33824649863E+03 -0.41925870708E+03 -0.36175962212E+03  0.64889026922E+03  0.00000000000E+00 0. -1.
        -13    1    1    2    0    0 -0.68347092547E+02  0.45708856740E+03 -0.58216183639E+03  0.74331265186E+03  0.10566000000E+00 0.  1.
<mgrwt>
<rscale>  1 0.80494856E+03</rscale>
<asrwt>0</asrwt>
<pdfrwt beam="1">  1       21 0.60189579E-01 0.96847897E+03</pdfrwt>
<pdfrwt beam="2">  1       -4 0.21808467E+00 0.96847897E+03</pdfrwt>
<totfact> 0.10078419E+01</totfact>
</mgrwt>
</event>
<event>
 6    2  0.2321478E-005  0.1034031E+04  0.7818608E-02  0.9672048E-01
         -4   -1    0    0    0  501 -0.00000000000E+00  0.00000000000E+00  0.47828935165E+03  0.47828935165E+03  0.00000000000E+00 0. -1.
         21   -1    0    0  501  502  0.00000000000E+00 -0.00000000000E+00 -0.95714851140E+03  0.95714851140E+03  0.00000000000E+00 0. -1.
   -9000010    2    1    2    0  502 -0.17196419209E+03  0.18521855844E+03 -0.55224365250E+03  0.11722594204E+04  0.10026671926E+04 0.  0.
         13    1    3    3    0    0 -0.77167717850E+02 -0.21966653142E+03 -0.69471799891E+03  0.73269458226E+03  0.10566000000E+00 0. -1.
         -4    1    3    3    0  502 -0.94796474238E+02  0.40488508986E+03  0.14247434641E+03  0.43956483811E+03  0.00000000000E+00 0. -1.
        -13    1    1    2    0    0  0.17196419209E+03 -0.18521855844E+03  0.73384492753E+02  0.26317844268E+03  0.10566000000E+00 0.  1.
<mgrwt>
<rscale>  1 0.72705723E+03</rscale>
<asrwt>0</asrwt>
<pdfrwt beam="2">  1       21 0.14725362E+00 0.10340305E+04</pdfrwt>
<pdfrwt beam="1">  1       -4 0.73582978E-01 0.10340305E+04</pdfrwt>
<totfact> 0.18858526E+01</totfact>
</mgrwt>
</event>
<event>
 6    2  0.2321478E-005  0.1082361E+04  0.7818608E-02  0.9617658E-01
         -4   -1    0    0    0  501 -0.00000000000E+00  0.00000000000E+00  0.29128775657E+04  0.29128775657E+04  0.00000000000E+00 0. -1.
         21   -1    0    0  501  502  0.00000000000E+00 -0.00000000000E+00 -0.16860361959E+03  0.16860361959E+03  0.00000000000E+00 0. -1.
   -9000010    2    1    2    0  502  0.23479984188E+03  0.12292737303E+03  0.17966046202E+04  0.20974490379E+04  0.10494104060E+04 0.  0.
         13    1    3    3    0    0  0.13942152574E+03  0.55210303247E+03  0.62214636014E+03  0.84339920850E+03  0.10566000000E+00 0. -1.
         -4    1    3    3    0  502  0.95378316137E+02 -0.42917565944E+03  0.11744582601E+04  0.12540498294E+04  0.00000000000E+00 0. -1.
        -13    1    1    2    0    0 -0.23479984188E+03 -0.12292737303E+03  0.94766932586E+03  0.98403214740E+03  0.10566000000E+00 0.  1.
<mgrwt>
<rscale>  1 0.76138384E+03</rscale>
<asrwt>0</asrwt>
<pdfrwt beam="2">  1       21 0.25939021E-01 0.10823605E+04</pdfrwt>
<pdfrwt beam="1">  1       -4 0.44813497E+00 0.10823605E+04</pdfrwt>
<totfact> 0.18120602E+00</totfact>
</mgrwt>
</event>
<event>
 6    2  0.2321478E-005  0.1027047E+04  0.7818608E-02  0.9719308E-01
         21   -1    0    0  501  502  0.00000000000E+00  0.00000000000E+00  0.70688897057E+03  0.70688897057E+03  0.00000000000E+00 0. -1.
         -4   -1    0    0    0  501 -0.00000000000E+00 -0.00000000000E+00 -0.57983329546E+03  0.57983329546E+03  0.00000000000E+00 0. -1.
   -9000010    2    1    2    0  502  0.10757244225E+03 -0.19201484064E+03  0.21569006822E+03  0.10494511212E+04  0.10031868824E+04 0.  0.
         13    1    3    3    0    0 -0.17899459042E+03  0.18228280863E+03 -0.27062492086E+03  0.37216118104E+03  0.10566000000E+00 0. -1.
         -4    1    3    3    0  502  0.28656703267E+03 -0.37429764927E+03  0.48631498908E+03  0.67728994017E+03  0.00000000000E+00 0. -1.
        -13    1    1    2    0    0 -0.10757244225E+03  0.19201484064E+03 -0.88634393115E+02  0.23727114482E+03  0.10566000000E+00 0.  1.
<mgrwt>
<rscale>  1 0.69878724E+03</rscale>
<asrwt>0</asrwt>
<pdfrwt beam="1">  1       21 0.10875215E+00 0.10270470E+04</pdfrwt>
<pdfrwt beam="2">  1       -4 0.89205122E-01 0.10270470E+04</pdfrwt>
<totfact> 0.26964327E+01</totfact>
</mgrwt>
</event>
<event>
 6    2  0.2321478E-005  0.9815184E+03  0.7818608E-02  0.1001335E+00
         21   -1    0    0  501  502  0.00000000000E+00  0.00000000000E+00  0.11681073928E+04  0.11681073928E+04  0.00000000000E+00 0. -1.
         -4   -1    0    0    0  501 -0.00000000000E+00 -0.00000000000E+00 -0.26661817700E+03  0.26661817700E+03  0.00000000000E+00 0. -1.
   -9000010    2    1    2    0  502  0.98753743270E+00 -0.97254046579E+02  0.90819615486E+03  0.13372354729E+04  0.97668783620E+03 0.  0.
         13    1    3    3    0    0 -0.35550560241E+03 -0.28815231699E+03  0.79500426643E+03  0.91730463093E+03  0.10566000000E+00 0. -1.
         -4    1    3    3    0  502  0.35649313984E+03  0.19089827041E+03  0.11319188843E+03  0.41993084193E+03  0.00000000000E+00 0. -1.
        -13    1    1    2    0    0 -0.98753743270E+00  0.97254046579E+02 -0.67069390584E+01  0.97490096942E+02  0.10566000000E+00 0.  1.
<mgrwt>
<rscale>  1 0.55068904E+03</rscale>
<asrwt>0</asrwt>
<pdfrwt beam="1">  1       21 0.17970883E+00 0.98151844E+03</pdfrwt>
<pdfrwt beam="2">  1       -4 0.41018182E-01 0.98151844E+03</pdfrwt>
<totfact> 0.37491802E+01</totfact>
</mgrwt>
</event>
<event>
 6    2  0.2321478E-005  0.1068971E+04  0.7818608E-02  0.1009720E+00
         -4   -1    0    0    0  501 -0.00000000000E+00  0.00000000000E+00  0.92273995727E+03  0.92273995727E+03  0.00000000000E+00 0. -1.
         21   -1    0    0  501  502  0.00000000000E+00 -0.00000000000E+00 -0.35767329094E+03  0.35767329094E+03  0.00000000000E+00 0. -1.
   -9000010    2    1    2    0  502  0.49871877930E+02  0.29557909408E+02  0.46707727451E+03  0.11665589277E+04  0.10673976191E+04 0.  0.
         13    1    3    3    0    0  0.19353900529E+03  0.44344473744E+03  0.53709006406E+03  0.72288749457E+03  0.10566000000E+00 0. -1.
         -4    1    3    3    0  502 -0.14366712736E+03 -0.41388682803E+03 -0.70012789551E+02  0.44367143316E+03  0.00000000000E+00 0. -1.
        -13    1    1    2    0    0 -0.49871877930E+02 -0.29557909408E+02  0.97989391828E+02  0.11385432048E+03  0.10566000000E+00 0.  1.
<mgrwt>
<rscale>  1 0.51585909E+03</rscale>
<asrwt>0</asrwt>
<pdfrwt beam="2">  1       21 0.55026660E-01 0.10689708E+04</pdfrwt>
<pdfrwt beam="1">  1       -4 0.14195999E+00 0.10689708E+04</pdfrwt>
<totfact> 0.41964137E+01</totfact>
</mgrwt>
</event>
<event>
 6    2  0.2321478E-005  0.1080220E+04  0.7818608E-02  0.9495640E-01
         -4   -1    0    0    0  501 -0.00000000000E+00  0.00000000000E+00  0.14916307435E+04  0.14916307435E+04  0.00000000000E+00 0. -1.
         21   -1    0    0  501  502  0.00000000000E+00 -0.00000000000E+00 -0.37898173430E+03  0.37898173430E+03  0.00000000000E+00 0. -1.
   -9000010    2    1    2    0  502  0.34660823846E+03 -0.21239367346E+03  0.67736889400E+03  0.12750311371E+04  0.10008133885E+04 0.  0.
         13    1    3    3    0    0 -0.65936469557E+02  0.59225451960E+01  0.79171596529E+03  0.79447899621E+03  0.10566000000E+00 0. -1.
         -4    1    3    3    0  502  0.41254470801E+03 -0.21831621865E+03 -0.11434707129E+03  0.48055214093E+03  0.00000000000E+00 0. -1.
        -13    1    1    2    0    0 -0.34660823846E+03  0.21239367346E+03  0.43528011523E+03  0.59558134068E+03  0.10566000000E+00 0.  1.
<mgrwt>
<rscale>  1 0.84606042E+03</rscale>
<asrwt>0</asrwt>
<pdfrwt beam="2">  1       21 0.58304883E-01 0.10802202E+04</pdfrwt>
<pdfrwt beam="1">  1       -4 0.22948165E+00 0.10802202E+04</pdfrwt>
<totfact> 0.90389837E+00</totfact>
</mgrwt>
</event>
<event>
 6    2  0.2321478E-005  0.9857417E+03  0.7818608E-02  0.1015425E+00
         21   -1    0    0  501  502  0.00000000000E+00  0.00000000000E+00  0.29616607205E+04  0.29616607205E+04  0.00000000000E+00 0. -1.
         -4   -1    0    0    0  501 -0.00000000000E+00 -0.00000000000E+00 -0.13570934401E+03  0.13570934401E+03  0.00000000000E+00 0. -1.
   -9000010    2    1    2    0  502 -0.59931032335E+02  0.16065907341E+02  0.28610371139E+04  0.30260898980E+04  0.98378700008E+03 0.  0.
         13    1    3    3    0    0 -0.32016180203E+03 -0.26991761559E+03  0.23404448502E+04  0.23776125014E+04  0.10566000000E+00 0. -1.
         -4    1    3    3    0  502  0.26023076969E+03  0.28598352293E+03  0.52059226368E+03  0.64847739659E+03  0.00000000000E+00 0. -1.
        -13    1    1    2    0    0  0.59931032335E+02 -0.16065907341E+02 -0.35085737366E+02  0.71280166568E+02  0.10566000000E+00 0.  1.
<mgrwt>
<rscale>  1 0.49374518E+03</rscale>
<asrwt>0</asrwt>
<pdfrwt beam="1">  1       21 0.45564006E+00 0.98574170E+03</pdfrwt>
<pdfrwt beam="2">  1       -4 0.20878363E-01 0.98574170E+03</pdfrwt>
<totfact> 0.22596364E+00</totfact>
</mgrwt>
</event>
<event>
 6    2  0.2321478E-005  0.1022095E+04  0.7818608E-02  0.9926338E-01
         -4   -1    0    0    0  501 -0.00000000000E+00  0.00000000000E+00  0.53426708006E+03  0.53426708006E+03  0.00000000000E+00 0. -1.
         21   -1    0    0  501  502  0.00000000000E+00 -0.00000000000E+00 -0.76129558226E+03  0.76129558226E+03  0.00000000000E+00 0. -1.
   -9000010    2    1    2    0  502  0.12890319061E+02  0.11276230848E+03 -0.39253448170E+03  0.10948794818E+04  0.10157737257E+04 0.  0.
         13    1    3    3    0    0 -0.39672773395E+03 -0.25055720058E+03 -0.23703754847E+03  0.52569821780E+03  0.10566000000E+00 0. -1.
         -4    1    3    3    0  502  0.40961805301E+03  0.36331950906E+03 -0.15549693323E+03  0.56918126397E+03  0.00000000000E+00 0. -1.
        -13    1    1    2    0    0 -0.12890319061E+02 -0.11276230848E+03  0.16550597950E+03  0.20068318054E+03  0.10566000000E+00 0.  1.
<mgrwt>
<rscale>  1 0.59001659E+03</rscale>
<asrwt>0</asrwt>
<pdfrwt beam="2">  1       21 0.11712240E+00 0.10220948E+04</pdfrwt>
<pdfrwt beam="1">  1       -4 0.82194936E-01 0.10220948E+04</pdfrwt>
<totfact> 0.27025795E+01</totfact>
</mgrwt>
</event>
<event>
 6    2  0.2321478E-005  0.1158486E+04  0.7818608E-02  0.9342026E-01
         21   -1    0    0  501  502  0.00000000000E+00  0.00000000000E+00  0.45203247902E+03  0.45203247902E+03  0.00000000000E+00 0. -1.
         -4   -1    0    0    0  501 -0.00000000000E+00 -0.00000000000E+00 -0.16714038942E+04  0.16714038942E+04  0.00000000000E+00 0. -1.
   -9000010    2    1    2    0  502 -0.43589094663E+03  0.36650325199E+03 -0.70569011889E+03  0.13564982816E+04  0.10088426503E+04 0.  0.
         13    1    3    3    0    0 -0.26032104353E+02  0.65170767436E+03 -0.47257924952E+03  0.80543883785E+03  0.10566000000E+00 0. -1.
         -4    1    3    3    0  502 -0.40985884228E+03 -0.28520442237E+03 -0.23311086937E+03  0.55105944376E+03  0.00000000000E+00 0. -1.
        -13    1    1    2    0    0  0.43589094663E+03 -0.36650325199E+03 -0.51368129632E+03  0.76693809166E+03  0.10566000000E+00 0.  1.
<mgrwt>
<rscale>  1 0.97004224E+03</rscale>
<asrwt>0</asrwt>
<pdfrwt beam="1">  1       21 0.69543458E-01 0.11584857E+04</pdfrwt>
<pdfrwt beam="2">  1       -4 0.25713906E+00 0.11584857E+04</pdfrwt>
<totfact> 0.40423262E+00</totfact>
</mgrwt>
</event>
<event>
 6    2  0.2321478E-005  0.1106011E+04  0.7818608E-02  0.9432893E-01
         -4   -1    0    0    0  501 -0.00000000000E+00  0.00000000000E+00  0.10846729016E+04  0.10846729016E+04  0.00000000000E+00 0. -1.
         21   -1    0    0  501  502  0.00000000000E+00 -0.00000000000E+00 -0.58040853189E+03  0.58040853189E+03  0.00000000000E+00 0.  1.
   -9000010    2    1    2    0  502  0.38820507320E+03  0.26937348703E+03  0.27397288546E+03  0.11394395086E+04  0.99999799866E+03 0.  0.
         13    1    3    3    0    0 -0.27102402296E+03 -0.14321165961E+03 -0.22011149553E+02  0.30732409983E+03  0.10566000000E+00 0. -1.
         -4    1    3    3    0  502  0.65922909616E+03  0.41258514664E+03  0.29598403501E+03  0.83211540872E+03  0.00000000000E+00 0. -1.
        -13    1    1    2    0    0 -0.38820507320E+03 -0.26937348703E+03  0.23029148428E+03  0.52564192495E+03  0.10566000000E+00 0.  1.
<mgrwt>
<rscale>  1 0.89417465E+03</rscale>
<asrwt>0</asrwt>
<pdfrwt beam="2">  1       21 0.89293621E-01 0.11060114E+04</pdfrwt>
<pdfrwt beam="1">  1       -4 0.16687275E+00 0.11060114E+04</pdfrwt>
<totfact> 0.88501609E+00</totfact>
</mgrwt>
</event>
<event>
 6    2  0.2321478E-005  0.1041181E+04  0.7818608E-02  0.9604514E-01
         21   -1    0    0  501  502  0.00000000000E+00  0.00000000000E+00  0.32930192218E+03  0.32930192218E+03  0.00000000000E+00 0. -1.
         -4   -1    0    0    0  501 -0.00000000000E+00 -0.00000000000E+00 -0.15501223835E+04  0.15501223835E+04  0.00000000000E+00 0. -1.
   -9000010    2    1    2    0  502 -0.27104303347E+03 -0.15334943982E+03 -0.64497619680E+03  0.12247663760E+04  0.99351799418E+03 0.  0.
         13    1    3    3    0    0 -0.40790209447E+03 -0.37556496784E+03 -0.28355705465E+02  0.55519115711E+03  0.10566000000E+00 0. -1.
         -4    1    3    3    0  502  0.13685906100E+03  0.22221552802E+03 -0.61662049134E+03  0.66957521893E+03  0.00000000000E+00 0. -1.
        -13    1    1    2    0    0  0.27104303347E+03  0.15334943982E+03 -0.57584426449E+03  0.65465792961E+03  0.10566000000E+00 0.  1.
<mgrwt>
<rscale>  1 0.76998141E+03</rscale>
<asrwt>0</asrwt>
<pdfrwt beam="1">  1       21 0.50661834E-01 0.10411812E+04</pdfrwt>
<pdfrwt beam="2">  1       -4 0.23848037E+00 0.10411812E+04</pdfrwt>
<totfact> 0.10848199E+01</totfact>
</mgrwt>
</event>
<event>
 6    2  0.2321478E-005  0.1013400E+04  0.7818608E-02  0.9845773E-01
         21   -1    0    0  501  502  0.00000000000E+00  0.00000000000E+00  0.16905700420E+04  0.16905700420E+04  0.00000000000E+00 0. -1.
         -4   -1    0    0    0  501 -0.00000000000E+00 -0.00000000000E+00 -0.21003978077E+03  0.21003978077E+03  0.00000000000E+00 0. -1.
   -9000010    2    1    2    0  502  0.13325619140E+03  0.71032968981E+02  0.14034058654E+04  0.17310483919E+04  0.10020866315E+04 0.  0.
         13    1    3    3    0    0  0.45841974722E+03  0.19668703458E+03  0.12580898118E+04  0.13533752030E+04  0.10566000000E+00 0. -1.
         -4    1    3    3    0  502 -0.32516355582E+03 -0.12565406560E+03  0.14531605354E+03  0.37767318895E+03  0.00000000000E+00 0. -1.
        -13    1    1    2    0    0 -0.13325619140E+03 -0.71032968981E+02  0.77124395834E+02  0.16956143083E+03  0.10566000000E+00 0.  1.
<mgrwt>
<rscale>  1 0.62962882E+03</rscale>
<asrwt>0</asrwt>
<pdfrwt beam="1">  1       21 0.26008769E+00 0.10134005E+04</pdfrwt>
<pdfrwt beam="2">  1       -4 0.32313813E-01 0.10134005E+04</pdfrwt>
<totfact> 0.17568625E+01</totfact>
</mgrwt>
</event>
<event>
 6    2  0.2321478E-005  0.1009249E+04  0.7818608E-02  0.1013008E+00
         -4   -1    0    0    0  501 -0.00000000000E+00  0.00000000000E+00  0.27731328363E+03  0.27731328363E+03  0.00000000000E+00 0. -1.
         21   -1    0    0  501  502  0.00000000000E+00 -0.00000000000E+00 -0.11233738980E+04  0.11233738980E+04  0.00000000000E+00 0. -1.
   -9000010    2    1    2    0  502  0.47900787298E+02  0.39760312366E+02 -0.66352633828E+03  0.12078293558E+04  0.10073277438E+04 0.  0.
         13    1    3    3    0    0 -0.33154439594E+03  0.25994104571E+03 -0.10874480800E+02  0.42143718300E+03  0.10566000000E+00 0. -1.
         -4    1    3    3    0  502  0.37944518324E+03 -0.22018073334E+03 -0.65265185748E+03  0.78639217283E+03  0.00000000000E+00 0. -1.
        -13    1    1    2    0    0 -0.47900787298E+02 -0.39760312366E+02 -0.18253427613E+03  0.19285782585E+03  0.10566000000E+00 0.  1.
<mgrwt>
<rscale>  1 0.50296554E+03</rscale>
<asrwt>0</asrwt>
<pdfrwt beam="2">  1       21 0.17282675E+00 0.10092495E+04</pdfrwt>
<pdfrwt beam="1">  1       -4 0.42663583E-01 0.10092495E+04</pdfrwt>
<totfact> 0.38735077E+01</totfact>
</mgrwt>
</event>
<event>
 6    2  0.2321478E-005  0.1004700E+04  0.7818608E-02  0.9705222E-01
         -4   -1    0    0    0  501 -0.00000000000E+00  0.00000000000E+00  0.92173782723E+03  0.92173782723E+03  0.00000000000E+00 0. -1.
         21   -1    0    0  501  502  0.00000000000E+00 -0.00000000000E+00 -0.43482591787E+03  0.43482591787E+03  0.00000000000E+00 0. -1.
   -9000010    2    1    2    0  502 -0.13488909828E+03 -0.20626156047E+03  0.30411219613E+03  0.10497174538E+04  0.97400390390E+03 0.  0.
         13    1    3    3    0    0  0.37047093965E+03 -0.12725132346E+03 -0.92473663356E+02  0.40248354752E+03  0.10566000000E+00 0. -1.
         -4    1    3    3    0  502 -0.50536003793E+03 -0.79010237014E+02  0.39658585948E+03  0.64723390628E+03  0.00000000000E+00 0. -1.
        -13    1    1    2    0    0  0.13488909828E+03  0.20626156047E+03  0.18279971323E+03  0.30684629130E+03  0.10566000000E+00 0.  1.
<mgrwt>
<rscale>  1 0.70706729E+03</rscale>
<asrwt>0</asrwt>
<pdfrwt beam="2">  1       21 0.66896295E-01 0.10047002E+04</pdfrwt>
<pdfrwt beam="1">  1       -4 0.14180582E+00 0.10047002E+04</pdfrwt>
<totfact> 0.27345706E+01</totfact>
</mgrwt>
</event>
<event>
 6    2  0.2321478E-005  0.1181652E+04  0.7818608E-02  0.9311982E-01
         21   -1    0    0  501  502  0.00000000000E+00  0.00000000000E+00  0.50202024876E+03  0.50202024876E+03  0.00000000000E+00 0. -1.
         -4   -1    0    0    0  501 -0.00000000000E+00 -0.00000000000E+00 -0.16172566353E+04  0.16172566353E+04  0.00000000000E+00 0. -1.
   -9000010    2    1    2    0  502 -0.51904555720E+03  0.29805279418E+03 -0.57995553294E+03  0.13163015657E+04  0.10188511339E+04 0.  0.
         13    1    3    3    0    0 -0.50173950392E+03 -0.28414619527E+03 -0.41662778002E+03  0.71137915933E+03  0.10566000000E+00 0. -1.
         -4    1    3    3    0  502 -0.17306053276E+02  0.58219898945E+03 -0.16332775292E+03  0.60492240632E+03  0.00000000000E+00 0. -1.
        -13    1    1    2    0    0  0.51904555720E+03 -0.29805279418E+03 -0.53528085362E+03  0.80297531842E+03  0.10566000000E+00 0.  1.
<mgrwt>
<rscale>  1 0.99687228E+03</rscale>
<asrwt>0</asrwt>
<pdfrwt beam="1">  1       21 0.77233884E-01 0.11816520E+04</pdfrwt>
<pdfrwt beam="2">  1       -4 0.24880872E+00 0.11816520E+04</pdfrwt>
<totfact> 0.35605137E+00</totfact>
</mgrwt>
</event>
<event>
 6    2  0.2321478E-005  0.1038518E+04  0.7818608E-02  0.9729856E-01
         -4   -1    0    0    0  501 -0.00000000000E+00  0.00000000000E+00  0.56231915147E+03  0.56231915147E+03  0.00000000000E+00 0. -1.
         21   -1    0    0  501  502  0.00000000000E+00 -0.00000000000E+00 -0.69372674298E+03  0.69372674298E+03  0.00000000000E+00 0. -1.
   -9000010    2    1    2    0  502  0.20551992461E+03 -0.13843097240E+00 -0.67031060600E+02  0.10406792130E+04  0.10179791760E+04 0.  0.
         13    1    3    3    0    0 -0.34333704626E+03  0.10399300624E+03  0.21150035873E+03  0.41644601762E+03  0.10566000000E+00 0. -1.
         -4    1    3    3    0  502  0.54885697087E+03 -0.10413143721E+03 -0.27853141933E+03  0.62423319540E+03  0.00000000000E+00 0. -1.
        -13    1    1    2    0    0 -0.20551992461E+03  0.13843097240E+00 -0.64376530906E+02  0.21536668143E+03  0.10566000000E+00 0.  1.
<mgrwt>
<rscale>  1 0.69266646E+03</rscale>
<asrwt>0</asrwt>
<pdfrwt beam="2">  1       21 0.10672719E+00 0.10385182E+04</pdfrwt>
<pdfrwt beam="1">  1       -4 0.86510639E-01 0.10385182E+04</pdfrwt>
<totfact> 0.30349312E+01</totfact>
</mgrwt>
</event>
<event>
 6    2  0.2321478E-005  0.1003401E+04  0.7818608E-02  0.1011253E+00
         -4   -1    0    0    0  501 -0.00000000000E+00  0.00000000000E+00  0.68366626670E+03  0.68366626670E+03  0.00000000000E+00 0. -1.
         21   -1    0    0  501  502  0.00000000000E+00 -0.00000000000E+00 -0.54981541758E+03  0.54981541758E+03  0.00000000000E+00 0. -1.
   -9000010    2    1    2    0  502  0.44190581671E+02 -0.50173215689E+02 -0.82739687339E+02  0.10068065186E+04  0.10011709899E+04 0.  0.
         13    1    3    3    0    0  0.41653992726E+03 -0.32258055724E+03 -0.13113658910E+03  0.54291854184E+03  0.10566000000E+00 0. -1.
         -4    1    3    3    0  502 -0.37234934559E+03  0.27240734155E+03  0.48396901757E+02  0.46388797677E+03  0.00000000000E+00 0. -1.
        -13    1    1    2    0    0 -0.44190581671E+02  0.50173215689E+02  0.21659053646E+03  0.22667516567E+03  0.10566000000E+00 0.  1.
<mgrwt>
<rscale>  1 0.50979597E+03</rscale>
<asrwt>0</asrwt>
<pdfrwt beam="2">  1       21 0.84586987E-01 0.10034010E+04</pdfrwt>
<pdfrwt beam="1">  1       -4 0.10517943E+00 0.10034010E+04</pdfrwt>
<totfact> 0.33754549E+01</totfact>
</mgrwt>
</event>
<event>
 6    2  0.2321478E-005  0.9455228E+03  0.7818608E-02  0.9662457E-01
         21   -1    0    0  501  502  0.00000000000E+00  0.00000000000E+00  0.98378472501E+03  0.98378472501E+03  0.00000000000E+00 0. -1.
         -4   -1    0    0    0  501 -0.00000000000E+00 -0.00000000000E+00 -0.42715387441E+03  0.42715387441E+03  0.00000000000E+00 0. -1.
   -9000010    2    1    2    0  502  0.19957388193E+03  0.27704899290E+03  0.48258115130E+03  0.10615545014E+04  0.88171849990E+03 0.  0.
         13    1    3    3    0    0 -0.69739822964E+02  0.55406313772E+03  0.30577865479E+03  0.63667118702E+03  0.10566000000E+00 0. -1.
         -4    1    3    3    0  502  0.26931370489E+03 -0.27701414483E+03  0.17680249651E+03  0.42488331439E+03  0.00000000000E+00 0. -1.
        -13    1    1    2    0    0 -0.19957388193E+03 -0.27704899290E+03  0.74049699298E+02  0.34938409801E+03  0.10566000000E+00 0.  1.
<mgrwt>
<rscale>  1 0.73296757E+03</rscale>
<asrwt>0</asrwt>
<pdfrwt beam="1">  1       21 0.15135149E+00 0.94552281E+03</pdfrwt>
<pdfrwt beam="2">  1       -4 0.65715981E-01 0.94552281E+03</pdfrwt>
<totfact> 0.22721139E+01</totfact>
</mgrwt>
</event>
<event>
 6    2  0.2321478E-005  0.1038030E+04  0.7818608E-02  0.9690655E-01
         21   -1    0    0  501  502  0.00000000000E+00  0.00000000000E+00  0.12725469976E+04  0.12725469976E+04  0.00000000000E+00 0. -1.
         -4   -1    0    0    0  501 -0.00000000000E+00 -0.00000000000E+00 -0.38915345789E+03  0.38915345789E+03  0.00000000000E+00 0. -1.
   -9000010    2    1    2    0  502  0.10624552683E+03 -0.20922974065E+03  0.96096400242E+03  0.14145519491E+04  0.10111578543E+04 0.  0.
         13    1    3    3    0    0  0.39966440027E+02 -0.51521038585E+03  0.97249221224E+03  0.11012629895E+04  0.10566000000E+00 0. -1.
         -4    1    3    3    0  502  0.66279086808E+02  0.30598064519E+03 -0.11528209812E+02  0.31328895959E+03  0.00000000000E+00 0. -1.
        -13    1    1    2    0    0 -0.10624552683E+03  0.20922974065E+03 -0.77570462748E+02  0.24714850637E+03  0.10566000000E+00 0.  1.
<mgrwt>
<rscale>  1 0.71575923E+03</rscale>
<asrwt>0</asrwt>
<pdfrwt beam="1">  1       21 0.19577646E+00 0.10380296E+04</pdfrwt>
<pdfrwt beam="2">  1       -4 0.59869763E-01 0.10380296E+04</pdfrwt>
<totfact> 0.12897812E+01</totfact>
</mgrwt>
</event>
<event>
 6    2  0.2321478E-005  0.1001489E+04  0.7818608E-02  0.9974601E-01
         21   -1    0    0  501  502  0.00000000000E+00  0.00000000000E+00  0.67528029994E+03  0.67528029994E+03  0.00000000000E+00 0. -1.
         -4   -1    0    0    0  501 -0.00000000000E+00 -0.00000000000E+00 -0.45201465441E+03  0.45201465441E+03  0.00000000000E+00 0. -1.
   -9000010    2    1    2    0  502 -0.87730217771E+02  0.54845266712E+02  0.20394059956E+03  0.10220425769E+04  0.99612984418E+03 0.  0.
         13    1    3    3    0    0  0.33052395228E+03  0.33616289632E+03 -0.16874774311E+02  0.47173758072E+03  0.10566000000E+00 0. -1.
         -4    1    3    3    0  502 -0.41825417005E+03 -0.28131762960E+03  0.22081537387E+03  0.55030499619E+03  0.00000000000E+00 0. -1.
        -13    1    1    2    0    0  0.87730217771E+02 -0.54845266712E+02  0.19325045971E+02  0.10525237744E+03  0.10566000000E+00 0.  1.
<mgrwt>
<rscale>  1 0.56778095E+03</rscale>
<asrwt>0</asrwt>
<pdfrwt beam="1">  1       21 0.10388928E+00 0.10014885E+04</pdfrwt>
<pdfrwt beam="2">  1       -4 0.69540716E-01 0.10014885E+04</pdfrwt>
<totfact> 0.53659603E+01</totfact>
</mgrwt>
</event>
<event>
 6    2  0.2321478E-005  0.1011682E+04  0.7818608E-02  0.9717966E-01
         -4   -1    0    0    0  501 -0.00000000000E+00  0.00000000000E+00  0.49135693407E+03  0.49135693407E+03  0.00000000000E+00 0. -1.
         21   -1    0    0  501  502  0.00000000000E+00 -0.00000000000E+00 -0.88944373224E+03  0.88944373224E+03  0.00000000000E+00 0. -1.
   -9000010    2    1    2    0  502 -0.20670067182E+03  0.10382414187E+03 -0.49945466882E+03  0.11282534895E+04  0.98488392722E+03 0.  0.
         13    1    3    3    0    0 -0.70235853649E+01 -0.31342337178E+03 -0.57945066170E+03  0.65882214689E+03  0.10566000000E+00 0. -1.
         -4    1    3    3    0  502 -0.19967708646E+03  0.41724751365E+03  0.79995992875E+02  0.46943134257E+03  0.00000000000E+00 0. -1.
        -13    1    1    2    0    0  0.20670067182E+03 -0.10382414187E+03  0.10136787066E+03  0.25254717685E+03  0.10566000000E+00 0.  1.
<mgrwt>
<rscale>  1 0.69957136E+03</rscale>
<asrwt>0</asrwt>
<pdfrwt beam="2">  1       21 0.13683750E+00 0.10116822E+04</pdfrwt>
<pdfrwt beam="1">  1       -4 0.75593374E-01 0.10116822E+04</pdfrwt>
<totfact> 0.21743065E+01</totfact>
</mgrwt>
</event>
<event>
 6    2  0.2321478E-005  0.1349872E+04  0.7818608E-02  0.9097238E-01
         21   -1    0    0  501  502  0.00000000000E+00  0.00000000000E+00  0.16030782251E+04  0.16030782251E+04  0.00000000000E+00 0.  1.
         -4   -1    0    0    0  501 -0.00000000000E+00 -0.00000000000E+00 -0.79184059480E+03  0.79184059480E+03  0.00000000000E+00 0. -1.
   -9000010    2    1    2    0  502  0.57552278314E+03  0.68515269999E+03  0.58999415581E+03  0.14731762407E+04  0.10106900791E+04 0.  0.
         13    1    3    3    0    0  0.14094986749E+03  0.57284168873E+03 -0.14908725701E+03  0.60847472162E+03  0.10566000000E+00 0. -1.
         -4    1    3    3    0  502  0.43457291564E+03  0.11231101126E+03  0.73908141282E+03  0.86470151905E+03  0.00000000000E+00 0. -1.
        -13    1    1    2    0    0 -0.57552278314E+03 -0.68515269999E+03  0.22124347450E+03  0.92174257924E+03  0.10566000000E+00 0.  1.
<mgrwt>
<rscale>  1 0.12180092E+04</rscale>
<asrwt>0</asrwt>
<pdfrwt beam="1">  1       21 0.24662742E+00 0.13498723E+04</pdfrwt>
<pdfrwt beam="2">  1       -4 0.12182163E+00 0.13498723E+04</pdfrwt>
<totfact> 0.10751930E+00</totfact>
</mgrwt>
</event>
<event>
 6    2  0.2321478E-005  0.1075335E+04  0.7818608E-02  0.9531723E-01
         -4   -1    0    0    0  501 -0.00000000000E+00  0.00000000000E+00  0.13368767887E+04  0.13368767887E+04  0.00000000000E+00 0. -1.
         21   -1    0    0  501  502  0.00000000000E+00 -0.00000000000E+00 -0.46675498963E+03  0.46675498963E+03  0.00000000000E+00 0. -1.
   -9000010    2    1    2    0  502  0.36330748887E+03 -0.42386873818E+01  0.28093914884E+03  0.11114276867E+04  0.10120940665E+04 0.  0.
         13    1    3    3    0    0 -0.31609609790E+03  0.35112125869E+02 -0.97616286205E+02  0.33268386644E+03  0.10566000000E+00 0. -1.
         -4    1    3    3    0  502  0.67940358677E+03 -0.39350813251E+02  0.37855543504E+03  0.77874382028E+03  0.00000000000E+00 0. -1.
        -13    1    1    2    0    0 -0.36330748887E+03  0.42386873818E+01  0.58918265022E+03  0.69220409159E+03  0.10566000000E+00 0.  1.
<mgrwt>
<rscale>  1 0.81984872E+03</rscale>
<asrwt>0</asrwt>
<pdfrwt beam="2">  1       21 0.71808461E-01 0.10753347E+04</pdfrwt>
<pdfrwt beam="1">  1       -4 0.20567335E+00 0.10753347E+04</pdfrwt>
<totfact> 0.80261412E+00</totfact>
</mgrwt>
</event>
<event>
 6    2  0.2321478E-005  0.1088798E+04  0.7818608E-02  0.9470948E-01
         -4   -1    0    0    0  501 -0.00000000000E+00  0.00000000000E+00  0.79478472450E+03  0.79478472450E+03  0.00000000000E+00 0. -1.
         21   -1    0    0  501  502  0.00000000000E+00 -0.00000000000E+00 -0.85995122669E+03  0.85995122669E+03  0.00000000000E+00 0.  1.
   -9000010    2    1    2    0  502  0.31472721629E+03 -0.29728086613E+03  0.25258462753E+03  0.11177118124E+04  0.99902530872E+03 0.  0.
         13    1    3    3    0    0 -0.30021716760E+03 -0.29929390863E+03 -0.59552307559E+02  0.42808139409E+03  0.10566000000E+00 0. -1.
         -4    1    3    3    0  502  0.61494438389E+03  0.20130424943E+01  0.31213693509E+03  0.68963041831E+03  0.00000000000E+00 0. -1.
        -13    1    1    2    0    0 -0.31472721629E+03  0.29728086613E+03 -0.31775112972E+03  0.53702413879E+03  0.10566000000E+00 0.  1.
<mgrwt>
<rscale>  1 0.86459979E+03</rscale>
<asrwt>0</asrwt>
<pdfrwt beam="2">  1       21 0.13230019E+00 0.10887978E+04</pdfrwt>
<pdfrwt beam="1">  1       -4 0.12227457E+00 0.10887978E+04</pdfrwt>
<totfact> 0.74654340E+00</totfact>
</mgrwt>
</event>
<event>
 6    2  0.2321478E-005  0.1003595E+04  0.7818608E-02  0.1009437E+00
         -4   -1    0    0    0  501 -0.00000000000E+00  0.00000000000E+00  0.82320140886E+03  0.82320140886E+03  0.00000000000E+00 0. -1.
         21   -1    0    0  501  502  0.00000000000E+00 -0.00000000000E+00 -0.36874253223E+03  0.36874253223E+03  0.00000000000E+00 0. -1.
   -9000010    2    1    2    0  502  0.69783187242E+02 -0.11175245004E+02  0.34419820023E+03  0.10609782691E+04  0.10011033449E+04 0.  0.
         13    1    3    3    0    0 -0.19808490219E+03  0.11296221117E+03  0.61775023226E+03  0.65849331830E+03  0.10566000000E+00 0. -1.
         -4    1    3    3    0  502  0.26786808943E+03 -0.12413745618E+03 -0.27355203203E+03  0.40248495076E+03  0.00000000000E+00 0. -1.
        -13    1    1    2    0    0 -0.69783187242E+02  0.11175245004E+02  0.11026067641E+03  0.13096567202E+03  0.10566000000E+00 0.  1.
<mgrwt>
<rscale>  1 0.51698897E+03</rscale>
<asrwt>0</asrwt>
<pdfrwt beam="2">  1       21 0.56729620E-01 0.10035948E+04</pdfrwt>
<pdfrwt beam="1">  1       -4 0.12664637E+00 0.10035948E+04</pdfrwt>
<totfact> 0.53035540E+01</totfact>
</mgrwt>
</event>
<event>
 6    2  0.2321478E-005  0.1000768E+04  0.7818608E-02  0.1015418E+00
         21   -1    0    0  501  502  0.00000000000E+00  0.00000000000E+00  0.72927186146E+03  0.72927186146E+03  0.00000000000E+00 0. -1.
         -4   -1    0    0    0  501 -0.00000000000E+00 -0.00000000000E+00 -0.68221607210E+03  0.68221607210E+03  0.00000000000E+00 0. -1.
   -9000010    2    1    2    0  502 -0.52820339650E+02 -0.26968574914E+02  0.38210303717E+03  0.10712322036E+04  0.99900871408E+03 0.  0.
         13    1    3    3    0    0  0.11962044775E+03  0.45743930587E+03  0.27170483873E+03  0.54532861710E+03  0.10566000000E+00 0. -1.
         -4    1    3    3    0  502 -0.17244078739E+03 -0.48440788079E+03  0.11039819844E+03  0.52590358655E+03  0.00000000000E+00 0. -1.
        -13    1    1    2    0    0  0.52820339650E+02  0.26968574914E+02 -0.33504724780E+03  0.34025572991E+03  0.10566000000E+00 0.  1.
<mgrwt>
<rscale>  1 0.49377164E+03</rscale>
<asrwt>0</asrwt>
<pdfrwt beam="1">  1       21 0.11219567E+00 0.10007676E+04</pdfrwt>
<pdfrwt beam="2">  1       -4 0.10495632E+00 0.10007676E+04</pdfrwt>
<totfact> 0.16925731E+01</totfact>
</mgrwt>
</event>
<event>
 6    2  0.2321478E-005  0.1122567E+04  0.7818608E-02  0.9407202E-01
         -4   -1    0    0    0  501 -0.00000000000E+00  0.00000000000E+00  0.16821931928E+04  0.16821931928E+04  0.00000000000E+00 0. -1.
         21   -1    0    0  501  502  0.00000000000E+00 -0.00000000000E+00 -0.38894787039E+03  0.38894787039E+03  0.00000000000E+00 0.  1.
   -9000010    2    1    2    0  502  0.39210050716E+03 -0.30243518390E+03  0.89957382343E+03  0.14385376262E+04  0.10074460730E+04 0.  0.
         13    1    3    3    0    0  0.62000565959E+03 -0.28391868635E+03  0.21226877334E+03  0.71419526859E+03  0.10566000000E+00 0. -1.
         -4    1    3    3    0  502 -0.22790515243E+03 -0.18516497545E+02  0.68730505009E+03  0.72434235764E+03  0.00000000000E+00 0. -1.
        -13    1    1    2    0    0 -0.39210050716E+03  0.30243518390E+03  0.39367149898E+03  0.63260343696E+03  0.10566000000E+00 0.  1.
<mgrwt>
<rscale>  1 0.91485359E+03</rscale>
<asrwt>0</asrwt>
<pdfrwt beam="2">  1       21 0.59838135E-01 0.11225673E+04</pdfrwt>
<pdfrwt beam="1">  1       -4 0.25879895E+00 0.11225673E+04</pdfrwt>
<totfact> 0.55719693E+00</totfact>
</mgrwt>
</event>
<event>
 6    2  0.2321478E-005  0.1010513E+04  0.7818608E-02  0.9879375E-01
         21   -1    0    0  501  502  0.00000000000E+00  0.00000000000E+00  0.22015842974E+03  0.22015842974E+03  0.00000000000E+00 0. -1.
         -4   -1    0    0    0  501 -0.00000000000E+00 -0.00000000000E+00 -0.15238406763E+04  0.15238406763E+04  0.00000000000E+00 0. -1.
   -9000010    2    1    2    0  502 -0.10287431273E+03  0.89846422450E+02 -0.12186309798E+04  0.15830977916E+04  0.10012400556E+04 0.  0.
         13    1    3    3    0    0  0.10819823995E+03  0.23507542030E+03  0.70935034092E+02  0.26832648505E+03  0.10566000000E+00 0. -1.
         -4    1    3    3    0  502 -0.21107255267E+03 -0.14522899785E+03 -0.12895660139E+04  0.13147713065E+04  0.00000000000E+00 0. -1.
        -13    1    1    2    0    0  0.10287431273E+03 -0.89846422450E+02 -0.85051266753E+02  0.16090131443E+03  0.10566000000E+00 0.  1.
<mgrwt>
<rscale>  1 0.61271356E+03</rscale>
<asrwt>0</asrwt>
<pdfrwt beam="1">  1       21 0.33870526E-01 0.10105133E+04</pdfrwt>
<pdfrwt beam="2">  1       -4 0.23443704E+00 0.10105133E+04</pdfrwt>
<totfact> 0.26935118E+01</totfact>
</mgrwt>
</event>
<event>
 6    2  0.2321478E-005  0.9963271E+03  0.7818608E-02  0.1002067E+00
         21   -1    0    0  501  502  0.00000000000E+00  0.00000000000E+00  0.13249617016E+04  0.13249617016E+04  0.00000000000E+00 0. -1.
         -4   -1    0    0    0  501 -0.00000000000E+00 -0.00000000000E+00 -0.22334748119E+03  0.22334748119E+03  0.00000000000E+00 0. -1.
   -9000010    2    1    2    0  502 -0.74427598127E+02 -0.52138223437E+02  0.10251596157E+04  0.14295523748E+04  0.99217432581E+03 0.  0.
         13    1    3    3    0    0  0.38145660286E+03  0.11855667529E+03  0.14728420916E+03  0.42574343747E+03  0.10566000000E+00 0. -1.
         -4    1    3    3    0  502 -0.45588420098E+03 -0.17069489873E+03  0.87787540655E+03  0.10038089373E+04  0.00000000000E+00 0. -1.
        -13    1    1    2    0    0  0.74427598127E+02  0.52138223437E+02  0.76454604649E+02  0.11875680798E+03  0.10566000000E+00 0.  1.
<mgrwt>
<rscale>  1 0.54753261E+03</rscale>
<asrwt>0</asrwt>
<pdfrwt beam="1">  1       21 0.20384026E+00 0.99632713E+03</pdfrwt>
<pdfrwt beam="2">  1       -4 0.34361152E-01 0.99632713E+03</pdfrwt>
<totfact> 0.36227943E+01</totfact>
</mgrwt>
</event>
<event>
 6    2  0.2321478E-005  0.1044830E+04  0.7818608E-02  0.9790549E-01
         -4   -1    0    0    0  501 -0.00000000000E+00  0.00000000000E+00  0.12598439869E+04  0.12598439869E+04  0.00000000000E+00 0. -1.
         21   -1    0    0  501  502  0.00000000000E+00 -0.00000000000E+00 -0.30307014757E+03  0.30307014757E+03  0.00000000000E+00 0. -1.
   -9000010    2    1    2    0  502 -0.32829547989E+02 -0.16177427673E+03  0.69995264176E+03  0.12576178284E+04  0.10317074225E+04 0.  0.
         13    1    3    3    0    0 -0.51199842696E+03 -0.39712195635E+02  0.19070058494E+03  0.54780121572E+03  0.10566000000E+00 0. -1.
         -4    1    3    3    0  502  0.47916887897E+03 -0.12206208110E+03  0.50925205683E+03  0.70981661265E+03  0.00000000000E+00 0. -1.
        -13    1    1    2    0    0  0.32829547989E+02  0.16177427673E+03  0.25682119761E+03  0.30529630613E+03  0.10566000000E+00 0.  1.
<mgrwt>
<rscale>  1 0.65872226E+03</rscale>
<asrwt>0</asrwt>
<pdfrwt beam="2">  1       21 0.46626177E-01 0.10448296E+04</pdfrwt>
<pdfrwt beam="1">  1       -4 0.19382215E+00 0.10448296E+04</pdfrwt>
<totfact> 0.25162029E+01</totfact>
</mgrwt>
</event>
<event>
 6    2  0.2321478E-005  0.9561884E+03  0.7818608E-02  0.1007612E+00
         -4   -1    0    0    0  501 -0.00000000000E+00  0.00000000000E+00  0.27915257727E+03  0.27915257727E+03  0.00000000000E+00 0. -1.
         21   -1    0    0  501  502  0.00000000000E+00 -0.00000000000E+00 -0.12177891956E+04  0.12177891956E+04  0.00000000000E+00 0. -1.
   -9000010    2    1    2    0  502  0.28955488626E+02  0.81473509088E+02 -0.55903577819E+03  0.11076177921E+04  0.95227087484E+03 0.  0.
         13    1    3    3    0    0  0.39835365327E+03  0.29204284829E+03 -0.45110893306E+03  0.66893492880E+03  0.10566000000E+00 0. -1.
         -4    1    3    3    0  502 -0.36939816465E+03 -0.21056933920E+03 -0.10792684513E+03  0.43868286330E+03  0.00000000000E+00 0. -1.
        -13    1    1    2    0    0 -0.28955488626E+02 -0.81473509088E+02 -0.37960084012E+03  0.38932398076E+03  0.10566000000E+00 0.  1.
<mgrwt>
<rscale>  1 0.52434719E+03</rscale>
<asrwt>0</asrwt>
<pdfrwt beam="2">  1       21 0.18735219E+00 0.95618836E+03</pdfrwt>
<pdfrwt beam="1">  1       -4 0.42946549E-01 0.95618836E+03</pdfrwt>
<totfact> 0.30160550E+01</totfact>
</mgrwt>
</event>
<event>
 6    2  0.2321478E-005  0.1133023E+04  0.7818608E-02  0.9390001E-01
         -4   -1    0    0    0  501 -0.00000000000E+00  0.00000000000E+00  0.18810682910E+04  0.18810682910E+04  0.00000000000E+00 0. -1.
         21   -1    0    0  501  502  0.00000000000E+00 -0.00000000000E+00 -0.40260654233E+03  0.40260654233E+03  0.00000000000E+00 0.  1.
   -9000010    2    1    2    0  502  0.51214563851E+03  0.37201811766E+01  0.13366435424E+04  0.17522433612E+04  0.10106601024E+04 0.  0.
         13    1    3    3    0    0  0.69570044579E+03  0.31841619438E+03  0.83870051221E+03  0.11352561576E+04  0.10566000000E+00 0. -1.
         -4    1    3    3    0  502 -0.18355480728E+03 -0.31469601321E+03  0.49794303018E+03  0.61698720352E+03  0.00000000000E+00 0. -1.
        -13    1    1    2    0    0 -0.51214563851E+03 -0.37201811766E+01  0.14181820627E+03  0.53143147215E+03  0.10566000000E+00 0.  1.
<mgrwt>
<rscale>  1 0.92903120E+03</rscale>
<asrwt>0</asrwt>
<pdfrwt beam="2">  1       21 0.61939469E-01 0.11330229E+04</pdfrwt>
<pdfrwt beam="1">  1       -4 0.28939512E+00 0.11330229E+04</pdfrwt>
<totfact> 0.33334102E+00</totfact>
</mgrwt>
</event>
<event>
 6    2  0.2321478E-005  0.1233517E+04  0.7818608E-02  0.9206219E-01
         21   -1    0    0  501  502  0.00000000000E+00  0.00000000000E+00  0.12187989830E+04  0.12187989830E+04  0.00000000000E+00 0.  1.
         -4   -1    0    0    0  501 -0.00000000000E+00 -0.00000000000E+00 -0.87528382694E+03  0.87528382694E+03  0.00000000000E+00 0. -1.
   -9000010    2    1    2    0  502 -0.39242002413E+02  0.77609783729E+03  0.44299367792E+03  0.13106520375E+04  0.95796533176E+03 0.  0.
         13    1    3    3    0    0  0.19635094824E+03  0.49500661375E+03 -0.20128145762E+03  0.56929735541E+03  0.10566000000E+00 0. -1.
         -4    1    3    3    0  502 -0.23559295065E+03  0.28109122354E+03  0.64427513553E+03  0.74135468206E+03  0.00000000000E+00 0. -1.
        -13    1    1    2    0    0  0.39242002413E+02 -0.77609783729E+03 -0.99478521848E+02  0.78343077248E+03  0.10566000000E+00 0.  1.
<mgrwt>
<rscale>  1 0.10989469E+04</rscale>
<asrwt>0</asrwt>
<pdfrwt beam="1">  1       21 0.18750754E+00 0.12335175E+04</pdfrwt>
<pdfrwt beam="2">  1       -4 0.13465905E+00 0.12335175E+04</pdfrwt>
<totfact> 0.21102088E+00</totfact>
</mgrwt>
</event>
<event>
 6    2  0.2321478E-005  0.9795195E+03  0.7818608E-02  0.9899146E-01
         21   -1    0    0  501  502  0.00000000000E+00  0.00000000000E+00  0.74545987760E+03  0.74545987760E+03  0.00000000000E+00 0. -1.
         -4   -1    0    0    0  501 -0.00000000000E+00 -0.00000000000E+00 -0.42497356694E+03  0.42497356694E+03  0.00000000000E+00 0. -1.
   -9000010    2    1    2    0  502  0.63694541997E+02 -0.12546181247E+03  0.24061356988E+03  0.10086393564E+04  0.96936102677E+03 0.  0.
         13    1    3    3    0    0  0.16634594638E+03  0.19459523679E+03 -0.28603864922E+03  0.38387029068E+03  0.10566000000E+00 0. -1.
         -4    1    3    3    0  502 -0.10265140438E+03 -0.32005704926E+03  0.52665221910E+03  0.62476906572E+03  0.00000000000E+00 0. -1.
        -13    1    1    2    0    0 -0.63694541997E+02  0.12546181247E+03  0.79872740780E+02  0.16179408812E+03  0.10566000000E+00 0.  1.
<mgrwt>
<rscale>  1 0.60302683E+03</rscale>
<asrwt>0</asrwt>
<pdfrwt beam="1">  1       21 0.11468613E+00 0.97951951E+03</pdfrwt>
<pdfrwt beam="2">  1       -4 0.65380549E-01 0.97951951E+03</pdfrwt>
<totfact> 0.48021098E+01</totfact>
</mgrwt>
</event>
<event>
 6    2  0.2321478E-005  0.1003096E+04  0.7818608E-02  0.9822491E-01
         -4   -1    0    0    0  501 -0.00000000000E+00  0.00000000000E+00  0.27414482197E+04  0.27414482197E+04  0.00000000000E+00 0. -1.
         21   -1    0    0  501  502  0.00000000000E+00 -0.00000000000E+00 -0.12686036255E+03  0.12686036255E+03  0.00000000000E+00 0. -1.
   -9000010    2    1    2    0  502  0.15814163944E+03  0.56674824404E+02  0.21058774295E+04  0.23325781237E+04  0.98892878476E+03 0.  0.
         13    1    3    3    0    0  0.43536983109E+03  0.28646070310E+03  0.65156628064E+03  0.83435319468E+03  0.10566000000E+00 0. -1.
         -4    1    3    3    0  502 -0.27722819165E+03 -0.22978587870E+03  0.14543111488E+04  0.14982249290E+04  0.00000000000E+00 0. -1.
        -13    1    1    2    0    0 -0.15814163944E+03 -0.56674824404E+02  0.50871042771E+03  0.53573045860E+03  0.10566000000E+00 0.  1.
<mgrwt>
<rscale>  1 0.64169401E+03</rscale>
<asrwt>0</asrwt>
<pdfrwt beam="2">  1       21 0.19516981E-01 0.10030957E+04</pdfrwt>
<pdfrwt beam="1">  1       -4 0.42176122E+00 0.10030957E+04</pdfrwt>
<totfact> 0.49850556E+00</totfact>
</mgrwt>
</event>
<event>
 6    2  0.2321478E-005  0.1136065E+04  0.7818608E-02  0.9369878E-01
         -4   -1    0    0    0  501 -0.00000000000E+00  0.00000000000E+00  0.14583097140E+04  0.14583097140E+04  0.00000000000E+00 0. -1.
         21   -1    0    0  501  502  0.00000000000E+00 -0.00000000000E+00 -0.11033373079E+04  0.11033373079E+04  0.00000000000E+00 0. -1.
   -9000010    2    1    2    0  502  0.30299497322E+03  0.45436605347E+03 -0.72762193360E+03  0.13491021857E+04  0.99618701305E+03 0.  0.
         13    1    3    3    0    0 -0.29735224012E+03 -0.53077162771E+02 -0.39075081929E+03  0.49388435271E+03  0.10566000000E+00 0. -1.
         -4    1    3    3    0  502  0.60034721335E+03  0.50744321624E+03 -0.33687111432E+03  0.85521783304E+03  0.00000000000E+00 0. -1.
        -13    1    1    2    0    0 -0.30299497322E+03 -0.45436605347E+03  0.10825943397E+04  0.12125448362E+04  0.10566000000E+00 0.  1.
<mgrwt>
<rscale>  1 0.94596632E+03</rscale>
<asrwt>0</asrwt>
<pdfrwt beam="2">  1       21 0.16974420E+00 0.11360647E+04</pdfrwt>
<pdfrwt beam="1">  1       -4 0.22435534E+00 0.11360647E+04</pdfrwt>
<totfact> 0.66164229E-01</totfact>
</mgrwt>
</event>
<event>
 6    2  0.2321478E-005  0.1005144E+04  0.7818608E-02  0.9952793E-01
         21   -1    0    0  501  502  0.00000000000E+00  0.00000000000E+00  0.75660183007E+03  0.75660183007E+03  0.00000000000E+00 0. -1.
         -4   -1    0    0    0  501 -0.00000000000E+00 -0.00000000000E+00 -0.43982629533E+03  0.43982629533E+03  0.00000000000E+00 0. -1.
   -9000010    2    1    2    0  502 -0.77169975888E+02  0.77933193374E+02  0.37430975580E+03  0.10725774671E+04  0.99914255329E+03 0.  0.
         13    1    3    3    0    0 -0.35290101464E+03  0.40301824937E+03  0.36123203124E+03  0.64610481117E+03  0.10566000000E+00 0. -1.
         -4    1    3    3    0  502  0.27573103875E+03 -0.32508505599E+03  0.13077724551E+02  0.42647265591E+03  0.00000000000E+00 0. -1.
        -13    1    1    2    0    0  0.77169975888E+02 -0.77933193374E+02 -0.57534221061E+02  0.12385065832E+03  0.10566000000E+00 0.  1.
<mgrwt>
<rscale>  1 0.57769555E+03</rscale>
<asrwt>0</asrwt>
<pdfrwt beam="1">  1       21 0.11640028E+00 0.10051441E+04</pdfrwt>
<pdfrwt beam="2">  1       -4 0.67665584E-01 0.10051441E+04</pdfrwt>
<totfact> 0.42744360E+01</totfact>
</mgrwt>
</event>
<event>
 6    2  0.2321478E-005  0.1086751E+04  0.7818608E-02  0.9506698E-01
         21   -1    0    0  501  502  0.00000000000E+00  0.00000000000E+00  0.12128429206E+04  0.12128429206E+04  0.00000000000E+00 0. -1.
         -4   -1    0    0    0  501 -0.00000000000E+00 -0.00000000000E+00 -0.46516512810E+03  0.46516512810E+03  0.00000000000E+00 0. -1.
   -9000010    2    1    2    0  502  0.14490514345E+03 -0.35569106542E+03  0.69588011065E+03  0.12904559288E+04  0.10166187787E+04 0.  0.
         13    1    3    3    0    0  0.12766416957E+03  0.19982694362E+03 -0.14834600347E+03  0.27970608770E+03  0.10566000000E+00 0. -1.
         -4    1    3    3    0  502  0.17240973888E+02 -0.55551800905E+03  0.84422611412E+03  0.10107498411E+04  0.00000000000E+00 0. -1.
        -13    1    1    2    0    0 -0.14490514345E+03  0.35569106542E+03  0.51797681853E+02  0.38755211989E+03  0.10566000000E+00 0.  1.
<mgrwt>
<rscale>  1 0.83791798E+03</rscale>
<asrwt>0</asrwt>
<pdfrwt beam="1">  1       21 0.18659122E+00 0.10867508E+04</pdfrwt>
<pdfrwt beam="2">  1       -4 0.71563866E-01 0.10867508E+04</pdfrwt>
<totfact> 0.10024474E+01</totfact>
</mgrwt>
</event>
<event>
 6    2  0.2321478E-005  0.1025339E+04  0.7818608E-02  0.9727968E-01
         -4   -1    0    0    0  501 -0.00000000000E+00  0.00000000000E+00  0.44791592512E+03  0.44791592512E+03  0.00000000000E+00 0. -1.
         21   -1    0    0  501  502  0.00000000000E+00 -0.00000000000E+00 -0.88873565947E+03  0.88873565947E+03  0.00000000000E+00 0. -1.
   -9000010    2    1    2    0  502  0.60861772023E+02 -0.20609729146E+03 -0.45399496641E+03  0.11213521495E+04  0.10025661898E+04 0.  0.
         13    1    3    3    0    0 -0.13961766431E+03 -0.41682815046E+02  0.29485242687E+03  0.32888982053E+03  0.10566000000E+00 0. -1.
         -4    1    3    3    0  502  0.20047943633E+03 -0.16441447641E+03 -0.74884739327E+03  0.79246232898E+03  0.00000000000E+00 0. -1.
        -13    1    1    2    0    0 -0.60861772023E+02  0.20609729146E+03  0.13175232060E+02  0.21529943508E+03  0.10566000000E+00 0.  1.
<mgrwt>
<rscale>  1 0.69375723E+03</rscale>
<asrwt>0</asrwt>
<pdfrwt beam="2">  1       21 0.13672856E+00 0.10253386E+04</pdfrwt>
<pdfrwt beam="1">  1       -4 0.68910143E-01 0.10253386E+04</pdfrwt>
<totfact> 0.26805903E+01</totfact>
</mgrwt>
</event>
<event>
 6    2  0.2321478E-005  0.1047120E+04  0.7818608E-02  0.9610040E-01
         -4   -1    0    0    0  501 -0.00000000000E+00  0.00000000000E+00  0.99647847721E+03  0.99647847721E+03  0.00000000000E+00 0. -1.
         21   -1    0    0  501  502  0.00000000000E+00 -0.00000000000E+00 -0.79773460154E+03  0.79773460154E+03  0.00000000000E+00 0. -1.
   -9000010    2    1    2    0  502  0.12840764272E+03  0.27159084762E+03 -0.40272346421E+03  0.11218938961E+04  0.10031000021E+04 0.  0.
         13    1    3    3    0    0  0.36439942334E+03 -0.24264743526E+03 -0.18928860999E+02  0.43820432507E+03  0.10566000000E+00 0. -1.
         -4    1    3    3    0  502 -0.23599178062E+03  0.51423828288E+03 -0.38379460321E+03  0.68368957105E+03  0.00000000000E+00 0. -1.
        -13    1    1    2    0    0 -0.12840764272E+03 -0.27159084762E+03  0.60146733988E+03  0.67231918262E+03  0.10566000000E+00 0.  1.
<mgrwt>
<rscale>  1 0.76635189E+03</rscale>
<asrwt>0</asrwt>
<pdfrwt beam="2">  1       21 0.12272840E+00 0.10471197E+04</pdfrwt>
<pdfrwt beam="1">  1       -4 0.15330438E+00 0.10471197E+04</pdfrwt>
<totfact> 0.50655276E+00</totfact>
</mgrwt>
</event>
<event>
 6    2  0.2321478E-005  0.1015458E+04  0.7818608E-02  0.9921946E-01
         -4   -1    0    0    0  501 -0.00000000000E+00  0.00000000000E+00  0.12949914175E+04  0.12949914175E+04  0.00000000000E+00 0. -1.
         21   -1    0    0  501  502  0.00000000000E+00 -0.00000000000E+00 -0.24774899598E+03  0.24774899598E+03  0.00000000000E+00 0. -1.
   -9000010    2    1    2    0  502  0.10484265576E+03  0.52773120586E+02  0.93683797774E+03  0.13816002971E+04  0.10086510793E+04 0.  0.
         13    1    3    3    0    0  0.19683122466E+03 -0.30323912203E+03 -0.14359313939E+02  0.36180477773E+03  0.10566000000E+00 0. -1.
         -4    1    3    3    0  502 -0.91988568893E+02  0.35601224261E+03  0.95119729168E+03  0.10197955194E+04  0.00000000000E+00 0. -1.
        -13    1    1    2    0    0 -0.10484265576E+03 -0.52773120586E+02  0.11040444378E+03  0.16114011634E+03  0.10566000000E+00 0.  1.
<mgrwt>
<rscale>  1 0.59209397E+03</rscale>
<asrwt>0</asrwt>
<pdfrwt beam="2">  1       21 0.38115231E-01 0.10154575E+04</pdfrwt>
<pdfrwt beam="1">  1       -4 0.19922944E+00 0.10154575E+04</pdfrwt>
<totfact> 0.35523950E+01</totfact>
</mgrwt>
</event>
<event>
 6    2  0.2321478E-005  0.8821626E+03  0.7818608E-02  0.1011405E+00
         21   -1    0    0  501  502  0.00000000000E+00  0.00000000000E+00  0.21232219621E+04  0.21232219621E+04  0.00000000000E+00 0. -1.
         -4   -1    0    0    0  501 -0.00000000000E+00 -0.00000000000E+00 -0.14841913563E+03  0.14841913563E+03  0.00000000000E+00 0. -1.
   -9000010    2    1    2    0  502 -0.83139367404E+02 -0.51749714740E+02  0.19859645190E+04  0.21730775043E+04  0.87671008999E+03 0.  0.
         13    1    3    3    0    0 -0.88017495699E+02 -0.80865068600E+02 -0.55230693463E+02  0.13166882521E+03  0.10566000000E+00 0. -1.
         -4    1    3    3    0  502  0.48781282949E+01  0.29115353861E+02  0.20411952124E+04  0.20414086791E+04  0.00000000000E+00 0. -1.
        -13    1    1    2    0    0  0.83139367404E+02  0.51749714740E+02 -0.11161692540E+02  0.98563593342E+02  0.10566000000E+00 0.  1.
<mgrwt>
<rscale>  1 0.50920178E+03</rscale>
<asrwt>0</asrwt>
<pdfrwt beam="1">  1       21 0.32664951E+00 0.88216255E+03</pdfrwt>
<pdfrwt beam="2">  1       -4 0.22833715E-01 0.88216255E+03</pdfrwt>
<totfact> 0.13532551E+01</totfact>
</mgrwt>
</event>
<event>
 6    2  0.2321478E-005  0.1107940E+04  0.7818608E-02  0.9419235E-01
         21   -1    0    0  501  502  0.00000000000E+00  0.00000000000E+00  0.48035992471E+03  0.48035992471E+03  0.00000000000E+00 0. -1.
         -4   -1    0    0    0  501 -0.00000000000E+00 -0.00000000000E+00 -0.25880697829E+04  0.25880697829E+04  0.00000000000E+00 0. -1.
   -9000010    2    1    2    0  502 -0.25097111745E+03  0.42483886124E+03 -0.23603245078E+03  0.11328029646E+04  0.99199630993E+03 0.  0.
         13    1    3    3    0    0  0.66232906496E+02 -0.27414248115E+03  0.93982876111E+02  0.29727712667E+03  0.10566000000E+00 0. -1.
         -4    1    3    3    0  502 -0.31720402394E+03  0.69898134240E+03 -0.33001532689E+03  0.83552583790E+03  0.00000000000E+00 0. -1.
        -13    1    1    2    0    0  0.25097111745E+03 -0.42483886124E+03 -0.18716774074E+04  0.19356267430E+04  0.10566000000E+00 0.  1.
<mgrwt>
<rscale>  1 0.90509446E+03</rscale>
<asrwt>0</asrwt>
<pdfrwt beam="1">  1       21 0.73901529E-01 0.11079401E+04</pdfrwt>
<pdfrwt beam="2">  1       -4 0.39816457E+00 0.11079401E+04</pdfrwt>
<totfact> 0.44128058E-01</totfact>
</mgrwt>
</event>
<event>
 6    2  0.2321478E-005  0.9979442E+03  0.7818608E-02  0.1013374E+00
         21   -1    0    0  501  502  0.00000000000E+00  0.00000000000E+00  0.10011842442E+04  0.10011842442E+04  0.00000000000E+00 0. -1.
         -4   -1    0    0    0  501 -0.00000000000E+00 -0.00000000000E+00 -0.34154114117E+03  0.34154114117E+03  0.00000000000E+00 0. -1.
   -9000010    2    1    2    0  502 -0.63048073492E+02  0.89012234530E+01  0.73841993639E+03  0.12414332733E+04  0.99591077824E+03 0.  0.
         13    1    3    3    0    0 -0.10128992285E+03  0.24377823945E+03  0.91034999386E+03  0.94785262619E+03  0.10566000000E+00 0. -1.
         -4    1    3    3    0  502  0.38241849354E+02 -0.23487701599E+03 -0.17193005747E+03  0.29358064709E+03  0.00000000000E+00 0. -1.
        -13    1    1    2    0    0  0.63048073492E+02 -0.89012234530E+01 -0.78776833312E+02  0.10129211213E+03  0.10566000000E+00 0.  1.
<mgrwt>
<rscale>  1 0.50155574E+03</rscale>
<asrwt>0</asrwt>
<pdfrwt beam="1">  1       21 0.15402834E+00 0.99794417E+03</pdfrwt>
<pdfrwt beam="2">  1       -4 0.52544791E-01 0.99794417E+03</pdfrwt>
<totfact> 0.34944982E+01</totfact>
</mgrwt>
</event>
<event>
 6    2  0.2321478E-005  0.1175288E+04  0.7818608E-02  0.9374448E-01
         21   -1    0    0  501  502  0.00000000000E+00  0.00000000000E+00  0.44593543313E+03  0.44593543313E+03  0.00000000000E+00 0. -1.
         -4   -1    0    0    0  501 -0.00000000000E+00 -0.00000000000E+00 -0.15671662012E+04  0.15671662012E+04  0.00000000000E+00 0. -1.
   -9000010    2    1    2    0  502  0.29057530575E+03 -0.38858153572E+03 -0.68329492331E+03  0.13594829125E+04  0.10704542115E+04 0.  0.
         13    1    3    3    0    0  0.15539454902E+03  0.27826738527E+03  0.88313749325E+02  0.33072576715E+03  0.10566000000E+00 0. -1.
         -4    1    3    3    0  502  0.13518075673E+03 -0.66684892099E+03 -0.77160867263E+03  0.10287571453E+04  0.00000000000E+00 0. -1.
        -13    1    1    2    0    0 -0.29057530575E+03  0.38858153572E+03 -0.43793584473E+03  0.65361872179E+03  0.10566000000E+00 0.  1.
<mgrwt>
<rscale>  1 0.94208667E+03</rscale>
<asrwt>0</asrwt>
<pdfrwt beam="1">  1       21 0.68605451E-01 0.11752880E+04</pdfrwt>
<pdfrwt beam="2">  1       -4 0.24110249E+00 0.11752880E+04</pdfrwt>
<totfact> 0.52370488E+00</totfact>
</mgrwt>
</event>
<event>
 6    2  0.2321478E-005  0.9521100E+03  0.7818608E-02  0.9943477E-01
         21   -1    0    0  501  502  0.00000000000E+00  0.00000000000E+00  0.74152146826E+03  0.74152146826E+03  0.00000000000E+00 0. -1.
         -4   -1    0    0    0  501 -0.00000000000E+00 -0.00000000000E+00 -0.41273585960E+03  0.41273585960E+03  0.00000000000E+00 0. -1.
   -9000010    2    1    2    0  502 -0.14484920623E+02  0.13213798120E+03  0.20781937681E+03  0.97452669773E+03  0.94278477512E+03 0.  0.
         13    1    3    3    0    0 -0.16226536435E+03  0.26398566304E+03  0.51970617098E+03  0.60507271801E+03  0.10566000000E+00 0. -1.
         -4    1    3    3    0  502  0.14778044372E+03 -0.13184768184E+03 -0.31188679417E+03  0.36945397972E+03  0.00000000000E+00 0. -1.
        -13    1    1    2    0    0  0.14484920623E+02 -0.13213798120E+03  0.12096623184E+03  0.17973063014E+03  0.10566000000E+00 0.  1.
<mgrwt>
<rscale>  1 0.58199705E+03</rscale>
<asrwt>0</asrwt>
<pdfrwt beam="1">  1       21 0.11408023E+00 0.95210997E+03</pdfrwt>
<pdfrwt beam="2">  1       -4 0.63497825E-01 0.95210997E+03</pdfrwt>
<totfact> 0.52039773E+01</totfact>
</mgrwt>
</event>
<event>
 6    2  0.2321478E-005  0.1090185E+04  0.7818608E-02  0.9460724E-01
         -4   -1    0    0    0  501 -0.00000000000E+00  0.00000000000E+00  0.12859808393E+04  0.12859808393E+04  0.00000000000E+00 0. -1.
         21   -1    0    0  501  502  0.00000000000E+00 -0.00000000000E+00 -0.45949854394E+03  0.45949854394E+03  0.00000000000E+00 0.  1.
   -9000010    2    1    2    0  502 -0.31241316913E+03 -0.31984694706E+03  0.57629514747E+03  0.12331341111E+04  0.99428345109E+03 0.  0.
         13    1    3    3    0    0  0.73320116486E+02  0.26614112723E+03 -0.63933935687E+02  0.28336283874E+03  0.10566000000E+00 0. -1.
         -4    1    3    3    0  502 -0.38573328562E+03 -0.58598807429E+03  0.64022908315E+03  0.94977127234E+03  0.00000000000E+00 0. -1.
        -13    1    1    2    0    0  0.31241316913E+03  0.31984694706E+03  0.25018714795E+03  0.51234527221E+03  0.10566000000E+00 0.  1.
<mgrwt>
<rscale>  1 0.87242459E+03</rscale>
<asrwt>0</asrwt>
<pdfrwt beam="2">  1       21 0.70692084E-01 0.10901851E+04</pdfrwt>
<pdfrwt beam="1">  1       -4 0.19784321E+00 0.10901851E+04</pdfrwt>
<totfact> 0.93587484E+00</totfact>
</mgrwt>
</event>
<event>
 6    2  0.2321478E-005  0.1031052E+04  0.7818608E-02  0.9786922E-01
         21   -1    0    0  501  502  0.00000000000E+00  0.00000000000E+00  0.69373259476E+03  0.69373259476E+03  0.00000000000E+00 0. -1.
         -4   -1    0    0    0  501 -0.00000000000E+00 -0.00000000000E+00 -0.52401179852E+03  0.52401179852E+03  0.00000000000E+00 0. -1.
   -9000010    2    1    2    0  502  0.15776459476E+03 -0.73013579584E+02  0.12799783712E+03  0.10389666915E+04  0.10162911441E+04 0.  0.
         13    1    3    3    0    0  0.55736161395E+03 -0.11730681791E+03 -0.97718918927E+02  0.57789432988E+03  0.10566000000E+00 0. -1.
         -4    1    3    3    0  502 -0.39959701918E+03  0.44293238322E+02  0.22571675605E+03  0.46107236163E+03  0.00000000000E+00 0. -1.
        -13    1    1    2    0    0 -0.15776459476E+03  0.73013579584E+02  0.41722959121E+02  0.17877770176E+03  0.10566000000E+00 0.  1.
<mgrwt>
<rscale>  1 0.66069116E+03</rscale>
<asrwt>0</asrwt>
<pdfrwt beam="1">  1       21 0.10672809E+00 0.10310521E+04</pdfrwt>
<pdfrwt beam="2">  1       -4 0.80617200E-01 0.10310521E+04</pdfrwt>
<totfact> 0.35765555E+01</totfact>
</mgrwt>
</event>
<event>
 6    2  0.2321478E-005  0.9948616E+03  0.7818608E-02  0.9909778E-01
         21   -1    0    0  501  502  0.00000000000E+00  0.00000000000E+00  0.28905096352E+03  0.28905096352E+03  0.00000000000E+00 0. -1.
         -4   -1    0    0    0  501 -0.00000000000E+00 -0.00000000000E+00 -0.15678748098E+04  0.15678748098E+04  0.00000000000E+00 0. -1.
   -9000010    2    1    2    0  502 -0.92978341581E+02  0.90546823229E+02 -0.59142413371E+03  0.11573815823E+04  0.98635993527E+03 0.  0.
         13    1    3    3    0    0  0.77376251835E+02  0.32060444560E+03 -0.75767373378E+03  0.82634362883E+03  0.10566000000E+00 0. -1.
         -4    1    3    3    0  502 -0.17035459342E+03 -0.23005762237E+03  0.16624960007E+03  0.33103795346E+03  0.00000000000E+00 0. -1.
        -13    1    1    2    0    0  0.92978341581E+02 -0.90546823229E+02 -0.68739971252E+03  0.69954419098E+03  0.10566000000E+00 0.  1.
<mgrwt>
<rscale>  1 0.59789748E+03</rscale>
<asrwt>0</asrwt>
<pdfrwt beam="1">  1       21 0.44469379E-01 0.99486161E+03</pdfrwt>
<pdfrwt beam="2">  1       -4 0.24121151E+00 0.99486161E+03</pdfrwt>
<totfact> 0.13873250E+01</totfact>
</mgrwt>
</event>
<event>
 6    2  0.2321478E-005  0.1155890E+04  0.7818608E-02  0.9672701E-01
         -4   -1    0    0    0  501 -0.00000000000E+00  0.00000000000E+00  0.47112460011E+03  0.47112460011E+03  0.00000000000E+00 0. -1.
         21   -1    0    0  501  502  0.00000000000E+00 -0.00000000000E+00 -0.95485943428E+03  0.95485943428E+03  0.00000000000E+00 0. -1.
   -9000010    2    1    2    0  502 -0.25244300713E+02 -0.17876392630E+03 -0.45930035111E+03  0.12438004150E+04  0.11417043591E+04 0.  0.
         13    1    3    3    0    0 -0.42628531773E+03 -0.48652877913E+03 -0.30568770290E+03  0.71545398727E+03  0.10566000000E+00 0. -1.
         -4    1    3    3    0  502  0.40104101701E+03  0.30776485283E+03 -0.15361264821E+03  0.52834642769E+03  0.00000000000E+00 0. -1.
        -13    1    1    2    0    0  0.25244300713E+02  0.17876392630E+03 -0.24434483058E+02  0.18218361943E+03  0.10566000000E+00 0.  1.
<mgrwt>
<rscale>  1 0.72665693E+03</rscale>
<asrwt>0</asrwt>
<pdfrwt beam="2">  1       21 0.14690145E+00 0.11558904E+04</pdfrwt>
<pdfrwt beam="1">  1       -4 0.72480708E-01 0.11558904E+04</pdfrwt>
<totfact> 0.19406762E+01</totfact>
</mgrwt>
</event>
<event>
 6    2  0.2321478E-005  0.1002493E+04  0.7818608E-02  0.1000111E+00
         -4   -1    0    0    0  501 -0.00000000000E+00  0.00000000000E+00  0.31684598599E+03  0.31684598599E+03  0.00000000000E+00 0. -1.
         21   -1    0    0  501  502  0.00000000000E+00 -0.00000000000E+00 -0.96713342026E+03  0.96713342026E+03  0.00000000000E+00 0. -1.
   -9000010    2    1    2    0  502 -0.21781610668E+02 -0.92329621805E+02 -0.63807792276E+03  0.11883327599E+04  0.99799404561E+03 0.  0.
         13    1    3    3    0    0  0.96958815189E+02  0.14161661539E+03  0.22686778789E+03  0.28447369289E+03  0.10566000000E+00 0. -1.
         -4    1    3    3    0  502 -0.11874042586E+03 -0.23394623720E+03 -0.86494571065E+03  0.90385906700E+03  0.00000000000E+00 0. -1.
        -13    1    1    2    0    0  0.21781610668E+02  0.92329621805E+02 -0.12209511512E+02  0.95646646367E+02  0.10566000000E+00 0.  1.
<mgrwt>
<rscale>  1 0.55601487E+03</rscale>
<asrwt>0</asrwt>
<pdfrwt beam="2">  1       21 0.14878975E+00 0.10024925E+04</pdfrwt>
<pdfrwt beam="1">  1       -4 0.48745537E-01 0.10024925E+04</pdfrwt>
<totfact> 0.45092824E+01</totfact>
</mgrwt>
</event>
<event>
 6    2  0.2321478E-005  0.9933175E+03  0.7818608E-02  0.1023573E+00
         -4   -1    0    0    0  501 -0.00000000000E+00  0.00000000000E+00  0.33983950310E+03  0.33983950310E+03  0.00000000000E+00 0. -1.
         21   -1    0    0  501  502  0.00000000000E+00 -0.00000000000E+00 -0.80941282284E+03  0.80941282284E+03  0.00000000000E+00 0. -1.
   -9000010    2    1    2    0  502  0.14030426911E+02  0.45246264654E+02 -0.47594301845E+03  0.11014541924E+04  0.99218723223E+03 0.  0.
         13    1    3    3    0    0 -0.54151733764E+02  0.48078244553E+03 -0.46556508766E+02  0.48605729073E+03  0.10566000000E+00 0. -1.
         -4    1    3    3    0  502  0.68182160675E+02 -0.43553618087E+03 -0.42938650968E+03  0.61539690167E+03  0.00000000000E+00 0. -1.
        -13    1    1    2    0    0 -0.14030426911E+02 -0.45246264654E+02  0.63696987104E+01  0.47798133543E+02  0.10566000000E+00 0.  1.
<mgrwt>
<rscale>  1 0.46419029E+03</rscale>
<asrwt>0</asrwt>
<pdfrwt beam="2">  1       21 0.12452505E+00 0.99331746E+03</pdfrwt>
<pdfrwt beam="1">  1       -4 0.52283001E-01 0.99331746E+03</pdfrwt>
<totfact> 0.62913169E+01</totfact>
</mgrwt>
</event>
<event>
 6    2  0.2321478E-005  0.1060000E+04  0.7818608E-02  0.9561875E-01
         -4   -1    0    0    0  501 -0.00000000000E+00  0.00000000000E+00  0.95288692383E+03  0.95288692383E+03  0.00000000000E+00 0. -1.
         21   -1    0    0  501  502  0.00000000000E+00 -0.00000000000E+00 -0.59429178836E+03  0.59429178836E+03  0.00000000000E+00 0. -1.
   -9000010    2    1    2    0  502 -0.13470625182E+03  0.31403653505E+03  0.11437825198E+02  0.10600617561E+04  0.10034118712E+04 0.  0.
         13    1    3    3    0    0  0.22479692542E+02 -0.17250587648E+03  0.38789571756E+03  0.42511964535E+03  0.10566000000E+00 0. -1.
         -4    1    3    3    0  502 -0.15718594436E+03  0.48654241153E+03 -0.37645789236E+03  0.63494211079E+03  0.00000000000E+00 0. -1.
        -13    1    1    2    0    0  0.13470625182E+03 -0.31403653505E+03  0.34715731028E+03  0.48711695605E+03  0.10566000000E+00 0.  1.
<mgrwt>
<rscale>  1 0.79871782E+03</rscale>
<asrwt>0</asrwt>
<pdfrwt beam="2">  1       21 0.91429506E-01 0.10600000E+04</pdfrwt>
<pdfrwt beam="1">  1       -4 0.14659799E+00 0.10600000E+04</pdfrwt>
<totfact> 0.11966783E+01</totfact>
</mgrwt>
</event>
<event>
 6    2  0.2321478E-005  0.1105731E+04  0.7818608E-02  0.9443466E-01
         -4   -1    0    0    0  501 -0.00000000000E+00  0.00000000000E+00  0.11086852256E+04  0.11086852256E+04  0.00000000000E+00 0. -1.
         21   -1    0    0  501  502  0.00000000000E+00 -0.00000000000E+00 -0.65095092473E+03  0.65095092473E+03  0.00000000000E+00 0.  1.
   -9000010    2    1    2    0  502  0.16054108412E+03  0.42623765810E+03  0.63007847194E+03  0.12726510322E+04  0.10075662698E+04 0.  0.
         13    1    3    3    0    0 -0.20361761603E+03  0.21000571958E+03  0.77234136645E+03  0.82587755346E+03  0.10566000000E+00 0. -1.
         -4    1    3    3    0  502  0.36415870015E+03  0.21623193851E+03 -0.14226289451E+03  0.44677347872E+03  0.00000000000E+00 0. -1.
        -13    1    1    2    0    0 -0.16054108412E+03 -0.42623765810E+03 -0.17234417104E+03  0.48698511818E+03  0.10566000000E+00 0.  1.
<mgrwt>
<rscale>  1 0.88583323E+03</rscale>
<asrwt>0</asrwt>
<pdfrwt beam="2">  1       21 0.10014630E+00 0.11057313E+04</pdfrwt>
<pdfrwt beam="1">  1       -4 0.17056696E+00 0.11057313E+04</pdfrwt>
<totfact> 0.62845926E+00</totfact>
</mgrwt>
</event>
<event>
 6    2  0.2321478E-005  0.1017718E+04  0.7818608E-02  0.9774370E-01
         21   -1    0    0  501  502  0.00000000000E+00  0.00000000000E+00  0.27128420286E+03  0.27128420286E+03  0.00000000000E+00 0. -1.
         -4   -1    0    0    0  501 -0.00000000000E+00 -0.00000000000E+00 -0.14658390920E+04  0.14658390920E+04  0.00000000000E+00 0. -1.
   -9000010    2    1    2    0  502  0.32612922540E+02  0.18555806640E+03 -0.78159054838E+03  0.12832125585E+04  0.10001276349E+04 0.  0.
         13    1    3    3    0    0  0.50034365795E+03 -0.31948904749E+02 -0.36463867940E+03  0.61994022796E+03  0.10566000000E+00 0. -1.
         -4    1    3    3    0  502 -0.46773073541E+03  0.21750697115E+03 -0.41695186898E+03  0.66327233049E+03  0.00000000000E+00 0. -1.
        -13    1    1    2    0    0 -0.32612922540E+02 -0.18555806640E+03 -0.41296434072E+03  0.45391073637E+03  0.10566000000E+00 0.  1.
<mgrwt>
<rscale>  1 0.66756297E+03</rscale>
<asrwt>0</asrwt>
<pdfrwt beam="1">  1       21 0.41736031E-01 0.10177184E+04</pdfrwt>
<pdfrwt beam="2">  1       -4 0.22551371E+00 0.10177184E+04</pdfrwt>
<totfact> 0.19857045E+01</totfact>
</mgrwt>
</event>
<event>
 6    2  0.2321478E-005  0.1075223E+04  0.7818608E-02  0.9679255E-01
         -4   -1    0    0    0  501 -0.00000000000E+00  0.00000000000E+00  0.17446943211E+04  0.17446943211E+04  0.00000000000E+00 0. -1.
         21   -1    0    0  501  502  0.00000000000E+00 -0.00000000000E+00 -0.24112707531E+03  0.24112707531E+03  0.00000000000E+00 0. -1.
   -9000010    2    1    2    0  502  0.12293453922E+03  0.18171889056E+03  0.11995687825E+04  0.16109217659E+04  0.10526010715E+04 0.  0.
         13    1    3    3    0    0  0.50913302902E+03 -0.73462488422E+02  0.96136529779E+03  0.10903377575E+04  0.10566000000E+00 0. -1.
         -4    1    3    3    0  502 -0.38619848980E+03  0.25518137898E+03  0.23820348476E+03  0.52058400845E+03  0.00000000000E+00 0. -1.
        -13    1    1    2    0    0 -0.12293453922E+03 -0.18171889056E+03  0.30399846326E+03  0.37489963050E+03  0.10566000000E+00 0.  1.
<mgrwt>
<rscale>  1 0.72265505E+03</rscale>
<asrwt>0</asrwt>
<pdfrwt beam="2">  1       21 0.37096474E-01 0.10752226E+04</pdfrwt>
<pdfrwt beam="1">  1       -4 0.26841450E+00 0.10752226E+04</pdfrwt>
<totfact> 0.13653581E+01</totfact>
</mgrwt>
</event>
<event>
 6    2  0.2321478E-005  0.1009112E+04  0.7818608E-02  0.9824141E-01
         21   -1    0    0  501  502  0.00000000000E+00  0.00000000000E+00  0.27773881721E+03  0.27773881721E+03  0.00000000000E+00 0. -1.
         -4   -1    0    0    0  501 -0.00000000000E+00 -0.00000000000E+00 -0.14800184522E+04  0.14800184522E+04  0.00000000000E+00 0. -1.
   -9000010    2    1    2    0  502  0.16182512515E+03 -0.27327800518E+02 -0.69682001238E+03  0.12263218349E+04  0.99567712301E+03 0.  0.
         13    1    3    3    0    0  0.12840947511E+03 -0.46741032687E+03 -0.60550094689E+03  0.77562414533E+03  0.10566000000E+00 0. -1.
         -4    1    3    3    0  502  0.33415650034E+02  0.44008252635E+03 -0.91319065490E+02  0.45069768958E+03  0.00000000000E+00 0. -1.
        -13    1    1    2    0    0 -0.16182512515E+03  0.27327800518E+02 -0.50545962260E+03  0.53143543451E+03  0.10566000000E+00 0.  1.
<mgrwt>
<rscale>  1 0.64082956E+03</rscale>
<asrwt>0</asrwt>
<pdfrwt beam="1">  1       21 0.42729050E-01 0.10091120E+04</pdfrwt>
<pdfrwt beam="2">  1       -4 0.22769514E+00 0.10091120E+04</pdfrwt>
<totfact> 0.18322010E+01</totfact>
</mgrwt>
</event>
<event>
 6    2  0.2321478E-005  0.1046065E+04  0.7818608E-02  0.9805010E-01
         21   -1    0    0  501  502  0.00000000000E+00  0.00000000000E+00  0.10963607491E+04  0.10963607491E+04  0.00000000000E+00 0. -1.
         -4   -1    0    0    0  501 -0.00000000000E+00 -0.00000000000E+00 -0.94527135548E+03  0.94527135548E+03  0.00000000000E+00 0. -1.
   -9000010    2    1    2    0  502 -0.46592477468E+02 -0.14977527506E+03  0.83594078927E+03  0.13390476348E+04  0.10342379190E+04 0.  0.
         13    1    3    3    0    0 -0.33169944912E+03  0.13466897878E+03 -0.54166928535E+02  0.36206950397E+03  0.10566000000E+00 0. -1.
         -4    1    3    3    0  502  0.28510697165E+03 -0.28444425385E+03  0.89010771781E+03  0.97697813084E+03  0.00000000000E+00 0. -1.
        -13    1    1    2    0    0  0.46592477468E+02  0.14977527506E+03 -0.68485139562E+03  0.70258446981E+03  0.10566000000E+00 0.  1.
<mgrwt>
<rscale>  1 0.65094390E+03</rscale>
<asrwt>0</asrwt>
<pdfrwt beam="1">  1       21 0.16867088E+00 0.10460648E+04</pdfrwt>
<pdfrwt beam="2">  1       -4 0.14542636E+00 0.10460648E+04</pdfrwt>
<totfact> 0.24286892E+00</totfact>
</mgrwt>
</event>
<event>
 6    2  0.2321478E-005  0.1102010E+04  0.7818608E-02  0.9446091E-01
         -4   -1    0    0    0  501 -0.00000000000E+00  0.00000000000E+00  0.18008781196E+04  0.18008781196E+04  0.00000000000E+00 0. -1.
         21   -1    0    0  501  502  0.00000000000E+00 -0.00000000000E+00 -0.51213074097E+03  0.51213074097E+03  0.00000000000E+00 0. -1.
   -9000010    2    1    2    0  502 -0.12924603807E+03  0.43713506855E+03  0.18315026646E+03  0.11171256756E+04  0.10033115909E+04 0.  0.
         13    1    3    3    0    0  0.23221163268E+03 -0.11133053481E+03  0.35461318099E+03  0.43825477708E+03  0.10566000000E+00 0. -1.
         -4    1    3    3    0  502 -0.36145767075E+03  0.54846560336E+03 -0.17146291453E+03  0.67887089853E+03  0.00000000000E+00 0. -1.
        -13    1    1    2    0    0  0.12924603807E+03 -0.43713506855E+03  0.11055971122E+04  0.11958831850E+04  0.10566000000E+00 0.  1.
<mgrwt>
<rscale>  1 0.88377684E+03</rscale>
<asrwt>0</asrwt>
<pdfrwt beam="2">  1       21 0.78789345E-01 0.11020099E+04</pdfrwt>
<pdfrwt beam="1">  1       -4 0.27705817E+00 0.11020099E+04</pdfrwt>
<totfact> 0.22955824E+00</totfact>
</mgrwt>
</event>
<event>
 6    2  0.2321478E-005  0.1001057E+04  0.7818608E-02  0.9811722E-01
         -4   -1    0    0    0  501 -0.00000000000E+00  0.00000000000E+00  0.91628272747E+03  0.91628272747E+03  0.00000000000E+00 0. -1.
         21   -1    0    0  501  502  0.00000000000E+00 -0.00000000000E+00 -0.39115414020E+03  0.39115414020E+03  0.00000000000E+00 0. -1.
   -9000010    2    1    2    0  502  0.71962477749E+02 -0.15960913625E+03  0.35180935929E+03  0.10610768861E+04  0.98562703813E+03 0.  0.
         13    1    3    3    0    0 -0.80296118239E+02  0.83495179844E+02 -0.31476395703E+03  0.33540314768E+03  0.10566000000E+00 0. -1.
         -4    1    3    3    0  502  0.15225859599E+03 -0.24310431610E+03  0.66657331633E+03  0.72567373839E+03  0.00000000000E+00 0. -1.
        -13    1    1    2    0    0 -0.71962477749E+02  0.15960913625E+03  0.17331922798E+03  0.24635998160E+03  0.10566000000E+00 0.  1.
<mgrwt>
<rscale>  1 0.64737260E+03</rscale>
<asrwt>0</asrwt>
<pdfrwt beam="2">  1       21 0.60177560E-01 0.10010566E+04</pdfrwt>
<pdfrwt beam="1">  1       -4 0.14096657E+00 0.10010566E+04</pdfrwt>
<totfact> 0.35263171E+01</totfact>
</mgrwt>
</event>
<event>
 6    2  0.2321478E-005  0.1270595E+04  0.7818608E-02  0.9185483E-01
         21   -1    0    0  501  502  0.00000000000E+00  0.00000000000E+00  0.11426495751E+04  0.11426495751E+04  0.00000000000E+00 0.  1.
         -4   -1    0    0    0  501 -0.00000000000E+00 -0.00000000000E+00 -0.10165962315E+04  0.10165962315E+04  0.00000000000E+00 0. -1.
   -9000010    2    1    2    0  502  0.38369686363E+03 -0.66567390696E+03 -0.26375179394E+03  0.12976814794E+04  0.10119620445E+04 0.  0.
         13    1    3    3    0    0  0.31261202017E+03 -0.46196175612E+03  0.34224525740E+03  0.65442093995E+03  0.10566000000E+00 0. -1.
         -4    1    3    3    0  502  0.71084843462E+02 -0.20371215085E+03 -0.60599705134E+03  0.64326053944E+03  0.00000000000E+00 0. -1.
        -13    1    1    2    0    0 -0.38369686363E+03  0.66567390696E+03  0.38980513758E+03  0.86156432727E+03  0.10566000000E+00 0.  1.
<mgrwt>
<rscale>  1 0.11204532E+04</rscale>
<asrwt>0</asrwt>
<pdfrwt beam="1">  1       21 0.17579224E+00 0.12705952E+04</pdfrwt>
<pdfrwt beam="2">  1       -4 0.15639942E+00 0.12705952E+04</pdfrwt>
<totfact> 0.17132992E+00</totfact>
</mgrwt>
</event>
<event>
 6    2  0.2321478E-005  0.1020939E+04  0.7818608E-02  0.9792356E-01
         21   -1    0    0  501  502  0.00000000000E+00  0.00000000000E+00  0.24316996469E+03  0.24316996469E+03  0.00000000000E+00 0. -1.
         -4   -1    0    0    0  501 -0.00000000000E+00 -0.00000000000E+00 -0.14951015376E+04  0.14951015376E+04  0.00000000000E+00 0. -1.
   -9000010    2    1    2    0  502 -0.18294618910E+02 -0.17493043375E+03 -0.98526795351E+03  0.14188269111E+04  0.10056746561E+04 0.  0.
         13    1    3    3    0    0 -0.12477504931E+03 -0.54703505671E+03 -0.31136713424E+03  0.64168969888E+03  0.10566000000E+00 0. -1.
         -4    1    3    3    0  502  0.10648043040E+03  0.37210462296E+03 -0.67390081927E+03  0.77713721227E+03  0.00000000000E+00 0. -1.
        -13    1    1    2    0    0  0.18294618910E+02  0.17493043375E+03 -0.26666361941E+03  0.31944459114E+03  0.10566000000E+00 0.  1.
<mgrwt>
<rscale>  1 0.65774387E+03</rscale>
<asrwt>0</asrwt>
<pdfrwt beam="1">  1       21 0.37410763E-01 0.10209392E+04</pdfrwt>
<pdfrwt beam="2">  1       -4 0.23001562E+00 0.10209392E+04</pdfrwt>
<totfact> 0.23371010E+01</totfact>
</mgrwt>
</event>
<event>
 6    2  0.2321478E-005  0.1036082E+04  0.7818608E-02  0.9781302E-01
         -4   -1    0    0    0  501 -0.00000000000E+00  0.00000000000E+00  0.14131072798E+04  0.14131072798E+04  0.00000000000E+00 0. -1.
         21   -1    0    0  501  502  0.00000000000E+00 -0.00000000000E+00 -0.30597071322E+03  0.30597071322E+03  0.00000000000E+00 0. -1.
   -9000010    2    1    2    0  502  0.11062485164E+03 -0.13498349048E+03  0.11410896956E+04  0.15412825301E+04  0.10212775057E+04 0.  0.
         13    1    3    3    0    0 -0.93699705797E+02 -0.11011083065E+03  0.12830962349E+04  0.12912164765E+04  0.10566000000E+00 0. -1.
         -4    1    3    3    0  502  0.20432455744E+03 -0.24872659827E+02 -0.14200653928E+03  0.25006605363E+03  0.00000000000E+00 0. -1.
        -13    1    1    2    0    0 -0.11062485164E+03  0.13498349048E+03 -0.33953129038E+02  0.17779546293E+03  0.10566000000E+00 0.  1.
<mgrwt>
<rscale>  1 0.66375697E+03</rscale>
<asrwt>0</asrwt>
<pdfrwt beam="2">  1       21 0.47072418E-01 0.10360821E+04</pdfrwt>
<pdfrwt beam="1">  1       -4 0.21740112E+00 0.10360821E+04</pdfrwt>
<totfact> 0.17285350E+01</totfact>
</mgrwt>
</event>
<event>
 6    2  0.2321478E-005  0.1118057E+04  0.7818608E-02  0.9394054E-01
         21   -1    0    0  501  502  0.00000000000E+00  0.00000000000E+00  0.66216343026E+03  0.66216343026E+03  0.00000000000E+00 0. -1.
         -4   -1    0    0    0  501 -0.00000000000E+00 -0.00000000000E+00 -0.10417403405E+04  0.10417403405E+04  0.00000000000E+00 0. -1.
   -9000010    2    1    2    0  502 -0.52310685460E+03  0.48197850890E+02 -0.14089186784E+03  0.11268991132E+04  0.98695860034E+03 0.  0.
         13    1    3    3    0    0  0.18077543707E+03  0.13200235092E+03 -0.32490800269E+03  0.39454987096E+03  0.10566000000E+00 0. -1.
         -4    1    3    3    0  502 -0.70388229167E+03 -0.83804500029E+02  0.18401613485E+03  0.73234924226E+03  0.00000000000E+00 0. -1.
        -13    1    1    2    0    0  0.52310685460E+03 -0.48197850890E+02 -0.23868504237E+03  0.57700465750E+03  0.10566000000E+00 0.  1.
<mgrwt>
<rscale>  1 0.92566625E+03</rscale>
<asrwt>0</asrwt>
<pdfrwt beam="1">  1       21 0.10187130E+00 0.11180568E+04</pdfrwt>
<pdfrwt beam="2">  1       -4 0.16026775E+00 0.11180568E+04</pdfrwt>
<totfact> 0.71570473E+00</totfact>
</mgrwt>
</event>
<event>
 6    2  0.2321478E-005  0.1003658E+04  0.7818608E-02  0.9974481E-01
         21   -1    0    0  501  502  0.00000000000E+00  0.00000000000E+00  0.12969639331E+04  0.12969639331E+04  0.00000000000E+00 0. -1.
         -4   -1    0    0    0  501 -0.00000000000E+00 -0.00000000000E+00 -0.29344795475E+03  0.29344795475E+03  0.00000000000E+00 0. -1.
   -9000010    2    1    2    0  502  0.27827326336E+02  0.98996131675E+02  0.10707150917E+04  0.14675691991E+04  0.99837565695E+03 0.  0.
         13    1    3    3    0    0 -0.15492022545E+03 -0.42012298890E+03  0.40439504782E+03  0.60335641865E+03  0.10566000000E+00 0. -1.
         -4    1    3    3    0  502  0.18274755179E+03  0.51911912058E+03  0.66632004387E+03  0.86421278045E+03  0.00000000000E+00 0. -1.
        -13    1    1    2    0    0 -0.27827326336E+02 -0.98996131675E+02 -0.67199113354E+02  0.12284268874E+03  0.10566000000E+00 0.  1.
<mgrwt>
<rscale>  1 0.56783505E+03</rscale>
<asrwt>0</asrwt>
<pdfrwt beam="1">  1       21 0.19953291E+00 0.10036576E+04</pdfrwt>
<pdfrwt beam="2">  1       -4 0.45145840E-01 0.10036576E+04</pdfrwt>
<totfact> 0.22233080E+01</totfact>
</mgrwt>
</event>
<event>
 6    2  0.2321478E-005  0.1040504E+04  0.7818608E-02  0.9539856E-01
         21   -1    0    0  501  502  0.00000000000E+00  0.00000000000E+00  0.42310329924E+03  0.42310329924E+03  0.00000000000E+00 0. -1.
         -4   -1    0    0    0  501 -0.00000000000E+00 -0.00000000000E+00 -0.12855966425E+04  0.12855966425E+04  0.00000000000E+00 0. -1.
   -9000010    2    1    2    0  502  0.38485745000E+03 -0.62429793207E+02 -0.80293733928E+03  0.13142894137E+04  0.96469454034E+03 0.  0.
         13    1    3    3    0    0 -0.15536636605E+03  0.33527141602E+03 -0.27431571225E+03  0.46021163746E+03  0.10566000000E+00 0. -1.
         -4    1    3    3    0  502  0.54022381605E+03 -0.39770120923E+03 -0.52862162702E+03  0.85407777620E+03  0.00000000000E+00 0. -1.
        -13    1    1    2    0    0 -0.38485745000E+03  0.62429793207E+02 -0.59556004004E+02  0.39441052810E+03  0.10566000000E+00 0.  1.
<mgrwt>
<rscale>  1 0.81408139E+03</rscale>
<asrwt>0</asrwt>
<pdfrwt beam="1">  1       21 0.65092816E-01 0.10405039E+04</pdfrwt>
<pdfrwt beam="2">  1       -4 0.19778410E+00 0.10405039E+04</pdfrwt>
<totfact> 0.11368162E+01</totfact>
</mgrwt>
</event>
<event>
 6    2  0.2321478E-005  0.1078926E+04  0.7818608E-02  0.9466184E-01
         21   -1    0    0  501  502  0.00000000000E+00  0.00000000000E+00  0.64972332374E+03  0.64972332374E+03  0.00000000000E+00 0. -1.
         -4   -1    0    0    0  501 -0.00000000000E+00 -0.00000000000E+00 -0.22925917053E+04  0.22925917053E+04  0.00000000000E+00 0. -1.
   -9000010    2    1    2    0  502  0.32918592127E+03  0.31040445577E+03  0.15354683979E+03  0.10897972948E+04  0.97947292708E+03 0.  0.
         13    1    3    3    0    0 -0.18512741818E+03  0.39150288958E+03  0.32518950517E+03  0.54156707705E+03  0.10566000000E+00 0. -1.
         -4    1    3    3    0  502  0.51431333945E+03 -0.81098433815E+02 -0.17164266538E+03  0.54823021778E+03  0.00000000000E+00 0. -1.
        -13    1    1    2    0    0 -0.32918592127E+03 -0.31040445577E+03 -0.17964152214E+04  0.18525177342E+04  0.10566000000E+00 0.  1.
<mgrwt>
<rscale>  1 0.86823502E+03</rscale>
<asrwt>0</asrwt>
<pdfrwt beam="1">  1       21 0.99957434E-01 0.10789261E+04</pdfrwt>
<pdfrwt beam="2">  1       -4 0.35270642E+00 0.10789261E+04</pdfrwt>
<totfact> 0.43390664E-01</totfact>
</mgrwt>
</event>
<event>
 6    2  0.2321478E-005  0.9960363E+03  0.7818608E-02  0.1002762E+00
         -4   -1    0    0    0  501 -0.00000000000E+00  0.00000000000E+00  0.58744956345E+03  0.58744956345E+03  0.00000000000E+00 0. -1.
         21   -1    0    0  501  502  0.00000000000E+00 -0.00000000000E+00 -0.50247261168E+03  0.50247261168E+03  0.00000000000E+00 0. -1.
   -9000010    2    1    2    0  502  0.88449762985E+02 -0.98061723077E+01  0.61746817232E+02  0.99794841854E+03  0.99205284892E+03 0.  0.
         13    1    3    3    0    0  0.46959047428E+03  0.23873964853E+03  0.11686838981E+03  0.53960176521E+03  0.10566000000E+00 0. -1.
         -4    1    3    3    0  502 -0.38114071129E+03 -0.24854582084E+03 -0.55121572573E+02  0.45834665334E+03  0.00000000000E+00 0. -1.
        -13    1    1    2    0    0 -0.88449762985E+02  0.98061723077E+01  0.23230134535E+02  0.91973756594E+02  0.10566000000E+00 0.  1.
<mgrwt>
<rscale>  1 0.54455761E+03</rscale>
<asrwt>0</asrwt>
<pdfrwt beam="2">  1       21 0.77303479E-01 0.99603633E+03</pdfrwt>
<pdfrwt beam="1">  1       -4 0.90376856E-01 0.99603633E+03</pdfrwt>
<totfact> 0.60079386E+01</totfact>
</mgrwt>
</event>
<event>
 6    2  0.2321478E-005  0.1055922E+04  0.7818608E-02  0.9576346E-01
         -4   -1    0    0    0  501 -0.00000000000E+00  0.00000000000E+00  0.42068999534E+03  0.42068999534E+03  0.00000000000E+00 0. -1.
         21   -1    0    0  501  502  0.00000000000E+00 -0.00000000000E+00 -0.15365140189E+04  0.15365140189E+04  0.00000000000E+00 0. -1.
   -9000010    2    1    2    0  502  0.31144063013E+03 -0.10560780145E+03 -0.12188093088E+04  0.16125966231E+04  0.10034059318E+04 0.  0.
         13    1    3    3    0    0  0.24923867210E+03 -0.55121548085E+03 -0.73432530924E+03  0.95141583598E+03  0.10566000000E+00 0. -1.
         -4    1    3    3    0  502  0.62201958035E+02  0.44560767940E+03 -0.48448399952E+03  0.66118078717E+03  0.00000000000E+00 0. -1.
        -13    1    1    2    0    0 -0.31144063013E+03  0.10560780145E+03  0.10298528525E+03  0.34460739105E+03  0.10566000000E+00 0.  1.
<mgrwt>
<rscale>  1 0.78881725E+03</rscale>
<asrwt>0</asrwt>
<pdfrwt beam="2">  1       21 0.23638677E+00 0.10559222E+04</pdfrwt>
<pdfrwt beam="1">  1       -4 0.64721539E-01 0.10559222E+04</pdfrwt>
<totfact> 0.58068861E+00</totfact>
</mgrwt>
</event>
<event>
 6    2  0.2321478E-005  0.1016676E+04  0.7818608E-02  0.9747432E-01
         21   -1    0    0  501  502  0.00000000000E+00  0.00000000000E+00  0.71416102999E+03  0.71416102999E+03  0.00000000000E+00 0. -1.
         -4   -1    0    0    0  501 -0.00000000000E+00 -0.00000000000E+00 -0.61543998646E+03  0.61543998646E+03  0.00000000000E+00 0. -1.
   -9000010    2    1    2    0  502 -0.11840756756E+03  0.16931835214E+03  0.28022387954E+03  0.10545876585E+04  0.99546001944E+03 0.  0.
         13    1    3    3    0    0  0.10604131849E+03  0.69920584120E+02 -0.35315579951E+03  0.37530344949E+03  0.10566000000E+00 0. -1.
         -4    1    3    3    0  502 -0.22444888605E+03  0.99397768020E+02  0.63337967905E+03  0.67928420898E+03  0.00000000000E+00 0. -1.
        -13    1    1    2    0    0  0.11840756756E+03 -0.16931835214E+03 -0.18150283601E+03  0.27501335799E+03  0.10566000000E+00 0.  1.
<mgrwt>
<rscale>  1 0.68261598E+03</rscale>
<asrwt>0</asrwt>
<pdfrwt beam="1">  1       21 0.10987093E+00 0.10166758E+04</pdfrwt>
<pdfrwt beam="2">  1       -4 0.94683075E-01 0.10166758E+04</pdfrwt>
<totfact> 0.22844314E+01</totfact>
</mgrwt>
</event>
<event>
 6    2  0.2321478E-005  0.9817921E+03  0.7818608E-02  0.1007930E+00
         21   -1    0    0  501  502  0.00000000000E+00  0.00000000000E+00  0.20401181341E+03  0.20401181341E+03  0.00000000000E+00 0. -1.
         -4   -1    0    0    0  501 -0.00000000000E+00 -0.00000000000E+00 -0.14471968594E+04  0.14471968594E+04  0.00000000000E+00 0. -1.
   -9000010    2    1    2    0  502  0.16730704027E+02 -0.77302371879E+02 -0.12252996436E+04  0.15701193891E+04  0.97860109652E+03 0.  0.
         13    1    3    3    0    0 -0.45853512410E+03  0.92624217938E+02 -0.48229782671E+03  0.67189650289E+03  0.10566000000E+00 0. -1.
         -4    1    3    3    0  502  0.47526582813E+03 -0.16992658982E+03 -0.74300181693E+03  0.89822288619E+03  0.00000000000E+00 0. -1.
        -13    1    1    2    0    0 -0.16730704027E+02  0.77302371879E+02 -0.17885402360E+02  0.81089283737E+02  0.10566000000E+00 0.  1.
<mgrwt>
<rscale>  1 0.52305599E+03</rscale>
<asrwt>0</asrwt>
<pdfrwt beam="1">  1       21 0.31386432E-01 0.98179208E+03</pdfrwt>
<pdfrwt beam="2">  1       -4 0.22264568E+00 0.98179208E+03</pdfrwt>
<totfact> 0.37439148E+01</totfact>
</mgrwt>
</event>
<event>
 6    2  0.2321478E-005  0.1009823E+04  0.7818608E-02  0.9942050E-01
         21   -1    0    0  501  502  0.00000000000E+00  0.00000000000E+00  0.41012028610E+03  0.41012028610E+03  0.00000000000E+00 0. -1.
         -4   -1    0    0    0  501 -0.00000000000E+00 -0.00000000000E+00 -0.92323481819E+03  0.92323481819E+03  0.00000000000E+00 0. -1.
   -9000010    2    1    2    0  502 -0.85234233956E+02 -0.72540314183E+02 -0.23964692084E+03  0.10378698807E+04  0.10036016494E+04 0.  0.
         13    1    3    3    0    0  0.39449884694E+03 -0.24807495839E+03  0.16709586283E+02  0.46631507230E+03  0.10566000000E+00 0. -1.
         -4    1    3    3    0  502 -0.47973308089E+03  0.17553464421E+03 -0.25635650712E+03  0.57155480836E+03  0.00000000000E+00 0. -1.
        -13    1    1    2    0    0  0.85234233956E+02  0.72540314183E+02 -0.27346761124E+03  0.29548522363E+03  0.10566000000E+00 0.  1.
<mgrwt>
<rscale>  1 0.58265956E+03</rscale>
<asrwt>0</asrwt>
<pdfrwt beam="1">  1       21 0.63095429E-01 0.10098234E+04</pdfrwt>
<pdfrwt beam="2">  1       -4 0.14203613E+00 0.10098234E+04</pdfrwt>
<totfact> 0.31064303E+01</totfact>
</mgrwt>
</event>
<event>
 6    2  0.2321478E-005  0.1017715E+04  0.7818608E-02  0.9860788E-01
         21   -1    0    0  501  502  0.00000000000E+00  0.00000000000E+00  0.31568114473E+03  0.31568114473E+03  0.00000000000E+00 0. -1.
         -4   -1    0    0    0  501 -0.00000000000E+00 -0.00000000000E+00 -0.16889136186E+04  0.16889136186E+04  0.00000000000E+00 0. -1.
   -9000010    2    1    2    0  502  0.13050323844E+03 -0.55964999285E+02 -0.52612158621E+03  0.11456651716E+04  0.10077606787E+04 0.  0.
         13    1    3    3    0    0  0.20846750119E+03 -0.40792321670E+03 -0.62214184311E+03  0.77260632530E+03  0.10566000000E+00 0. -1.
         -4    1    3    3    0  502 -0.77964262751E+02  0.35195821741E+03  0.96020256898E+02  0.37305884630E+03  0.00000000000E+00 0. -1.
        -13    1    1    2    0    0 -0.13050323844E+03  0.55964999285E+02 -0.84711088771E+03  0.85892959178E+03  0.10566000000E+00 0.  1.
<mgrwt>
<rscale>  1 0.62199899E+03</rscale>
<asrwt>0</asrwt>
<pdfrwt beam="1">  1       21 0.48566329E-01 0.10177155E+04</pdfrwt>
<pdfrwt beam="2">  1       -4 0.25983287E+00 0.10177155E+04</pdfrwt>
<totfact> 0.87862446E+00</totfact>
</mgrwt>
</event>
<event>
 6    2  0.2321478E-005  0.1036433E+04  0.7818608E-02  0.9698401E-01
         21   -1    0    0  501  502  0.00000000000E+00  0.00000000000E+00  0.10292867756E+04  0.10292867756E+04  0.00000000000E+00 0. -1.
         -4   -1    0    0    0  501 -0.00000000000E+00 -0.00000000000E+00 -0.39502024817E+03  0.39502024817E+03  0.00000000000E+00 0. -1.
   -9000010    2    1    2    0  502  0.13856183630E+03 -0.18319365376E+03  0.45032087577E+03  0.11300362111E+04  0.10106600071E+04 0.  0.
         13    1    3    3    0    0 -0.39284472548E+03 -0.10843636436E+03 -0.31610570123E+02  0.40875990845E+03  0.10566000000E+00 0. -1.
         -4    1    3    3    0  502  0.53140656178E+03 -0.74757289404E+02  0.48193144589E+03  0.72127630265E+03  0.00000000000E+00 0. -1.
        -13    1    1    2    0    0 -0.13856183630E+03  0.18319365376E+03  0.18394565166E+03  0.29427081266E+03  0.10566000000E+00 0.  1.
<mgrwt>
<rscale>  1 0.71112067E+03</rscale>
<asrwt>0</asrwt>
<pdfrwt beam="1">  1       21 0.15835181E+00 0.10364328E+04</pdfrwt>
<pdfrwt beam="2">  1       -4 0.60772346E-01 0.10364328E+04</pdfrwt>
<totfact> 0.23516326E+01</totfact>
</mgrwt>
</event>
<event>
 6    2  0.2321478E-005  0.1087014E+04  0.7818608E-02  0.9471441E-01
         -4   -1    0    0    0  501 -0.00000000000E+00  0.00000000000E+00  0.47675678605E+03  0.47675678605E+03  0.00000000000E+00 0. -1.
         21   -1    0    0  501  502  0.00000000000E+00 -0.00000000000E+00 -0.12822806825E+04  0.12822806825E+04  0.00000000000E+00 0. -1.
   -9000010    2    1    2    0  502  0.30247609004E+03  0.31166537853E+03 -0.75123562360E+03  0.13213454296E+04  0.99647964801E+03 0.  0.
         13    1    3    3    0    0  0.23187720319E+03 -0.28140283214E+03 -0.38721856107E+01  0.36464996405E+03  0.10566000000E+00 0. -1.
         -4    1    3    3    0  502  0.70598886851E+02  0.59306821067E+03 -0.74736343799E+03  0.95669546553E+03  0.00000000000E+00 0. -1.
        -13    1    1    2    0    0 -0.30247609004E+03 -0.31166537853E+03 -0.54288272827E+02  0.43769203894E+03  0.10566000000E+00 0.  1.
<mgrwt>
<rscale>  1 0.86422490E+03</rscale>
<asrwt>0</asrwt>
<pdfrwt beam="2">  1       21 0.19727395E+00 0.10870137E+04</pdfrwt>
<pdfrwt beam="1">  1       -4 0.73347199E-01 0.10870137E+04</pdfrwt>
<totfact> 0.79754540E+00</totfact>
</mgrwt>
</event>
<event>
 6    2  0.2321478E-005  0.1087632E+04  0.7818608E-02  0.9461895E-01
         -4   -1    0    0    0  501 -0.00000000000E+00  0.00000000000E+00  0.67708694321E+03  0.67708694321E+03  0.00000000000E+00 0. -1.
         21   -1    0    0  501  502  0.00000000000E+00 -0.00000000000E+00 -0.95635595885E+03  0.95635595885E+03  0.00000000000E+00 0.  1.
   -9000010    2    1    2    0  502  0.44729129367E+03  0.31605208939E+02 -0.41627597778E+03  0.11645726541E+04  0.99089625404E+03 0.  0.
         13    1    3    3    0    0  0.53545391264E+03  0.15366388200E+03 -0.66889526326E+03  0.87048513231E+03  0.10566000000E+00 0. -1.
         -4    1    3    3    0  502 -0.88162618977E+02 -0.12205867306E+03  0.25261928547E+03  0.29408752175E+03  0.00000000000E+00 0. -1.
        -13    1    1    2    0    0 -0.44729129367E+03 -0.31605208939E+02  0.13700696215E+03  0.46887024800E+03  0.10566000000E+00 0.  1.
<mgrwt>
<rscale>  1 0.87152433E+03</rscale>
<asrwt>0</asrwt>
<pdfrwt beam="2">  1       21 0.14713169E+00 0.10876322E+04</pdfrwt>
<pdfrwt beam="1">  1       -4 0.10416722E+00 0.10876322E+04</pdfrwt>
<totfact> 0.83177830E+00</totfact>
</mgrwt>
</event>
<event>
 6    2  0.2321478E-005  0.1051815E+04  0.7818608E-02  0.9760264E-01
         21   -1    0    0  501  502  0.00000000000E+00  0.00000000000E+00  0.31263501653E+03  0.31263501653E+03  0.00000000000E+00 0. -1.
         -4   -1    0    0    0  501 -0.00000000000E+00 -0.00000000000E+00 -0.13328378934E+04  0.13328378934E+04  0.00000000000E+00 0. -1.
   -9000010    2    1    2    0  502 -0.94350308033E+02 -0.15189924470E+03 -0.65566703227E+03  0.12394411940E+04  0.10365036686E+04 0.  0.
         13    1    3    3    0    0  0.26244648412E+03 -0.35154228550E+03 -0.70217045582E+03  0.82795138487E+03  0.10566000000E+00 0. -1.
         -4    1    3    3    0  502 -0.35679679215E+03  0.19964304080E+03  0.46503423549E+02  0.41148980915E+03  0.00000000000E+00 0. -1.
        -13    1    1    2    0    0  0.94350308033E+02  0.15189924470E+03 -0.36453584456E+03  0.40603171588E+03  0.10566000000E+00 0.  1.
<mgrwt>
<rscale>  1 0.67539297E+03</rscale>
<asrwt>0</asrwt>
<pdfrwt beam="1">  1       21 0.48097695E-01 0.10518152E+04</pdfrwt>
<pdfrwt beam="2">  1       -4 0.20505198E+00 0.10518152E+04</pdfrwt>
<totfact> 0.19811676E+01</totfact>
</mgrwt>
</event>
<event>
 6    2  0.2321478E-005  0.1022288E+04  0.7818608E-02  0.9683172E-01
         21   -1    0    0  501  502  0.00000000000E+00  0.00000000000E+00  0.77198106007E+03  0.77198106007E+03  0.00000000000E+00 0. -1.
         -4   -1    0    0    0  501 -0.00000000000E+00 -0.00000000000E+00 -0.53364918310E+03  0.53364918310E+03  0.00000000000E+00 0. -1.
   -9000010    2    1    2    0  502  0.19474210762E+03  0.15982247280E+03  0.25348831681E+03  0.10532467252E+04  0.99075962078E+03 0.  0.
         13    1    3    3    0    0 -0.25919209492E+03  0.40417030318E+03  0.24181052296E+03  0.53759326281E+03  0.10566000000E+00 0. -1.
         -4    1    3    3    0  502  0.45393420254E+03 -0.24434783038E+03  0.11677793858E+02  0.51565346243E+03  0.00000000000E+00 0. -1.
        -13    1    1    2    0    0 -0.19474210762E+03 -0.15982247280E+03 -0.15156439843E+02  0.25238351794E+03  0.10566000000E+00 0.  1.
<mgrwt>
<rscale>  1 0.72027609E+03</rscale>
<asrwt>0</asrwt>
<pdfrwt beam="1">  1       21 0.11876632E+00 0.10222878E+04</pdfrwt>
<pdfrwt beam="2">  1       -4 0.82099874E-01 0.10222878E+04</pdfrwt>
<totfact> 0.26142338E+01</totfact>
</mgrwt>
</event>
<event>
 6    2  0.2321478E-005  0.1080519E+04  0.7818608E-02  0.9488960E-01
         -4   -1    0    0    0  501 -0.00000000000E+00  0.00000000000E+00  0.25670283217E+03  0.25670283217E+03  0.00000000000E+00 0. -1.
         21   -1    0    0  501  502  0.00000000000E+00 -0.00000000000E+00 -0.24242899536E+04  0.24242899536E+04  0.00000000000E+00 0. -1.
   -9000010    2    1    2    0  502  0.18765134479E+03  0.37103880956E+03 -0.19023759518E+04  0.21878195900E+04  0.99731513116E+03 0.  0.
         13    1    3    3    0    0 -0.28536596418E+02  0.15457916571E+03 -0.18739969861E+04  0.18805780416E+04  0.10566000000E+00 0. -1.
         -4    1    3    3    0  502  0.21618794121E+03  0.21645964385E+03 -0.28378965790E+02  0.30724154836E+03  0.00000000000E+00 0. -1.
        -13    1    1    2    0    0 -0.18765134479E+03 -0.37103880956E+03 -0.26521116962E+03  0.49317319580E+03  0.10566000000E+00 0.  1.
<mgrwt>
<rscale>  1 0.85102663E+03</rscale>
<asrwt>0</asrwt>
<pdfrwt beam="2">  1       21 0.37296768E+00 0.10805185E+04</pdfrwt>
<pdfrwt beam="1">  1       -4 0.39492744E-01 0.10805185E+04</pdfrwt>
<totfact> 0.22694441E+00</totfact>
</mgrwt>
</event>
<event>
 6    2  0.2321478E-005  0.1129470E+04  0.7818608E-02  0.9856429E-01
         -4   -1    0    0    0  501 -0.00000000000E+00  0.00000000000E+00  0.51300101894E+03  0.51300101894E+03  0.00000000000E+00 0. -1.
         21   -1    0    0  501  502  0.00000000000E+00 -0.00000000000E+00 -0.10158532247E+04  0.10158532247E+04  0.00000000000E+00 0. -1.
   -9000010    2    1    2    0  502  0.18068661288E+02 -0.10379912301E+03 -0.68317171866E+03  0.13200101095E+04  0.11245454004E+04 0.  0.
         13    1    3    3    0    0 -0.22005108931E+03 -0.55012526425E+03 -0.52040832731E+03  0.78859693543E+03  0.10566000000E+00 0. -1.
         -4    1    3    3    0  502  0.23811975060E+03  0.44632614124E+03 -0.16276339135E+03  0.53141317404E+03  0.00000000000E+00 0. -1.
        -13    1    1    2    0    0 -0.18068661288E+02  0.10379912301E+03  0.18031951293E+03  0.20884413414E+03  0.10566000000E+00 0.  1.
<mgrwt>
<rscale>  1 0.62420195E+03</rscale>
<asrwt>0</asrwt>
<pdfrwt beam="2">  1       21 0.15628511E+00 0.11294703E+04</pdfrwt>
<pdfrwt beam="1">  1       -4 0.78923235E-01 0.11294703E+04</pdfrwt>
<totfact> 0.13470330E+01</totfact>
</mgrwt>
</event>
<event>
 6    2  0.2321478E-005  0.9990261E+03  0.7818608E-02  0.1023523E+00
         -4   -1    0    0    0  501 -0.00000000000E+00  0.00000000000E+00  0.15778413703E+03  0.15778413703E+03  0.00000000000E+00 0. -1.
         21   -1    0    0  501  502  0.00000000000E+00 -0.00000000000E+00 -0.24099591551E+04  0.24099591551E+04  0.00000000000E+00 0. -1.
   -9000010    2    1    2    0  502  0.44526290242E+02 -0.13859911877E+02 -0.22958862318E+04  0.25038264004E+04  0.99793705525E+03 0.  0.
         13    1    3    3    0    0  0.30720136427E+03  0.34773974680E+03 -0.16797563949E+04  0.17426638136E+04  0.10566000000E+00 0. -1.
         -4    1    3    3    0  502 -0.26267507403E+03 -0.36159965868E+03 -0.61612983688E+03  0.76116258681E+03  0.00000000000E+00 0. -1.
        -13    1    1    2    0    0 -0.44526290242E+02  0.13859911877E+02  0.43711213723E+02  0.63916891736E+02  0.10566000000E+00 0.  1.
<mgrwt>
<rscale>  1 0.46436289E+03</rscale>
<asrwt>0</asrwt>
<pdfrwt beam="2">  1       21 0.37076293E+00 0.99902605E+03</pdfrwt>
<pdfrwt beam="1">  1       -4 0.24274484E-01 0.99902605E+03</pdfrwt>
<totfact> 0.62084955E+00</totfact>
</mgrwt>
</event>
<event>
 6    2  0.2321478E-005  0.1140200E+04  0.7818608E-02  0.9845784E-01
         21   -1    0    0  501  502  0.00000000000E+00  0.00000000000E+00  0.22452939160E+04  0.22452939160E+04  0.00000000000E+00 0. -1.
         -4   -1    0    0    0  501 -0.00000000000E+00 -0.00000000000E+00 -0.24620636223E+03  0.24620636223E+03  0.00000000000E+00 0. -1.
   -9000010    2    1    2    0  502 -0.99601581852E+02 -0.36323807045E+02  0.20704893320E+04  0.23636796259E+04  0.11352600608E+04 0.  0.
         13    1    3    3    0    0  0.76137248515E+02 -0.22416860239E+03  0.20921797017E+04  0.21055318469E+04  0.10566000000E+00 0. -1.
         -4    1    3    3    0  502 -0.17573883037E+03  0.18784479534E+03 -0.21690369709E+02  0.25814777895E+03  0.00000000000E+00 0. -1.
        -13    1    1    2    0    0  0.99601581852E+02  0.36323807045E+02 -0.71401778264E+02  0.12782065236E+03  0.10566000000E+00 0.  1.
<mgrwt>
<rscale>  1 0.62962363E+03</rscale>
<asrwt>0</asrwt>
<pdfrwt beam="1">  1       21 0.34542982E+00 0.11401997E+04</pdfrwt>
<pdfrwt beam="2">  1       -4 0.37877903E-01 0.11401997E+04</pdfrwt>
<totfact> 0.36615799E+00</totfact>
</mgrwt>
</event>
<event>
 6    2  0.2321478E-005  0.9756434E+03  0.7818608E-02  0.1049867E+00
         21   -1    0    0  501  502  0.00000000000E+00  0.00000000000E+00  0.12062409728E+04  0.12062409728E+04  0.00000000000E+00 0. -1.
         -4   -1    0    0    0  501 -0.00000000000E+00 -0.00000000000E+00 -0.23571892124E+03  0.23571892124E+03  0.00000000000E+00 0. -1.
   -9000010    2    1    2    0  502  0.12344467426E+02 -0.19578851107E+02  0.10048404262E+04  0.14005657001E+04  0.97536879227E+03 0.  0.
         13    1    3    3    0    0  0.41580855765E+03 -0.14697406428E+03  0.83566285496E+03  0.94489711107E+03  0.10566000000E+00 0. -1.
         -4    1    3    3    0  502 -0.40346409023E+03  0.12739521318E+03  0.16917757128E+03  0.45566858907E+03  0.00000000000E+00 0. -1.
        -13    1    1    2    0    0 -0.12344467426E+02  0.19578851107E+02 -0.34318374656E+02  0.41394193913E+02  0.10566000000E+00 0.  1.
<mgrwt>
<rscale>  1 0.38290092E+03</rscale>
<asrwt>0</asrwt>
<pdfrwt beam="1">  1       21 0.18557553E+00 0.97564338E+03</pdfrwt>
<pdfrwt beam="2">  1       -4 0.36264450E-01 0.97564338E+03</pdfrwt>
<totfact> 0.43696902E+01</totfact>
</mgrwt>
</event>
<event>
 6    2  0.2321478E-005  0.1030499E+04  0.7818608E-02  0.9695483E-01
         -4   -1    0    0    0  501 -0.00000000000E+00  0.00000000000E+00  0.18272243438E+04  0.18272243438E+04  0.00000000000E+00 0. -1.
         21   -1    0    0  501  502  0.00000000000E+00 -0.00000000000E+00 -0.22049632837E+03  0.22049632837E+03  0.00000000000E+00 0. -1.
   -9000010    2    1    2    0  502  0.17257248512E+03 -0.16095768033E+03  0.12501091524E+04  0.16200927239E+04  0.10031146015E+04 0.  0.
         13    1    3    3    0    0  0.42155852627E+03 -0.18168154862E+03  0.12880296367E+04  0.13673844128E+04  0.10566000000E+00 0. -1.
         -4    1    3    3    0  502 -0.24898604114E+03  0.20723868284E+02 -0.37920484274E+02  0.25270831116E+03  0.00000000000E+00 0. -1.
        -13    1    1    2    0    0 -0.17257248512E+03  0.16095768033E+03  0.35661886307E+03  0.42762794827E+03  0.10566000000E+00 0.  1.
<mgrwt>
<rscale>  1 0.71286356E+03</rscale>
<asrwt>0</asrwt>
<pdfrwt beam="2">  1       21 0.33922513E-01 0.10304987E+04</pdfrwt>
<pdfrwt beam="1">  1       -4 0.28111143E+00 0.10304987E+04</pdfrwt>
<totfact> 0.13781841E+01</totfact>
</mgrwt>
</event>
<event>
 6    2  0.2321478E-005  0.1024635E+04  0.7818608E-02  0.9711866E-01
         21   -1    0    0  501  502  0.00000000000E+00  0.00000000000E+00  0.95533262043E+03  0.95533262043E+03  0.00000000000E+00 0. -1.
         -4   -1    0    0    0  501 -0.00000000000E+00 -0.00000000000E+00 -0.52053011616E+03  0.52053011616E+03  0.00000000000E+00 0. -1.
   -9000010    2    1    2    0  502 -0.17796172076E+03 -0.14129858171E+03  0.60683612930E+03  0.11908517850E+04  0.99912072477E+03 0.  0.
         13    1    3    3    0    0 -0.14198622748E+03  0.28088913315E+03  0.69059608957E+03  0.75893462434E+03  0.10566000000E+00 0. -1.
         -4    1    3    3    0  502 -0.35975493279E+02 -0.42218771486E+03 -0.83759960273E+02  0.43191716062E+03  0.00000000000E+00 0. -1.
        -13    1    1    2    0    0  0.17796172076E+03  0.14129858171E+03 -0.17203362503E+03  0.28501095164E+03  0.10566000000E+00 0.  1.
<mgrwt>
<rscale>  1 0.70314643E+03</rscale>
<asrwt>0</asrwt>
<pdfrwt beam="1">  1       21 0.14697425E+00 0.10246355E+04</pdfrwt>
<pdfrwt beam="2">  1       -4 0.80081556E-01 0.10246355E+04</pdfrwt>
<totfact> 0.15646852E+01</totfact>
</mgrwt>
</event>
<event>
 6    2  0.2321478E-005  0.1009151E+04  0.7818608E-02  0.1001578E+00
         -4   -1    0    0    0  501 -0.00000000000E+00  0.00000000000E+00  0.15047478036E+03  0.15047478036E+03  0.00000000000E+00 0. -1.
         21   -1    0    0  501  502  0.00000000000E+00 -0.00000000000E+00 -0.20683822283E+04  0.20683822283E+04  0.00000000000E+00 0. -1.
   -9000010    2    1    2    0  502  0.63910098343E+02 -0.61657636950E+02 -0.18489663822E+04  0.21064334943E+04  0.10052359019E+04 0.  0.
         13    1    3    3    0    0  0.85581708093E+01  0.75896442827E+02  0.11435793817E+03  0.13751822245E+03  0.10566000000E+00 0. -1.
         -4    1    3    3    0  502  0.55351927534E+02 -0.13755407978E+03 -0.19633243204E+04  0.19689152719E+04  0.00000000000E+00 0. -1.
        -13    1    1    2    0    0 -0.63910098343E+02  0.61657636950E+02 -0.68941065660E+02  0.11242351428E+03  0.10566000000E+00 0.  1.
<mgrwt>
<rscale>  1 0.54963625E+03</rscale>
<asrwt>0</asrwt>
<pdfrwt beam="2">  1       21 0.31821264E+00 0.10091508E+04</pdfrwt>
<pdfrwt beam="1">  1       -4 0.23149967E-01 0.10091508E+04</pdfrwt>
<totfact> 0.14542421E+01</totfact>
</mgrwt>
</event>
<event>
 6    2  0.2321478E-005  0.1004699E+04  0.7818608E-02  0.9826874E-01
         -4   -1    0    0    0  501 -0.00000000000E+00  0.00000000000E+00  0.25534839610E+04  0.25534839610E+04  0.00000000000E+00 0. -1.
         21   -1    0    0  501  502  0.00000000000E+00 -0.00000000000E+00 -0.14755416460E+03  0.14755416460E+03  0.00000000000E+00 0. -1.
   -9000010    2    1    2    0  502 -0.12748756917E+03  0.10444757387E+03  0.22865172060E+04  0.24975147759E+04  0.99108866727E+03 0.  0.
         13    1    3    3    0    0 -0.47875332470E+03 -0.21012441646E+03  0.13794150524E+04  0.14751755537E+04  0.10566000000E+00 0. -1.
         -4    1    3    3    0  502  0.35126575553E+03  0.31457199033E+03  0.90710215357E+03  0.10223392221E+04  0.00000000000E+00 0. -1.
        -13    1    1    2    0    0  0.12748756917E+03 -0.10444757387E+03  0.11941259041E+03  0.20352334975E+03  0.10566000000E+00 0.  1.
<mgrwt>
<rscale>  1 0.63940035E+03</rscale>
<asrwt>0</asrwt>
<pdfrwt beam="2">  1       21 0.22700643E-01 0.10046985E+04</pdfrwt>
<pdfrwt beam="1">  1       -4 0.39284365E+00 0.10046985E+04</pdfrwt>
<totfact> 0.59206318E+00</totfact>
</mgrwt>
</event>
<event>
 6    2  0.2321478E-005  0.1023864E+04  0.7818608E-02  0.9757055E-01
         21   -1    0    0  501  502  0.00000000000E+00  0.00000000000E+00  0.24601650068E+03  0.24601650068E+03  0.00000000000E+00 0. -1.
         -4   -1    0    0    0  501 -0.00000000000E+00 -0.00000000000E+00 -0.15630459467E+04  0.15630459467E+04  0.00000000000E+00 0. -1.
   -9000010    2    1    2    0  502  0.11979660778E+03 -0.15504862923E+03 -0.96918182708E+03  0.14098265750E+04  0.10049409201E+04 0.  0.
         13    1    3    3    0    0 -0.44332949880E+03 -0.16464271140E+02 -0.40316986922E+03  0.59946482077E+03  0.10566000000E+00 0. -1.
         -4    1    3    3    0  502  0.56312610658E+03 -0.13858435809E+03 -0.56601195787E+03  0.81036175420E+03  0.00000000000E+00 0. -1.
        -13    1    1    2    0    0 -0.11979660778E+03  0.15504862923E+03 -0.34784761890E+03  0.39923587239E+03  0.10566000000E+00 0.  1.
<mgrwt>
<rscale>  1 0.67719047E+03</rscale>
<asrwt>0</asrwt>
<pdfrwt beam="1">  1       21 0.37848691E-01 0.10238640E+04</pdfrwt>
<pdfrwt beam="2">  1       -4 0.24046861E+00 0.10238640E+04</pdfrwt>
<totfact> 0.19612765E+01</totfact>
</mgrwt>
</event>
<event>
 6    2  0.2321478E-005  0.1132930E+04  0.7818608E-02  0.9379847E-01
         -4   -1    0    0    0  501 -0.00000000000E+00  0.00000000000E+00  0.55828641618E+03  0.55828641618E+03  0.00000000000E+00 0. -1.
         21   -1    0    0  501  502  0.00000000000E+00 -0.00000000000E+00 -0.12435017578E+04  0.12435017578E+04  0.00000000000E+00 0. -1.
   -9000010    2    1    2    0  502  0.48617127833E+03  0.21425307368E+03 -0.42306795315E+03  0.12093456401E+04  0.10006315470E+04 0.  0.
         13    1    3    3    0    0  0.41545124559E+03  0.46250980869E+03  0.96537469358E+02  0.62915384029E+03  0.10566000000E+00 0. -1.
         -4    1    3    3    0  502  0.70720032736E+02 -0.24825673500E+03 -0.51960542251E+03  0.58019179984E+03  0.00000000000E+00 0. -1.
        -13    1    1    2    0    0 -0.48617127833E+03 -0.21425307368E+03 -0.26214738844E+03  0.59244253382E+03  0.10566000000E+00 0.  1.
<mgrwt>
<rscale>  1 0.93752932E+03</rscale>
<asrwt>0</asrwt>
<pdfrwt beam="2">  1       21 0.19130796E+00 0.11329300E+04</pdfrwt>
<pdfrwt beam="1">  1       -4 0.85890219E-01 0.11329300E+04</pdfrwt>
<totfact> 0.60747172E+00</totfact>
</mgrwt>
</event>
<event>
 6    2  0.2321478E-005  0.1008844E+04  0.7818608E-02  0.9858179E-01
         -4   -1    0    0    0  501 -0.00000000000E+00  0.00000000000E+00  0.37039899170E+03  0.37039899170E+03  0.00000000000E+00 0. -1.
         21   -1    0    0  501  502  0.00000000000E+00 -0.00000000000E+00 -0.91100146553E+03  0.91100146553E+03  0.00000000000E+00 0. -1.
   -9000010    2    1    2    0  502 -0.11967680736E+03 -0.85386595173E+02 -0.42646368076E+03  0.10952793029E+04  0.99807418132E+03 0.  0.
         13    1    3    3    0    0 -0.45841502056E+02 -0.50734140105E+03 -0.27899466878E+02  0.51017166909E+03  0.10566000000E+00 0. -1.
         -4    1    3    3    0  502 -0.73835305304E+02  0.42195480588E+03 -0.39856421388E+03  0.58510763377E+03  0.00000000000E+00 0. -1.
        -13    1    1    2    0    0  0.11967680736E+03  0.85386595173E+02 -0.11413879307E+03  0.18612115437E+03  0.10566000000E+00 0.  1.
<mgrwt>
<rscale>  1 0.62331616E+03</rscale>
<asrwt>0</asrwt>
<pdfrwt beam="2">  1       21 0.14015407E+00 0.10088436E+04</pdfrwt>
<pdfrwt beam="1">  1       -4 0.56984460E-01 0.10088436E+04</pdfrwt>
<totfact> 0.38097344E+01</totfact>
</mgrwt>
</event>
<event>
 6    2  0.2321478E-005  0.1052543E+04  0.7818608E-02  0.9694890E-01
         -4   -1    0    0    0  501 -0.00000000000E+00  0.00000000000E+00  0.84384882480E+03  0.84384882480E+03  0.00000000000E+00 0. -1.
         21   -1    0    0  501  502  0.00000000000E+00 -0.00000000000E+00 -0.53423601400E+03  0.53423601400E+03  0.00000000000E+00 0. -1.
   -9000010    2    1    2    0  502  0.14742591628E+03  0.16585639294E+03  0.75091234361E+02  0.10552177998E+04  0.10288844288E+04 0.  0.
         13    1    3    3    0    0  0.11253648233E+03  0.58747509533E+03  0.16958821517E+03  0.62173275720E+03  0.10566000000E+00 0. -1.
         -4    1    3    3    0  502  0.34889433956E+02 -0.42161870239E+03 -0.94496980807E+02  0.43348504264E+03  0.00000000000E+00 0. -1.
        -13    1    1    2    0    0 -0.14742591628E+03 -0.16585639294E+03  0.23452157643E+03  0.32286703896E+03  0.10566000000E+00 0.  1.
<mgrwt>
<rscale>  1 0.71321842E+03</rscale>
<asrwt>0</asrwt>
<pdfrwt beam="2">  1       21 0.82190156E-01 0.10525426E+04</pdfrwt>
<pdfrwt beam="1">  1       -4 0.12982290E+00 0.10525426E+04</pdfrwt>
<totfact> 0.21252971E+01</totfact>
</mgrwt>
</event>
<event>
 6    2  0.2321478E-005  0.9058086E+03  0.7818608E-02  0.9894195E-01
         -4   -1    0    0    0  501 -0.00000000000E+00  0.00000000000E+00  0.15618576494E+04  0.15618576494E+04  0.00000000000E+00 0. -1.
         21   -1    0    0  501  502  0.00000000000E+00 -0.00000000000E+00 -0.27674388088E+03  0.27674388088E+03  0.00000000000E+00 0. -1.
   -9000010    2    1    2    0  502  0.15786013645E+03 -0.88107690808E+02  0.50347443279E+03  0.10363279796E+04  0.88758458126E+03 0.  0.
         13    1    3    3    0    0  0.17057507417E+03 -0.11013741654E+03 -0.22748913330E+03  0.30492199557E+03  0.10566000000E+00 0. -1.
         -4    1    3    3    0  502 -0.12714937717E+02  0.22029725732E+02  0.73096356609E+03  0.73140598399E+03  0.00000000000E+00 0. -1.
        -13    1    1    2    0    0 -0.15786013645E+03  0.88107690808E+02  0.78163933573E+03  0.80227355072E+03  0.10566000000E+00 0.  1.
<mgrwt>
<rscale>  1 0.60543459E+03</rscale>
<asrwt>0</asrwt>
<pdfrwt beam="2">  1       21 0.42575982E-01 0.90580858E+03</pdfrwt>
<pdfrwt beam="1">  1       -4 0.24028579E+00 0.90580858E+03</pdfrwt>
<totfact> 0.15579827E+01</totfact>
</mgrwt>
</event>
<event>
 6    2  0.2321478E-005  0.1017516E+04  0.7818608E-02  0.9833918E-01
         -4   -1    0    0    0  501 -0.00000000000E+00  0.00000000000E+00  0.14642931014E+04  0.14642931014E+04  0.00000000000E+00 0. -1.
         21   -1    0    0  501  502  0.00000000000E+00 -0.00000000000E+00 -0.23484152604E+03  0.23484152604E+03  0.00000000000E+00 0. -1.
   -9000010    2    1    2    0  502  0.39495156388E+02 -0.14994013168E+03  0.10547977945E+04  0.14655840659E+04  0.10056323167E+04 0.  0.
         13    1    3    3    0    0  0.49574786633E+03 -0.14970803451E+03  0.34661577942E+03  0.62315403575E+03  0.10566000000E+00 0. -1.
         -4    1    3    3    0  502 -0.45625270994E+03 -0.23209716976E+00  0.70818201504E+03  0.84243003010E+03  0.00000000000E+00 0. -1.
        -13    1    1    2    0    0 -0.39495156388E+02  0.14994013168E+03  0.17465378087E+03  0.23355056155E+03  0.10566000000E+00 0.  1.
<mgrwt>
<rscale>  1 0.63573628E+03</rscale>
<asrwt>0</asrwt>
<pdfrwt beam="2">  1       21 0.36129466E-01 0.10175157E+04</pdfrwt>
<pdfrwt beam="1">  1       -4 0.22527586E+00 0.10175157E+04</pdfrwt>
<totfact> 0.26920062E+01</totfact>
</mgrwt>
</event>
<event>
 6    2  0.2321478E-005  0.1115243E+04  0.7818608E-02  0.9763423E-01
         -4   -1    0    0    0  501 -0.00000000000E+00  0.00000000000E+00  0.41898134582E+03  0.41898134582E+03  0.00000000000E+00 0. -1.
         21   -1    0    0  501  502  0.00000000000E+00 -0.00000000000E+00 -0.10106368457E+04  0.10106368457E+04  0.00000000000E+00 0. -1.
   -9000010    2    1    2    0  502  0.14761946220E+03 -0.15667577867E+02 -0.62363089507E+03  0.12777649214E+04  0.11053192852E+04 0.  0.
         13    1    3    3    0    0 -0.29188721009E+03  0.26615613958E+03 -0.64374207174E+03  0.75527551273E+03  0.10566000000E+00 0. -1.
         -4    1    3    3    0  502  0.43950667229E+03 -0.28182371744E+03  0.20111176663E+02  0.52248940862E+03  0.00000000000E+00 0. -1.
        -13    1    1    2    0    0 -0.14761946220E+03  0.15667577867E+02  0.31975395149E+02  0.15185327022E+03  0.10566000000E+00 0.  1.
<mgrwt>
<rscale>  1 0.67362975E+03</rscale>
<asrwt>0</asrwt>
<pdfrwt beam="2">  1       21 0.15548259E+00 0.11152433E+04</pdfrwt>
<pdfrwt beam="1">  1       -4 0.64458669E-01 0.11152433E+04</pdfrwt>
<totfact> 0.21595041E+01</totfact>
</mgrwt>
</event>
<event>
 6    2  0.2321478E-005  0.1066981E+04  0.7818608E-02  0.9546908E-01
         21   -1    0    0  501  502  0.00000000000E+00  0.00000000000E+00  0.89220329407E+03  0.89220329407E+03  0.00000000000E+00 0. -1.
         -4   -1    0    0    0  501 -0.00000000000E+00 -0.00000000000E+00 -0.60490951124E+03  0.60490951124E+03  0.00000000000E+00 0. -1.
   -9000010    2    1    2    0  502  0.21757405691E+03 -0.27777927695E+03  0.37942762095E+03  0.11324369873E+04  0.10069500553E+04 0.  0.
         13    1    3    3    0    0  0.48716191588E+03  0.16385149207E+03  0.44102719798E+02  0.51586733255E+03  0.10566000000E+00 0. -1.
         -4    1    3    3    0  502 -0.26958785897E+03 -0.44163076902E+03  0.33532490115E+03  0.61656965477E+03  0.00000000000E+00 0. -1.
        -13    1    1    2    0    0 -0.21757405691E+03  0.27777927695E+03 -0.92133838115E+02  0.36467581799E+03  0.10566000000E+00 0.  1.
<mgrwt>
<rscale>  1 0.80912117E+03</rscale>
<asrwt>0</asrwt>
<pdfrwt beam="1">  1       21 0.13726205E+00 0.10669809E+04</pdfrwt>
<pdfrwt beam="2">  1       -4 0.93063002E-01 0.10669809E+04</pdfrwt>
<totfact> 0.13230427E+01</totfact>
</mgrwt>
</event>
<event>
 6    2  0.2321478E-005  0.9960995E+03  0.7818608E-02  0.1004359E+00
         -4   -1    0    0    0  501 -0.00000000000E+00  0.00000000000E+00  0.26892408739E+03  0.26892408739E+03  0.00000000000E+00 0. -1.
         21   -1    0    0  501  502  0.00000000000E+00 -0.00000000000E+00 -0.11199412803E+04  0.11199412803E+04  0.00000000000E+00 0. -1.
   -9000010    2    1    2    0  502  0.70551370643E+02  0.46754103738E+02 -0.84098210103E+03  0.13036353474E+04  0.99249724567E+03 0.  0.
         13    1    3    3    0    0  0.35559479681E+03  0.27044289201E+03 -0.82827570333E+03  0.94107792943E+03  0.10566000000E+00 0. -1.
         -4    1    3    3    0  502 -0.28504342617E+03 -0.22368878827E+03 -0.12706397703E+02  0.36255741799E+03  0.00000000000E+00 0. -1.
        -13    1    1    2    0    0 -0.70551370643E+02 -0.46754103738E+02 -0.10035091837E+02  0.85230020228E+02  0.10566000000E+00 0.  1.
<mgrwt>
<rscale>  1 0.53779573E+03</rscale>
<asrwt>0</asrwt>
<pdfrwt beam="2">  1       21 0.17229866E+00 0.99609951E+03</pdfrwt>
<pdfrwt beam="1">  1       -4 0.41372937E-01 0.99609951E+03</pdfrwt>
<totfact> 0.41689084E+01</totfact>
</mgrwt>
</event>
<event>
 6    2  0.2321478E-005  0.1033913E+04  0.7818608E-02  0.9971077E-01
         -4   -1    0    0    0  501 -0.00000000000E+00  0.00000000000E+00  0.84192304431E+03  0.84192304431E+03  0.00000000000E+00 0. -1.
         21   -1    0    0  501  502  0.00000000000E+00 -0.00000000000E+00 -0.42336010185E+03  0.42336010185E+03  0.00000000000E+00 0. -1.
   -9000010    2    1    2    0  502  0.91847833325E+01  0.94642681871E+02  0.23760486659E+03  0.10608633970E+04  0.10295307071E+04 0.  0.
         13    1    3    3    0    0  0.31297231706E+03  0.12322303096E+02 -0.30269241454E+03  0.43557573323E+03  0.10566000000E+00 0. -1.
         -4    1    3    3    0  502 -0.30378753373E+03  0.82320378775E+02  0.54029728112E+03  0.62528766372E+03  0.00000000000E+00 0. -1.
        -13    1    1    2    0    0 -0.91847833325E+01 -0.94642681871E+02  0.18095807588E+03  0.20441974921E+03  0.10566000000E+00 0.  1.
<mgrwt>
<rscale>  1 0.56936866E+03</rscale>
<asrwt>0</asrwt>
<pdfrwt beam="2">  1       21 0.65132324E-01 0.10339125E+04</pdfrwt>
<pdfrwt beam="1">  1       -4 0.12952662E+00 0.10339125E+04</pdfrwt>
<totfact> 0.36679599E+01</totfact>
</mgrwt>
</event>
<event>
 6    2  0.2321478E-005  0.1036082E+04  0.7818608E-02  0.9629138E-01
         21   -1    0    0  501  502  0.00000000000E+00  0.00000000000E+00  0.20461358832E+03  0.20461358832E+03  0.00000000000E+00 0. -1.
         -4   -1    0    0    0  501 -0.00000000000E+00 -0.00000000000E+00 -0.24440002214E+04  0.24440002214E+04  0.00000000000E+00 0. -1.
   -9000010    2    1    2    0  502  0.28902999550E+03  0.29804230594E+02 -0.12832494721E+04  0.16493015901E+04  0.99450485021E+03 0.  0.
         13    1    3    3    0    0 -0.31980683518E+03  0.22858380372E+03 -0.54460432355E+03  0.67165530411E+03  0.10566000000E+00 0. -1.
         -4    1    3    3    0  502  0.60883683068E+03 -0.19877957312E+03 -0.73864514853E+03  0.97764628600E+03  0.00000000000E+00 0. -1.
        -13    1    1    2    0    0 -0.28902999550E+03 -0.29804230594E+02 -0.95613716095E+03  0.99931221956E+03  0.10566000000E+00 0.  1.
<mgrwt>
<rscale>  1 0.75397271E+03</rscale>
<asrwt>0</asrwt>
<pdfrwt beam="1">  1       21 0.31479014E-01 0.10360823E+04</pdfrwt>
<pdfrwt beam="2">  1       -4 0.37600002E+00 0.10360823E+04</pdfrwt>
<totfact> 0.39944773E+00</totfact>
</mgrwt>
</event>
<event>
 6    2  0.2321478E-005  0.1008412E+04  0.7818608E-02  0.1010185E+00
         21   -1    0    0  501  502  0.00000000000E+00  0.00000000000E+00  0.49346605399E+03  0.49346605399E+03  0.00000000000E+00 0. -1.
         -4   -1    0    0    0  501 -0.00000000000E+00 -0.00000000000E+00 -0.77281900161E+03  0.77281900161E+03  0.00000000000E+00 0. -1.
   -9000010    2    1    2    0  502 -0.53473389358E+02  0.42125753838E+02 -0.31125469175E+02  0.10088926029E+04  0.10061120747E+04 0.  0.
         13    1    3    3    0    0  0.41801118478E+03 -0.14530250075E+03  0.15433747281E+03  0.46868564519E+03  0.10566000000E+00 0. -1.
         -4    1    3    3    0  502 -0.47148457414E+03  0.18742825459E+03 -0.18546294198E+03  0.54020695767E+03  0.00000000000E+00 0. -1.
        -13    1    1    2    0    0  0.53473389358E+02 -0.42125753838E+02 -0.24822747845E+03  0.25739245274E+03  0.10566000000E+00 0.  1.
<mgrwt>
<rscale>  1 0.51401175E+03</rscale>
<asrwt>0</asrwt>
<pdfrwt beam="1">  1       21 0.75917855E-01 0.10084124E+04</pdfrwt>
<pdfrwt beam="2">  1       -4 0.11889523E+00 0.10084124E+04</pdfrwt>
<totfact> 0.32154985E+01</totfact>
</mgrwt>
</event>
<event>
 6    2  0.2321478E-005  0.1003005E+04  0.7818608E-02  0.9936796E-01
         21   -1    0    0  501  502  0.00000000000E+00  0.00000000000E+00  0.14695329982E+03  0.14695329982E+03  0.00000000000E+00 0. -1.
         -4   -1    0    0    0  501 -0.00000000000E+00 -0.00000000000E+00 -0.22775037651E+04  0.22775037651E+04  0.00000000000E+00 0. -1.
   -9000010    2    1    2    0  502  0.11548044364E+03  0.12483461511E+02 -0.16574549305E+04  0.19373113312E+04  0.99625638151E+03 0.  0.
         13    1    3    3    0    0  0.37994680835E+01 -0.96631461357E+02 -0.17520749247E+04  0.17547417554E+04  0.10566000000E+00 0. -1.
         -4    1    3    3    0  502  0.11168097556E+03  0.10911492287E+03  0.94619994213E+02  0.18256957578E+03  0.00000000000E+00 0. -1.
        -13    1    1    2    0    0 -0.11548044364E+03 -0.12483461511E+02 -0.47309553480E+03  0.48714573373E+03  0.10566000000E+00 0.  1.
<mgrwt>
<rscale>  1 0.58510670E+03</rscale>
<asrwt>0</asrwt>
<pdfrwt beam="1">  1       21 0.22608203E-01 0.10030047E+04</pdfrwt>
<pdfrwt beam="2">  1       -4 0.35038515E+00 0.10030047E+04</pdfrwt>
<totfact> 0.11441339E+01</totfact>
</mgrwt>
</event>
<event>
 6    2  0.2321478E-005  0.1001238E+04  0.7818608E-02  0.1002804E+00
         -4   -1    0    0    0  501 -0.00000000000E+00  0.00000000000E+00  0.26250273298E+03  0.26250273298E+03  0.00000000000E+00 0. -1.
         21   -1    0    0  501  502  0.00000000000E+00 -0.00000000000E+00 -0.11433082591E+04  0.11433082591E+04  0.00000000000E+00 0. -1.
   -9000010    2    1    2    0  502  0.55170555571E+02 -0.67907947455E+02 -0.84892849522E+03  0.13126904476E+04  0.99740730987E+03 0.  0.
         13    1    3    3    0    0  0.45654636459E+03 -0.12160208213E+03 -0.13409670977E+03  0.49112481930E+03  0.10566000000E+00 0. -1.
         -4    1    3    3    0  502 -0.40137580902E+03  0.53694134671E+02 -0.71483178545E+03  0.82156562833E+03  0.00000000000E+00 0. -1.
        -13    1    1    2    0    0 -0.55170555571E+02  0.67907947455E+02 -0.31877030871E+02  0.93120544407E+02  0.10566000000E+00 0.  1.
<mgrwt>
<rscale>  1 0.54437485E+03</rscale>
<asrwt>0</asrwt>
<pdfrwt beam="2">  1       21 0.17589357E+00 0.10012375E+04</pdfrwt>
<pdfrwt beam="1">  1       -4 0.40385037E-01 0.10012375E+04</pdfrwt>
<totfact> 0.41180716E+01</totfact>
</mgrwt>
</event>
<event>
 6    2  0.2321478E-005  0.1041065E+04  0.7818608E-02  0.9628715E-01
         -4   -1    0    0    0  501 -0.00000000000E+00  0.00000000000E+00  0.61914491996E+03  0.61914491996E+03  0.00000000000E+00 0. -1.
         21   -1    0    0  501  502  0.00000000000E+00 -0.00000000000E+00 -0.10506526305E+04  0.10506526305E+04  0.00000000000E+00 0. -1.
   -9000010    2    1    2    0  502 -0.85424173888E+02  0.27380666308E+03 -0.71780526471E+03  0.12645400040E+04  0.10007745228E+04 0.  0.
         13    1    3    3    0    0  0.19685039165E+03 -0.20476831058E+03 -0.64423234498E+03  0.70407063793E+03  0.10566000000E+00 0. -1.
         -4    1    3    3    0  502 -0.28227456554E+03  0.47857497366E+03 -0.73572919734E+02  0.56046936605E+03  0.00000000000E+00 0. -1.
        -13    1    1    2    0    0  0.85424173888E+02 -0.27380666308E+03  0.28629755421E+03  0.40525754643E+03  0.10566000000E+00 0.  1.
<mgrwt>
<rscale>  1 0.75424415E+03</rscale>
<asrwt>0</asrwt>
<pdfrwt beam="2">  1       21 0.16163886E+00 0.10410653E+04</pdfrwt>
<pdfrwt beam="1">  1       -4 0.95253066E-01 0.10410653E+04</pdfrwt>
<totfact> 0.79583977E+00</totfact>
</mgrwt>
</event>
<event>
 6    2  0.2321478E-005  0.1090767E+04  0.7818608E-02  0.9450367E-01
         21   -1    0    0  501  502  0.00000000000E+00  0.00000000000E+00  0.10386098589E+04  0.10386098589E+04  0.00000000000E+00 0. -1.
         -4   -1    0    0    0  501 -0.00000000000E+00 -0.00000000000E+00 -0.67880912240E+03  0.67880912240E+03  0.00000000000E+00 0. -1.
   -9000010    2    1    2    0  502  0.41264133339E+03 -0.21004518738E+03  0.54424965984E+03  0.12190082399E+04  0.98761406726E+03 0.  0.
         13    1    3    3    0    0 -0.11259045631E+03 -0.43126118832E+03  0.46412557131E+03  0.64348689227E+03  0.10566000000E+00 0. -1.
         -4    1    3    3    0  502  0.52523178969E+03  0.22121600094E+03  0.80124088530E+02  0.57552134760E+03  0.00000000000E+00 0. -1.
        -13    1    1    2    0    0 -0.41264133339E+03  0.21004518738E+03 -0.18444892330E+03  0.49841074149E+03  0.10566000000E+00 0.  1.
<mgrwt>
<rscale>  1 0.88044074E+03</rscale>
<asrwt>0</asrwt>
<pdfrwt beam="1">  1       21 0.15978613E+00 0.10907673E+04</pdfrwt>
<pdfrwt beam="2">  1       -4 0.10443217E+00 0.10907673E+04</pdfrwt>
<totfact> 0.65491296E+00</totfact>
</mgrwt>
</event>
<event>
 6    2  0.2321478E-005  0.1187454E+04  0.7818608E-02  0.9288474E-01
         21   -1    0    0  501  502  0.00000000000E+00  0.00000000000E+00  0.16275508728E+04  0.16275508728E+04  0.00000000000E+00 0.  1.
         -4   -1    0    0    0  501 -0.00000000000E+00 -0.00000000000E+00 -0.51613958268E+03  0.51613958268E+03  0.00000000000E+00 0. -1.
   -9000010    2    1    2    0  502  0.63880529233E+03  0.70667427810E+02  0.77834784653E+03  0.14198138393E+04  0.99848879873E+03 0.  0.
         13    1    3    3    0    0  0.98032358860E+02 -0.17930366559E+03  0.79798736390E+03  0.82373781751E+03  0.10566000000E+00 0. -1.
         -4    1    3    3    0  502  0.54077293347E+03  0.24997109340E+03 -0.19639517367E+02  0.59607602179E+03  0.00000000000E+00 0. -1.
        -13    1    1    2    0    0 -0.63880529233E+03 -0.70667427810E+02  0.33306344361E+03  0.72387661621E+03  0.10566000000E+00 0.  1.
<mgrwt>
<rscale>  1 0.10185091E+04</rscale>
<asrwt>0</asrwt>
<pdfrwt beam="1">  1       21 0.25039244E+00 0.11874536E+04</pdfrwt>
<pdfrwt beam="2">  1       -4 0.79406091E-01 0.11874536E+04</pdfrwt>
<totfact> 0.29214215E+00</totfact>
</mgrwt>
</event>
<event>
 6    2  0.2321478E-005  0.1151777E+04  0.7818608E-02  0.9432758E-01
         21   -1    0    0  501  502  0.00000000000E+00  0.00000000000E+00  0.50816464496E+03  0.50816464496E+03  0.00000000000E+00 0.  1.
         -4   -1    0    0    0  501 -0.00000000000E+00 -0.00000000000E+00 -0.12501164242E+04  0.12501164242E+04  0.00000000000E+00 0. -1.
   -9000010    2    1    2    0  502  0.35586422104E+03  0.22041108264E+03 -0.67317641714E+03  0.13340753988E+04  0.10730192411E+04 0.  0.
         13    1    3    3    0    0 -0.22673918792E+03  0.26038303615E+03  0.10524703675E+03  0.36095281515E+03  0.10566000000E+00 0. -1.
         -4    1    3    3    0  502  0.58260340896E+03 -0.39971953509E+02 -0.77842345389E+03  0.97312258363E+03  0.00000000000E+00 0. -1.
        -13    1    1    2    0    0 -0.35586422104E+03 -0.22041108264E+03 -0.68775362067E+02  0.42420567035E+03  0.10566000000E+00 0.  1.
<mgrwt>
<rscale>  1 0.89428200E+03</rscale>
<asrwt>0</asrwt>
<pdfrwt beam="1">  1       21 0.78179177E-01 0.11517772E+04</pdfrwt>
<pdfrwt beam="2">  1       -4 0.19232560E+00 0.11517772E+04</pdfrwt>
<totfact> 0.80149359E+00</totfact>
</mgrwt>
</event>
<event>
 6    2  0.2321478E-005  0.1089626E+04  0.7818608E-02  0.9496415E-01
         21   -1    0    0  501  502  0.00000000000E+00  0.00000000000E+00  0.76701723277E+03  0.76701723277E+03  0.00000000000E+00 0. -1.
         -4   -1    0    0    0  501 -0.00000000000E+00 -0.00000000000E+00 -0.75078756021E+03  0.75078756021E+03  0.00000000000E+00 0. -1.
   -9000010    2    1    2    0  502 -0.16650390278E+03 -0.35818922986E+03  0.15188683200E+03  0.11001614642E+04  0.10155109864E+04 0.  0.
         13    1    3    3    0    0 -0.18803703695E+03 -0.42424867306E+02  0.55507187904E+03  0.58759050256E+03  0.10566000000E+00 0. -1.
         -4    1    3    3    0  502  0.21533134168E+02 -0.31576436255E+03 -0.40318504705E+03  0.51257096161E+03  0.00000000000E+00 0. -1.
        -13    1    1    2    0    0  0.16650390278E+03  0.35818922986E+03 -0.13565715944E+03  0.41764332881E+03  0.10566000000E+00 0.  1.
<mgrwt>
<rscale>  1 0.84548676E+03</rscale>
<asrwt>0</asrwt>
<pdfrwt beam="1">  1       21 0.11800265E+00 0.10896264E+04</pdfrwt>
<pdfrwt beam="2">  1       -4 0.11550578E+00 0.10896264E+04</pdfrwt>
<totfact> 0.11642488E+01</totfact>
</mgrwt>
</event>
<event>
 6    2  0.2321478E-005  0.9771753E+03  0.7818608E-02  0.1007730E+00
         -4   -1    0    0    0  501 -0.00000000000E+00  0.00000000000E+00  0.51619878964E+03  0.51619878964E+03  0.00000000000E+00 0. -1.
         21   -1    0    0  501  502  0.00000000000E+00 -0.00000000000E+00 -0.54208935162E+03  0.54208935162E+03  0.00000000000E+00 0. -1.
   -9000010    2    1    2    0  502 -0.58489899704E+02 -0.55626148809E+02 -0.20492651824E+02  0.97739014748E+03  0.97383582539E+03 0.  0.
         13    1    3    3    0    0 -0.44605440089E+03 -0.28237824891E+03 -0.53537172189E+00  0.52792262862E+03  0.10566000000E+00 0. -1.
         -4    1    3    3    0  502  0.38756450119E+03  0.22675210011E+03 -0.19957280102E+02  0.44946751887E+03  0.00000000000E+00 0. -1.
        -13    1    1    2    0    0  0.58489899704E+02  0.55626148809E+02 -0.53979101529E+01  0.80897993775E+02  0.10566000000E+00 0.  1.
<mgrwt>
<rscale>  1 0.52386769E+03</rscale>
<asrwt>0</asrwt>
<pdfrwt beam="2">  1       21 0.83398362E-01 0.97717529E+03</pdfrwt>
<pdfrwt beam="1">  1       -4 0.79415198E-01 0.97717529E+03</pdfrwt>
<totfact> 0.67959110E+01</totfact>
</mgrwt>
</event>
<event>
 6    2  0.2321478E-005  0.1024925E+04  0.7818608E-02  0.9736672E-01
         -4   -1    0    0    0  501 -0.00000000000E+00  0.00000000000E+00  0.43239359738E+03  0.43239359738E+03  0.00000000000E+00 0. -1.
         21   -1    0    0  501  502  0.00000000000E+00 -0.00000000000E+00 -0.90588927559E+03  0.90588927559E+03  0.00000000000E+00 0. -1.
   -9000010    2    1    2    0  502  0.20264675849E+03 -0.51171223200E+02 -0.47411904633E+03  0.11292742546E+04  0.10033878957E+04 0.  0.
         13    1    3    3    0    0 -0.18034403089E+03  0.39609839175E+03 -0.17864301788E+03  0.47045854698E+03  0.10566000000E+00 0. -1.
         -4    1    3    3    0  502  0.38299078938E+03 -0.44726961495E+03 -0.29547602844E+03  0.65881570761E+03  0.00000000000E+00 0. -1.
        -13    1    1    2    0    0 -0.20264675849E+03  0.51171223200E+02  0.62336811388E+00  0.20900861839E+03  0.10566000000E+00 0.  1.
<mgrwt>
<rscale>  1 0.68874691E+03</rscale>
<asrwt>0</asrwt>
<pdfrwt beam="2">  1       21 0.13936758E+00 0.10249251E+04</pdfrwt>
<pdfrwt beam="1">  1       -4 0.66522092E-01 0.10249251E+04</pdfrwt>
<totfact> 0.27528706E+01</totfact>
</mgrwt>
</event>
<event>
 6    2  0.2321478E-005  0.1006558E+04  0.7818608E-02  0.1002211E+00
         -4   -1    0    0    0  501 -0.00000000000E+00  0.00000000000E+00  0.47527736100E+03  0.47527736100E+03  0.00000000000E+00 0. -1.
         21   -1    0    0  501  502  0.00000000000E+00 -0.00000000000E+00 -0.66987149914E+03  0.66987149914E+03  0.00000000000E+00 0. -1.
   -9000010    2    1    2    0  502 -0.66622959407E+02  0.57079602330E+02 -0.25534068526E+03  0.10384396578E+04  0.10027269606E+04 0.  0.
         13    1    3    3    0    0 -0.37699702786E+02 -0.45577460074E+03  0.15794541826E+02  0.45760379477E+03  0.10566000000E+00 0. -1.
         -4    1    3    3    0  502 -0.28923256621E+02  0.51285420307E+03 -0.27113522708E+03  0.58083586300E+03  0.00000000000E+00 0. -1.
        -13    1    1    2    0    0  0.66622959407E+02 -0.57079602330E+02  0.60746547111E+02  0.10670920238E+03  0.10566000000E+00 0.  1.
<mgrwt>
<rscale>  1 0.54691155E+03</rscale>
<asrwt>0</asrwt>
<pdfrwt beam="2">  1       21 0.10305715E+00 0.10065575E+04</pdfrwt>
<pdfrwt beam="1">  1       -4 0.73119595E-01 0.10065575E+04</pdfrwt>
<totfact> 0.48891175E+01</totfact>
</mgrwt>
</event>
<event>
 6    2  0.2321478E-005  0.1052664E+04  0.7818608E-02  0.9872987E-01
         -4   -1    0    0    0  501 -0.00000000000E+00  0.00000000000E+00  0.65090680327E+03  0.65090680327E+03  0.00000000000E+00 0. -1.
         21   -1    0    0  501  502  0.00000000000E+00 -0.00000000000E+00 -0.53130507855E+03  0.53130507855E+03  0.00000000000E+00 0. -1.
   -9000010    2    1    2    0  502  0.74103287808E+02  0.98606109540E+02  0.10155248610E+03  0.10575513496E+04  0.10454125920E+04 0.  0.
         13    1    3    3    0    0  0.24839189041E+03  0.19698911568E+02  0.53147252169E+03  0.58698350131E+03  0.10566000000E+00 0. -1.
         -4    1    3    3    0  502 -0.17428860261E+03  0.78907197971E+02 -0.42992003559E+03  0.47056784834E+03  0.00000000000E+00 0. -1.
        -13    1    1    2    0    0 -0.74103287808E+02 -0.98606109540E+02  0.18049238624E+02  0.12466053217E+03  0.10566000000E+00 0.  1.
<mgrwt>
<rscale>  1 0.61588483E+03</rscale>
<asrwt>0</asrwt>
<pdfrwt beam="2">  1       21 0.81739243E-01 0.10526642E+04</pdfrwt>
<pdfrwt beam="1">  1       -4 0.10013951E+00 0.10526642E+04</pdfrwt>
<totfact> 0.41087539E+01</totfact>
</mgrwt>
</event>
<event>
 6    2  0.2321478E-005  0.1532530E+04  0.7818608E-02  0.8936418E-01
         -4   -1    0    0    0  501 -0.00000000000E+00  0.00000000000E+00  0.21143759949E+04  0.21143759949E+04  0.00000000000E+00 0. -1.
         21   -1    0    0  501  502  0.00000000000E+00 -0.00000000000E+00 -0.92470228677E+03  0.92470228677E+03  0.00000000000E+00 0.  1.
   -9000010    2    1    2    0  502  0.95735225628E+03 -0.62504963967E+03  0.23677203146E+03  0.15507127314E+04  0.10205089837E+04 0.  0.
         13    1    3    3    0    0 -0.43123393516E+01 -0.12370130940E+03 -0.31172122385E+03  0.33539639649E+03  0.10566000000E+00 0. -1.
         -4    1    3    3    0  502  0.96166459564E+03 -0.50134833027E+03  0.54849325530E+03  0.12153163349E+04  0.00000000000E+00 0. -1.
        -13    1    1    2    0    0 -0.95735225628E+03  0.62504963967E+03  0.95290167666E+03  0.14883655503E+04  0.10566000000E+00 0.  1.
<mgrwt>
<rscale>  1 0.14242951E+04</rscale>
<asrwt>0</asrwt>
<pdfrwt beam="2">  1       21 0.14226189E+00 0.15325303E+04</pdfrwt>
<pdfrwt beam="1">  1       -4 0.32528861E+00 0.15325303E+04</pdfrwt>
<totfact> 0.24136077E-01</totfact>
</mgrwt>
</event>
<event>
 6    2  0.2321478E-005  0.8451960E+03  0.7818608E-02  0.9774052E-01
         21   -1    0    0  501  502  0.00000000000E+00  0.00000000000E+00  0.11188859756E+04  0.11188859756E+04  0.00000000000E+00 0. -1.
         -4   -1    0    0    0  501 -0.00000000000E+00 -0.00000000000E+00 -0.33241542160E+03  0.33241542160E+03  0.00000000000E+00 0. -1.
   -9000010    2    1    2    0  502 -0.26801439849E+03 -0.19127785634E+03  0.73085886386E+03  0.11173678598E+04  0.77841975769E+03 0.  0.
         13    1    3    3    0    0 -0.44543767974E+03 -0.32328898548E+03  0.70546331031E+03  0.89476756089E+03  0.10566000000E+00 0. -1.
         -4    1    3    3    0  502  0.17742328125E+03  0.13201112914E+03  0.25395553555E+02  0.22260029894E+03  0.00000000000E+00 0. -1.
        -13    1    1    2    0    0  0.26801439849E+03  0.19127785634E+03  0.55611690107E+02  0.33393353734E+03  0.10566000000E+00 0.  1.
<mgrwt>
<rscale>  1 0.66773819E+03</rscale>
<asrwt>0</asrwt>
<pdfrwt beam="1">  1       21 0.17213630E+00 0.84519599E+03</pdfrwt>
<pdfrwt beam="2">  1       -4 0.51140835E-01 0.84519599E+03</pdfrwt>
<totfact> 0.27374453E+01</totfact>
</mgrwt>
</event>
<event>
 6    2  0.2321478E-005  0.1029968E+04  0.7818608E-02  0.9833743E-01
         -4   -1    0    0    0  501 -0.00000000000E+00  0.00000000000E+00  0.71841330592E+03  0.71841330592E+03  0.00000000000E+00 0. -1.
         21   -1    0    0  501  502  0.00000000000E+00 -0.00000000000E+00 -0.64726158412E+03  0.64726158412E+03  0.00000000000E+00 0. -1.
   -9000010    2    1    2    0  502 -0.41548732573E+02  0.14369810222E+03 -0.20634052949E+03  0.10504330742E+04  0.10190474903E+04 0.  0.
         13    1    3    3    0    0 -0.47141675395E+03 -0.12748993739E+03 -0.23379473916E+03  0.54143091089E+03  0.10566000000E+00 0. -1.
         -4    1    3    3    0  502  0.42986802137E+03  0.27118803961E+03  0.27454209670E+02  0.50900216331E+03  0.00000000000E+00 0. -1.
        -13    1    1    2    0    0  0.41548732573E+02 -0.14369810222E+03  0.27749225129E+03  0.31524181584E+03  0.10566000000E+00 0.  1.
<mgrwt>
<rscale>  1 0.63582727E+03</rscale>
<asrwt>0</asrwt>
<pdfrwt beam="2">  1       21 0.99578706E-01 0.10299676E+04</pdfrwt>
<pdfrwt beam="1">  1       -4 0.11052512E+00 0.10299676E+04</pdfrwt>
<totfact> 0.20067625E+01</totfact>
</mgrwt>
</event>
<event>
 6    2  0.2321478E-005  0.1054325E+04  0.7818608E-02  0.9574260E-01
         21   -1    0    0  501  502  0.00000000000E+00  0.00000000000E+00  0.32420458078E+03  0.32420458078E+03  0.00000000000E+00 0. -1.
         -4   -1    0    0    0  501 -0.00000000000E+00 -0.00000000000E+00 -0.14950526516E+04  0.14950526516E+04  0.00000000000E+00 0. -1.
   -9000010    2    1    2    0  502  0.21526080600E+03  0.25372508412E+03 -0.95577395617E+03  0.14230621808E+04  0.10004441425E+04 0.  0.
         13    1    3    3    0    0  0.43668122310E+03  0.50060422553E+03 -0.39873379885E+03  0.77477979757E+03  0.10566000000E+00 0. -1.
         -4    1    3    3    0  502 -0.22142041710E+03 -0.24687914141E+03 -0.55704015732E+03  0.64828238326E+03  0.00000000000E+00 0. -1.
        -13    1    1    2    0    0 -0.21526080600E+03 -0.25372508412E+03 -0.21507411465E+03  0.39619505154E+03  0.10566000000E+00 0.  1.
<mgrwt>
<rscale>  1 0.79023491E+03</rscale>
<asrwt>0</asrwt>
<pdfrwt beam="1">  1       21 0.49877628E-01 0.10543254E+04</pdfrwt>
<pdfrwt beam="2">  1       -4 0.23000810E+00 0.10543254E+04</pdfrwt>
<totfact> 0.12664571E+01</totfact>
</mgrwt>
</event>
<event>
 6    2  0.2321478E-005  0.1044002E+04  0.7818608E-02  0.9589734E-01
         21   -1    0    0  501  502  0.00000000000E+00  0.00000000000E+00  0.24292199867E+04  0.24292199867E+04  0.00000000000E+00 0. -1.
         -4   -1    0    0    0  501 -0.00000000000E+00 -0.00000000000E+00 -0.51639694836E+03  0.51639694836E+03  0.00000000000E+00 0. -1.
   -9000010    2    1    2    0  502  0.20109292854E+03 -0.25525197799E+03  0.22481132946E+04  0.24786999132E+04  0.99214310256E+03 0.  0.
         13    1    3    3    0    0  0.47850352378E+03 -0.47048725276E+03  0.12213834492E+04  0.13935929888E+04  0.10566000000E+00 0. -1.
         -4    1    3    3    0  502 -0.27741059524E+03  0.21523527478E+03  0.10267298454E+04  0.10851069244E+04  0.00000000000E+00 0. -1.
        -13    1    1    2    0    0 -0.20109292854E+03  0.25525197799E+03 -0.33529025629E+03  0.46691702186E+03  0.10566000000E+00 0.  1.
<mgrwt>
<rscale>  1 0.77979385E+03</rscale>
<asrwt>0</asrwt>
<pdfrwt beam="1">  1       21 0.37372614E+00 0.10440019E+04</pdfrwt>
<pdfrwt beam="2">  1       -4 0.79445686E-01 0.10440019E+04</pdfrwt>
<totfact> 0.50024930E-01</totfact>
</mgrwt>
</event>
<event>
 6    2  0.2321478E-005  0.1010178E+04  0.7818608E-02  0.1003290E+00
         -4   -1    0    0    0  501 -0.00000000000E+00  0.00000000000E+00  0.16911071961E+04  0.16911071961E+04  0.00000000000E+00 0. -1.
         21   -1    0    0  501  502  0.00000000000E+00 -0.00000000000E+00 -0.17916730584E+03  0.17916730584E+03  0.00000000000E+00 0. -1.
   -9000010    2    1    2    0  502  0.43970454908E+02  0.71462964690E+02  0.14442128331E+04  0.17624444428E+04  0.10066873150E+04 0.  0.
         13    1    3    3    0    0 -0.41719951426E+03  0.16219836842E+03  0.10759443775E+04  0.11653411775E+04  0.10566000000E+00 0. -1.
         -4    1    3    3    0  502  0.46116996917E+03 -0.90735403728E+02  0.36826845561E+03  0.59710326523E+03  0.00000000000E+00 0. -1.
        -13    1    1    2    0    0 -0.43970454908E+02 -0.71462964690E+02  0.67727057116E+02  0.10783005915E+03  0.10566000000E+00 0.  1.
<mgrwt>
<rscale>  1 0.54231038E+03</rscale>
<asrwt>0</asrwt>
<pdfrwt beam="2">  1       21 0.27564202E-01 0.10101781E+04</pdfrwt>
<pdfrwt beam="1">  1       -4 0.26017033E+00 0.10101781E+04</pdfrwt>
<totfact> 0.28291219E+01</totfact>
</mgrwt>
</event>
<event>
 6    2  0.2321478E-005  0.9959178E+03  0.7818608E-02  0.9782155E-01
         -4   -1    0    0    0  501 -0.00000000000E+00  0.00000000000E+00  0.20075458256E+04  0.20075458256E+04  0.00000000000E+00 0. -1.
         21   -1    0    0  501  502  0.00000000000E+00 -0.00000000000E+00 -0.19257987680E+03  0.19257987680E+03  0.00000000000E+00 0. -1.
   -9000010    2    1    2    0  502  0.15814019595E+03 -0.11570637748E+03  0.12266692720E+04  0.15800537078E+04  0.97645067942E+03 0.  0.
         13    1    3    3    0    0  0.33731425166E+03 -0.45540372965E+03  0.95189824628E+03  0.11078283909E+04  0.10566000000E+00 0. -1.
         -4    1    3    3    0  502 -0.17917405571E+03  0.33969735217E+03  0.27477102569E+03  0.47222531685E+03  0.00000000000E+00 0. -1.
        -13    1    1    2    0    0 -0.15814019595E+03  0.11570637748E+03  0.58829667680E+03  0.62007199458E+03  0.10566000000E+00 0.  1.
<mgrwt>
<rscale>  1 0.66329051E+03</rscale>
<asrwt>0</asrwt>
<pdfrwt beam="2">  1       21 0.29627675E-01 0.99591778E+03</pdfrwt>
<pdfrwt beam="1">  1       -4 0.30885319E+00 0.99591778E+03</pdfrwt>
<totfact> 0.12275298E+01</totfact>
</mgrwt>
</event>
<event>
 6    2  0.2321478E-005  0.1030791E+04  0.7818608E-02  0.9609365E-01
         21   -1    0    0  501  502  0.00000000000E+00  0.00000000000E+00  0.77807392132E+03  0.77807392132E+03  0.00000000000E+00 0. -1.
         -4   -1    0    0    0  501 -0.00000000000E+00 -0.00000000000E+00 -0.63013022020E+03  0.63013022020E+03  0.00000000000E+00 0. -1.
   -9000010    2    1    2    0  502 -0.27013042764E+03 -0.16329023121E+03 -0.56153016806E+02  0.10323190142E+04  0.98127225485E+03 0.  0.
         13    1    3    3    0    0 -0.75177838796E+02  0.33974752587E+03  0.23440748580E+03  0.41955568086E+03  0.10566000000E+00 0. -1.
         -4    1    3    3    0  502 -0.19495258885E+03 -0.50303775708E+03 -0.29056050261E+03  0.61276333329E+03  0.00000000000E+00 0. -1.
        -13    1    1    2    0    0  0.27013042764E+03  0.16329023121E+03  0.20409671792E+03  0.37588512737E+03  0.10566000000E+00 0.  1.
<mgrwt>
<rscale>  1 0.76679442E+03</rscale>
<asrwt>0</asrwt>
<pdfrwt beam="1">  1       21 0.11970368E+00 0.10307907E+04</pdfrwt>
<pdfrwt beam="2">  1       -4 0.96943112E-01 0.10307907E+04</pdfrwt>
<totfact> 0.17317984E+01</totfact>
</mgrwt>
</event>
<event>
 6    2  0.2321478E-005  0.1237955E+04  0.7818608E-02  0.9222742E-01
         21   -1    0    0  501  502  0.00000000000E+00  0.00000000000E+00  0.44296765412E+03  0.44296765412E+03  0.00000000000E+00 0.  1.
         -4   -1    0    0    0  501 -0.00000000000E+00 -0.00000000000E+00 -0.21781679044E+04  0.21781679044E+04  0.00000000000E+00 0. -1.
   -9000010    2    1    2    0  502 -0.43030863451E+03 -0.58087048880E+03 -0.10171140562E+04  0.16022028625E+04  0.10049661505E+04 0.  0.
         13    1    3    3    0    0 -0.12096012279E+03 -0.59693680910E+03 -0.78880104968E+02  0.61415550758E+03  0.10566000000E+00 0. -1.
         -4    1    3    3    0  502 -0.30934851172E+03  0.16066320301E+02 -0.93823395123E+03  0.98804735493E+03  0.00000000000E+00 0. -1.
        -13    1    1    2    0    0  0.43030863451E+03  0.58087048880E+03 -0.71808619404E+03  0.10189326960E+04  0.10566000000E+00 0.  1.
<mgrwt>
<rscale>  1 0.10821747E+04</rscale>
<asrwt>0</asrwt>
<pdfrwt beam="1">  1       21 0.68148871E-01 0.12379552E+04</pdfrwt>
<pdfrwt beam="2">  1       -4 0.33510275E+00 0.12379552E+04</pdfrwt>
<totfact> 0.13669694E+00</totfact>
</mgrwt>
</event>
<event>
 6    2  0.2321478E-005  0.1164459E+04  0.7818608E-02  0.9320611E-01
         -4   -1    0    0    0  501 -0.00000000000E+00  0.00000000000E+00  0.26165889084E+04  0.26165889084E+04  0.00000000000E+00 0. -1.
         21   -1    0    0  501  502  0.00000000000E+00 -0.00000000000E+00 -0.46584916706E+03  0.46584916706E+03  0.00000000000E+00 0.  1.
   -9000010    2    1    2    0  502 -0.43610365965E+03  0.42091084482E+03  0.40240959521E+03  0.12320298361E+04  0.99428954208E+03 0.  0.
         13    1    3    3    0    0 -0.10807118736E+02  0.15386531685E+03  0.65287601443E+03  0.67084903736E+03  0.10566000000E+00 0. -1.
         -4    1    3    3    0  502 -0.42529654092E+03  0.26704552796E+03 -0.25046641922E+03  0.56118079874E+03  0.00000000000E+00 0. -1.
        -13    1    1    2    0    0  0.43610365965E+03 -0.42091084482E+03  0.17483301461E+04  0.18504082393E+04  0.10566000000E+00 0.  1.
<mgrwt>
<rscale>  1 0.98907316E+03</rscale>
<asrwt>0</asrwt>
<pdfrwt beam="2">  1       21 0.71669104E-01 0.11644587E+04</pdfrwt>
<pdfrwt beam="1">  1       -4 0.40255213E+00 0.11644587E+04</pdfrwt>
<totfact> 0.43738417E-01</totfact>
</mgrwt>
</event>
<event>
 6    2  0.2321478E-005  0.1001082E+04  0.7818608E-02  0.1011509E+00
         21   -1    0    0  501  502  0.00000000000E+00  0.00000000000E+00  0.44923745489E+03  0.44923745489E+03  0.00000000000E+00 0. -1.
         -4   -1    0    0    0  501 -0.00000000000E+00 -0.00000000000E+00 -0.66625616403E+03  0.66625616403E+03  0.00000000000E+00 0. -1.
   -9000010    2    1    2    0  502 -0.64561564719E+02  0.17131118343E+02 -0.13566688106E+03  0.10102329807E+04  0.99885109096E+03 0.  0.
         13    1    3    3    0    0 -0.30737404385E+03  0.34241091107E+03 -0.32399650690E+03  0.56275908034E+03  0.10566000000E+00 0. -1.
         -4    1    3    3    0  502  0.24281247913E+03 -0.32527979272E+03  0.18832962584E+03  0.44747390041E+03  0.00000000000E+00 0. -1.
        -13    1    1    2    0    0  0.64561564719E+02 -0.17131118343E+02 -0.81351828075E+02  0.10526063818E+03  0.10566000000E+00 0.  1.
<mgrwt>
<rscale>  1 0.50879117E+03</rscale>
<asrwt>0</asrwt>
<pdfrwt beam="1">  1       21 0.69113455E-01 0.10010820E+04</pdfrwt>
<pdfrwt beam="2">  1       -4 0.10250095E+00 0.10010820E+04</pdfrwt>
<totfact> 0.57585700E+01</totfact>
</mgrwt>
</event>
<event>
 6    2  0.2321478E-005  0.9541712E+03  0.7818608E-02  0.9520896E-01
         21   -1    0    0  501  502  0.00000000000E+00  0.00000000000E+00  0.74212942939E+03  0.74212942939E+03  0.00000000000E+00 0. -1.
         -4   -1    0    0    0  501 -0.00000000000E+00 -0.00000000000E+00 -0.83056763961E+03  0.83056763961E+03  0.00000000000E+00 0. -1.
   -9000010    2    1    2    0  502 -0.51097508479E+03  0.17474086721E+03 -0.28845282756E+03  0.99681881254E+03  0.78664655555E+03 0.  0.
         13    1    3    3    0    0 -0.41383944533E+03  0.17314200109E+03 -0.55470333796E+03  0.71339823617E+03  0.10566000000E+00 0. -1.
         -4    1    3    3    0  502 -0.97135639455E+02  0.15988661236E+01  0.26625051040E+03  0.28342057638E+03  0.00000000000E+00 0. -1.
        -13    1    1    2    0    0  0.51097508479E+03 -0.17474086721E+03  0.20001461734E+03  0.57587825646E+03  0.10566000000E+00 0.  1.
<mgrwt>
<rscale>  1 0.82760632E+03</rscale>
<asrwt>0</asrwt>
<pdfrwt beam="1">  1       21 0.11417376E+00 0.95417122E+03</pdfrwt>
<pdfrwt beam="2">  1       -4 0.12777964E+00 0.95417122E+03</pdfrwt>
<totfact> 0.99651288E+00</totfact>
</mgrwt>
</event>
<event>
 6    2  0.2321478E-005  0.1003419E+04  0.7818608E-02  0.9820464E-01
         21   -1    0    0  501  502  0.00000000000E+00  0.00000000000E+00  0.13792455524E+04  0.13792455524E+04  0.00000000000E+00 0. -1.
         -4   -1    0    0    0  501 -0.00000000000E+00 -0.00000000000E+00 -0.24914283015E+03  0.24914283015E+03  0.00000000000E+00 0. -1.
   -9000010    2    1    2    0  502  0.98655455307E+02  0.13714628394E+03  0.96283925484E+03  0.13906509628E+04  0.98909487289E+03 0.  0.
         13    1    3    3    0    0  0.17440914083E+03  0.43479013389E+03  0.10583391427E+03  0.48027266996E+03  0.10566000000E+00 0. -1.
         -4    1    3    3    0  502 -0.75753685525E+02 -0.29764384996E+03  0.85700534057E+03  0.91037829282E+03  0.00000000000E+00 0. -1.
        -13    1    1    2    0    0 -0.98655455307E+02 -0.13714628394E+03  0.16726346743E+03  0.23773741977E+03  0.10566000000E+00 0.  1.
<mgrwt>
<rscale>  1 0.64275806E+03</rscale>
<asrwt>0</asrwt>
<pdfrwt beam="1">  1       21 0.21219162E+00 0.10034195E+04</pdfrwt>
<pdfrwt beam="2">  1       -4 0.38329667E-01 0.10034195E+04</pdfrwt>
<totfact> 0.25519233E+01</totfact>
</mgrwt>
</event>
<event>
 6    2  0.2321478E-005  0.1129358E+04  0.7818608E-02  0.9389477E-01
         21   -1    0    0  501  502  0.00000000000E+00  0.00000000000E+00  0.73652317093E+03  0.73652317093E+03  0.00000000000E+00 0. -1.
         -4   -1    0    0    0  501 -0.00000000000E+00 -0.00000000000E+00 -0.96171708050E+03  0.96171708050E+03  0.00000000000E+00 0. -1.
   -9000010    2    1    2    0  502  0.13870900609E+03 -0.49922286041E+03  0.95774974257E+01  0.11293982018E+04  0.10034863811E+04 0.  0.
         13    1    3    3    0    0  0.35961657805E+02 -0.53622414339E+03 -0.42257167380E+03  0.68366395506E+03  0.10566000000E+00 0. -1.
         -4    1    3    3    0  502  0.10274734828E+03  0.37001282973E+02  0.43214917123E+03  0.44573424674E+03  0.00000000000E+00 0. -1.
        -13    1    1    2    0    0 -0.13870900609E+03  0.49922286041E+03 -0.23477140699E+03  0.56884204964E+03  0.10566000000E+00 0.  1.
<mgrwt>
<rscale>  1 0.92946769E+03</rscale>
<asrwt>0</asrwt>
<pdfrwt beam="1">  1       21 0.11331126E+00 0.11293576E+04</pdfrwt>
<pdfrwt beam="2">  1       -4 0.14795647E+00 0.11293576E+04</pdfrwt>
<totfact> 0.67868733E+00</totfact>
</mgrwt>
</event>
<event>
 6    2  0.2321478E-005  0.1186185E+04  0.7818608E-02  0.9297256E-01
         21   -1    0    0  501  502  0.00000000000E+00  0.00000000000E+00  0.91344219604E+03  0.91344219604E+03  0.00000000000E+00 0. -1.
         -4   -1    0    0    0  501 -0.00000000000E+00 -0.00000000000E+00 -0.90013625534E+03  0.90013625534E+03  0.00000000000E+00 0. -1.
   -9000010    2    1    2    0  502  0.45762292550E+03 -0.42476438357E+03  0.58033081344E+02  0.11876039697E+04  0.10085592827E+04 0.  0.
         13    1    3    3    0    0 -0.61655159061E+02 -0.52536124645E+03 -0.23957807906E+03  0.58069222919E+03  0.10566000000E+00 0. -1.
         -4    1    3    3    0  502  0.51927808456E+03  0.10059686288E+03  0.29761116041E+03  0.60691174047E+03  0.00000000000E+00 0. -1.
        -13    1    1    2    0    0 -0.45762292550E+03  0.42476438357E+03 -0.44727140640E+02  0.62597448172E+03  0.10566000000E+00 0.  1.
<mgrwt>
<rscale>  1 0.10103589E+04</rscale>
<asrwt>0</asrwt>
<pdfrwt beam="1">  1       21 0.14052957E+00 0.11861852E+04</pdfrwt>
<pdfrwt beam="2">  1       -4 0.13848250E+00 0.11861852E+04</pdfrwt>
<totfact> 0.45504556E+00</totfact>
</mgrwt>
</event>
<event>
 6    2  0.2321478E-005  0.1019122E+04  0.7818608E-02  0.9749011E-01
         21   -1    0    0  501  502  0.00000000000E+00  0.00000000000E+00  0.49452911728E+03  0.49452911728E+03  0.00000000000E+00 0. -1.
         -4   -1    0    0    0  501 -0.00000000000E+00 -0.00000000000E+00 -0.76859103887E+03  0.76859103887E+03  0.00000000000E+00 0. -1.
   -9000010    2    1    2    0  502  0.17207281449E+03 -0.10968157928E+03 -0.28667419295E+03  0.10586741171E+04  0.99848369595E+03 0.  0.
         13    1    3    3    0    0  0.26399062856E+03 -0.52807902486E+03 -0.17996560547E+03  0.61720834309E+03  0.10566000000E+00 0. -1.
         -4    1    3    3    0  502 -0.91917814073E+02  0.41839744558E+03 -0.10670858748E+03  0.44146577405E+03  0.00000000000E+00 0. -1.
        -13    1    1    2    0    0 -0.17207281449E+03  0.10968157928E+03  0.12612271359E+02  0.20444603902E+03  0.10566000000E+00 0.  1.
<mgrwt>
<rscale>  1 0.68172189E+03</rscale>
<asrwt>0</asrwt>
<pdfrwt beam="1">  1       21 0.76081403E-01 0.10191216E+04</pdfrwt>
<pdfrwt beam="2">  1       -4 0.11824477E+00 0.10191216E+04</pdfrwt>
<totfact> 0.32408010E+01</totfact>
</mgrwt>
</event>
<event>
 6    2  0.2321478E-005  0.1019952E+04  0.7818608E-02  0.1013550E+00
         21   -1    0    0  501  502  0.00000000000E+00  0.00000000000E+00  0.57831104561E+03  0.57831104561E+03  0.00000000000E+00 0. -1.
         -4   -1    0    0    0  501 -0.00000000000E+00 -0.00000000000E+00 -0.50371489428E+03  0.50371489428E+03  0.00000000000E+00 0. -1.
   -9000010    2    1    2    0  502 -0.49830420438E+02  0.32180666326E+02  0.65965659138E+02  0.10220829449E+04  0.10182256194E+04 0.  0.
         13    1    3    3    0    0 -0.17104939429E+02  0.44314878033E+03  0.31176686613E+03  0.54209963147E+03  0.10566000000E+00 0. -1.
         -4    1    3    3    0  502 -0.32725481009E+02 -0.41096811401E+03 -0.24580120699E+03  0.47998331346E+03  0.00000000000E+00 0. -1.
        -13    1    1    2    0    0  0.49830420438E+02 -0.32180666326E+02  0.86304921913E+01  0.59942994968E+02  0.10566000000E+00 0.  1.
<mgrwt>
<rscale>  1 0.50087838E+03</rscale>
<asrwt>0</asrwt>
<pdfrwt beam="1">  1       21 0.88970930E-01 0.10199520E+04</pdfrwt>
<pdfrwt beam="2">  1       -4 0.77494599E-01 0.10199520E+04</pdfrwt>
<totfact> 0.61373119E+01</totfact>
</mgrwt>
</event>
<event>
 6    2  0.2321478E-005  0.9923424E+03  0.7818608E-02  0.9998966E-01
         -4   -1    0    0    0  501 -0.00000000000E+00  0.00000000000E+00  0.26241440040E+03  0.26241440040E+03  0.00000000000E+00 0. -1.
         21   -1    0    0  501  502  0.00000000000E+00 -0.00000000000E+00 -0.12959743271E+04  0.12959743271E+04  0.00000000000E+00 0. -1.
   -9000010    2    1    2    0  502 -0.83160467085E+02 -0.52729637263E+02 -0.10643754387E+04  0.14552107993E+04  0.98744484294E+03 0.  0.
         13    1    3    3    0    0 -0.30483926149E+03 -0.39016534346E+02 -0.11697005111E+04  0.12094000836E+04  0.10566000000E+00 0. -1.
         -4    1    3    3    0  502  0.22167879440E+03 -0.13713102916E+02  0.10532507239E+03  0.24581071570E+03  0.00000000000E+00 0. -1.
        -13    1    1    2    0    0  0.83160467085E+02  0.52729637263E+02  0.30815512001E+02  0.10317792824E+03  0.10566000000E+00 0.  1.
<mgrwt>
<rscale>  1 0.55695580E+03</rscale>
<asrwt>0</asrwt>
<pdfrwt beam="2">  1       21 0.19938067E+00 0.99234238E+03</pdfrwt>
<pdfrwt beam="1">  1       -4 0.40371446E-01 0.99234238E+03</pdfrwt>
<totfact> 0.28093175E+01</totfact>
</mgrwt>
</event>
<event>
 6    2  0.2321478E-005  0.9712692E+03  0.7818608E-02  0.9799987E-01
         -4   -1    0    0    0  501 -0.00000000000E+00  0.00000000000E+00  0.68810037867E+03  0.68810037867E+03  0.00000000000E+00 0. -1.
         21   -1    0    0  501  502  0.00000000000E+00 -0.00000000000E+00 -0.59923276692E+03  0.59923276692E+03  0.00000000000E+00 0. -1.
   -9000010    2    1    2    0  502  0.12827898582E+03 -0.15241333348E+03 -0.14289033701E+03  0.98172378644E+03  0.95062012498E+03 0.  0.
         13    1    3    3    0    0  0.18140228774E+03  0.36368892257E+03  0.84734240017E+02  0.41515819273E+03  0.10566000000E+00 0. -1.
         -4    1    3    3    0  502 -0.53123301916E+02 -0.51610225605E+03 -0.22762457702E+03  0.56656559371E+03  0.00000000000E+00 0. -1.
        -13    1    1    2    0    0 -0.12827898582E+03  0.15241333348E+03  0.23175794876E+03  0.30560935915E+03  0.10566000000E+00 0.  1.
<mgrwt>
<rscale>  1 0.65363226E+03</rscale>
<asrwt>0</asrwt>
<pdfrwt beam="2">  1       21 0.92189657E-01 0.97126924E+03</pdfrwt>
<pdfrwt beam="1">  1       -4 0.10586160E+00 0.97126924E+03</pdfrwt>
<totfact> 0.27096464E+01</totfact>
</mgrwt>
</event>
<event>
 6    2  0.2321478E-005  0.1002198E+04  0.7818608E-02  0.1005856E+00
         -4   -1    0    0    0  501 -0.00000000000E+00  0.00000000000E+00  0.72742169096E+03  0.72742169096E+03  0.00000000000E+00 0. -1.
         21   -1    0    0  501  502  0.00000000000E+00 -0.00000000000E+00 -0.41770365673E+03  0.41770365673E+03  0.00000000000E+00 0. -1.
   -9000010    2    1    2    0  502  0.69415488546E+02 -0.38362365128E+02  0.22128545300E+03  0.10263376644E+04  0.99905533811E+03 0.  0.
         13    1    3    3    0    0  0.17134385667E+03  0.16202166652E+03  0.56692542091E+03  0.61401480575E+03  0.10566000000E+00 0. -1.
         -4    1    3    3    0  502 -0.10192836813E+03 -0.20038403164E+03 -0.34563996791E+03  0.41232285868E+03  0.00000000000E+00 0. -1.
        -13    1    1    2    0    0 -0.69415488546E+02  0.38362365128E+02  0.88432581231E+02  0.11878768327E+03  0.10566000000E+00 0.  1.
<mgrwt>
<rscale>  1 0.53155510E+03</rscale>
<asrwt>0</asrwt>
<pdfrwt beam="2">  1       21 0.64262101E-01 0.10021985E+04</pdfrwt>
<pdfrwt beam="1">  1       -4 0.11191103E+00 0.10021985E+04</pdfrwt>
<totfact> 0.54777999E+01</totfact>
</mgrwt>
</event>
<event>
 6    2  0.2321478E-005  0.1017153E+04  0.7818608E-02  0.9775956E-01
         -4   -1    0    0    0  501 -0.00000000000E+00  0.00000000000E+00  0.48219735687E+03  0.48219735687E+03  0.00000000000E+00 0. -1.
         21   -1    0    0  501  502  0.00000000000E+00 -0.00000000000E+00 -0.89805603096E+03  0.89805603096E+03  0.00000000000E+00 0. -1.
   -9000010    2    1    2    0  502  0.77676545456E+01 -0.18757073058E+03 -0.11229842622E+03  0.10233332978E+04  0.99967844150E+03 0.  0.
         13    1    3    3    0    0 -0.48690922031E+03 -0.19564993643E+01 -0.22748491241E+02  0.48744427551E+03  0.10566000000E+00 0. -1.
         -4    1    3    3    0  502  0.49467687485E+03 -0.18561423121E+03 -0.89549934975E+02  0.53588902228E+03  0.00000000000E+00 0. -1.
        -13    1    1    2    0    0 -0.77676545456E+01  0.18757073058E+03 -0.30356024788E+03  0.35692009005E+03  0.10566000000E+00 0.  1.
<mgrwt>
<rscale>  1 0.66669017E+03</rscale>
<asrwt>0</asrwt>
<pdfrwt beam="2">  1       21 0.13816246E+00 0.10171529E+04</pdfrwt>
<pdfrwt beam="1">  1       -4 0.74184210E-01 0.10171529E+04</pdfrwt>
<totfact> 0.22093093E+01</totfact>
</mgrwt>
</event>
<event>
 6    2  0.2321478E-005  0.1018217E+04  0.7818608E-02  0.9783584E-01
         21   -1    0    0  501  502  0.00000000000E+00  0.00000000000E+00  0.60262083267E+03  0.60262083267E+03  0.00000000000E+00 0. -1.
         -4   -1    0    0    0  501 -0.00000000000E+00 -0.00000000000E+00 -0.86519644725E+03  0.86519644725E+03  0.00000000000E+00 0. -1.
   -9000010    2    1    2    0  502  0.17666168900E+03  0.45770139967E+02  0.13809968561E+03  0.10275389981E+04  0.10017288113E+04 0.  0.
         13    1    3    3    0    0  0.27221543985E+03 -0.43511921650E+03  0.15746432422E+03  0.53686590768E+03  0.10566000000E+00 0. -1.
         -4    1    3    3    0  502 -0.95553750852E+02  0.48088935647E+03 -0.19364638612E+02  0.49067309045E+03  0.00000000000E+00 0. -1.
        -13    1    1    2    0    0 -0.17666168900E+03 -0.45770139967E+02 -0.40067530019E+03  0.44027828179E+03  0.10566000000E+00 0.  1.
<mgrwt>
<rscale>  1 0.66251023E+03</rscale>
<asrwt>0</asrwt>
<pdfrwt beam="1">  1       21 0.92710897E-01 0.10182165E+04</pdfrwt>
<pdfrwt beam="2">  1       -4 0.13310715E+00 0.10182165E+04</pdfrwt>
<totfact> 0.14975503E+01</totfact>
</mgrwt>
</event>
<event>
 6    2  0.2321478E-005  0.1004855E+04  0.7818608E-02  0.9947094E-01
         -4   -1    0    0    0  501 -0.00000000000E+00  0.00000000000E+00  0.20426707984E+03  0.20426707984E+03  0.00000000000E+00 0. -1.
         21   -1    0    0  501  502  0.00000000000E+00 -0.00000000000E+00 -0.21747433771E+04  0.21747433771E+04  0.00000000000E+00 0. -1.
   -9000010    2    1    2    0  502  0.20349755811E+02 -0.10991235421E+03 -0.20204747829E+04  0.22565576175E+04  0.99861859327E+03 0.  0.
         13    1    3    3    0    0  0.80510688656E+02 -0.15001068325E+03 -0.21237098601E+04  0.21305231182E+04  0.10566000000E+00 0. -1.
         -4    1    3    3    0  502 -0.60160932845E+02  0.40098329043E+02  0.10323507727E+03  0.12603449930E+03  0.00000000000E+00 0. -1.
        -13    1    1    2    0    0 -0.20349755811E+02  0.10991235421E+03  0.49998485558E+02  0.12245283946E+03  0.10566000000E+00 0.  1.
<mgrwt>
<rscale>  1 0.58032193E+03</rscale>
<asrwt>0</asrwt>
<pdfrwt beam="2">  1       21 0.33457588E+00 0.10048552E+04</pdfrwt>
<pdfrwt beam="1">  1       -4 0.31425707E-01 0.10048552E+04</pdfrwt>
<totfact> 0.63738156E+00</totfact>
</mgrwt>
</event>
<event>
 6    2  0.2321478E-005  0.1054131E+04  0.7818608E-02  0.9660890E-01
         -4   -1    0    0    0  501 -0.00000000000E+00  0.00000000000E+00  0.27503473384E+03  0.27503473384E+03  0.00000000000E+00 0. -1.
         21   -1    0    0  501  502  0.00000000000E+00 -0.00000000000E+00 -0.18396579413E+04  0.18396579413E+04  0.00000000000E+00 0. -1.
   -9000010    2    1    2    0  502 -0.13727822786E+03 -0.20619990099E+03 -0.15393527301E+04  0.18656900262E+04  0.10246115044E+04 0.  0.
         13    1    3    3    0    0 -0.24726505531E+03 -0.33507340781E+03 -0.16238257620E+04  0.16763723670E+04  0.10566000000E+00 0. -1.
         -4    1    3    3    0  502  0.10998682744E+03  0.12887350683E+03  0.84473031876E+02  0.18931765921E+03  0.00000000000E+00 0. -1.
        -13    1    1    2    0    0  0.13727822786E+03  0.20619990099E+03 -0.25270477351E+02  0.24900264899E+03  0.10566000000E+00 0.  1.
<mgrwt>
<rscale>  1 0.73393896E+03</rscale>
<asrwt>0</asrwt>
<pdfrwt beam="2">  1       21 0.28302430E+00 0.10541311E+04</pdfrwt>
<pdfrwt beam="1">  1       -4 0.42313036E-01 0.10541311E+04</pdfrwt>
<totfact> 0.72801477E+00</totfact>
</mgrwt>
</event>
<event>
 6    2  0.2321478E-005  0.1007572E+04  0.7818608E-02  0.9917470E-01
         21   -1    0    0  501  502  0.00000000000E+00  0.00000000000E+00  0.14210769345E+04  0.14210769345E+04  0.00000000000E+00 0. -1.
         -4   -1    0    0    0  501 -0.00000000000E+00 -0.00000000000E+00 -0.28485306254E+03  0.28485306254E+03  0.00000000000E+00 0. -1.
   -9000010    2    1    2    0  502 -0.13998355200E+02 -0.12108198275E+03  0.12011815184E+04  0.15678129905E+04  0.10001718515E+04 0.  0.
         13    1    3    3    0    0  0.67068240555E+02  0.38825347118E+03  0.86953967219E+03  0.95464032989E+03  0.10566000000E+00 0. -1.
         -4    1    3    3    0  502 -0.81066595755E+02 -0.50933545393E+03  0.33164184621E+03  0.61317266062E+03  0.00000000000E+00 0. -1.
        -13    1    1    2    0    0  0.13998355200E+02  0.12108198275E+03 -0.64957646456E+02  0.13811700652E+03  0.10566000000E+00 0.  1.
<mgrwt>
<rscale>  1 0.59422051E+03</rscale>
<asrwt>0</asrwt>
<pdfrwt beam="1">  1       21 0.21862722E+00 0.10075716E+04</pdfrwt>
<pdfrwt beam="2">  1       -4 0.43823549E-01 0.10075716E+04</pdfrwt>
<totfact> 0.17566387E+01</totfact>
</mgrwt>
</event>
<event>
 6    2  0.2321478E-005  0.1022862E+04  0.7818608E-02  0.9768484E-01
         -4   -1    0    0    0  501 -0.00000000000E+00  0.00000000000E+00  0.47446544704E+03  0.47446544704E+03  0.00000000000E+00 0. -1.
         21   -1    0    0  501  502  0.00000000000E+00 -0.00000000000E+00 -0.12480220574E+04  0.12480220574E+04  0.00000000000E+00 0. -1.
   -9000010    2    1    2    0  502  0.47132644735E+02  0.18325452543E+03 -0.99789907939E+03  0.14290028169E+04  0.10052078247E+04 0.  0.
         13    1    3    3    0    0  0.41303304860E+03 -0.86675415311E+02 -0.85314924995E+03  0.95182591933E+03  0.10566000000E+00 0. -1.
         -4    1    3    3    0  502 -0.36590040387E+03  0.26992994074E+03 -0.14474982944E+03  0.47717689758E+03  0.00000000000E+00 0. -1.
        -13    1    1    2    0    0 -0.47132644735E+02 -0.18325452543E+03  0.22434246898E+03  0.29348468758E+03  0.10566000000E+00 0.  1.
<mgrwt>
<rscale>  1 0.67081655E+03</rscale>
<asrwt>0</asrwt>
<pdfrwt beam="2">  1       21 0.19200339E+00 0.10228619E+04</pdfrwt>
<pdfrwt beam="1">  1       -4 0.72994684E-01 0.10228619E+04</pdfrwt>
<totfact> 0.88487997E+00</totfact>
</mgrwt>
</event>
<event>
 6    2  0.2321478E-005  0.1032722E+04  0.7818608E-02  0.9665496E-01
         21   -1    0    0  501  502  0.00000000000E+00  0.00000000000E+00  0.38715153267E+03  0.38715153267E+03  0.00000000000E+00 0. -1.
         -4   -1    0    0    0  501 -0.00000000000E+00 -0.00000000000E+00 -0.12565713027E+04  0.12565713027E+04  0.00000000000E+00 0. -1.
   -9000010    2    1    2    0  502 -0.15530300157E+03 -0.20774158055E+03 -0.40013687799E+03  0.11075306772E+04  0.99961947419E+03 0.  0.
         13    1    3    3    0    0  0.41444403662E+03  0.12170236338E+02 -0.22725196963E+03  0.47281650035E+03  0.10566000000E+00 0. -1.
         -4    1    3    3    0  502 -0.56974703819E+03 -0.21991181689E+03 -0.17288490835E+03  0.63471417683E+03  0.00000000000E+00 0. -1.
        -13    1    1    2    0    0  0.15530300157E+03  0.20774158055E+03 -0.46928289207E+03  0.53619215822E+03  0.10566000000E+00 0.  1.
<mgrwt>
<rscale>  1 0.73108818E+03</rscale>
<asrwt>0</asrwt>
<pdfrwt beam="1">  1       21 0.59561775E-01 0.10327220E+04</pdfrwt>
<pdfrwt beam="2">  1       -4 0.19331866E+00 0.10327220E+04</pdfrwt>
<totfact> 0.14878615E+01</totfact>
</mgrwt>
</event>
<event>
 6    2  0.2321478E-005  0.1051055E+04  0.7818608E-02  0.9616075E-01
         -4   -1    0    0    0  501 -0.00000000000E+00  0.00000000000E+00  0.56033332204E+03  0.56033332204E+03  0.00000000000E+00 0. -1.
         21   -1    0    0  501  502  0.00000000000E+00 -0.00000000000E+00 -0.89311534055E+03  0.89311534055E+03  0.00000000000E+00 0. -1.
   -9000010    2    1    2    0  502 -0.29052867600E+03  0.16463207493E+02 -0.44525233755E+03  0.11414750538E+04  0.10099691606E+04 0.  0.
         13    1    3    3    0    0 -0.52651098867E+03 -0.16543351522E+03  0.59765165325E+02  0.55511616379E+03  0.10566000000E+00 0. -1.
         -4    1    3    3    0  502  0.23598231267E+03  0.18189672271E+03 -0.50501750288E+03  0.58635888996E+03  0.00000000000E+00 0. -1.
        -13    1    1    2    0    0  0.29052867600E+03 -0.16463207493E+02  0.11247031904E+03  0.31197360884E+03  0.10566000000E+00 0.  1.
<mgrwt>
<rscale>  1 0.76241291E+03</rscale>
<asrwt>0</asrwt>
<pdfrwt beam="2">  1       21 0.13740236E+00 0.10510545E+04</pdfrwt>
<pdfrwt beam="1">  1       -4 0.86205126E-01 0.10510545E+04</pdfrwt>
<totfact> 0.15823419E+01</totfact>
</mgrwt>
</event>
<event>
 6    2  0.2321478E-005  0.1263642E+04  0.7818608E-02  0.9250245E-01
         21   -1    0    0  501  502  0.00000000000E+00  0.00000000000E+00  0.14817219172E+04  0.14817219172E+04  0.00000000000E+00 0.  1.
         -4   -1    0    0    0  501 -0.00000000000E+00 -0.00000000000E+00 -0.62844238812E+03  0.62844238812E+03  0.00000000000E+00 0. -1.
   -9000010    2    1    2    0  502 -0.53558444721E+03 -0.29993267115E+03  0.79644077584E+03  0.14936896811E+04  0.11045273408E+04 0.  0.
         13    1    3    3    0    0 -0.73064598492E+01  0.50914162041E+02 -0.25808632957E+03  0.26316192910E+03  0.10566000000E+00 0. -1.
         -4    1    3    3    0  502 -0.52827798736E+03 -0.35084683319E+03  0.10545271054E+04  0.12305277520E+04  0.00000000000E+00 0. -1.
        -13    1    1    2    0    0  0.53558444721E+03  0.29993267115E+03  0.56838753233E+02  0.61647462425E+03  0.10566000000E+00 0.  1.
<mgrwt>
<rscale>  1 0.10549536E+04</rscale>
<asrwt>0</asrwt>
<pdfrwt beam="1">  1       21 0.22795722E+00 0.12636419E+04</pdfrwt>
<pdfrwt beam="2">  1       -4 0.96683445E-01 0.12636419E+04</pdfrwt>
<totfact> 0.25449246E+00</totfact>
</mgrwt>
</event>
<event>
 6    2  0.2321478E-005  0.1024571E+04  0.7818608E-02  0.9864388E-01
         21   -1    0    0  501  502  0.00000000000E+00  0.00000000000E+00  0.29322726776E+03  0.29322726776E+03  0.00000000000E+00 0. -1.
         -4   -1    0    0    0  501 -0.00000000000E+00 -0.00000000000E+00 -0.14420876443E+04  0.14420876443E+04  0.00000000000E+00 0. -1.
   -9000010    2    1    2    0  502 -0.32910989648E+02 -0.13355559969E+03 -0.63963915702E+03  0.12078431185E+04  0.10152962702E+04 0.  0.
         13    1    3    3    0    0 -0.70949031405E+02  0.25195650058E+03 -0.75869279187E+03  0.80257747715E+03  0.10566000000E+00 0. -1.
         -4    1    3    3    0  502  0.38038041757E+02 -0.38551210026E+03  0.11905363485E+03  0.40526564133E+03  0.00000000000E+00 0. -1.
        -13    1    1    2    0    0  0.32910989648E+02  0.13355559969E+03 -0.50922121948E+03  0.52747179354E+03  0.10566000000E+00 0.  1.
<mgrwt>
<rscale>  1 0.62018683E+03</rscale>
<asrwt>0</asrwt>
<pdfrwt beam="1">  1       21 0.45111889E-01 0.10245715E+04</pdfrwt>
<pdfrwt beam="2">  1       -4 0.22185963E+00 0.10245715E+04</pdfrwt>
<totfact> 0.17750599E+01</totfact>
</mgrwt>
</event>
<event>
 6    2  0.2321478E-005  0.9824631E+03  0.7818608E-02  0.9917530E-01
         -4   -1    0    0    0  501 -0.00000000000E+00  0.00000000000E+00  0.46745206518E+03  0.46745206518E+03  0.00000000000E+00 0. -1.
         21   -1    0    0  501  502  0.00000000000E+00 -0.00000000000E+00 -0.83160381693E+03  0.83160381693E+03  0.00000000000E+00 0. -1.
   -9000010    2    1    2    0  502  0.21793017956E+02  0.12963017497E+03 -0.50646530705E+03  0.11053239098E+04  0.97362976564E+03 0.  0.
         13    1    3    3    0    0 -0.34709562808E+03  0.39197293350E+03 -0.20937127814E+03  0.56387454181E+03  0.10566000000E+00 0. -1.
         -4    1    3    3    0  502  0.36888864604E+03 -0.26234275854E+03 -0.29709402891E+03  0.54144936803E+03  0.00000000000E+00 0. -1.
        -13    1    1    2    0    0 -0.21793017956E+02 -0.12963017497E+03  0.14231355529E+03  0.19373197227E+03  0.10566000000E+00 0.  1.
<mgrwt>
<rscale>  1 0.59419201E+03</rscale>
<asrwt>0</asrwt>
<pdfrwt beam="2">  1       21 0.12793905E+00 0.98246315E+03</pdfrwt>
<pdfrwt beam="1">  1       -4 0.71915703E-01 0.98246315E+03</pdfrwt>
<totfact> 0.29205427E+01</totfact>
</mgrwt>
</event>
<event>
 6    2  0.2321478E-005  0.1184489E+04  0.7818608E-02  0.9291104E-01
         21   -1    0    0  501  502  0.00000000000E+00  0.00000000000E+00  0.10896258927E+04  0.10896258927E+04  0.00000000000E+00 0. -1.
         -4   -1    0    0    0  501 -0.00000000000E+00 -0.00000000000E+00 -0.14140407601E+04  0.14140407601E+04  0.00000000000E+00 0. -1.
   -9000010    2    1    2    0  502  0.60012691985E+03  0.22618004414E+03  0.63934446337E+03  0.13460217198E+04  0.99584305742E+03 0.  0.
         13    1    3    3    0    0  0.77060606689E+03 -0.12393346725E+03  0.32460009459E+03  0.84531559030E+03  0.10566000000E+00 0. -1.
         -4    1    3    3    0  502 -0.17047914704E+03  0.35011351139E+03  0.31474436878E+03  0.50070612949E+03  0.00000000000E+00 0. -1.
        -13    1    1    2    0    0 -0.60012691985E+03 -0.22618004414E+03 -0.96375933074E+03  0.11576449331E+04  0.10566000000E+00 0.  1.
<mgrwt>
<rscale>  1 0.10160598E+04</rscale>
<asrwt>0</asrwt>
<pdfrwt beam="1">  1       21 0.16763475E+00 0.11844886E+04</pdfrwt>
<pdfrwt beam="2">  1       -4 0.21754473E+00 0.11844886E+04</pdfrwt>
<totfact> 0.75301586E-01</totfact>
</mgrwt>
</event>
<event>
 6    2  0.2321478E-005  0.1097668E+04  0.7818608E-02  0.9451610E-01
         -4   -1    0    0    0  501 -0.00000000000E+00  0.00000000000E+00  0.31539628066E+03  0.31539628066E+03  0.00000000000E+00 0. -1.
         21   -1    0    0  501  502  0.00000000000E+00 -0.00000000000E+00 -0.19045738608E+04  0.19045738608E+04  0.00000000000E+00 0. -1.
   -9000010    2    1    2    0  502  0.12981839423E+03 -0.43332758240E+03 -0.11348055265E+04  0.15788152589E+04  0.10001242071E+04 0.  0.
         13    1    3    3    0    0  0.29549107226E+03  0.45269875545E+02 -0.10153704040E+04  0.10584618103E+04  0.10566000000E+00 0. -1.
         -4    1    3    3    0  502 -0.16567267803E+03 -0.47859745795E+03 -0.11943512258E+03  0.52035344863E+03  0.00000000000E+00 0. -1.
        -13    1    1    2    0    0 -0.12981839423E+03  0.43332758240E+03 -0.45437205357E+03  0.64115488252E+03  0.10566000000E+00 0.  1.
<mgrwt>
<rscale>  1 0.87947423E+03</rscale>
<asrwt>0</asrwt>
<pdfrwt beam="2">  1       21 0.29301137E+00 0.10976675E+04</pdfrwt>
<pdfrwt beam="1">  1       -4 0.48522504E-01 0.10976675E+04</pdfrwt>
<totfact> 0.47109451E+00</totfact>
</mgrwt>
</event>
<event>
 6    2  0.2321478E-005  0.1005868E+04  0.7818608E-02  0.9894693E-01
         21   -1    0    0  501  502  0.00000000000E+00  0.00000000000E+00  0.28973920068E+03  0.28973920068E+03  0.00000000000E+00 0. -1.
         -4   -1    0    0    0  501 -0.00000000000E+00 -0.00000000000E+00 -0.13477444211E+04  0.13477444211E+04  0.00000000000E+00 0. -1.
   -9000010    2    1    2    0  502  0.11358215831E+03  0.66880777003E+02 -0.62352571006E+03  0.11834501416E+04  0.99719405413E+03 0.  0.
         13    1    3    3    0    0  0.96958069973E+02  0.52588548988E+03 -0.42503759888E+03  0.68309105353E+03  0.10566000000E+00 0. -1.
         -4    1    3    3    0  502  0.16624088336E+02 -0.45900471287E+03 -0.19848811118E+03  0.50035908809E+03  0.00000000000E+00 0. -1.
        -13    1    1    2    0    0 -0.11358215831E+03 -0.66880777003E+02 -0.43447951039E+03  0.45403348019E+03  0.10566000000E+00 0.  1.
<mgrwt>
<rscale>  1 0.60519176E+03</rscale>
<asrwt>0</asrwt>
<pdfrwt beam="1">  1       21 0.44575263E-01 0.10058677E+04</pdfrwt>
<pdfrwt beam="2">  1       -4 0.20734529E+00 0.10058677E+04</pdfrwt>
<totfact> 0.22624309E+01</totfact>
</mgrwt>
</event>
<event>
 6    2  0.2321478E-005  0.1009896E+04  0.7818608E-02  0.9803827E-01
         21   -1    0    0  501  502  0.00000000000E+00  0.00000000000E+00  0.31198081758E+03  0.31198081758E+03  0.00000000000E+00 0. -1.
         -4   -1    0    0    0  501 -0.00000000000E+00 -0.00000000000E+00 -0.15290521125E+04  0.15290521125E+04  0.00000000000E+00 0. -1.
   -9000010    2    1    2    0  502 -0.26932320233E+02  0.17291171498E+03 -0.54706661133E+03  0.11485518125E+04  0.99461830752E+03 0.  0.
         13    1    3    3    0    0  0.38193426508E+03  0.38028619807E+03 -0.38476765257E+03  0.66222166449E+03  0.10566000000E+00 0. -1.
         -4    1    3    3    0  502 -0.40886658532E+03 -0.20737448310E+03 -0.16229895876E+03  0.48633014799E+03  0.00000000000E+00 0. -1.
        -13    1    1    2    0    0  0.26932320233E+02 -0.17291171498E+03 -0.67000468357E+03  0.69248111759E+03  0.10566000000E+00 0.  1.
<mgrwt>
<rscale>  1 0.65157562E+03</rscale>
<asrwt>0</asrwt>
<pdfrwt beam="1">  1       21 0.47997049E-01 0.10098957E+04</pdfrwt>
<pdfrwt beam="2">  1       -4 0.23523879E+00 0.10098957E+04</pdfrwt>
<totfact> 0.12819189E+01</totfact>
</mgrwt>
</event>
<event>
 6    2  0.2321478E-005  0.1002401E+04  0.7818608E-02  0.9879204E-01
         -4   -1    0    0    0  501 -0.00000000000E+00  0.00000000000E+00  0.22323848245E+04  0.22323848245E+04  0.00000000000E+00 0. -1.
         21   -1    0    0  501  502  0.00000000000E+00 -0.00000000000E+00 -0.14683144059E+03  0.14683144059E+03  0.00000000000E+00 0. -1.
   -9000010    2    1    2    0  502 -0.10502827017E+03  0.92578118856E+02  0.17731974324E+04  0.20369182996E+04  0.99257512513E+03 0.  0.
         13    1    3    3    0    0 -0.27452924748E+03 -0.19840626252E+02  0.24390939190E+02  0.27632388107E+03  0.10566000000E+00 0. -1.
         -4    1    3    3    0  502  0.16950097731E+03  0.11241874511E+03  0.17488064933E+04  0.17605944185E+04  0.00000000000E+00 0. -1.
        -13    1    1    2    0    0  0.10502827017E+03 -0.92578118856E+02  0.31235595146E+03  0.34229796552E+03  0.10566000000E+00 0.  1.
<mgrwt>
<rscale>  1 0.61279836E+03</rscale>
<asrwt>0</asrwt>
<pdfrwt beam="2">  1       21 0.22589454E-01 0.10024006E+04</pdfrwt>
<pdfrwt beam="1">  1       -4 0.34344379E+00 0.10024006E+04</pdfrwt>
<totfact> 0.12705227E+01</totfact>
</mgrwt>
</event>
<event>
 6    2  0.2321478E-005  0.1145885E+04  0.7818608E-02  0.9708819E-01
         -4   -1    0    0    0  501 -0.00000000000E+00  0.00000000000E+00  0.55120025557E+03  0.55120025557E+03  0.00000000000E+00 0. -1.
         21   -1    0    0  501  502  0.00000000000E+00 -0.00000000000E+00 -0.89994451921E+03  0.89994451921E+03  0.00000000000E+00 0. -1.
   -9000010    2    1    2    0  502  0.15287658915E+03  0.59729154485E+02 -0.47863960250E+03  0.12418324874E+04  0.11340693252E+04 0.  0.
         13    1    3    3    0    0 -0.21454321100E+02  0.51147391900E+03 -0.55114978329E+03  0.75221802191E+03  0.10566000000E+00 0. -1.
         -4    1    3    3    0  502  0.17433091025E+03 -0.45174476452E+03  0.72510180783E+02  0.48961446553E+03  0.00000000000E+00 0. -1.
        -13    1    1    2    0    0 -0.15287658915E+03 -0.59729154485E+02  0.12989533886E+03  0.20931228733E+03  0.10566000000E+00 0.  1.
<mgrwt>
<rscale>  1 0.70494150E+03</rscale>
<asrwt>0</asrwt>
<pdfrwt beam="2">  1       21 0.13845300E+00 0.11458848E+04</pdfrwt>
<pdfrwt beam="1">  1       -4 0.84800040E-01 0.11458848E+04</pdfrwt>
<totfact> 0.15952539E+01</totfact>
</mgrwt>
</event>
<event>
 6    2  0.2321478E-005  0.1010349E+04  0.7818608E-02  0.1024148E+00
         -4   -1    0    0    0  501 -0.00000000000E+00  0.00000000000E+00  0.15597282309E+03  0.15597282309E+03  0.00000000000E+00 0. -1.
         21   -1    0    0  501  502  0.00000000000E+00 -0.00000000000E+00 -0.19085920364E+04  0.19085920364E+04  0.00000000000E+00 0. -1.
   -9000010    2    1    2    0  502 -0.15389253456E+02  0.41483371618E+02 -0.17494033309E+04  0.20202021240E+04  0.10093794668E+04 0.  0.
         13    1    3    3    0    0 -0.30786231607E+03 -0.31890075304E+03 -0.41432015566E+03  0.60674384916E+03  0.10566000000E+00 0. -1.
         -4    1    3    3    0  502  0.29247306262E+03  0.36038412466E+03 -0.13350831753E+04  0.14134582748E+04  0.00000000000E+00 0. -1.
        -13    1    1    2    0    0  0.15389253456E+02 -0.41483371618E+02 -0.32158823880E+01  0.44362735559E+02  0.10566000000E+00 0.  1.
<mgrwt>
<rscale>  1 0.46219159E+03</rscale>
<asrwt>0</asrwt>
<pdfrwt beam="2">  1       21 0.29362956E+00 0.10103488E+04</pdfrwt>
<pdfrwt beam="1">  1       -4 0.23995818E-01 0.10103488E+04</pdfrwt>
<totfact> 0.19314884E+01</totfact>
</mgrwt>
</event>
<event>
 6    2  0.2321478E-005  0.1061729E+04  0.7818608E-02  0.9557727E-01
         -4   -1    0    0    0  501 -0.00000000000E+00  0.00000000000E+00  0.34910427849E+03  0.34910427849E+03  0.00000000000E+00 0. -1.
         21   -1    0    0  501  502  0.00000000000E+00 -0.00000000000E+00 -0.14220901448E+04  0.14220901448E+04  0.00000000000E+00 0. -1.
   -9000010    2    1    2    0  502 -0.24844610949E+03  0.23930047439E+03 -0.85443594815E+03  0.13628388622E+04  0.10041308622E+04 0.  0.
         13    1    3    3    0    0  0.34797847817E+02 -0.19601570019E+03  0.13833712056E+03  0.24242568969E+03  0.10566000000E+00 0. -1.
         -4    1    3    3    0  502 -0.28324395731E+03  0.43531617458E+03 -0.99277306871E+03  0.11204131725E+04  0.00000000000E+00 0. -1.
        -13    1    1    2    0    0  0.24844610949E+03 -0.23930047439E+03 -0.21854991812E+03  0.40835556105E+03  0.10566000000E+00 0.  1.
<mgrwt>
<rscale>  1 0.80158435E+03</rscale>
<asrwt>0</asrwt>
<pdfrwt beam="2">  1       21 0.21878310E+00 0.10617292E+04</pdfrwt>
<pdfrwt beam="1">  1       -4 0.53708350E-01 0.10617292E+04</pdfrwt>
<totfact> 0.11346203E+01</totfact>
</mgrwt>
</event>
<event>
 6    2  0.2321478E-005  0.1019449E+04  0.7818608E-02  0.9684331E-01
         -4   -1    0    0    0  501 -0.00000000000E+00  0.00000000000E+00  0.77194751477E+03  0.77194751477E+03  0.00000000000E+00 0. -1.
         21   -1    0    0  501  502  0.00000000000E+00 -0.00000000000E+00 -0.92878233963E+03  0.92878233963E+03  0.00000000000E+00 0. -1.
   -9000010    2    1    2    0  502  0.60107658233E+02 -0.24580732046E+03 -0.60543817415E+03  0.11856772886E+04  0.98754295128E+03 0.  0.
         13    1    3    3    0    0 -0.11885682244E+03  0.33676442502E+03 -0.41428052652E+03  0.54696031668E+03  0.10566000000E+00 0. -1.
         -4    1    3    3    0  502  0.17896448067E+03 -0.58257174548E+03 -0.19115764763E+03  0.63871697192E+03  0.00000000000E+00 0. -1.
        -13    1    1    2    0    0 -0.60107658233E+02  0.24580732046E+03  0.44860334930E+03  0.51505256580E+03  0.10566000000E+00 0.  1.
<mgrwt>
<rscale>  1 0.71957398E+03</rscale>
<asrwt>0</asrwt>
<pdfrwt beam="2">  1       21 0.14288959E+00 0.10194485E+04</pdfrwt>
<pdfrwt beam="1">  1       -4 0.11876116E+00 0.10194485E+04</pdfrwt>
<totfact> 0.65770025E+00</totfact>
</mgrwt>
</event>
<event>
 6    2  0.2321478E-005  0.1028749E+04  0.7818608E-02  0.9703306E-01
         21   -1    0    0  501  502  0.00000000000E+00  0.00000000000E+00  0.43944842342E+03  0.43944842342E+03  0.00000000000E+00 0. -1.
         -4   -1    0    0    0  501 -0.00000000000E+00 -0.00000000000E+00 -0.92151827298E+03  0.92151827298E+03  0.00000000000E+00 0. -1.
   -9000010    2    1    2    0  502 -0.13880088363E+03  0.18470882887E+03 -0.31517739725E+03  0.10759471557E+04  0.10024681808E+04 0.  0.
         13    1    3    3    0    0  0.11413648906E+03  0.43718394924E+02  0.33909833751E+03  0.36045267353E+03  0.10566000000E+00 0. -1.
         -4    1    3    3    0  502 -0.25293737270E+03  0.14099043394E+03 -0.65427573476E+03  0.71549448221E+03  0.00000000000E+00 0. -1.
        -13    1    1    2    0    0  0.13880088363E+03 -0.18470882887E+03 -0.16689245231E+03  0.28501954066E+03  0.10566000000E+00 0.  1.
<mgrwt>
<rscale>  1 0.70820280E+03</rscale>
<asrwt>0</asrwt>
<pdfrwt beam="1">  1       21 0.67607450E-01 0.10287495E+04</pdfrwt>
<pdfrwt beam="2">  1       -4 0.14177204E+00 0.10287495E+04</pdfrwt>
<totfact> 0.26654205E+01</totfact>
</mgrwt>
</event>
<event>
 6    2  0.2321478E-005  0.1106193E+04  0.7818608E-02  0.9432580E-01
         -4   -1    0    0    0  501 -0.00000000000E+00  0.00000000000E+00  0.34584358374E+03  0.34584358374E+03  0.00000000000E+00 0. -1.
         21   -1    0    0  501  502  0.00000000000E+00 -0.00000000000E+00 -0.20854109923E+04  0.20854109923E+04  0.00000000000E+00 0. -1.
   -9000010    2    1    2    0  502 -0.70988775187E+02  0.46744172940E+03 -0.15869258186E+04  0.19344239784E+04  0.10000606971E+04 0.  0.
         13    1    3    3    0    0 -0.15692087901E+03  0.53449826664E+03 -0.28092806502E+03  0.62388552491E+03  0.10566000000E+00 0. -1.
         -4    1    3    3    0  502  0.85932103818E+02 -0.67056537240E+02 -0.13059977536E+04  0.13105384535E+04  0.00000000000E+00 0. -1.
        -13    1    1    2    0    0  0.70988775187E+02 -0.46744172940E+03 -0.15264158990E+03  0.49683059761E+03  0.10566000000E+00 0.  1.
<mgrwt>
<rscale>  1 0.89442272E+03</rscale>
<asrwt>0</asrwt>
<pdfrwt beam="2">  1       21 0.32083246E+00 0.11061928E+04</pdfrwt>
<pdfrwt beam="1">  1       -4 0.53206704E-01 0.11061928E+04</pdfrwt>
<totfact> 0.25941395E+00</totfact>
</mgrwt>
</event>
<event>
 6    2  0.2321478E-005  0.1065896E+04  0.7818608E-02  0.9567499E-01
         -4   -1    0    0    0  501 -0.00000000000E+00  0.00000000000E+00  0.10223337676E+04  0.10223337676E+04  0.00000000000E+00 0. -1.
         21   -1    0    0  501  502  0.00000000000E+00 -0.00000000000E+00 -0.55334745159E+03  0.55334745159E+03  0.00000000000E+00 0. -1.
   -9000010    2    1    2    0  502 -0.11685626222E+03  0.30820057797E+03  0.84485688730E+02  0.10692389956E+04  0.10136524137E+04 0.  0.
         13    1    3    3    0    0  0.19205363443E+03  0.59769353439E+02  0.47311917325E+03  0.51409992936E+03  0.10566000000E+00 0. -1.
         -4    1    3    3    0  502 -0.30890989665E+03  0.24843122453E+03 -0.38863348452E+03  0.55513906623E+03  0.00000000000E+00 0. -1.
        -13    1    1    2    0    0  0.11685626222E+03 -0.30820057797E+03  0.38450062725E+03  0.50644222356E+03  0.10566000000E+00 0.  1.
<mgrwt>
<rscale>  1 0.79485210E+03</rscale>
<asrwt>0</asrwt>
<pdfrwt beam="2">  1       21 0.85130377E-01 0.10658960E+04</pdfrwt>
<pdfrwt beam="1">  1       -4 0.15728212E+00 0.10658960E+04</pdfrwt>
<totfact> 0.11744286E+01</totfact>
</mgrwt>
</event>
<event>
 6    2  0.2321478E-005  0.1020271E+04  0.7818608E-02  0.9778148E-01
         21   -1    0    0  501  502  0.00000000000E+00  0.00000000000E+00  0.18210793906E+03  0.18210793906E+03  0.00000000000E+00 0. -1.
         -4   -1    0    0    0  501 -0.00000000000E+00 -0.00000000000E+00 -0.20237912130E+04  0.20237912130E+04  0.00000000000E+00 0. -1.
   -9000010    2    1    2    0  502  0.18467499184E+03  0.18005462454E+00 -0.14513415868E+04  0.17740756593E+04  0.10034177387E+04 0.  0.
         13    1    3    3    0    0  0.15640134443E+03  0.14996588976E+03  0.83107998879E+02  0.23207347818E+03  0.10566000000E+00 0. -1.
         -4    1    3    3    0  502  0.28273647409E+02 -0.14978583514E+03 -0.15344495857E+04  0.15420021811E+04  0.00000000000E+00 0. -1.
        -13    1    1    2    0    0 -0.18467499184E+03 -0.18005462454E+00 -0.39034168710E+03  0.43182349274E+03  0.10566000000E+00 0.  1.
<mgrwt>
<rscale>  1 0.66548552E+03</rscale>
<asrwt>0</asrwt>
<pdfrwt beam="1">  1       21 0.28016609E-01 0.10202706E+04</pdfrwt>
<pdfrwt beam="2">  1       -4 0.31135247E+00 0.10202706E+04</pdfrwt>
<totfact> 0.13210551E+01</totfact>
</mgrwt>
</event>
<event>
 6    2  0.2321478E-005  0.1005239E+04  0.7818608E-02  0.1000375E+00
         21   -1    0    0  501  502  0.00000000000E+00  0.00000000000E+00  0.13541921781E+04  0.13541921781E+04  0.00000000000E+00 0. -1.
         -4   -1    0    0    0  501 -0.00000000000E+00 -0.00000000000E+00 -0.22809727699E+03  0.22809727699E+03  0.00000000000E+00 0. -1.
   -9000010    2    1    2    0  502  0.76244152294E+02  0.53794547179E+02  0.10885605773E+04  0.14817118200E+04  0.10008989773E+04 0.  0.
         13    1    3    3    0    0  0.52087130379E+03 -0.68773617338E+02  0.43668440800E+03  0.68317641126E+03  0.10566000000E+00 0. -1.
         -4    1    3    3    0  502 -0.44462715150E+03  0.12256816452E+03  0.65187616932E+03  0.79853540869E+03  0.00000000000E+00 0. -1.
        -13    1    1    2    0    0 -0.76244152294E+02 -0.53794547179E+02  0.37534323797E+02  0.10057763515E+03  0.10566000000E+00 0.  1.
<mgrwt>
<rscale>  1 0.55486309E+03</rscale>
<asrwt>0</asrwt>
<pdfrwt beam="1">  1       21 0.20833725E+00 0.10052392E+04</pdfrwt>
<pdfrwt beam="2">  1       -4 0.35091889E-01 0.10052392E+04</pdfrwt>
<totfact> 0.32347557E+01</totfact>
</mgrwt>
</event>
<event>
 6    2  0.2321478E-005  0.1012271E+04  0.7818608E-02  0.9798567E-01
         21   -1    0    0  501  502  0.00000000000E+00  0.00000000000E+00  0.89561196389E+03  0.89561196389E+03  0.00000000000E+00 0. -1.
         -4   -1    0    0    0  501 -0.00000000000E+00 -0.00000000000E+00 -0.51149811099E+03  0.51149811099E+03  0.00000000000E+00 0. -1.
   -9000010    2    1    2    0  502  0.16920158349E+03 -0.51256127124E+02  0.56073931360E+03  0.11572042307E+04  0.99671294128E+03 0.  0.
         13    1    3    3    0    0 -0.27189818315E+03 -0.10668224324E+03 -0.14268736911E+03  0.32506833049E+03  0.10566000000E+00 0. -1.
         -4    1    3    3    0  502  0.44109976664E+03  0.55426116113E+02  0.70342668271E+03  0.83213590021E+03  0.00000000000E+00 0. -1.
        -13    1    1    2    0    0 -0.16920158349E+03  0.51256127124E+02 -0.17662546070E+03  0.24990584418E+03  0.10566000000E+00 0.  1.
<mgrwt>
<rscale>  1 0.65439505E+03</rscale>
<asrwt>0</asrwt>
<pdfrwt beam="1">  1       21 0.13778646E+00 0.10122712E+04</pdfrwt>
<pdfrwt beam="2">  1       -4 0.78692017E-01 0.10122712E+04</pdfrwt>
<totfact> 0.19469047E+01</totfact>
</mgrwt>
</event>
<event>
 6    2  0.2321478E-005  0.1126390E+04  0.7818608E-02  0.9397809E-01
         21   -1    0    0  501  502  0.00000000000E+00  0.00000000000E+00  0.63913756091E+03  0.63913756091E+03  0.00000000000E+00 0.  1.
         -4   -1    0    0    0  501 -0.00000000000E+00 -0.00000000000E+00 -0.10435615380E+04  0.10435615380E+04  0.00000000000E+00 0. -1.
   -9000010    2    1    2    0  502 -0.50444639167E+03 -0.49733232154E+02 -0.28725356266E+03  0.11624410152E+04  0.10058901272E+04 0.  0.
         13    1    3    3    0    0 -0.38042370921E+02 -0.56449519240E+02  0.35902031771E+03  0.36541670720E+03  0.10566000000E+00 0. -1.
         -4    1    3    3    0  502 -0.46640402075E+03  0.67162870867E+01 -0.64627388037E+03  0.79702430799E+03  0.00000000000E+00 0. -1.
        -13    1    1    2    0    0  0.50444639167E+03  0.49733232154E+02 -0.11717041438E+03  0.52025808366E+03  0.10566000000E+00 0.  1.
<mgrwt>
<rscale>  1 0.92256192E+03</rscale>
<asrwt>0</asrwt>
<pdfrwt beam="1">  1       21 0.98328857E-01 0.11263900E+04</pdfrwt>
<pdfrwt beam="2">  1       -4 0.16054793E+00 0.11263900E+04</pdfrwt>
<totfact> 0.77711743E+00</totfact>
</mgrwt>
</event>
<event>
 6    2  0.2321478E-005  0.9861054E+03  0.7818608E-02  0.9806927E-01
         21   -1    0    0  501  502  0.00000000000E+00  0.00000000000E+00  0.31402133294E+03  0.31402133294E+03  0.00000000000E+00 0. -1.
         -4   -1    0    0    0  501 -0.00000000000E+00 -0.00000000000E+00 -0.12272171865E+04  0.12272171865E+04  0.00000000000E+00 0. -1.
   -9000010    2    1    2    0  502 -0.32565217990E+02 -0.18319663733E+03 -0.54012051632E+03  0.11243371885E+04  0.96839167688E+03 0.  0.
         13    1    3    3    0    0  0.22190409921E+02  0.11589301964E+03  0.25069758070E+03  0.27707922049E+03  0.10566000000E+00 0. -1.
         -4    1    3    3    0  502 -0.54755627910E+02 -0.29908965697E+03 -0.79081809703E+03  0.84725796796E+03  0.00000000000E+00 0. -1.
        -13    1    1    2    0    0  0.32565217990E+02  0.18319663733E+03 -0.37307533725E+03  0.41690133099E+03  0.10566000000E+00 0.  1.
<mgrwt>
<rscale>  1 0.64992130E+03</rscale>
<asrwt>0</asrwt>
<pdfrwt beam="1">  1       21 0.48310975E-01 0.98610544E+03</pdfrwt>
<pdfrwt beam="2">  1       -4 0.18880264E+00 0.98610544E+03</pdfrwt>
<totfact> 0.25352677E+01</totfact>
</mgrwt>
</event>
<event>
 6    2  0.2321478E-005  0.1065759E+04  0.7818608E-02  0.9578078E-01
         -4   -1    0    0    0  501 -0.00000000000E+00  0.00000000000E+00  0.15301305641E+04  0.15301305641E+04  0.00000000000E+00 0. -1.
         21   -1    0    0  501  502  0.00000000000E+00 -0.00000000000E+00 -0.46791643852E+03  0.46791643852E+03  0.00000000000E+00 0. -1.
   -9000010    2    1    2    0  502 -0.25397702946E+03 -0.19125684450E+03  0.20703882534E+03  0.10856828662E+04  0.10172308975E+04 0.  0.
         13    1    3    3    0    0  0.23998110917E+03 -0.20537990380E+03  0.43816078310E+03  0.54014509222E+03  0.10566000000E+00 0. -1.
         -4    1    3    3    0  502 -0.49395813863E+03  0.14123059293E+02 -0.23112195776E+03  0.54553777402E+03  0.00000000000E+00 0. -1.
        -13    1    1    2    0    0  0.25397702946E+03  0.19125684450E+03  0.85517530024E+03  0.91236413639E+03  0.10566000000E+00 0.  1.
<mgrwt>
<rscale>  1 0.78764278E+03</rscale>
<asrwt>0</asrwt>
<pdfrwt beam="2">  1       21 0.71987145E-01 0.10657590E+04</pdfrwt>
<pdfrwt beam="1">  1       -4 0.23540470E+00 0.10657590E+04</pdfrwt>
<totfact> 0.51568280E+00</totfact>
</mgrwt>
</event>
<event>
 6    2  0.2321478E-005  0.1025654E+04  0.7818608E-02  0.9771934E-01
         21   -1    0    0  501  502  0.00000000000E+00  0.00000000000E+00  0.76277399297E+03  0.76277399297E+03  0.00000000000E+00 0. -1.
         -4   -1    0    0    0  501 -0.00000000000E+00 -0.00000000000E+00 -0.50778721215E+03  0.50778721215E+03  0.00000000000E+00 0. -1.
   -9000010    2    1    2    0  502 -0.10158988807E+03  0.15526823726E+03  0.31926095368E+03  0.10741944276E+04  0.10087305789E+04 0.  0.
         13    1    3    3    0    0  0.19247642846E+03  0.28980121286E+03 -0.24384164024E+03  0.42484194139E+03  0.10566000000E+00 0. -1.
         -4    1    3    3    0  502 -0.29406631654E+03 -0.13453297560E+03  0.56310259391E+03  0.64935248619E+03  0.00000000000E+00 0. -1.
        -13    1    1    2    0    0  0.10158988807E+03 -0.15526823726E+03 -0.64274172859E+02  0.19636677754E+03  0.10566000000E+00 0.  1.
<mgrwt>
<rscale>  1 0.66890709E+03</rscale>
<asrwt>0</asrwt>
<pdfrwt beam="1">  1       21 0.11734984E+00 0.10256540E+04</pdfrwt>
<pdfrwt beam="2">  1       -4 0.78121110E-01 0.10256540E+04</pdfrwt>
<totfact> 0.30215480E+01</totfact>
</mgrwt>
</event>
<event>
 6    2  0.2321478E-005  0.1009551E+04  0.7818608E-02  0.9663402E-01
         21   -1    0    0  501  502  0.00000000000E+00  0.00000000000E+00  0.61934719740E+03  0.61934719740E+03  0.00000000000E+00 0. -1.
         -4   -1    0    0    0  501 -0.00000000000E+00 -0.00000000000E+00 -0.72883042043E+03  0.72883042043E+03  0.00000000000E+00 0. -1.
   -9000010    2    1    2    0  502 -0.23468645291E+03  0.15201778359E+03  0.76356390430E+02  0.10124343963E+04  0.97005462257E+03 0.  0.
         13    1    3    3    0    0  0.12766157766E+03 -0.35328765040E+03 -0.46831266592E+02  0.37855359070E+03  0.10566000000E+00 0. -1.
         -4    1    3    3    0  502 -0.36234803057E+03  0.50530543399E+03  0.12318765702E+03  0.63388080561E+03  0.00000000000E+00 0. -1.
        -13    1    1    2    0    0  0.23468645291E+03 -0.15201778359E+03 -0.18583961346E+03  0.33574322153E+03  0.10566000000E+00 0.  1.
<mgrwt>
<rscale>  1 0.73238274E+03</rscale>
<asrwt>0</asrwt>
<pdfrwt beam="1">  1       21 0.95284185E-01 0.10095509E+04</pdfrwt>
<pdfrwt beam="2">  1       -4 0.11212776E+00 0.10095509E+04</pdfrwt>
<totfact> 0.21628568E+01</totfact>
</mgrwt>
</event>
<event>
 6    2  0.2321478E-005  0.1055040E+04  0.7818608E-02  0.9544723E-01
         21   -1    0    0  501  502  0.00000000000E+00  0.00000000000E+00  0.16983223221E+04  0.16983223221E+04  0.00000000000E+00 0. -1.
         -4   -1    0    0    0  501 -0.00000000000E+00 -0.00000000000E+00 -0.30988432413E+03  0.30988432413E+03  0.00000000000E+00 0. -1.
   -9000010    2    1    2    0  502 -0.31970485786E+03  0.18170895065E+03  0.11899922945E+04  0.15903429756E+04  0.98887804101E+03 0.  0.
         13    1    3    3    0    0 -0.40677758459E+03  0.52433825832E+02  0.20654166887E+02  0.41066277551E+03  0.10566000000E+00 0. -1.
         -4    1    3    3    0  502  0.87072726733E+02  0.12927512482E+03  0.11693381276E+04  0.11796802000E+04  0.00000000000E+00 0. -1.
        -13    1    1    2    0    0  0.31970485786E+03 -0.18170895065E+03  0.19844570345E+03  0.41786367067E+03  0.10566000000E+00 0.  1.
<mgrwt>
<rscale>  1 0.81065399E+03</rscale>
<asrwt>0</asrwt>
<pdfrwt beam="1">  1       21 0.26128035E+00 0.10550399E+04</pdfrwt>
<pdfrwt beam="2">  1       -4 0.47674512E-01 0.10550399E+04</pdfrwt>
<totfact> 0.77772504E+00</totfact>
</mgrwt>
</event>
<event>
 6    2  0.2321478E-005  0.1019843E+04  0.7818608E-02  0.9743622E-01
         -4   -1    0    0    0  501 -0.00000000000E+00  0.00000000000E+00  0.44311479638E+03  0.44311479638E+03  0.00000000000E+00 0. -1.
         21   -1    0    0  501  502  0.00000000000E+00 -0.00000000000E+00 -0.10391401359E+04  0.10391401359E+04  0.00000000000E+00 0. -1.
   -9000010    2    1    2    0  502  0.18867740326E+03  0.85875004771E+02 -0.71286935158E+03  0.12442923024E+04  0.99855242345E+03 0.  0.
         13    1    3    3    0    0 -0.65039910601E+02  0.31688378541E+03  0.11880401682E+03  0.34461562501E+03  0.10566000000E+00 0. -1.
         -4    1    3    3    0  502  0.25371731386E+03 -0.23100878064E+03 -0.83167336840E+03  0.89967667736E+03  0.00000000000E+00 0. -1.
        -13    1    1    2    0    0 -0.18867740326E+03 -0.85875004771E+02  0.11684401202E+03  0.23796262995E+03  0.10566000000E+00 0.  1.
<mgrwt>
<rscale>  1 0.68477904E+03</rscale>
<asrwt>0</asrwt>
<pdfrwt beam="2">  1       21 0.15986771E+00 0.10198434E+04</pdfrwt>
<pdfrwt beam="1">  1       -4 0.68171509E-01 0.10198434E+04</pdfrwt>
<totfact> 0.17792636E+01</totfact>
</mgrwt>
</event>
<event>
 6    2  0.2321478E-005  0.1026977E+04  0.7818608E-02  0.9632206E-01
         21   -1    0    0  501  502  0.00000000000E+00  0.00000000000E+00  0.43090491483E+03  0.43090491483E+03  0.00000000000E+00 0. -1.
         -4   -1    0    0    0  501 -0.00000000000E+00 -0.00000000000E+00 -0.10257459775E+04  0.10257459775E+04  0.00000000000E+00 0. -1.
   -9000010    2    1    2    0  502 -0.13008746082E+03  0.26505955966E+03 -0.39601713677E+03  0.11006870145E+04  0.98361731060E+03 0.  0.
         13    1    3    3    0    0  0.23518537868E+03  0.27704034074E+03 -0.58542895553E+03  0.68905049588E+03  0.10566000000E+00 0. -1.
         -4    1    3    3    0  502 -0.36527283950E+03 -0.11980781081E+02  0.18941181876E+03  0.41163651864E+03  0.00000000000E+00 0. -1.
        -13    1    1    2    0    0  0.13008746082E+03 -0.26505955966E+03 -0.19882392592E+03  0.35596387782E+03  0.10566000000E+00 0.  1.
<mgrwt>
<rscale>  1 0.75200775E+03</rscale>
<asrwt>0</asrwt>
<pdfrwt beam="1">  1       21 0.66293065E-01 0.10269773E+04</pdfrwt>
<pdfrwt beam="2">  1       -4 0.15780707E+00 0.10269773E+04</pdfrwt>
<totfact> 0.20902708E+01</totfact>
</mgrwt>
</event>
<event>
 6    2  0.2321478E-005  0.9245491E+03  0.7818608E-02  0.1001253E+00
         -4   -1    0    0    0  501 -0.00000000000E+00  0.00000000000E+00  0.14715605904E+04  0.14715605904E+04  0.00000000000E+00 0. -1.
         21   -1    0    0  501  502  0.00000000000E+00 -0.00000000000E+00 -0.18909339506E+03  0.18909339506E+03  0.00000000000E+00 0. -1.
   -9000010    2    1    2    0  502  0.13963540753E+02  0.11582911734E+03  0.10397683823E+04  0.13913695821E+04  0.91715847060E+03 0.  0.
         13    1    3    3    0    0  0.19275017424E+03 -0.35931787406E+01 -0.10980586204E+03  0.22186229762E+03  0.10566000000E+00 0. -1.
         -4    1    3    3    0  502 -0.17878663349E+03  0.11942229608E+03  0.11495742444E+04  0.11695072845E+04  0.00000000000E+00 0. -1.
        -13    1    1    2    0    0 -0.13963540753E+02 -0.11582911734E+03  0.24269881299E+03  0.26928440334E+03  0.10566000000E+00 0.  1.
<mgrwt>
<rscale>  1 0.55104268E+03</rscale>
<asrwt>0</asrwt>
<pdfrwt beam="2">  1       21 0.29091293E-01 0.92454909E+03</pdfrwt>
<pdfrwt beam="1">  1       -4 0.22639393E+00 0.92454909E+03</pdfrwt>
<totfact> 0.41552686E+01</totfact>
</mgrwt>
</event>
<event>
 6    2  0.2321478E-005  0.9925027E+03  0.7818608E-02  0.1027247E+00
         -4   -1    0    0    0  501 -0.00000000000E+00  0.00000000000E+00  0.52330188219E+03  0.52330188219E+03  0.00000000000E+00 0. -1.
         21   -1    0    0  501  502  0.00000000000E+00 -0.00000000000E+00 -0.58018838358E+03  0.58018838358E+03  0.00000000000E+00 0. -1.
   -9000010    2    1    2    0  502  0.21234909852E+02  0.36861440962E+02 -0.14748542407E+03  0.10034009897E+04  0.99159059526E+03 0.  0.
         13    1    3    3    0    0  0.95313145053E+02  0.38457126088E+03 -0.40334414420E+03  0.56539027241E+03  0.10566000000E+00 0. -1.
         -4    1    3    3    0  502 -0.74078235200E+02 -0.34770981991E+03  0.25585872014E+03  0.43801071730E+03  0.00000000000E+00 0. -1.
        -13    1    1    2    0    0 -0.21234909852E+02 -0.36861440962E+02  0.90598922676E+02  0.10008927605E+03  0.10566000000E+00 0.  1.
<mgrwt>
<rscale>  1 0.45159544E+03</rscale>
<asrwt>0</asrwt>
<pdfrwt beam="2">  1       21 0.89259751E-01 0.99250269E+03</pdfrwt>
<pdfrwt beam="1">  1       -4 0.80507982E-01 0.99250269E+03</pdfrwt>
<totfact> 0.55918259E+01</totfact>
</mgrwt>
</event>
<event>
 6    2  0.2321478E-005  0.1035346E+04  0.7818608E-02  0.9634608E-01
         -4   -1    0    0    0  501 -0.00000000000E+00  0.00000000000E+00  0.40063453597E+03  0.40063453597E+03  0.00000000000E+00 0. -1.
         21   -1    0    0  501  502  0.00000000000E+00 -0.00000000000E+00 -0.11251163355E+04  0.11251163355E+04  0.00000000000E+00 0. -1.
   -9000010    2    1    2    0  502  0.20821734194E+03  0.19579465158E+03 -0.44807720689E+03  0.11281461468E+04  0.99511332931E+03 0.  0.
         13    1    3    3    0    0  0.27516152862E+03  0.56410100614E+03 -0.13934076634E+03  0.64291498061E+03  0.10566000000E+00 0. -1.
         -4    1    3    3    0  502 -0.66944186674E+02 -0.36830635457E+03 -0.30873644055E+03  0.48523116621E+03  0.00000000000E+00 0. -1.
        -13    1    1    2    0    0 -0.20821734194E+03 -0.19579465158E+03 -0.27640459268E+03  0.39760472468E+03  0.10566000000E+00 0.  1.
<mgrwt>
<rscale>  1 0.75047320E+03</rscale>
<asrwt>0</asrwt>
<pdfrwt beam="2">  1       21 0.17309482E+00 0.10353456E+04</pdfrwt>
<pdfrwt beam="1">  1       -4 0.61636083E-01 0.10353456E+04</pdfrwt>
<totfact> 0.17613744E+01</totfact>
</mgrwt>
</event>
<event>
 6    2  0.2321478E-005  0.9962950E+03  0.7818608E-02  0.1006302E+00
         21   -1    0    0  501  502  0.00000000000E+00  0.00000000000E+00  0.61453067708E+03  0.61453067708E+03  0.00000000000E+00 0. -1.
         -4   -1    0    0    0  501 -0.00000000000E+00 -0.00000000000E+00 -0.67841828319E+03  0.67841828319E+03  0.00000000000E+00 0. -1.
   -9000010    2    1    2    0  502  0.79444034422E+02 -0.52263629521E+01  0.20098852197E+03  0.10163661628E+04  0.99310881650E+03 0.  0.
         13    1    3    3    0    0  0.14352574972E+02 -0.13852420826E+03  0.58675779284E+03  0.60305859691E+03  0.10566000000E+00 0. -1.
         -4    1    3    3    0  502  0.65091459450E+02  0.13329784531E+03 -0.38576927087E+03  0.41330756587E+03  0.00000000000E+00 0. -1.
        -13    1    1    2    0    0 -0.79444034422E+02  0.52263629521E+01 -0.26487612807E+03  0.27658279748E+03  0.10566000000E+00 0.  1.
<mgrwt>
<rscale>  1 0.52971325E+03</rscale>
<asrwt>0</asrwt>
<pdfrwt beam="1">  1       21 0.94543181E-01 0.99629503E+03</pdfrwt>
<pdfrwt beam="2">  1       -4 0.10437204E+00 0.99629503E+03</pdfrwt>
<totfact> 0.26318608E+01</totfact>
</mgrwt>
</event>
<event>
 6    2  0.2321478E-005  0.1025320E+04  0.7818608E-02  0.9661335E-01
         -4   -1    0    0    0  501 -0.00000000000E+00  0.00000000000E+00  0.11873742036E+04  0.11873742036E+04  0.00000000000E+00 0. -1.
         21   -1    0    0  501  502  0.00000000000E+00 -0.00000000000E+00 -0.42599343982E+03  0.42599343982E+03  0.00000000000E+00 0. -1.
   -9000010    2    1    2    0  502 -0.64521790338E+02 -0.26092762589E+03  0.28137200589E+03  0.10632270194E+04  0.98946207693E+03 0.  0.
         13    1    3    3    0    0 -0.34847606178E+03 -0.15811176002E+02 -0.23819288821E+03  0.42239960000E+03  0.10566000000E+00 0. -1.
         -4    1    3    3    0  502  0.28395427144E+03 -0.24511644989E+03  0.51956489409E+03  0.64082741940E+03  0.00000000000E+00 0. -1.
        -13    1    1    2    0    0  0.64521790338E+02  0.26092762589E+03  0.48000875786E+03  0.55014062399E+03  0.10566000000E+00 0.  1.
<mgrwt>
<rscale>  1 0.73366294E+03</rscale>
<asrwt>0</asrwt>
<pdfrwt beam="2">  1       21 0.65537452E-01 0.10253202E+04</pdfrwt>
<pdfrwt beam="1">  1       -4 0.18267295E+00 0.10253202E+04</pdfrwt>
<totfact> 0.14198243E+01</totfact>
</mgrwt>
</event>
<event>
 6    2  0.2321478E-005  0.1063696E+04  0.7818608E-02  0.9527454E-01
         21   -1    0    0  501  502  0.00000000000E+00  0.00000000000E+00  0.24021452398E+03  0.24021452398E+03  0.00000000000E+00 0. -1.
         -4   -1    0    0    0  501 -0.00000000000E+00 -0.00000000000E+00 -0.21746663548E+04  0.21746663548E+04  0.00000000000E+00 0. -1.
   -9000010    2    1    2    0  502 -0.35201121779E+03  0.14577913289E+03 -0.14597540368E+04  0.18061925678E+04  0.99311947479E+03 0.  0.
         13    1    3    3    0    0 -0.24279469947E+03 -0.14534991393E+03 -0.14681161023E+04  0.14951390452E+04  0.10566000000E+00 0. -1.
         -4    1    3    3    0  502 -0.10921651832E+03  0.29112904682E+03  0.83620655479E+01  0.31105352259E+03  0.00000000000E+00 0. -1.
        -13    1    1    2    0    0  0.35201121779E+03 -0.14577913289E+03 -0.47469779404E+03  0.60868831093E+03  0.10566000000E+00 0.  1.
<mgrwt>
<rscale>  1 0.82289694E+03</rscale>
<asrwt>0</asrwt>
<pdfrwt beam="1">  1       21 0.36956080E-01 0.10636963E+04</pdfrwt>
<pdfrwt beam="2">  1       -4 0.33456406E+00 0.10636963E+04</pdfrwt>
<totfact> 0.53358791E+00</totfact>
</mgrwt>
</event>
<event>
 6    2  0.2321478E-005  0.1006380E+04  0.7818608E-02  0.9844233E-01
         21   -1    0    0  501  502  0.00000000000E+00  0.00000000000E+00  0.34528398314E+03  0.34528398314E+03  0.00000000000E+00 0. -1.
         -4   -1    0    0    0  501 -0.00000000000E+00 -0.00000000000E+00 -0.12180450458E+04  0.12180450458E+04  0.00000000000E+00 0. -1.
   -9000010    2    1    2    0  502 -0.15266170284E+03  0.26607440559E+02 -0.43029434371E+03  0.10945109833E+04  0.99437795574E+03 0.  0.
         13    1    3    3    0    0 -0.55519982962E+03  0.10000419041E+03 -0.38466623410E+03  0.68279997930E+03  0.10566000000E+00 0. -1.
         -4    1    3    3    0  502  0.40253812678E+03 -0.73396749854E+02 -0.45628109603E+02  0.41171100397E+03  0.00000000000E+00 0. -1.
        -13    1    1    2    0    0  0.15266170284E+03 -0.26607440559E+02 -0.44246671895E+03  0.46881804568E+03  0.10566000000E+00 0.  1.
<mgrwt>
<rscale>  1 0.63041804E+03</rscale>
<asrwt>0</asrwt>
<pdfrwt beam="1">  1       21 0.53120614E-01 0.10063802E+04</pdfrwt>
<pdfrwt beam="2">  1       -4 0.18739154E+00 0.10063802E+04</pdfrwt>
<totfact> 0.21060103E+01</totfact>
</mgrwt>
</event>
<event>
 6    2  0.2321478E-005  0.1097840E+04  0.7818608E-02  0.9429220E-01
         21   -1    0    0  501  502  0.00000000000E+00  0.00000000000E+00  0.11680337848E+04  0.11680337848E+04  0.00000000000E+00 0. -1.
         -4   -1    0    0    0  501 -0.00000000000E+00 -0.00000000000E+00 -0.54015448855E+03  0.54015448855E+03  0.00000000000E+00 0. -1.
   -9000010    2    1    2    0  502  0.12903782625E+02  0.48931206523E+03  0.46580623956E+03  0.11925716603E+04  0.98267945297E+03 0.  0.
         13    1    3    3    0    0 -0.45355828619E+03  0.23751520659E+03  0.41647432970E+02  0.51367607708E+03  0.10566000000E+00 0. -1.
         -4    1    3    3    0  502  0.46646206881E+03  0.25179685864E+03  0.42415880659E+03  0.67889558319E+03  0.00000000000E+00 0. -1.
        -13    1    1    2    0    0 -0.12903782625E+02 -0.48931206523E+03  0.16207305663E+03  0.51561661303E+03  0.10566000000E+00 0.  1.
<mgrwt>
<rscale>  1 0.89709489E+03</rscale>
<asrwt>0</asrwt>
<pdfrwt beam="1">  1       21 0.17969751E+00 0.10978396E+04</pdfrwt>
<pdfrwt beam="2">  1       -4 0.83100690E-01 0.10978396E+04</pdfrwt>
<totfact> 0.79777756E+00</totfact>
</mgrwt>
</event>
<event>
 6    2  0.2321478E-005  0.9188329E+03  0.7818608E-02  0.9866006E-01
         21   -1    0    0  501  502  0.00000000000E+00  0.00000000000E+00  0.57230395004E+03  0.57230395004E+03  0.00000000000E+00 0. -1.
         -4   -1    0    0    0  501 -0.00000000000E+00 -0.00000000000E+00 -0.74479526813E+03  0.74479526813E+03  0.00000000000E+00 0. -1.
   -9000010    2    1    2    0  502 -0.14476917608E+03  0.12261317261E+03  0.16156592957E+03  0.93292951568E+03  0.89903382983E+03 0.  0.
         13    1    3    3    0    0  0.33565346156E+03  0.13269256729E+03  0.25691795324E+03  0.44303206378E+03  0.10566000000E+00 0. -1.
         -4    1    3    3    0  502 -0.48042263764E+03 -0.10079394684E+02 -0.95352023678E+02  0.48989745190E+03  0.00000000000E+00 0. -1.
        -13    1    1    2    0    0  0.14476917608E+03 -0.12261317261E+03 -0.33405724766E+03  0.38416970250E+03  0.10566000000E+00 0.  1.
<mgrwt>
<rscale>  1 0.61937451E+03</rscale>
<asrwt>0</asrwt>
<pdfrwt beam="1">  1       21 0.88046762E-01 0.91883292E+03</pdfrwt>
<pdfrwt beam="2">  1       -4 0.11458389E+00 0.91883292E+03</pdfrwt>
<totfact> 0.25048224E+01</totfact>
</mgrwt>
</event>
<event>
 6    2  0.2321478E-005  0.1017538E+04  0.7818608E-02  0.9741907E-01
         21   -1    0    0  501  502  0.00000000000E+00  0.00000000000E+00  0.83097345755E+03  0.83097345755E+03  0.00000000000E+00 0. -1.
         -4   -1    0    0    0  501 -0.00000000000E+00 -0.00000000000E+00 -0.46755409963E+03  0.46755409963E+03  0.00000000000E+00 0. -1.
   -9000010    2    1    2    0  502  0.15463239747E+03  0.14194844223E+03  0.38406733427E+03  0.10876084052E+04  0.99565244294E+03 0.  0.
         13    1    3    3    0    0  0.57823983154E+03  0.75375468258E+02  0.16468434717E+03  0.60594035132E+03  0.10566000000E+00 0. -1.
         -4    1    3    3    0  502 -0.42360743407E+03  0.66572973968E+02  0.21938298710E+03  0.48166805384E+03  0.00000000000E+00 0. -1.
        -13    1    1    2    0    0 -0.15463239747E+03 -0.14194844223E+03 -0.20647976348E+02  0.21091915202E+03  0.10566000000E+00 0.  1.
<mgrwt>
<rscale>  1 0.68575555E+03</rscale>
<asrwt>0</asrwt>
<pdfrwt beam="1">  1       21 0.12784207E+00 0.10175384E+04</pdfrwt>
<pdfrwt beam="2">  1       -4 0.71931400E-01 0.10175384E+04</pdfrwt>
<totfact> 0.29148957E+01</totfact>
</mgrwt>
</event>
<event>
 6    2  0.2321478E-005  0.9748294E+03  0.7818608E-02  0.9879564E-01
         -4   -1    0    0    0  501 -0.00000000000E+00  0.00000000000E+00  0.29620114436E+03  0.29620114436E+03  0.00000000000E+00 0. -1.
         21   -1    0    0  501  502  0.00000000000E+00 -0.00000000000E+00 -0.10756802763E+04  0.10756802763E+04  0.00000000000E+00 0. -1.
   -9000010    2    1    2    0  502  0.96505904204E+02  0.11749440323E+03 -0.70155232703E+03  0.12010279091E+04  0.96289877270E+03 0.  0.
         13    1    3    3    0    0 -0.40643841834E+03 -0.11164367282E+03 -0.32540075764E+03  0.53248677149E+03  0.10566000000E+00 0. -1.
         -4    1    3    3    0  502  0.50294432254E+03  0.22913807605E+03 -0.37615156939E+03  0.66854113757E+03  0.00000000000E+00 0. -1.
        -13    1    1    2    0    0 -0.96505904204E+02 -0.11749440323E+03 -0.77926804906E+02  0.17085351159E+03  0.10566000000E+00 0.  1.
<mgrwt>
<rscale>  1 0.61261981E+03</rscale>
<asrwt>0</asrwt>
<pdfrwt beam="2">  1       21 0.16548927E+00 0.97482941E+03</pdfrwt>
<pdfrwt beam="1">  1       -4 0.45569407E-01 0.97482941E+03</pdfrwt>
<totfact> 0.38502729E+01</totfact>
</mgrwt>
</event>
<event>
 6    2  0.2321478E-005  0.1021284E+04  0.7818608E-02  0.9669554E-01
         -4   -1    0    0    0  501 -0.00000000000E+00  0.00000000000E+00  0.56594920783E+03  0.56594920783E+03  0.00000000000E+00 0. -1.
         21   -1    0    0  501  502  0.00000000000E+00 -0.00000000000E+00 -0.87968356379E+03  0.87968356379E+03  0.00000000000E+00 0. -1.
   -9000010    2    1    2    0  502 -0.26093479754E+03 -0.43515889511E+02 -0.48489589134E+03  0.11305504275E+04  0.98642771783E+03 0.  0.
         13    1    3    3    0    0  0.22810545945E+03  0.13868320572E+03  0.15196164397E+03  0.30717663418E+03  0.10566000000E+00 0. -1.
         -4    1    3    3    0  502 -0.48904025699E+03 -0.18219909523E+03 -0.63685753532E+03  0.82337379334E+03  0.00000000000E+00 0. -1.
        -13    1    1    2    0    0  0.26093479754E+03  0.43515889511E+02  0.17116153538E+03  0.31508234410E+03  0.10566000000E+00 0.  1.
<mgrwt>
<rscale>  1 0.72858797E+03</rscale>
<asrwt>0</asrwt>
<pdfrwt beam="2">  1       21 0.13533593E+00 0.10212836E+04</pdfrwt>
<pdfrwt beam="1">  1       -4 0.87069109E-01 0.10212836E+04</pdfrwt>
<totfact> 0.16154972E+01</totfact>
</mgrwt>
</event>
<event>
 6    2  0.2321478E-005  0.1034848E+04  0.7818608E-02  0.9686132E-01
         -4   -1    0    0    0  501 -0.00000000000E+00  0.00000000000E+00  0.80420860267E+03  0.80420860267E+03  0.00000000000E+00 0. -1.
         21   -1    0    0  501  502  0.00000000000E+00 -0.00000000000E+00 -0.67456776870E+03  0.67456776870E+03  0.00000000000E+00 0. -1.
   -9000010    2    1    2    0  502  0.21999575509E+03  0.97069748305E+02 -0.21655628921E+03  0.10572634682E+04  0.10065230978E+04 0.  0.
         13    1    3    3    0    0  0.40969442686E+03 -0.33545527355E+03  0.18241202463E+02  0.52982309933E+03  0.10566000000E+00 0. -1.
         -4    1    3    3    0  502 -0.18969867177E+03  0.43252502185E+03 -0.23479749167E+03  0.52744036885E+03  0.00000000000E+00 0. -1.
        -13    1    1    2    0    0 -0.21999575509E+03 -0.97069748305E+02  0.34619712318E+03  0.42151290319E+03  0.10566000000E+00 0.  1.
<mgrwt>
<rscale>  1 0.71848495E+03</rscale>
<asrwt>0</asrwt>
<pdfrwt beam="2">  1       21 0.10377966E+00 0.10348475E+04</pdfrwt>
<pdfrwt beam="1">  1       -4 0.12372440E+00 0.10348475E+04</pdfrwt>
<totfact> 0.13647926E+01</totfact>
</mgrwt>
</event>
<event>
 6    2  0.2321478E-005  0.1086217E+04  0.7818608E-02  0.9439481E-01
         21   -1    0    0  501  502  0.00000000000E+00  0.00000000000E+00  0.55999546318E+03  0.55999546318E+03  0.00000000000E+00 0. -1.
         -4   -1    0    0    0  501 -0.00000000000E+00 -0.00000000000E+00 -0.11131625642E+04  0.11131625642E+04  0.00000000000E+00 0. -1.
   -9000010    2    1    2    0  502  0.80506911573E+02  0.48059788867E+03 -0.31621979414E+03  0.11313095884E+04  0.97077841612E+03 0.  0.
         13    1    3    3    0    0  0.44306448312E+03  0.39348435275E+03  0.67332458784E+02  0.59638053559E+03  0.10566000000E+00 0. -1.
         -4    1    3    3    0  502 -0.36255757154E+03  0.87113535919E+02 -0.38355225292E+03  0.53492905281E+03  0.00000000000E+00 0. -1.
        -13    1    1    2    0    0 -0.80506911573E+02 -0.48059788867E+03 -0.23694730689E+03  0.54184843897E+03  0.10566000000E+00 0.  1.
<mgrwt>
<rscale>  1 0.88896598E+03</rscale>
<asrwt>0</asrwt>
<pdfrwt beam="1">  1       21 0.86153148E-01 0.10862166E+04</pdfrwt>
<pdfrwt beam="2">  1       -4 0.17125578E+00 0.10862166E+04</pdfrwt>
<totfact> 0.89858639E+00</totfact>
</mgrwt>
</event>
<event>
 6    2  0.2321478E-005  0.9963143E+03  0.7818608E-02  0.9749425E-01
         21   -1    0    0  501  502  0.00000000000E+00  0.00000000000E+00  0.40851606502E+03  0.40851606502E+03  0.00000000000E+00 0. -1.
         -4   -1    0    0    0  501 -0.00000000000E+00 -0.00000000000E+00 -0.13755715966E+04  0.13755715966E+04  0.00000000000E+00 0. -1.
   -9000010    2    1    2    0  502  0.15396491965E+03 -0.15446532638E+03 -0.23970592779E+03  0.10247443988E+04  0.97215092318E+03 0.  0.
         13    1    3    3    0    0  0.55908491625E+03  0.87039283585E+01 -0.11987303998E+03  0.57185772603E+03  0.10566000000E+00 0. -1.
         -4    1    3    3    0  502 -0.40511999660E+03 -0.16316925474E+03 -0.11983288782E+03  0.45288667273E+03  0.00000000000E+00 0. -1.
        -13    1    1    2    0    0 -0.15396491965E+03  0.15446532638E+03 -0.72734960377E+03  0.75934326283E+03  0.10566000000E+00 0.  1.
<mgrwt>
<rscale>  1 0.68148753E+03</rscale>
<asrwt>0</asrwt>
<pdfrwt beam="1">  1       21 0.62848624E-01 0.99631428E+03</pdfrwt>
<pdfrwt beam="2">  1       -4 0.21162640E+00 0.99631428E+03</pdfrwt>
<totfact> 0.10033799E+01</totfact>
</mgrwt>
</event>
<event>
 6    2  0.2321478E-005  0.1055789E+04  0.7818608E-02  0.9551226E-01
         -4   -1    0    0    0  501 -0.00000000000E+00  0.00000000000E+00  0.38767955428E+03  0.38767955428E+03  0.00000000000E+00 0. -1.
         21   -1    0    0  501  502  0.00000000000E+00 -0.00000000000E+00 -0.12904691205E+04  0.12904691205E+04  0.00000000000E+00 0.  1.
   -9000010    2    1    2    0  502 -0.19185413384E+03  0.30317488429E+03 -0.66753070768E+03  0.12491151553E+04  0.99295941831E+03 0.  0.
         13    1    3    3    0    0 -0.18503870764E+03  0.52456010479E+03 -0.81230945424E+03  0.98450458987E+03  0.10566000000E+00 0. -1.
         -4    1    3    3    0  502 -0.68154261987E+01 -0.22138522050E+03  0.14477874656E+03  0.26461056545E+03  0.00000000000E+00 0. -1.
        -13    1    1    2    0    0  0.19185413384E+03 -0.30317488429E+03 -0.23525885852E+03  0.42903351945E+03  0.10566000000E+00 0.  1.
<mgrwt>
<rscale>  1 0.80610216E+03</rscale>
<asrwt>0</asrwt>
<pdfrwt beam="2">  1       21 0.19853371E+00 0.10557895E+04</pdfrwt>
<pdfrwt beam="1">  1       -4 0.59643008E-01 0.10557895E+04</pdfrwt>
<totfact> 0.12416755E+01</totfact>
</mgrwt>
</event>
<event>
 6    2  0.2321478E-005  0.9937979E+03  0.7818608E-02  0.9783893E-01
         -4   -1    0    0    0  501 -0.00000000000E+00  0.00000000000E+00  0.17997931543E+03  0.17997931543E+03  0.00000000000E+00 0. -1.
         21   -1    0    0  501  502  0.00000000000E+00 -0.00000000000E+00 -0.19668364961E+04  0.19668364961E+04  0.00000000000E+00 0. -1.
   -9000010    2    1    2    0  502  0.13280354867E+03 -0.14425910232E+03 -0.14841572797E+04  0.17861570914E+04  0.97426220978E+03 0.  0.
         13    1    3    3    0    0 -0.22797331599E+03 -0.45660702219E+03 -0.86656173177E+03  0.10056793980E+04  0.10566000000E+00 0. -1.
         -4    1    3    3    0  502  0.36077686466E+03  0.31234791987E+03 -0.61759554788E+03  0.78047769340E+03  0.00000000000E+00 0. -1.
        -13    1    1    2    0    0 -0.13280354867E+03  0.14425910232E+03 -0.30269990100E+03  0.36065872008E+03  0.10566000000E+00 0.  1.
<mgrwt>
<rscale>  1 0.66234171E+03</rscale>
<asrwt>0</asrwt>
<pdfrwt beam="2">  1       21 0.30259022E+00 0.99379793E+03</pdfrwt>
<pdfrwt beam="1">  1       -4 0.27689126E-01 0.99379793E+03</pdfrwt>
<totfact> 0.12943085E+01</totfact>
</mgrwt>
</event>
<event>
 6    2  0.2321478E-005  0.1020613E+04  0.7818608E-02  0.9766286E-01
         -4   -1    0    0    0  501 -0.00000000000E+00  0.00000000000E+00  0.17008861651E+04  0.17008861651E+04  0.00000000000E+00 0. -1.
         21   -1    0    0  501  502  0.00000000000E+00 -0.00000000000E+00 -0.21755567447E+03  0.21755567447E+03  0.00000000000E+00 0. -1.
   -9000010    2    1    2    0  502 -0.13262487277E+03  0.13864078583E+03  0.13030474362E+04  0.16551689484E+04  0.10024175788E+04 0.  0.
         13    1    3    3    0    0 -0.18013546669E+03 -0.37525653751E+03  0.25824552720E+03  0.48985407907E+03  0.10566000000E+00 0. -1.
         -4    1    3    3    0  502  0.47510593926E+02  0.51389732334E+03  0.10448019090E+04  0.11653148693E+04  0.00000000000E+00 0. -1.
        -13    1    1    2    0    0  0.13262487277E+03 -0.13864078583E+03  0.18028305439E+03  0.26327289119E+03  0.10566000000E+00 0.  1.
<mgrwt>
<rscale>  1 0.67203618E+03</rscale>
<asrwt>0</asrwt>
<pdfrwt beam="2">  1       21 0.33470105E-01 0.10206134E+04</pdfrwt>
<pdfrwt beam="1">  1       -4 0.26167479E+00 0.10206134E+04</pdfrwt>
<totfact> 0.18681431E+01</totfact>
</mgrwt>
</event>
<event>
 6    2  0.2321478E-005  0.1008231E+04  0.7818608E-02  0.9954200E-01
         21   -1    0    0  501  502  0.00000000000E+00  0.00000000000E+00  0.51697046105E+03  0.51697046105E+03  0.00000000000E+00 0. -1.
         -4   -1    0    0    0  501 -0.00000000000E+00 -0.00000000000E+00 -0.60334459266E+03  0.60334459266E+03  0.00000000000E+00 0. -1.
   -9000010    2    1    2    0  502  0.10099239523E+03 -0.38790687566E+02 -0.67433763303E+02  0.10104836827E+04  0.10024099856E+04 0.  0.
         13    1    3    3    0    0 -0.17118885168E+03  0.27528554196E+03  0.31039058532E+03  0.44880962464E+03  0.10566000000E+00 0. -1.
         -4    1    3    3    0  502  0.27218124691E+03 -0.31407622953E+03 -0.37782434862E+03  0.56167405809E+03  0.00000000000E+00 0. -1.
        -13    1    1    2    0    0 -0.10099239523E+03  0.38790687566E+02 -0.18940368306E+02  0.10983137098E+03  0.10566000000E+00 0.  1.
<mgrwt>
<rscale>  1 0.57704908E+03</rscale>
<asrwt>0</asrwt>
<pdfrwt beam="1">  1       21 0.79533917E-01 0.10082311E+04</pdfrwt>
<pdfrwt beam="2">  1       -4 0.92822245E-01 0.10082311E+04</pdfrwt>
<totfact> 0.52721696E+01</totfact>
</mgrwt>
</event>
<event>
 6    2  0.2321478E-005  0.1004803E+04  0.7818608E-02  0.9845298E-01
         21   -1    0    0  501  502  0.00000000000E+00  0.00000000000E+00  0.25966451045E+03  0.25966451045E+03  0.00000000000E+00 0. -1.
         -4   -1    0    0    0  501 -0.00000000000E+00 -0.00000000000E+00 -0.14445459276E+04  0.14445459276E+04  0.00000000000E+00 0. -1.
   -9000010    2    1    2    0  502 -0.13045274938E+03 -0.83995375881E+02 -0.78438954396E+03  0.12747143442E+04  0.99275201315E+03 0.  0.
         13    1    3    3    0    0  0.22165663082E+03  0.51908767144E+02  0.14616124501E+03  0.27053521546E+03  0.10566000000E+00 0. -1.
         -4    1    3    3    0  502 -0.35210938020E+03 -0.13590414303E+03 -0.93055078897E+03  0.10041791287E+04  0.00000000000E+00 0. -1.
        -13    1    1    2    0    0  0.13045274938E+03  0.83995375881E+02 -0.40049187323E+03  0.42949609390E+03  0.10566000000E+00 0.  1.
<mgrwt>
<rscale>  1 0.62987217E+03</rscale>
<asrwt>0</asrwt>
<pdfrwt beam="1">  1       21 0.39948386E-01 0.10048033E+04</pdfrwt>
<pdfrwt beam="2">  1       -4 0.22223784E+00 0.10048033E+04</pdfrwt>
<totfact> 0.22866951E+01</totfact>
</mgrwt>
</event>
<event>
 6    2  0.2321478E-005  0.1082853E+04  0.7818608E-02  0.9531697E-01
         21   -1    0    0  501  502  0.00000000000E+00  0.00000000000E+00  0.12186876579E+04  0.12186876579E+04  0.00000000000E+00 0. -1.
         -4   -1    0    0    0  501 -0.00000000000E+00 -0.00000000000E+00 -0.73176316283E+03  0.73176316283E+03  0.00000000000E+00 0. -1.
   -9000010    2    1    2    0  502 -0.35214779402E+03  0.51187621800E+02  0.89799214942E+03  0.14067552542E+04  0.10227131579E+04 0.  0.
         13    1    3    3    0    0 -0.68835991943E+03  0.17772283726E+03  0.69464563639E+03  0.99396044030E+03  0.10566000000E+00 0. -1.
         -4    1    3    3    0  502  0.33621212541E+03 -0.12653521546E+03  0.20334651303E+03  0.41279481390E+03  0.00000000000E+00 0. -1.
        -13    1    1    2    0    0  0.35214779402E+03 -0.51187621800E+02 -0.41106765434E+03  0.54369556653E+03  0.10566000000E+00 0.  1.
<mgrwt>
<rscale>  1 0.81986705E+03</rscale>
<asrwt>0</asrwt>
<pdfrwt beam="1">  1       21 0.18749041E+00 0.10828529E+04</pdfrwt>
<pdfrwt beam="2">  1       -4 0.11257895E+00 0.10828529E+04</pdfrwt>
<totfact> 0.33931028E+00</totfact>
</mgrwt>
</event>
<event>
 6    2  0.2321478E-005  0.1025636E+04  0.7818608E-02  0.9945636E-01
         -4   -1    0    0    0  501 -0.00000000000E+00  0.00000000000E+00  0.92814645964E+03  0.92814645964E+03  0.00000000000E+00 0. -1.
         21   -1    0    0  501  502  0.00000000000E+00 -0.00000000000E+00 -0.44523321534E+03  0.44523321534E+03  0.00000000000E+00 0. -1.
   -9000010    2    1    2    0  502  0.10085366635E+03  0.31344138553E+02  0.16555762497E+03  0.10389121619E+04  0.10201839226E+04 0.  0.
         13    1    3    3    0    0 -0.92550843967E+02 -0.63185893235E+02 -0.40967135034E+03  0.42472195879E+03  0.10566000000E+00 0. -1.
         -4    1    3    3    0  502  0.19340451032E+03  0.94530031788E+02  0.57522897531E+03  0.61419020308E+03  0.00000000000E+00 0. -1.
        -13    1    1    2    0    0 -0.10085366635E+03 -0.31344138553E+02  0.31735561934E+03  0.33446751311E+03  0.10566000000E+00 0.  1.
<mgrwt>
<rscale>  1 0.58099636E+03</rscale>
<asrwt>0</asrwt>
<pdfrwt beam="2">  1       21 0.68497418E-01 0.10256360E+04</pdfrwt>
<pdfrwt beam="1">  1       -4 0.14279176E+00 0.10256360E+04</pdfrwt>
<totfact> 0.25392044E+01</totfact>
</mgrwt>
</event>
<event>
 6    2  0.2321478E-005  0.1016571E+04  0.7818608E-02  0.1015870E+00
         -4   -1    0    0    0  501 -0.00000000000E+00  0.00000000000E+00  0.58129511147E+03  0.58129511147E+03  0.00000000000E+00 0. -1.
         21   -1    0    0  501  502  0.00000000000E+00 -0.00000000000E+00 -0.55584168079E+03  0.55584168079E+03  0.00000000000E+00 0. -1.
   -9000010    2    1    2    0  502 -0.50856652173E+02  0.22979416399E+02 -0.78033077943E+02  0.10195616194E+04  0.10150380691E+04 0.  0.
         13    1    3    3    0    0 -0.33438866581E+03 -0.33604204040E+03 -0.24366481224E+03  0.53302212395E+03  0.10566000000E+00 0. -1.
         -4    1    3    3    0  502  0.28353201363E+03  0.35902145680E+03  0.16563173429E+03  0.48653949542E+03  0.00000000000E+00 0. -1.
        -13    1    1    2    0    0  0.50856652173E+02 -0.22979416399E+02  0.10348650862E+03  0.11757517289E+03  0.10566000000E+00 0.  1.
<mgrwt>
<rscale>  1 0.49206924E+03</rscale>
<asrwt>0</asrwt>
<pdfrwt beam="2">  1       21 0.85514105E-01 0.10165711E+04</pdfrwt>
<pdfrwt beam="1">  1       -4 0.89430017E-01 0.10165711E+04</pdfrwt>
<totfact> 0.48446818E+01</totfact>
</mgrwt>
</event>
<event>
 6    2  0.2321478E-005  0.1019035E+04  0.7818608E-02  0.1016763E+00
         -4   -1    0    0    0  501 -0.00000000000E+00  0.00000000000E+00  0.33156302323E+03  0.33156302323E+03  0.00000000000E+00 0. -1.
         21   -1    0    0  501  502  0.00000000000E+00 -0.00000000000E+00 -0.10692998510E+04  0.10692998510E+04  0.00000000000E+00 0. -1.
   -9000010    2    1    2    0  502 -0.47547034048E+02 -0.25419817250E+02 -0.81623624198E+03  0.13056312790E+04  0.10176072653E+04 0.  0.
         13    1    3    3    0    0 -0.39094114598E+03 -0.28646528536E+03 -0.14167292583E+03  0.50494412405E+03  0.10566000000E+00 0. -1.
         -4    1    3    3    0  502  0.34339411193E+03  0.26104546811E+03 -0.67456331615E+03  0.80068715490E+03  0.00000000000E+00 0. -1.
        -13    1    1    2    0    0  0.47547034048E+02  0.25419817250E+02  0.78499414179E+02  0.95231595315E+02  0.10566000000E+00 0.  1.
<mgrwt>
<rscale>  1 0.48873160E+03</rscale>
<asrwt>0</asrwt>
<pdfrwt beam="2">  1       21 0.16450767E+00 0.10190346E+04</pdfrwt>
<pdfrwt beam="1">  1       -4 0.51009695E-01 0.10190346E+04</pdfrwt>
<totfact> 0.30770852E+01</totfact>
</mgrwt>
</event>
<event>
 6    2  0.2321478E-005  0.1045154E+04  0.7818608E-02  0.9648976E-01
         -4   -1    0    0    0  501 -0.00000000000E+00  0.00000000000E+00  0.21039235108E+03  0.21039235108E+03  0.00000000000E+00 0. -1.
         21   -1    0    0  501  502  0.00000000000E+00 -0.00000000000E+00 -0.28292597580E+04  0.28292597580E+04  0.00000000000E+00 0. -1.
   -9000010    2    1    2    0  502 -0.13034592420E+03 -0.23028667710E+03 -0.25647907917E+04  0.27695663725E+04  0.10111004267E+04 0.  0.
         13    1    3    3    0    0  0.21783275915E+03 -0.28052199944E+03 -0.26527929037E+03  0.44330217255E+03  0.10566000000E+00 0. -1.
         -4    1    3    3    0  502 -0.34817868335E+03  0.50235322343E+02 -0.22995115014E+04  0.23262642000E+04  0.00000000000E+00 0. -1.
        -13    1    1    2    0    0  0.13034592420E+03  0.23028667710E+03 -0.54076615147E+02  0.27008573652E+03  0.10566000000E+00 0.  1.
<mgrwt>
<rscale>  1 0.74137755E+03</rscale>
<asrwt>0</asrwt>
<pdfrwt beam="2">  1       21 0.43527073E+00 0.10451536E+04</pdfrwt>
<pdfrwt beam="1">  1       -4 0.32368054E-01 0.10451536E+04</pdfrwt>
<totfact> 0.13224925E+00</totfact>
</mgrwt>
</event>
<event>
 6    2  0.2321478E-005  0.1071478E+04  0.7818608E-02  0.9519461E-01
         -4   -1    0    0    0  501 -0.00000000000E+00  0.00000000000E+00  0.13375267013E+04  0.13375267013E+04  0.00000000000E+00 0. -1.
         21   -1    0    0  501  502  0.00000000000E+00 -0.00000000000E+00 -0.39597425141E+03  0.39597425141E+03  0.00000000000E+00 0.  1.
   -9000010    2    1    2    0  502 -0.34295828758E+03  0.17112219087E+03  0.71778341282E+03  0.12896814124E+04  0.10005807946E+04 0.  0.
         13    1    3    3    0    0 -0.63833598147E+03  0.94445852121E+02  0.74225757498E+03  0.98353401721E+03  0.10566000000E+00 0. -1.
         -4    1    3    3    0  502  0.29537769389E+03  0.76676338752E+02 -0.24474162167E+02  0.30614739519E+03  0.00000000000E+00 0. -1.
        -13    1    1    2    0    0  0.34295828758E+03 -0.17112219087E+03  0.22376903705E+03  0.44381954028E+03  0.10566000000E+00 0.  1.
<mgrwt>
<rscale>  1 0.82864098E+03</rscale>
<asrwt>0</asrwt>
<pdfrwt beam="2">  1       21 0.60919116E-01 0.10714780E+04</pdfrwt>
<pdfrwt beam="1">  1       -4 0.20577334E+00 0.10714780E+04</pdfrwt>
<totfact> 0.11648233E+01</totfact>
</mgrwt>
</event>
<event>
 6    2  0.2321478E-005  0.1046667E+04  0.7818608E-02  0.9578480E-01
         -4   -1    0    0    0  501 -0.00000000000E+00  0.00000000000E+00  0.25029741660E+04  0.25029741660E+04  0.00000000000E+00 0. -1.
         21   -1    0    0  501  502  0.00000000000E+00 -0.00000000000E+00 -0.36994340463E+03  0.36994340463E+03  0.00000000000E+00 0. -1.
   -9000010    2    1    2    0  502  0.29987642090E+03 -0.14975562449E+03  0.42063936402E+03  0.11280287708E+04  0.99154365426E+03 0.  0.
         13    1    3    3    0    0  0.28017634458E+03  0.19801332255E+03  0.63305319958E+03  0.72004473794E+03  0.10566000000E+00 0. -1.
         -4    1    3    3    0  502  0.19700076320E+02 -0.34776894705E+03 -0.21241383555E+03  0.40798403286E+03  0.00000000000E+00 0. -1.
        -13    1    1    2    0    0 -0.29987642090E+03  0.14975562449E+03  0.17123913973E+04  0.17448887998E+04  0.10566000000E+00 0.  1.
<mgrwt>
<rscale>  1 0.78737069E+03</rscale>
<asrwt>0</asrwt>
<pdfrwt beam="2">  1       21 0.56914372E-01 0.10466668E+04</pdfrwt>
<pdfrwt beam="1">  1       -4 0.38507294E+00 0.10466668E+04</pdfrwt>
<totfact> 0.99032563E-01</totfact>
</mgrwt>
</event>
<event>
 6    2  0.2321478E-005  0.1023637E+04  0.7818608E-02  0.9821521E-01
         -4   -1    0    0    0  501 -0.00000000000E+00  0.00000000000E+00  0.94664367644E+03  0.94664367644E+03  0.00000000000E+00 0. -1.
         21   -1    0    0  501  502  0.00000000000E+00 -0.00000000000E+00 -0.37160067181E+03  0.37160067181E+03  0.00000000000E+00 0. -1.
   -9000010    2    1    2    0  502  0.33877495021E+02  0.15491979810E+03  0.53346133056E+03  0.11543026656E+04  0.10112793008E+04 0.  0.
         13    1    3    3    0    0  0.65041013225E+02 -0.16334340963E+03 -0.25140891185E+03  0.30678633443E+03  0.10566000000E+00 0. -1.
         -4    1    3    3    0  502 -0.31163518204E+02  0.31826320773E+03  0.78487024241E+03  0.84751633122E+03  0.00000000000E+00 0. -1.
        -13    1    1    2    0    0 -0.33877495021E+02 -0.15491979810E+03  0.41581674066E+02  0.16394168260E+03  0.10566000000E+00 0.  1.
<mgrwt>
<rscale>  1 0.64220291E+03</rscale>
<asrwt>0</asrwt>
<pdfrwt beam="2">  1       21 0.57169335E-01 0.10236375E+04</pdfrwt>
<pdfrwt beam="1">  1       -4 0.14563749E+00 0.10236375E+04</pdfrwt>
<totfact> 0.36176776E+01</totfact>
</mgrwt>
</event>
<event>
 6    2  0.2321478E-005  0.1023928E+04  0.7818608E-02  0.9867698E-01
         21   -1    0    0  501  502  0.00000000000E+00  0.00000000000E+00  0.42885628374E+03  0.42885628374E+03  0.00000000000E+00 0. -1.
         -4   -1    0    0    0  501 -0.00000000000E+00 -0.00000000000E+00 -0.85922166201E+03  0.85922166201E+03  0.00000000000E+00 0. -1.
   -9000010    2    1    2    0  502 -0.12388102473E+03 -0.56939690641E+02 -0.23618870100E+03  0.10508160023E+04  0.10148105890E+04 0.  0.
         13    1    3    3    0    0  0.74311731720E+02  0.19475878013E+03  0.33578936389E+03  0.39523122849E+03  0.10566000000E+00 0. -1.
         -4    1    3    3    0  502 -0.19819275645E+03 -0.25169847077E+03 -0.57197806489E+03  0.65558477378E+03  0.00000000000E+00 0. -1.
        -13    1    1    2    0    0  0.12388102473E+03  0.56939690641E+02 -0.19417667727E+03  0.23726194347E+03  0.10566000000E+00 0.  1.
<mgrwt>
<rscale>  1 0.61852625E+03</rscale>
<asrwt>0</asrwt>
<pdfrwt beam="1">  1       21 0.65977891E-01 0.10239283E+04</pdfrwt>
<pdfrwt beam="2">  1       -4 0.13218795E+00 0.10239283E+04</pdfrwt>
<totfact> 0.33835709E+01</totfact>
</mgrwt>
</event>
<event>
 6    2  0.2321478E-005  0.1021871E+04  0.7818608E-02  0.9749955E-01
         -4   -1    0    0    0  501 -0.00000000000E+00  0.00000000000E+00  0.28624926229E+03  0.28624926229E+03  0.00000000000E+00 0. -1.
         21   -1    0    0  501  502  0.00000000000E+00 -0.00000000000E+00 -0.15426218290E+04  0.15426218290E+04  0.00000000000E+00 0. -1.
   -9000010    2    1    2    0  502  0.16941376485E+03  0.10960967925E+03 -0.12658883375E+04  0.16268664712E+04  0.10017514295E+04 0.  0.
         13    1    3    3    0    0  0.20815305582E+03  0.13838104715E+03 -0.14321217757E+04  0.14537708899E+04  0.10566000000E+00 0. -1.
         -4    1    3    3    0  502 -0.38739290971E+02 -0.28771367900E+02  0.16623343818E+03  0.17309558124E+03  0.00000000000E+00 0. -1.
        -13    1    1    2    0    0 -0.16941376485E+03 -0.10960967925E+03  0.95157707597E+01  0.20200462015E+03  0.10566000000E+00 0.  1.
<mgrwt>
<rscale>  1 0.68118790E+03</rscale>
<asrwt>0</asrwt>
<pdfrwt beam="2">  1       21 0.23732643E+00 0.10218714E+04</pdfrwt>
<pdfrwt beam="1">  1       -4 0.44038348E-01 0.10218714E+04</pdfrwt>
<totfact> 0.13101622E+01</totfact>
</mgrwt>
</event>
<event>
 6    2  0.2321478E-005  0.9638400E+03  0.7818608E-02  0.9773345E-01
         21   -1    0    0  501  502  0.00000000000E+00  0.00000000000E+00  0.17492587896E+04  0.17492587896E+04  0.00000000000E+00 0. -1.
         -4   -1    0    0    0  501 -0.00000000000E+00 -0.00000000000E+00 -0.20992096460E+03  0.20992096460E+03  0.00000000000E+00 0. -1.
   -9000010    2    1    2    0  502 -0.48127638722E+02  0.21728179108E+03  0.13888386688E+04  0.16905207631E+04  0.93779526336E+03 0.  0.
         13    1    3    3    0    0 -0.34477394246E+03  0.45062983470E+03  0.99239845742E+03  0.11431496091E+04  0.10566000000E+00 0. -1.
         -4    1    3    3    0  502  0.29664630374E+03 -0.23334804361E+03  0.39644021142E+03  0.54737115398E+03  0.00000000000E+00 0. -1.
        -13    1    1    2    0    0  0.48127638722E+02 -0.21728179108E+03  0.15049915620E+03  0.26865899115E+03  0.10566000000E+00 0.  1.
<mgrwt>
<rscale>  1 0.66812803E+03</rscale>
<asrwt>0</asrwt>
<pdfrwt beam="1">  1       21 0.26911673E+00 0.96384003E+03</pdfrwt>
<pdfrwt beam="2">  1       -4 0.32295534E-01 0.96384003E+03</pdfrwt>
<totfact> 0.15552792E+01</totfact>
</mgrwt>
</event>
<event>
 6    2  0.2321478E-005  0.1186011E+04  0.7818608E-02  0.9297623E-01
         21   -1    0    0  501  502  0.00000000000E+00  0.00000000000E+00  0.12278169288E+04  0.12278169288E+04  0.00000000000E+00 0.  1.
         -4   -1    0    0    0  501 -0.00000000000E+00 -0.00000000000E+00 -0.85433387774E+03  0.85433387774E+03  0.00000000000E+00 0. -1.
   -9000010    2    1    2    0  502 -0.31432032086E+03  0.53883511434E+03  0.70089856385E+03  0.13776357438E+04  0.10087025831E+04 0.  0.
         13    1    3    3    0    0  0.29638935110E+02  0.25934896170E+03  0.86615447030E+03  0.90463469311E+03  0.10566000000E+00 0. -1.
         -4    1    3    3    0  502 -0.34395925597E+03  0.27948615264E+03 -0.16525590645E+03  0.47300105064E+03  0.00000000000E+00 0. -1.
        -13    1    1    2    0    0  0.31432032086E+03 -0.53883511434E+03 -0.32741551277E+03  0.70451506281E+03  0.10566000000E+00 0.  1.
<mgrwt>
<rscale>  1 0.10100195E+04</rscale>
<asrwt>0</asrwt>
<pdfrwt beam="1">  1       21 0.18889491E+00 0.11860107E+04</pdfrwt>
<pdfrwt beam="2">  1       -4 0.13143598E+00 0.11860107E+04</pdfrwt>
<totfact> 0.22100461E+00</totfact>
</mgrwt>
</event>
<event>
 6    2  0.2321478E-005  0.1030581E+04  0.7818608E-02  0.1001684E+00
         -4   -1    0    0    0  501 -0.00000000000E+00  0.00000000000E+00  0.94664745171E+03  0.94664745171E+03  0.00000000000E+00 0. -1.
         21   -1    0    0  501  502  0.00000000000E+00 -0.00000000000E+00 -0.39286738019E+03  0.39286738019E+03  0.00000000000E+00 0. -1.
   -9000010    2    1    2    0  502 -0.62108635505E+02  0.55210744264E+02  0.30131721401E+03  0.10737269193E+04  0.10272252552E+04 0.  0.
         13    1    3    3    0    0  0.26248215602E+03  0.24964460401E+03  0.52224658473E+03  0.63557911936E+03  0.10566000000E+00 0. -1.
         -4    1    3    3    0  502 -0.32459079153E+03 -0.19443385975E+03 -0.22092937072E+03  0.43814779996E+03  0.00000000000E+00 0. -1.
        -13    1    1    2    0    0  0.62108635505E+02 -0.55210744264E+02  0.25246285751E+03  0.26578791258E+03  0.10566000000E+00 0.  1.
<mgrwt>
<rscale>  1 0.54917753E+03</rscale>
<asrwt>0</asrwt>
<pdfrwt beam="2">  1       21 0.60441136E-01 0.10305811E+04</pdfrwt>
<pdfrwt beam="1">  1       -4 0.14563807E+00 0.10305811E+04</pdfrwt>
<totfact> 0.31948278E+01</totfact>
</mgrwt>
</event>
<event>
 6    2  0.2321478E-005  0.1022096E+04  0.7818608E-02  0.9943170E-01
         -4   -1    0    0    0  501 -0.00000000000E+00  0.00000000000E+00  0.64946236470E+03  0.64946236470E+03  0.00000000000E+00 0. -1.
         21   -1    0    0  501  502  0.00000000000E+00 -0.00000000000E+00 -0.54540249842E+03  0.54540249842E+03  0.00000000000E+00 0. -1.
   -9000010    2    1    2    0  502  0.42102217711E+02 -0.98972736905E+02 -0.30563120745E+02  0.10225524747E+04  0.10164208085E+04 0.  0.
         13    1    3    3    0    0 -0.11800607170E+03 -0.25235484350E+03  0.42944945172E+03  0.51189378072E+03  0.10566000000E+00 0. -1.
         -4    1    3    3    0  502  0.16010828941E+03  0.15338210659E+03 -0.46001257246E+03  0.51065869403E+03  0.00000000000E+00 0. -1.
        -13    1    1    2    0    0 -0.42102217711E+02  0.98972736905E+02  0.13462298702E+03  0.17231238837E+03  0.10566000000E+00 0.  1.
<mgrwt>
<rscale>  1 0.58213930E+03</rscale>
<asrwt>0</asrwt>
<pdfrwt beam="2">  1       21 0.83908077E-01 0.10220956E+04</pdfrwt>
<pdfrwt beam="1">  1       -4 0.99917287E-01 0.10220956E+04</pdfrwt>
<totfact> 0.38918217E+01</totfact>
</mgrwt>
</event>
<event>
 6    2  0.2321478E-005  0.1040773E+04  0.7818608E-02  0.9627141E-01
         -4   -1    0    0    0  501 -0.00000000000E+00  0.00000000000E+00  0.13467996587E+04  0.13467996587E+04  0.00000000000E+00 0. -1.
         21   -1    0    0  501  502  0.00000000000E+00 -0.00000000000E+00 -0.65862073946E+03  0.65862073946E+03  0.00000000000E+00 0. -1.
   -9000010    2    1    2    0  502 -0.27855618218E+03 -0.75504346349E+02 -0.21022990625E+03  0.10617928859E+04  0.99995653215E+03 0.  0.
         13    1    3    3    0    0 -0.51842810907E+03  0.27244555639E+03  0.89336994132E+01  0.58572528340E+03  0.10566000000E+00 0. -1.
         -4    1    3    3    0  502  0.23987192689E+03 -0.34794990274E+03 -0.21916360566E+03  0.47606760252E+03  0.00000000000E+00 0. -1.
        -13    1    1    2    0    0  0.27855618218E+03  0.75504346349E+02  0.89840882553E+03  0.94362751226E+03  0.10566000000E+00 0.  1.
<mgrwt>
<rscale>  1 0.75525549E+03</rscale>
<asrwt>0</asrwt>
<pdfrwt beam="2">  1       21 0.10132627E+00 0.10407726E+04</pdfrwt>
<pdfrwt beam="1">  1       -4 0.20719995E+00 0.10407726E+04</pdfrwt>
<totfact> 0.34577121E+00</totfact>
</mgrwt>
</event>
<event>
 6    2  0.2321478E-005  0.1027534E+04  0.7818608E-02  0.9672762E-01
         21   -1    0    0  501  502  0.00000000000E+00  0.00000000000E+00  0.39163327277E+03  0.39163327277E+03  0.00000000000E+00 0.  1.
         -4   -1    0    0    0  501 -0.00000000000E+00 -0.00000000000E+00 -0.11681181669E+04  0.11681181669E+04  0.00000000000E+00 0. -1.
   -9000010    2    1    2    0  502  0.25547662665E+03  0.27427461479E+02 -0.79928173869E+03  0.13017974133E+04  0.99488925773E+03 0.  0.
         13    1    3    3    0    0  0.45827326889E+03 -0.35894194872E+03 -0.37043401529E+03  0.68998194352E+03  0.10566000000E+00 0. -1.
         -4    1    3    3    0  502 -0.20279664224E+03  0.38636941020E+03 -0.42884772340E+03  0.61181546982E+03  0.00000000000E+00 0. -1.
        -13    1    1    2    0    0 -0.25547662665E+03 -0.27427461479E+02  0.22796844575E+02  0.25795402632E+03  0.10566000000E+00 0.  1.
<mgrwt>
<rscale>  1 0.72661939E+03</rscale>
<asrwt>0</asrwt>
<pdfrwt beam="1">  1       21 0.60251273E-01 0.10275336E+04</pdfrwt>
<pdfrwt beam="2">  1       -4 0.17971049E+00 0.10275336E+04</pdfrwt>
<totfact> 0.17983224E+01</totfact>
</mgrwt>
</event>
<event>
 6    2  0.2321478E-005  0.1042786E+04  0.7818608E-02  0.9624087E-01
         21   -1    0    0  501  502  0.00000000000E+00  0.00000000000E+00  0.49489615784E+03  0.49489615784E+03  0.00000000000E+00 0. -1.
         -4   -1    0    0    0  501 -0.00000000000E+00 -0.00000000000E+00 -0.10213326551E+04  0.10213326551E+04  0.00000000000E+00 0. -1.
   -9000010    2    1    2    0  502  0.20938889009E+03  0.20055216883E+03 -0.16966346751E+03  0.10564985816E+04  0.10016679494E+04 0.  0.
         13    1    3    3    0    0 -0.63214192839E+02 -0.13759101519E+03 -0.49254301106E+03  0.51529210216E+03  0.10566000000E+00 0. -1.
         -4    1    3    3    0  502  0.27260308293E+03  0.33814318402E+03  0.32287954356E+03  0.54120647942E+03  0.00000000000E+00 0. -1.
        -13    1    1    2    0    0 -0.20938889009E+03 -0.20055216883E+03 -0.35677302980E+03  0.45973023140E+03  0.10566000000E+00 0.  1.
<mgrwt>
<rscale>  1 0.75722224E+03</rscale>
<asrwt>0</asrwt>
<pdfrwt beam="1">  1       21 0.76137871E-01 0.10427864E+04</pdfrwt>
<pdfrwt beam="2">  1       -4 0.15712810E+00 0.10427864E+04</pdfrwt>
<totfact> 0.15359209E+01</totfact>
</mgrwt>
</event>
<event>
 6    2  0.2321478E-005  0.1045867E+04  0.7818608E-02  0.9609802E-01
         21   -1    0    0  501  502  0.00000000000E+00  0.00000000000E+00  0.27560093828E+03  0.27560093828E+03  0.00000000000E+00 0. -1.
         -4   -1    0    0    0  501 -0.00000000000E+00 -0.00000000000E+00 -0.16495459548E+04  0.16495459548E+04  0.00000000000E+00 0. -1.
   -9000010    2    1    2    0  502  0.16962129126E+03  0.24955419203E+03 -0.10365568760E+04  0.14725107857E+04  0.10013936187E+04 0.  0.
         13    1    3    3    0    0  0.24938768448E+03 -0.30097771642E+03 -0.13573188411E+03  0.41376920920E+03  0.10566000000E+00 0. -1.
         -4    1    3    3    0  502 -0.79766393214E+02  0.55053190845E+03 -0.90082499191E+03  0.10587415765E+04  0.00000000000E+00 0. -1.
        -13    1    1    2    0    0 -0.16962129126E+03 -0.24955419203E+03 -0.33738814051E+03  0.45263610741E+03  0.10566000000E+00 0.  1.
<mgrwt>
<rscale>  1 0.76650778E+03</rscale>
<asrwt>0</asrwt>
<pdfrwt beam="1">  1       21 0.42400144E-01 0.10458670E+04</pdfrwt>
<pdfrwt beam="2">  1       -4 0.25377630E+00 0.10458670E+04</pdfrwt>
<totfact> 0.12750882E+01</totfact>
</mgrwt>
</event>
<event>
 6    2  0.2321478E-005  0.1038689E+04  0.7818608E-02  0.9645606E-01
         21   -1    0    0  501  502  0.00000000000E+00  0.00000000000E+00  0.63382504521E+03  0.63382504521E+03  0.00000000000E+00 0. -1.
         -4   -1    0    0    0  501 -0.00000000000E+00 -0.00000000000E+00 -0.86718482945E+03  0.86718482945E+03  0.00000000000E+00 0. -1.
   -9000010    2    1    2    0  502 -0.57866730625E+02  0.26647516549E+03  0.12991090918E+03  0.10467817599E+04  0.10022562728E+04 0.  0.
         13    1    3    3    0    0 -0.12204294315E+03  0.64237966667E+03  0.12322367309E+03  0.66537974187E+03  0.10566000000E+00 0. -1.
         -4    1    3    3    0  502  0.64176212521E+02 -0.37590450117E+03  0.66872360951E+01  0.38140201806E+03  0.00000000000E+00 0. -1.
        -13    1    1    2    0    0  0.57866730625E+02 -0.26647516549E+03 -0.36327069343E+03  0.45422811473E+03  0.10566000000E+00 0.  1.
<mgrwt>
<rscale>  1 0.74349810E+03</rscale>
<asrwt>0</asrwt>
<pdfrwt beam="1">  1       21 0.97511545E-01 0.10386892E+04</pdfrwt>
<pdfrwt beam="2">  1       -4 0.13341305E+00 0.10386892E+04</pdfrwt>
<totfact> 0.13129497E+01</totfact>
</mgrwt>
</event>
<event>
 6    2  0.2321478E-005  0.1013681E+04  0.7818608E-02  0.9793792E-01
         -4   -1    0    0    0  501 -0.00000000000E+00  0.00000000000E+00  0.15305317687E+04  0.15305317687E+04  0.00000000000E+00 0. -1.
         21   -1    0    0  501  502  0.00000000000E+00 -0.00000000000E+00 -0.26304277126E+03  0.26304277126E+03  0.00000000000E+00 0. -1.
   -9000010    2    1    2    0  502 -0.82979766911E+02  0.15842728303E+03  0.79460219986E+03  0.12879988481E+04  0.99777929971E+03 0.  0.
         13    1    3    3    0    0  0.10789736416E+03  0.34828572491E+03 -0.79665677975E+02  0.37321765604E+03  0.10566000000E+00 0. -1.
         -4    1    3    3    0  502 -0.19087713107E+03 -0.18985844188E+03  0.87426787783E+03  0.91478119205E+03  0.00000000000E+00 0. -1.
        -13    1    1    2    0    0  0.82979766911E+02 -0.15842728303E+03  0.47288679759E+03  0.50557569188E+03  0.10566000000E+00 0.  1.
<mgrwt>
<rscale>  1 0.65696753E+03</rscale>
<asrwt>0</asrwt>
<pdfrwt beam="2">  1       21 0.40468120E-01 0.10136806E+04</pdfrwt>
<pdfrwt beam="1">  1       -4 0.23546642E+00 0.10136806E+04</pdfrwt>
<totfact> 0.18348604E+01</totfact>
</mgrwt>
</event>
<event>
 6    2  0.2321478E-005  0.1016077E+04  0.7818608E-02  0.9766595E-01
         -4   -1    0    0    0  501 -0.00000000000E+00  0.00000000000E+00  0.41926071207E+03  0.41926071207E+03  0.00000000000E+00 0. -1.
         21   -1    0    0  501  502  0.00000000000E+00 -0.00000000000E+00 -0.87382269999E+03  0.87382269999E+03  0.00000000000E+00 0. -1.
   -9000010    2    1    2    0  502 -0.17763705973E+03 -0.78586802805E+02 -0.39084243115E+03  0.10886549316E+04  0.99733692574E+03 0.  0.
         13    1    3    3    0    0  0.29744889066E+03 -0.72274347222E+02 -0.51362249311E+03  0.59791930929E+03  0.10566000000E+00 0. -1.
         -4    1    3    3    0  502 -0.47508595038E+03 -0.63124555831E+01  0.12278006196E+03  0.49073562227E+03  0.00000000000E+00 0. -1.
        -13    1    1    2    0    0  0.17763705973E+03  0.78586802805E+02 -0.63719556770E+02  0.20442848051E+03  0.10566000000E+00 0.  1.
<mgrwt>
<rscale>  1 0.67186480E+03</rscale>
<asrwt>0</asrwt>
<pdfrwt beam="2">  1       21 0.13443426E+00 0.10160766E+04</pdfrwt>
<pdfrwt beam="1">  1       -4 0.64501648E-01 0.10160766E+04</pdfrwt>
<totfact> 0.32516171E+01</totfact>
</mgrwt>
</event>
<event>
 6    2  0.2321478E-005  0.1007624E+04  0.7818608E-02  0.9625948E-01
         -4   -1    0    0    0  501 -0.00000000000E+00  0.00000000000E+00  0.46204017085E+03  0.46204017085E+03  0.00000000000E+00 0. -1.
         21   -1    0    0  501  502  0.00000000000E+00 -0.00000000000E+00 -0.13711947870E+04  0.13711947870E+04  0.00000000000E+00 0. -1.
   -9000010    2    1    2    0  502  0.12865749858E+03 -0.29226965908E+03 -0.10749960785E+04  0.14734048489E+04  0.95568351169E+03 0.  0.
         13    1    3    3    0    0  0.17983382409E+03  0.33391501660E+03 -0.41418941348E+03  0.56159800926E+03  0.10566000000E+00 0. -1.
         -4    1    3    3    0  502 -0.51176325513E+02 -0.62618467568E+03 -0.66080666499E+03  0.91180683966E+03  0.00000000000E+00 0. -1.
        -13    1    1    2    0    0 -0.12865749858E+03  0.29226965908E+03  0.16584146227E+03  0.35983010898E+03  0.10566000000E+00 0.  1.
<mgrwt>
<rscale>  1 0.75602315E+03</rscale>
<asrwt>0</asrwt>
<pdfrwt beam="2">  1       21 0.21095304E+00 0.10076236E+04</pdfrwt>
<pdfrwt beam="1">  1       -4 0.71083104E-01 0.10076236E+04</pdfrwt>
<totfact> 0.69776244E+00</totfact>
</mgrwt>
</event>
<event>
 6    2  0.2321478E-005  0.1447132E+04  0.7818608E-02  0.9002583E-01
         21   -1    0    0  501  502  0.00000000000E+00  0.00000000000E+00  0.20386024879E+04  0.20386024879E+04  0.00000000000E+00 0.  1.
         -4   -1    0    0    0  501 -0.00000000000E+00 -0.00000000000E+00 -0.11039512390E+04  0.11039512390E+04  0.00000000000E+00 0. -1.
   -9000010    2    1    2    0  502 -0.78423318665E+03 -0.69334103351E+03  0.13849166394E+04  0.20030440021E+04  0.99922354690E+03 0.  0.
         13    1    3    3    0    0 -0.94512215146E+03 -0.25592886094E+03  0.98573240346E+03  0.13893969359E+04  0.10566000000E+00 0. -1.
         -4    1    3    3    0  502  0.16088896482E+03 -0.43741217258E+03  0.39918423592E+03  0.61364706626E+03  0.00000000000E+00 0. -1.
        -13    1    1    2    0    0  0.78423318665E+03  0.69334103351E+03 -0.45026539052E+03  0.11395097248E+04  0.10566000000E+00 0.  1.
<mgrwt>
<rscale>  1 0.13345804E+04</rscale>
<asrwt>0</asrwt>
<pdfrwt beam="1">  1       21 0.31363115E+00 0.14471321E+04</pdfrwt>
<pdfrwt beam="2">  1       -4 0.16983865E+00 0.14471321E+04</pdfrwt>
<totfact> 0.16384324E-01</totfact>
</mgrwt>
</event>
<event>
 6    2  0.2321478E-005  0.1025233E+04  0.7818608E-02  0.9802716E-01
         -4   -1    0    0    0  501 -0.00000000000E+00  0.00000000000E+00  0.49830788842E+03  0.49830788842E+03  0.00000000000E+00 0. -1.
         21   -1    0    0  501  502  0.00000000000E+00 -0.00000000000E+00 -0.10526409160E+04  0.10526409160E+04  0.00000000000E+00 0. -1.
   -9000010    2    1    2    0  502  0.15309372098E+03  0.68869152337E+02 -0.76672702210E+03  0.12802240962E+04  0.10113964418E+04 0.  0.
         13    1    3    3    0    0 -0.57980359479E+02  0.19897385746E+03 -0.94971267965E+03  0.97206301395E+03  0.10566000000E+00 0. -1.
         -4    1    3    3    0  502  0.21107408046E+03 -0.13010470512E+03  0.18298565755E+03  0.30816108223E+03  0.00000000000E+00 0. -1.
        -13    1    1    2    0    0 -0.15309372098E+03 -0.68869152337E+02  0.21239399455E+03  0.27072470821E+03  0.10566000000E+00 0.  1.
<mgrwt>
<rscale>  1 0.65217018E+03</rscale>
<asrwt>0</asrwt>
<pdfrwt beam="2">  1       21 0.16194476E+00 0.10252333E+04</pdfrwt>
<pdfrwt beam="1">  1       -4 0.76662752E-01 0.10252333E+04</pdfrwt>
<totfact> 0.13151339E+01</totfact>
</mgrwt>
</event>
<event>
 6    2  0.2321478E-005  0.1327520E+04  0.7818608E-02  0.9119865E-01
         21   -1    0    0  501  502  0.00000000000E+00  0.00000000000E+00  0.81113611495E+03  0.81113611495E+03  0.00000000000E+00 0.  1.
         -4   -1    0    0    0  501 -0.00000000000E+00 -0.00000000000E+00 -0.14815432564E+04  0.14815432564E+04  0.00000000000E+00 0. -1.
   -9000010    2    1    2    0  502 -0.55596984503E+03  0.66007187450E+03 -0.45322355506E+03  0.14027546164E+04  0.10087177876E+04 0.  0.
         13    1    3    3    0    0  0.27499271743E+03  0.19617076473E+03  0.22987727621E+02  0.33857408401E+03  0.10566000000E+00 0. -1.
         -4    1    3    3    0  502 -0.83096256247E+03  0.46390110977E+03 -0.47621128268E+03  0.10641805324E+04  0.00000000000E+00 0. -1.
        -13    1    1    2    0    0  0.55596984503E+03 -0.66007187450E+03 -0.21718358643E+03  0.88992475495E+03  0.10566000000E+00 0.  1.
<mgrwt>
<rscale>  1 0.11920256E+04</rscale>
<asrwt>0</asrwt>
<pdfrwt beam="1">  1       21 0.12479017E+00 0.13275198E+04</pdfrwt>
<pdfrwt beam="2">  1       -4 0.22792973E+00 0.13275198E+04</pdfrwt>
<totfact> 0.14381600E+00</totfact>
</mgrwt>
</event>
<event>
 6    2  0.2321478E-005  0.1063950E+04  0.7818608E-02  0.9544751E-01
         -4   -1    0    0    0  501 -0.00000000000E+00  0.00000000000E+00  0.27736380000E+04  0.27736380000E+04  0.00000000000E+00 0. -1.
         21   -1    0    0  501  502  0.00000000000E+00 -0.00000000000E+00 -0.20721433015E+03  0.20721433015E+03  0.00000000000E+00 0. -1.
   -9000010    2    1    2    0  502  0.26505140391E+03 -0.24144906530E+03  0.13866138132E+04  0.17477662801E+04  0.10017181265E+04 0.  0.
         13    1    3    3    0    0  0.24946040261E+03 -0.59549409678E+03  0.11586447067E+04  0.13263865498E+04  0.10566000000E+00 0. -1.
         -4    1    3    3    0  502  0.15591001300E+02  0.35404503148E+03  0.22796910649E+03  0.42137973035E+03  0.00000000000E+00 0. -1.
        -13    1    1    2    0    0 -0.26505140391E+03  0.24144906530E+03  0.11798098567E+04  0.12330860501E+04  0.10566000000E+00 0.  1.
<mgrwt>
<rscale>  1 0.81063400E+03</rscale>
<asrwt>0</asrwt>
<pdfrwt beam="2">  1       21 0.31879130E-01 0.10639498E+04</pdfrwt>
<pdfrwt beam="1">  1       -4 0.42671351E+00 0.10639498E+04</pdfrwt>
<totfact> 0.17229552E+00</totfact>
</mgrwt>
</event>
<event>
 6    2  0.2321478E-005  0.1069761E+04  0.7818608E-02  0.9528239E-01
         -4   -1    0    0    0  501 -0.00000000000E+00  0.00000000000E+00  0.92908236185E+03  0.92908236185E+03  0.00000000000E+00 0. -1.
         21   -1    0    0  501  502  0.00000000000E+00 -0.00000000000E+00 -0.57090188338E+03  0.57090188338E+03  0.00000000000E+00 0. -1.
   -9000010    2    1    2    0  502 -0.85562801047E+02  0.36360600565E+03  0.17511390123E+03  0.10839990254E+04  0.10024264005E+04 0.  0.
         13    1    3    3    0    0  0.36296007082E+03  0.46791254634E+03  0.24167369215E+01  0.59218917232E+03  0.10566000000E+00 0. -1.
         -4    1    3    3    0  502 -0.44852287186E+03 -0.10430654070E+03  0.17269716431E+03  0.49180985307E+03  0.00000000000E+00 0. -1.
        -13    1    1    2    0    0  0.85562801047E+02 -0.36360600565E+03  0.18306657724E+03  0.41598521985E+03  0.10566000000E+00 0.  1.
<mgrwt>
<rscale>  1 0.82233487E+03</rscale>
<asrwt>0</asrwt>
<pdfrwt beam="2">  1       21 0.87831059E-01 0.10697612E+04</pdfrwt>
<pdfrwt beam="1">  1       -4 0.14293575E+00 0.10697612E+04</pdfrwt>
<totfact> 0.14089879E+01</totfact>
</mgrwt>
</event>
<event>
 6    2  0.2321478E-005  0.1016146E+04  0.7818608E-02  0.9706509E-01
         21   -1    0    0  501  502  0.00000000000E+00  0.00000000000E+00  0.57178598158E+03  0.57178598158E+03  0.00000000000E+00 0. -1.
         -4   -1    0    0    0  501 -0.00000000000E+00 -0.00000000000E+00 -0.72140598939E+03  0.72140598939E+03  0.00000000000E+00 0. -1.
   -9000010    2    1    2    0  502 -0.16673940201E+03  0.16869707028E+03 -0.65030096055E+01  0.10161663114E+04  0.98807436645E+03 0.  0.
         13    1    3    3    0    0  0.35525269824E+03  0.19163229067E+03  0.20472142345E+03  0.45259063934E+03  0.10566000000E+00 0. -1.
         -4    1    3    3    0  502 -0.52199210024E+03 -0.22935220392E+02 -0.21122443305E+03  0.56357567209E+03  0.00000000000E+00 0. -1.
        -13    1    1    2    0    0  0.16673940201E+03 -0.16869707028E+03 -0.14311699821E+03  0.27702565954E+03  0.10566000000E+00 0.  1.
<mgrwt>
<rscale>  1 0.70630553E+03</rscale>
<asrwt>0</asrwt>
<pdfrwt beam="1">  1       21 0.87967074E-01 0.10161455E+04</pdfrwt>
<pdfrwt beam="2">  1       -4 0.11098554E+00 0.10161455E+04</pdfrwt>
<totfact> 0.26906502E+01</totfact>
</mgrwt>
</event>
<event>
 6    2  0.2321478E-005  0.1179024E+04  0.7818608E-02  0.9290386E-01
         -4   -1    0    0    0  501 -0.00000000000E+00  0.00000000000E+00  0.33849576613E+03  0.33849576613E+03  0.00000000000E+00 0. -1.
         21   -1    0    0  501  502  0.00000000000E+00 -0.00000000000E+00 -0.26015896193E+04  0.26015896193E+04  0.00000000000E+00 0. -1.
   -9000010    2    1    2    0  502  0.56448451947E+03  0.32629311508E+03 -0.11317260521E+04  0.16342894281E+04  0.98233808243E+03 0.  0.
         13    1    3    3    0    0  0.45769412529E+03  0.44748670708E+03 -0.12696548428E+04  0.14218831515E+04  0.10566000000E+00 0. -1.
         -4    1    3    3    0  502  0.10679039417E+03 -0.12119359200E+03  0.13792879077E+03  0.21240627663E+03  0.00000000000E+00 0. -1.
        -13    1    1    2    0    0 -0.56448451947E+03 -0.32629311508E+03 -0.11313678012E+04  0.13057959574E+04  0.10566000000E+00 0.  1.
<mgrwt>
<rscale>  1 0.10167279E+04</rscale>
<asrwt>0</asrwt>
<pdfrwt beam="2">  1       21 0.40024456E+00 0.11790242E+04</pdfrwt>
<pdfrwt beam="1">  1       -4 0.52076271E-01 0.11790242E+04</pdfrwt>
<totfact> 0.83185138E-01</totfact>
</mgrwt>
</event>
<event>
 6    2  0.2321478E-005  0.1076857E+04  0.7818608E-02  0.9516480E-01
         -4   -1    0    0    0  501 -0.00000000000E+00  0.00000000000E+00  0.16837753206E+04  0.16837753206E+04  0.00000000000E+00 0. -1.
         21   -1    0    0  501  502  0.00000000000E+00 -0.00000000000E+00 -0.43815421425E+03  0.43815421425E+03  0.00000000000E+00 0. -1.
   -9000010    2    1    2    0  502  0.23010278541E+03 -0.30430526996E+03  0.32412179698E+03  0.11245780534E+04  0.10070113553E+04 0.  0.
         13    1    3    3    0    0  0.79126259122E+02 -0.15327747295E+03 -0.36468742958E+03  0.40342518644E+03  0.10566000000E+00 0. -1.
         -4    1    3    3    0  502  0.15097652628E+03 -0.15102779702E+03  0.68880922656E+03  0.72115286698E+03  0.00000000000E+00 0. -1.
        -13    1    1    2    0    0 -0.23010278541E+03  0.30430526996E+03  0.92149930938E+03  0.99735148144E+03  0.10566000000E+00 0.  1.
<mgrwt>
<rscale>  1 0.83079650E+03</rscale>
<asrwt>0</asrwt>
<pdfrwt beam="2">  1       21 0.67408342E-01 0.10768569E+04</pdfrwt>
<pdfrwt beam="1">  1       -4 0.25904235E+00 0.10768569E+04</pdfrwt>
<totfact> 0.42683310E+00</totfact>
</mgrwt>
</event>
<event>
 6    2  0.2321478E-005  0.1078430E+04  0.7818608E-02  0.9507101E-01
         21   -1    0    0  501  502  0.00000000000E+00  0.00000000000E+00  0.13713541021E+04  0.13713541021E+04  0.00000000000E+00 0.  1.
         -4   -1    0    0    0  501 -0.00000000000E+00 -0.00000000000E+00 -0.41336369971E+03  0.41336369971E+03  0.00000000000E+00 0. -1.
   -9000010    2    1    2    0  502  0.38026586427E+03 -0.97158500521E+02  0.52209396366E+03  0.11981620771E+04  0.10044741681E+04 0.  0.
         13    1    3    3    0    0 -0.10545537016E+03  0.20457785677E+03  0.57944366924E+03  0.62348048210E+03  0.10566000000E+00 0. -1.
         -4    1    3    3    0  502  0.48572123443E+03 -0.30173635729E+03 -0.57349705582E+02  0.57468159499E+03  0.00000000000E+00 0. -1.
        -13    1    1    2    0    0 -0.38026586427E+03  0.97158500521E+02  0.43589643876E+03  0.58655572476E+03  0.10566000000E+00 0.  1.
<mgrwt>
<rscale>  1 0.83762329E+03</rscale>
<asrwt>0</asrwt>
<pdfrwt beam="1">  1       21 0.21097755E+00 0.10784295E+04</pdfrwt>
<pdfrwt beam="2">  1       -4 0.63594416E-01 0.10784295E+04</pdfrwt>
<totfact> 0.88491001E+00</totfact>
</mgrwt>
</event>
<event>
 6    2  0.2321478E-005  0.1070667E+04  0.7818608E-02  0.9666461E-01
         21   -1    0    0  501  502  0.00000000000E+00  0.00000000000E+00  0.27690910132E+04  0.27690910132E+04  0.00000000000E+00 0. -1.
         -4   -1    0    0    0  501 -0.00000000000E+00 -0.00000000000E+00 -0.16733991895E+03  0.16733991895E+03  0.00000000000E+00 0. -1.
   -9000010    2    1    2    0  502 -0.83782342643E+00  0.23200465130E+03  0.24037726548E+04  0.26314353030E+04  0.10452281653E+04 0.  0.
         13    1    3    3    0    0  0.70083855008E+02  0.97790120415E+02  0.24648672100E+04  0.24678016590E+04  0.10566000000E+00 0. -1.
         -4    1    3    3    0  502 -0.70921678434E+02  0.13421453089E+03 -0.61094555123E+02  0.16363364397E+03  0.00000000000E+00 0. -1.
        -13    1    1    2    0    0  0.83782342643E+00 -0.23200465130E+03  0.19797843942E+03  0.30499562917E+03  0.10566000000E+00 0.  1.
<mgrwt>
<rscale>  1 0.73049263E+03</rscale>
<asrwt>0</asrwt>
<pdfrwt beam="1">  1       21 0.42601397E+00 0.10706674E+04</pdfrwt>
<pdfrwt beam="2">  1       -4 0.25744605E-01 0.10706674E+04</pdfrwt>
<totfact> 0.23739989E+00</totfact>
</mgrwt>
</event>
<event>
 6    2  0.2321478E-005  0.1018938E+04  0.7818608E-02  0.9761903E-01
         21   -1    0    0  501  502  0.00000000000E+00  0.00000000000E+00  0.76324866103E+03  0.76324866103E+03  0.00000000000E+00 0. -1.
         -4   -1    0    0    0  501 -0.00000000000E+00 -0.00000000000E+00 -0.48350206612E+03  0.48350206612E+03  0.00000000000E+00 0. -1.
   -9000010    2    1    2    0  502 -0.14265316474E+02  0.19510489478E+03  0.22291811718E+03  0.10430379238E+04  0.99998310196E+03 0.  0.
         13    1    3    3    0    0  0.23719267792E+03  0.31255061536E+03  0.51017988206E+03  0.64360840333E+03  0.10566000000E+00 0. -1.
         -4    1    3    3    0  502 -0.25145799439E+03 -0.11744572058E+03 -0.28726176487E+03  0.39942952042E+03  0.00000000000E+00 0. -1.
        -13    1    1    2    0    0  0.14265316474E+02 -0.19510489478E+03  0.56828477723E+02  0.20371280339E+03  0.10566000000E+00 0.  1.
<mgrwt>
<rscale>  1 0.67447759E+03</rscale>
<asrwt>0</asrwt>
<pdfrwt beam="1">  1       21 0.11742287E+00 0.10189385E+04</pdfrwt>
<pdfrwt beam="2">  1       -4 0.74384933E-01 0.10189385E+04</pdfrwt>
<totfact> 0.33749356E+01</totfact>
</mgrwt>
</event>
<event>
 6    2  0.2321478E-005  0.1040658E+04  0.7818608E-02  0.9923546E-01
         -4   -1    0    0    0  501 -0.00000000000E+00  0.00000000000E+00  0.18594347147E+03  0.18594347147E+03  0.00000000000E+00 0. -1.
         21   -1    0    0  501  502  0.00000000000E+00 -0.00000000000E+00 -0.18890512829E+04  0.18890512829E+04  0.00000000000E+00 0. -1.
   -9000010    2    1    2    0  502 -0.10814147641E+03 -0.87608686169E+01 -0.16579199302E+04  0.19574648113E+04  0.10349872758E+04 0.  0.
         13    1    3    3    0    0 -0.15221078399E+03 -0.47401122333E+03 -0.48572605652E+03  0.69554624271E+03  0.10566000000E+00 0. -1.
         -4    1    3    3    0  502  0.44069307574E+02  0.46525035471E+03 -0.11721938736E+04  0.12619185686E+04  0.00000000000E+00 0. -1.
        -13    1    1    2    0    0  0.10814147641E+03  0.87608686169E+01 -0.45187881300E+02  0.11752994308E+03  0.10566000000E+00 0.  1.
<mgrwt>
<rscale>  1 0.59133612E+03</rscale>
<asrwt>0</asrwt>
<pdfrwt beam="2">  1       21 0.29062329E+00 0.10406584E+04</pdfrwt>
<pdfrwt beam="1">  1       -4 0.28606686E-01 0.10406584E+04</pdfrwt>
<totfact> 0.14310545E+01</totfact>
</mgrwt>
</event>
<event>
 6    2  0.2321478E-005  0.1033363E+04  0.7818608E-02  0.9668711E-01
         -4   -1    0    0    0  501 -0.00000000000E+00  0.00000000000E+00  0.27976002754E+03  0.27976002754E+03  0.00000000000E+00 0. -1.
         21   -1    0    0  501  502  0.00000000000E+00 -0.00000000000E+00 -0.17346821740E+04  0.17346821740E+04  0.00000000000E+00 0. -1.
   -9000010    2    1    2    0  502  0.14015240306E+03  0.21434376758E+03 -0.14196645966E+04  0.17559290437E+04  0.10011260124E+04 0.  0.
         13    1    3    3    0    0 -0.27533927463E+03  0.34554479156E+03 -0.11770032125E+04  0.12571990664E+04  0.10566000000E+00 0. -1.
         -4    1    3    3    0  502  0.41549167769E+03 -0.13120102398E+03 -0.24266138414E+03  0.49872997732E+03  0.00000000000E+00 0. -1.
        -13    1    1    2    0    0 -0.14015240306E+03 -0.21434376758E+03 -0.35257549794E+02  0.25851315782E+03  0.10566000000E+00 0.  1.
<mgrwt>
<rscale>  1 0.72910665E+03</rscale>
<asrwt>0</asrwt>
<pdfrwt beam="2">  1       21 0.26687418E+00 0.10333631E+04</pdfrwt>
<pdfrwt beam="1">  1       -4 0.43040004E-01 0.10333631E+04</pdfrwt>
<totfact> 0.89006556E+00</totfact>
</mgrwt>
</event>
<event>
 6    2  0.2321478E-005  0.1030301E+04  0.7818608E-02  0.9676384E-01
         -4   -1    0    0    0  501 -0.00000000000E+00  0.00000000000E+00  0.16474808384E+04  0.16474808384E+04  0.00000000000E+00 0. -1.
         21   -1    0    0  501  502  0.00000000000E+00 -0.00000000000E+00 -0.36808883983E+03  0.36808883983E+03  0.00000000000E+00 0. -1.
   -9000010    2    1    2    0  502 -0.19791086254E+03  0.15565332994E+03  0.40734882342E+03  0.11079045532E+04  0.99906094234E+03 0.  0.
         13    1    3    3    0    0 -0.67637202795E+02 -0.38862219128E+03  0.37978789765E+03  0.54757726133E+03  0.10566000000E+00 0. -1.
         -4    1    3    3    0  502 -0.13027365974E+03  0.54427552122E+03  0.27560925766E+02  0.56032729191E+03  0.00000000000E+00 0. -1.
        -13    1    1    2    0    0  0.19791086254E+03 -0.15565332994E+03  0.87204317514E+03  0.90766512498E+03  0.10566000000E+00 0.  1.
<mgrwt>
<rscale>  1 0.72440476E+03</rscale>
<asrwt>0</asrwt>
<pdfrwt beam="2">  1       21 0.56629053E-01 0.10303007E+04</pdfrwt>
<pdfrwt beam="1">  1       -4 0.25345859E+00 0.10303007E+04</pdfrwt>
<totfact> 0.68722651E+00</totfact>
</mgrwt>
</event>
<event>
 6    2  0.2321478E-005  0.9861735E+03  0.7818608E-02  0.9885297E-01
         -4   -1    0    0    0  501 -0.00000000000E+00  0.00000000000E+00  0.42412077150E+03  0.42412077150E+03  0.00000000000E+00 0. -1.
         21   -1    0    0  501  502  0.00000000000E+00 -0.00000000000E+00 -0.75379112678E+03  0.75379112678E+03  0.00000000000E+00 0. -1.
   -9000010    2    1    2    0  502  0.11651471669E+03  0.84902486766E+02 -0.27585815242E+03  0.10240292293E+04  0.97557881834E+03 0.  0.
         13    1    3    3    0    0  0.35600641314E+03  0.16653229971E+03  0.23216793731E+03  0.45648169221E+03  0.10566000000E+00 0. -1.
         -4    1    3    3    0  502 -0.23949169645E+03 -0.81629812949E+02 -0.50802608973E+03  0.56754753711E+03  0.00000000000E+00 0. -1.
        -13    1    1    2    0    0 -0.11651471669E+03 -0.84902486766E+02 -0.53812202863E+02  0.15388266896E+03  0.10566000000E+00 0.  1.
<mgrwt>
<rscale>  1 0.60979170E+03</rscale>
<asrwt>0</asrwt>
<pdfrwt beam="2">  1       21 0.11596787E+00 0.98617348E+03</pdfrwt>
<pdfrwt beam="1">  1       -4 0.65249349E-01 0.98617348E+03</pdfrwt>
<totfact> 0.46856937E+01</totfact>
</mgrwt>
</event>
<event>
 6    2  0.2321478E-005  0.1097563E+04  0.7818608E-02  0.9454734E-01
         21   -1    0    0  501  502  0.00000000000E+00  0.00000000000E+00  0.87212035818E+03  0.87212035818E+03  0.00000000000E+00 0. -1.
         -4   -1    0    0    0  501 -0.00000000000E+00 -0.00000000000E+00 -0.79322318899E+03  0.79322318899E+03  0.00000000000E+00 0. -1.
   -9000010    2    1    2    0  502 -0.44672252370E+03  0.26637538668E+02  0.33775213241E+03  0.11483556607E+04  0.10021844385E+04 0.  0.
         13    1    3    3    0    0 -0.29168251216E+03 -0.31923248597E+03 -0.21121733874E+03  0.48124925283E+03  0.10566000000E+00 0. -1.
         -4    1    3    3    0  502 -0.15504001154E+03  0.34587002463E+03  0.54896947115E+03  0.66710640783E+03  0.00000000000E+00 0. -1.
        -13    1    1    2    0    0  0.44672252370E+03 -0.26637538668E+02 -0.25885496322E+03  0.51698788650E+03  0.10566000000E+00 0.  1.
<mgrwt>
<rscale>  1 0.87704968E+03</rscale>
<asrwt>0</asrwt>
<pdfrwt beam="1">  1       21 0.13417236E+00 0.10975629E+04</pdfrwt>
<pdfrwt beam="2">  1       -4 0.12203434E+00 0.10975629E+04</pdfrwt>
<totfact> 0.72187051E+00</totfact>
</mgrwt>
</event>
<event>
 6    2  0.2321478E-005  0.1008256E+04  0.7818608E-02  0.9960423E-01
         21   -1    0    0  501  502  0.00000000000E+00  0.00000000000E+00  0.19346715425E+04  0.19346715425E+04  0.00000000000E+00 0. -1.
         -4   -1    0    0    0  501 -0.00000000000E+00 -0.00000000000E+00 -0.17476159087E+03  0.17476159087E+03  0.00000000000E+00 0. -1.
   -9000010    2    1    2    0  502 -0.67328693739E+02 -0.81946842005E+02  0.17245012560E+04  0.19976197853E+04  0.10026623493E+04 0.  0.
         13    1    3    3    0    0 -0.28548969278E+03 -0.40538515700E+03  0.46750210980E+03  0.68146879901E+03  0.10566000000E+00 0. -1.
         -4    1    3    3    0  502  0.21816099904E+03  0.32343831500E+03  0.12569991462E+04  0.13161509863E+04  0.00000000000E+00 0. -1.
        -13    1    1    2    0    0  0.67328693739E+02  0.81946842005E+02  0.35408695613E+02  0.11181334806E+03  0.10566000000E+00 0.  1.
<mgrwt>
<rscale>  1 0.57420200E+03</rscale>
<asrwt>0</asrwt>
<pdfrwt beam="1">  1       21 0.29764176E+00 0.10082560E+04</pdfrwt>
<pdfrwt beam="2">  1       -4 0.26886400E-01 0.10082560E+04</pdfrwt>
<totfact> 0.14670504E+01</totfact>
</mgrwt>
</event>
<event>
 6    2  0.2321478E-005  0.1008849E+04  0.7818608E-02  0.9903383E-01
         21   -1    0    0  501  502  0.00000000000E+00  0.00000000000E+00  0.38159585531E+03  0.38159585531E+03  0.00000000000E+00 0. -1.
         -4   -1    0    0    0  501 -0.00000000000E+00 -0.00000000000E+00 -0.99144851238E+03  0.99144851238E+03  0.00000000000E+00 0. -1.
   -9000010    2    1    2    0  502 -0.10152748490E+03  0.76368014497E+02 -0.32296222917E+03  0.10592832601E+04  0.10008179254E+04 0.  0.
         13    1    3    3    0    0 -0.34518813438E+01  0.36744813824E+03  0.22516276986E+03  0.43096210260E+03  0.10566000000E+00 0. -1.
         -4    1    3    3    0  502 -0.98075603559E+02 -0.29108012374E+03 -0.54812499903E+03  0.62832115754E+03  0.00000000000E+00 0. -1.
        -13    1    1    2    0    0  0.10152748490E+03 -0.76368014497E+02 -0.28689042791E+03  0.31376110756E+03  0.10566000000E+00 0.  1.
<mgrwt>
<rscale>  1 0.60097624E+03</rscale>
<asrwt>0</asrwt>
<pdfrwt beam="1">  1       21 0.58707055E-01 0.10088491E+04</pdfrwt>
<pdfrwt beam="2">  1       -4 0.15253054E+00 0.10088491E+04</pdfrwt>
<totfact> 0.30172520E+01</totfact>
</mgrwt>
</event>
<event>
 6    2  0.2321478E-005  0.1063472E+04  0.7818608E-02  0.9653084E-01
         21   -1    0    0  501  502  0.00000000000E+00  0.00000000000E+00  0.73409081203E+03  0.73409081203E+03  0.00000000000E+00 0. -1.
         -4   -1    0    0    0  501 -0.00000000000E+00 -0.00000000000E+00 -0.60812705575E+03  0.60812705575E+03  0.00000000000E+00 0. -1.
   -9000010    2    1    2    0  502  0.24674480683E+03 -0.21780475104E+02  0.20328291223E+03  0.10827267276E+04  0.10342223337E+04 0.  0.
         13    1    3    3    0    0 -0.27537278224E+03 -0.23867257721E+03  0.34289219013E+03  0.50036969685E+03  0.10566000000E+00 0. -1.
         -4    1    3    3    0  502  0.52211758907E+03  0.21689210210E+03 -0.13960927790E+03  0.58235703074E+03  0.00000000000E+00 0. -1.
        -13    1    1    2    0    0 -0.24674480683E+03  0.21780475104E+02 -0.77319155952E+02  0.25949114019E+03  0.10566000000E+00 0.  1.
<mgrwt>
<rscale>  1 0.73880188E+03</rscale>
<asrwt>0</asrwt>
<pdfrwt beam="1">  1       21 0.11293705E+00 0.10634722E+04</pdfrwt>
<pdfrwt beam="2">  1       -4 0.93558009E-01 0.10634722E+04</pdfrwt>
<totfact> 0.21816860E+01</totfact>
</mgrwt>
</event>
<event>
 6    2  0.2321478E-005  0.1181546E+04  0.7818608E-02  0.9315624E-01
         -4   -1    0    0    0  501 -0.00000000000E+00  0.00000000000E+00  0.34626550793E+03  0.34626550793E+03  0.00000000000E+00 0. -1.
         21   -1    0    0  501  502  0.00000000000E+00 -0.00000000000E+00 -0.23198860573E+04  0.23198860573E+04  0.00000000000E+00 0.  1.
   -9000010    2    1    2    0  502 -0.53069694745E+03  0.25963605440E+03 -0.11200100944E+04  0.16280278006E+04  0.10232310477E+04 0.  0.
         13    1    3    3    0    0 -0.13932900525E+03 -0.26339650790E+01 -0.11476668395E+04  0.11560963174E+04  0.10566000000E+00 0. -1.
         -4    1    3    3    0  502 -0.39136794220E+03  0.26227001948E+03  0.27656745030E+02  0.47193148321E+03  0.00000000000E+00 0. -1.
        -13    1    1    2    0    0  0.53069694745E+03 -0.25963605440E+03 -0.85361045492E+03  0.10381237646E+04  0.10566000000E+00 0.  1.
<mgrwt>
<rscale>  1 0.99357149E+03</rscale>
<asrwt>0</asrwt>
<pdfrwt beam="2">  1       21 0.35690554E+00 0.11815464E+04</pdfrwt>
<pdfrwt beam="1">  1       -4 0.53271617E-01 0.11815464E+04</pdfrwt>
<totfact> 0.15117573E+00</totfact>
</mgrwt>
</event>
<event>
 6    2  0.2321478E-005  0.1028868E+04  0.7818608E-02  0.9742217E-01
         21   -1    0    0  501  502  0.00000000000E+00  0.00000000000E+00  0.64689307236E+03  0.64689307236E+03  0.00000000000E+00 0. -1.
         -4   -1    0    0    0  501 -0.00000000000E+00 -0.00000000000E+00 -0.75032629481E+03  0.75032629481E+03  0.00000000000E+00 0. -1.
   -9000010    2    1    2    0  502  0.33570570786E+02 -0.20004157631E+03  0.18423187984E+03  0.10452323820E+04  0.10086752358E+04 0.  0.
         13    1    3    3    0    0  0.45945851677E+02 -0.52982474472E+03  0.38716434290E+03  0.65781571962E+03  0.10566000000E+00 0. -1.
         -4    1    3    3    0  502 -0.12375280891E+02  0.32978316841E+03 -0.20293246306E+03  0.38741666240E+03  0.00000000000E+00 0. -1.
        -13    1    1    2    0    0 -0.33570570786E+02  0.20004157631E+03 -0.28766510229E+03  0.35198698515E+03  0.10566000000E+00 0.  1.
<mgrwt>
<rscale>  1 0.68557909E+03</rscale>
<asrwt>0</asrwt>
<pdfrwt beam="1">  1       21 0.99522011E-01 0.10288680E+04</pdfrwt>
<pdfrwt beam="2">  1       -4 0.11543482E+00 0.10288680E+04</pdfrwt>
<totfact> 0.18049857E+01</totfact>
</mgrwt>
</event>
<event>
 6    2  0.2321478E-005  0.1064996E+04  0.7818608E-02  0.9541543E-01
         21   -1    0    0  501  502  0.00000000000E+00  0.00000000000E+00  0.54200660815E+03  0.54200660815E+03  0.00000000000E+00 0. -1.
         -4   -1    0    0    0  501 -0.00000000000E+00 -0.00000000000E+00 -0.10657158247E+04  0.10657158247E+04  0.00000000000E+00 0. -1.
   -9000010    2    1    2    0  502 -0.24405524586E+03 -0.26665583718E+03 -0.12945578010E+03  0.10728354524E+04  0.10017728337E+04 0.  0.
         13    1    3    3    0    0 -0.57567514872E+03 -0.17441409135E+03 -0.31796666950E+03  0.68038589506E+03  0.10566000000E+00 0. -1.
         -4    1    3    3    0  502  0.33161990286E+03 -0.92241745824E+02  0.18851088941E+03  0.39244955736E+03  0.00000000000E+00 0. -1.
        -13    1    1    2    0    0  0.24405524586E+03  0.26665583718E+03 -0.39425343648E+03  0.53488698047E+03  0.10566000000E+00 0.  1.
<mgrwt>
<rscale>  1 0.81289108E+03</rscale>
<asrwt>0</asrwt>
<pdfrwt beam="1">  1       21 0.83385632E-01 0.10649963E+04</pdfrwt>
<pdfrwt beam="2">  1       -4 0.16395628E+00 0.10649963E+04</pdfrwt>
<totfact> 0.11001168E+01</totfact>
</mgrwt>
</event>
<event>
 6    2  0.2321478E-005  0.1037392E+04  0.7818608E-02  0.9717283E-01
         -4   -1    0    0    0  501 -0.00000000000E+00  0.00000000000E+00  0.19069998562E+04  0.19069998562E+04  0.00000000000E+00 0. -1.
         21   -1    0    0  501  502  0.00000000000E+00 -0.00000000000E+00 -0.20576640458E+03  0.20576640458E+03  0.00000000000E+00 0. -1.
   -9000010    2    1    2    0  502 -0.19005967902E+03 -0.10056522790E+03  0.13882994525E+04  0.17330772491E+04  0.10148622245E+04 0.  0.
         13    1    3    3    0    0 -0.54275321265E+03  0.20121512657E+02  0.11961838101E+04  0.13137129229E+04  0.10566000000E+00 0. -1.
         -4    1    3    3    0  502  0.35269353362E+03 -0.12068674055E+03  0.19211564248E+03  0.41936432620E+03  0.00000000000E+00 0. -1.
        -13    1    1    2    0    0  0.19005967902E+03  0.10056522790E+03  0.31293399905E+03  0.37968901166E+03  0.10566000000E+00 0.  1.
<mgrwt>
<rscale>  1 0.69997036E+03</rscale>
<asrwt>0</asrwt>
<pdfrwt beam="2">  1       21 0.31656371E-01 0.10373916E+04</pdfrwt>
<pdfrwt beam="1">  1       -4 0.29338458E+00 0.10373916E+04</pdfrwt>
<totfact> 0.13320299E+01</totfact>
</mgrwt>
</event>
<event>
 6    2  0.2321478E-005  0.1092569E+04  0.7818608E-02  0.9448462E-01
         -4   -1    0    0    0  501 -0.00000000000E+00  0.00000000000E+00  0.13746287422E+04  0.13746287422E+04  0.00000000000E+00 0. -1.
         21   -1    0    0  501  502  0.00000000000E+00 -0.00000000000E+00 -0.72272339348E+03  0.72272339348E+03  0.00000000000E+00 0. -1.
   -9000010    2    1    2    0  502 -0.40646608707E+03 -0.22348378973E+03 -0.21558423609E+03  0.11136357766E+04  0.98921605115E+03 0.  0.
         13    1    3    3    0    0 -0.56475574371E+03 -0.21077937013E+03  0.22645360926E+03  0.64393962545E+03  0.10566000000E+00 0. -1.
         -4    1    3    3    0  502  0.15828965664E+03 -0.12704419605E+02 -0.44203784535E+03  0.46969615114E+03  0.00000000000E+00 0. -1.
        -13    1    1    2    0    0  0.40646608707E+03  0.22348378973E+03  0.86748958483E+03  0.98371635910E+03  0.10566000000E+00 0.  1.
<mgrwt>
<rscale>  1 0.88192553E+03</rscale>
<asrwt>0</asrwt>
<pdfrwt beam="2">  1       21 0.11118821E+00 0.10925695E+04</pdfrwt>
<pdfrwt beam="1">  1       -4 0.21148134E+00 0.10925695E+04</pdfrwt>
<totfact> 0.25483788E+00</totfact>
</mgrwt>
</event>
<event>
 6    2  0.2321478E-005  0.1016533E+04  0.7818608E-02  0.9800272E-01
         -4   -1    0    0    0  501 -0.00000000000E+00  0.00000000000E+00  0.38511927227E+03  0.38511927227E+03  0.00000000000E+00 0. -1.
         21   -1    0    0  501  502  0.00000000000E+00 -0.00000000000E+00 -0.91967842912E+03  0.91967842912E+03  0.00000000000E+00 0. -1.
   -9000010    2    1    2    0  502 -0.16688556255E+03  0.47831810028E+02 -0.44967818783E+03  0.11115531333E+04  0.10015993323E+04 0.  0.
         13    1    3    3    0    0  0.13068134313E+03  0.20411210832E+03 -0.66810347996E+03  0.71070502834E+03  0.10566000000E+00 0. -1.
         -4    1    3    3    0  502 -0.29756690568E+03 -0.15628029829E+03  0.21842529213E+03  0.40084810494E+03  0.00000000000E+00 0. -1.
        -13    1    1    2    0    0  0.16688556255E+03 -0.47831810028E+02 -0.84880969025E+02  0.19324456811E+03  0.10566000000E+00 0.  1.
<mgrwt>
<rscale>  1 0.65347923E+03</rscale>
<asrwt>0</asrwt>
<pdfrwt beam="2">  1       21 0.14148899E+00 0.10165333E+04</pdfrwt>
<pdfrwt beam="1">  1       -4 0.59249120E-01 0.10165333E+04</pdfrwt>
<totfact> 0.34092211E+01</totfact>
</mgrwt>
</event>
<event>
 6    2  0.2321478E-005  0.1020205E+04  0.7818608E-02  0.9757430E-01
         21   -1    0    0  501  502  0.00000000000E+00  0.00000000000E+00  0.65108685713E+03  0.65108685713E+03  0.00000000000E+00 0. -1.
         -4   -1    0    0    0  501 -0.00000000000E+00 -0.00000000000E+00 -0.64293325870E+03  0.64293325870E+03  0.00000000000E+00 0. -1.
   -9000010    2    1    2    0  502  0.19764007923E+03  0.81182556179E+01  0.17516934044E+03  0.10351344727E+04  0.10008454285E+04 0.  0.
         13    1    3    3    0    0  0.47621946806E+03  0.34047683568E+03  0.76594283256E+02  0.59040338141E+03  0.10566000000E+00 0. -1.
         -4    1    3    3    0  502 -0.27857938883E+03 -0.33235858006E+03  0.98575057185E+02  0.44473109125E+03  0.00000000000E+00 0. -1.
        -13    1    1    2    0    0 -0.19764007923E+03 -0.81182556179E+01 -0.16701574201E+03  0.25888564316E+03  0.10566000000E+00 0.  1.
<mgrwt>
<rscale>  1 0.67698026E+03</rscale>
<asrwt>0</asrwt>
<pdfrwt beam="1">  1       21 0.10016721E+00 0.10202054E+04</pdfrwt>
<pdfrwt beam="2">  1       -4 0.98912809E-01 0.10202054E+04</pdfrwt>
<totfact> 0.25950478E+01</totfact>
</mgrwt>
</event>
<event>
 6    2  0.2321478E-005  0.1090819E+04  0.7818608E-02  0.9442790E-01
         -4   -1    0    0    0  501 -0.00000000000E+00  0.00000000000E+00  0.26630162087E+04  0.26630162087E+04  0.00000000000E+00 0. -1.
         21   -1    0    0  501  502  0.00000000000E+00 -0.00000000000E+00 -0.25646982602E+03  0.25646982602E+03  0.00000000000E+00 0.  1.
   -9000010    2    1    2    0  502  0.30294914962E+03  0.36655451550E+03  0.20602878554E+04  0.23312383157E+04  0.98170547384E+03 0.  0.
         13    1    3    3    0    0  0.33816748453E+03 -0.26395653351E+03  0.57597710723E+03  0.71817820796E+03  0.10566000000E+00 0. -1.
         -4    1    3    3    0  502 -0.35218334908E+02  0.63051104900E+03  0.14843107481E+04  0.16130601077E+04  0.00000000000E+00 0. -1.
        -13    1    1    2    0    0 -0.30294914962E+03 -0.36655451550E+03  0.34625852736E+03  0.58824771909E+03  0.10566000000E+00 0.  1.
<mgrwt>
<rscale>  1 0.88636345E+03</rscale>
<asrwt>0</asrwt>
<pdfrwt beam="2">  1       21 0.39456898E-01 0.10908190E+04</pdfrwt>
<pdfrwt beam="1">  1       -4 0.40969478E+00 0.10908190E+04</pdfrwt>
<totfact> 0.14606750E+00</totfact>
</mgrwt>
</event>
<event>
 6    2  0.2321478E-005  0.1072305E+04  0.7818608E-02  0.9494352E-01
         -4   -1    0    0    0  501 -0.00000000000E+00  0.00000000000E+00  0.27566526247E+03  0.27566526247E+03  0.00000000000E+00 0. -1.
         21   -1    0    0  501  502  0.00000000000E+00 -0.00000000000E+00 -0.23275980343E+04  0.23275980343E+04  0.00000000000E+00 0. -1.
   -9000010    2    1    2    0  502 -0.99047208053E+02 -0.40553494378E+03 -0.18528458601E+04  0.21407651350E+04  0.98770878394E+03 0.  0.
         13    1    3    3    0    0  0.20221543025E+03  0.12504532670E+03 -0.12865018228E+04  0.13082868054E+04  0.10566000000E+00 0. -1.
         -4    1    3    3    0  502 -0.30126263831E+03 -0.53058027048E+03 -0.56634403732E+03  0.83247832961E+03  0.00000000000E+00 0. -1.
        -13    1    1    2    0    0  0.99047208053E+02  0.40553494378E+03 -0.19908691171E+03  0.46249816175E+03  0.10566000000E+00 0.  1.
<mgrwt>
<rscale>  1 0.84701517E+03</rscale>
<asrwt>0</asrwt>
<pdfrwt beam="2">  1       21 0.35809202E+00 0.10723048E+04</pdfrwt>
<pdfrwt beam="1">  1       -4 0.42410039E-01 0.10723048E+04</pdfrwt>
<totfact> 0.24453917E+00</totfact>
</mgrwt>
</event>
<event>
 6    2  0.2321478E-005  0.1041145E+04  0.7818608E-02  0.9615910E-01
         21   -1    0    0  501  502  0.00000000000E+00  0.00000000000E+00  0.26186857944E+04  0.26186857944E+04  0.00000000000E+00 0. -1.
         -4   -1    0    0    0  501 -0.00000000000E+00 -0.00000000000E+00 -0.32303446230E+03  0.32303446230E+03  0.00000000000E+00 0. -1.
   -9000010    2    1    2    0  502 -0.29147287078E+03 -0.69103846793E+02  0.24066982706E+04  0.26222469249E+04  0.99712115275E+03 0.  0.
         13    1    3    3    0    0 -0.59311510044E+03 -0.24497710633E+03  0.19113804398E+04  0.20162277902E+04  0.10566000000E+00 0. -1.
         -4    1    3    3    0  502  0.30164222966E+03  0.17587325954E+03  0.49531783084E+03  0.60601913475E+03  0.00000000000E+00 0. -1.
        -13    1    1    2    0    0  0.29147287078E+03  0.69103846793E+02 -0.11104693850E+03  0.31947333184E+03  0.10566000000E+00 0.  1.
<mgrwt>
<rscale>  1 0.76252067E+03</rscale>
<asrwt>0</asrwt>
<pdfrwt beam="1">  1       21 0.40287472E+00 0.10411447E+04</pdfrwt>
<pdfrwt beam="2">  1       -4 0.49697611E-01 0.10411447E+04</pdfrwt>
<totfact> 0.90766976E-01</totfact>
</mgrwt>
</event>
<event>
 6    2  0.2321478E-005  0.1028308E+04  0.7818608E-02  0.9707434E-01
         -4   -1    0    0    0  501 -0.00000000000E+00  0.00000000000E+00  0.12978040857E+04  0.12978040857E+04  0.00000000000E+00 0. -1.
         21   -1    0    0  501  502  0.00000000000E+00 -0.00000000000E+00 -0.30414655999E+03  0.30414655999E+03  0.00000000000E+00 0. -1.
   -9000010    2    1    2    0  502  0.63278064864E+02 -0.21921890839E+03  0.81934736436E+03  0.13148181209E+04  0.10026741964E+04 0.  0.
         13    1    3    3    0    0  0.38134483934E+03 -0.38281445833E+03  0.78841772667E+03  0.95581029440E+03  0.10566000000E+00 0. -1.
         -4    1    3    3    0  502 -0.31806677447E+03  0.16359554993E+03  0.30929637695E+02  0.35900782648E+03  0.00000000000E+00 0. -1.
        -13    1    1    2    0    0 -0.63278064864E+02  0.21921890839E+03  0.17431016132E+03  0.28713252479E+03  0.10566000000E+00 0.  1.
<mgrwt>
<rscale>  1 0.70575907E+03</rscale>
<asrwt>0</asrwt>
<pdfrwt beam="2">  1       21 0.46791779E-01 0.10283076E+04</pdfrwt>
<pdfrwt beam="1">  1       -4 0.19966216E+00 0.10283076E+04</pdfrwt>
<totfact> 0.22862132E+01</totfact>
</mgrwt>
</event>
<event>
 6    2  0.2321478E-005  0.1036087E+04  0.7818608E-02  0.9655083E-01
         21   -1    0    0  501  502  0.00000000000E+00  0.00000000000E+00  0.39920164514E+03  0.39920164514E+03  0.00000000000E+00 0. -1.
         -4   -1    0    0    0  501 -0.00000000000E+00 -0.00000000000E+00 -0.11202013288E+04  0.11202013288E+04  0.00000000000E+00 0. -1.
   -9000010    2    1    2    0  502  0.22576728438E+03  0.14077682907E+03 -0.42082995702E+03  0.11182909469E+04  0.10013430016E+04 0.  0.
         13    1    3    3    0    0 -0.33179883194E+03  0.28419214826E+03 -0.30020639142E+03  0.53007502358E+03  0.10566000000E+00 0. -1.
         -4    1    3    3    0  502  0.55756611632E+03 -0.14341531919E+03 -0.12062356560E+03  0.58821592330E+03  0.00000000000E+00 0. -1.
        -13    1    1    2    0    0 -0.22576728438E+03 -0.14077682907E+03 -0.30016972660E+03  0.40111202704E+03  0.10566000000E+00 0.  1.
<mgrwt>
<rscale>  1 0.73755254E+03</rscale>
<asrwt>0</asrwt>
<pdfrwt beam="1">  1       21 0.61415639E-01 0.10360872E+04</pdfrwt>
<pdfrwt beam="2">  1       -4 0.17233866E+00 0.10360872E+04</pdfrwt>
<totfact> 0.19410798E+01</totfact>
</mgrwt>
</event>
<event>
 6    2  0.2321478E-005  0.1051246E+04  0.7818608E-02  0.9745977E-01
         21   -1    0    0  501  502  0.00000000000E+00  0.00000000000E+00  0.98350148056E+03  0.98350148056E+03  0.00000000000E+00 0. -1.
         -4   -1    0    0    0  501 -0.00000000000E+00 -0.00000000000E+00 -0.39080252725E+03  0.39080252725E+03  0.00000000000E+00 0. -1.
   -9000010    2    1    2    0  502  0.54749893405E+02 -0.17964001151E+03  0.52118217284E+03  0.11733494219E+04  0.10343354987E+04 0.  0.
         13    1    3    3    0    0  0.38272987966E+01  0.46211696312E+02  0.80541935818E+03  0.80675307423E+03  0.10566000000E+00 0. -1.
         -4    1    3    3    0  502  0.50922594608E+02 -0.22585170782E+03 -0.28423718534E+03  0.36659634763E+03  0.00000000000E+00 0. -1.
        -13    1    1    2    0    0 -0.54749893405E+02  0.17964001151E+03  0.71516780468E+02  0.20095458595E+03  0.10566000000E+00 0.  1.
<mgrwt>
<rscale>  1 0.68344095E+03</rscale>
<asrwt>0</asrwt>
<pdfrwt beam="1">  1       21 0.15130792E+00 0.10512459E+04</pdfrwt>
<pdfrwt beam="2">  1       -4 0.60123466E-01 0.10512459E+04</pdfrwt>
<totfact> 0.27333054E+01</totfact>
</mgrwt>
</event>
<event>
 6    2  0.2321478E-005  0.1044705E+04  0.7818608E-02  0.9637049E-01
         -4   -1    0    0    0  501 -0.00000000000E+00  0.00000000000E+00  0.51712754084E+03  0.51712754084E+03  0.00000000000E+00 0. -1.
         21   -1    0    0  501  502  0.00000000000E+00 -0.00000000000E+00 -0.87086032257E+03  0.87086032257E+03  0.00000000000E+00 0. -1.
   -9000010    2    1    2    0  502  0.22792957208E+03 -0.15546761947E+03 -0.17502536496E+03  0.10592654539E+04  0.10076146848E+04 0.  0.
         13    1    3    3    0    0 -0.21387336690E+03  0.21238836385E+03  0.20999096480E+03  0.36735112717E+03  0.10566000000E+00 0. -1.
         -4    1    3    3    0  502  0.44180293898E+03 -0.36785598333E+03 -0.38501632977E+03  0.69191432674E+03  0.00000000000E+00 0. -1.
        -13    1    1    2    0    0 -0.22792957208E+03  0.15546761947E+03 -0.17870741676E+03  0.32872240950E+03  0.10566000000E+00 0.  1.
<mgrwt>
<rscale>  1 0.74891801E+03</rscale>
<asrwt>0</asrwt>
<pdfrwt beam="2">  1       21 0.13397851E+00 0.10447054E+04</pdfrwt>
<pdfrwt beam="1">  1       -4 0.79558084E-01 0.10447054E+04</pdfrwt>
<totfact> 0.20405380E+01</totfact>
</mgrwt>
</event>
<event>
 6    2  0.2321478E-005  0.1031734E+04  0.7818608E-02  0.9722844E-01
         21   -1    0    0  501  502  0.00000000000E+00  0.00000000000E+00  0.23566810653E+03  0.23566810653E+03  0.00000000000E+00 0. -1.
         -4   -1    0    0    0  501 -0.00000000000E+00 -0.00000000000E+00 -0.19197662108E+04  0.19197662108E+04  0.00000000000E+00 0. -1.
   -9000010    2    1    2    0  502  0.19213946263E+03  0.95492052842E+02 -0.99364870245E+03  0.14324151662E+04  0.10091774667E+04 0.  0.
         13    1    3    3    0    0 -0.39108742869E+03 -0.12117914908E+03 -0.40549776660E+03  0.57624839516E+03  0.10566000000E+00 0. -1.
         -4    1    3    3    0  502  0.58322689131E+03  0.21667120192E+03 -0.58815093585E+03  0.85616677104E+03  0.00000000000E+00 0. -1.
        -13    1    1    2    0    0 -0.19213946263E+03 -0.95492052842E+02 -0.69044940178E+03  0.72301915109E+03  0.10566000000E+00 0.  1.
<mgrwt>
<rscale>  1 0.69672828E+03</rscale>
<asrwt>0</asrwt>
<pdfrwt beam="1">  1       21 0.36256633E-01 0.10317342E+04</pdfrwt>
<pdfrwt beam="2">  1       -4 0.29534864E+00 0.10317342E+04</pdfrwt>
<totfact> 0.98156808E+00</totfact>
</mgrwt>
</event>
<event>
 6    2  0.2397103E-005  0.7948847E+03  0.7818608E-02  0.9860446E-01
         -4   -1    0    0    0  501 -0.00000000000E+00  0.00000000000E+00  0.21778884386E+03  0.21778884386E+03  0.00000000000E+00 0. -1.
         21   -1    0    0  501  502  0.00000000000E+00 -0.00000000000E+00 -0.14202598329E+04  0.14202598329E+04  0.00000000000E+00 0. -1.
   -9000010    2    1    2    0  502  0.26944453693E+03 -0.12811268325E+03 -0.10002131824E+04  0.12776024955E+04  0.73676896524E+03 0.  0.
         13    1    3    3    0    0 -0.15174557031E+02  0.28915774945E+03 -0.34967019664E+03  0.45399529605E+03  0.10566000000E+00 0. -1.
         -4    1    3    3    0  502  0.28461909396E+03 -0.41727043270E+03 -0.65054298575E+03  0.82360719944E+03  0.00000000000E+00 0. -1.
        -13    1    1    2    0    0 -0.26944453693E+03  0.12811268325E+03 -0.20225780666E+03  0.36044618129E+03  0.10566000000E+00 0.  1.
<mgrwt>
<rscale>  1 0.62217124E+03</rscale>
<asrwt>0</asrwt>
<pdfrwt beam="2">  1       21 0.21850150E+00 0.79488473E+03</pdfrwt>
<pdfrwt beam="1">  1       -4 0.33505977E-01 0.79488473E+03</pdfrwt>
<totfact> 0.31227753E+01</totfact>
</mgrwt>
</event>
<event>
 6    2  0.2321478E-005  0.9312413E+03  0.7818608E-02  0.9866985E-01
         -4   -1    0    0    0  501 -0.00000000000E+00  0.00000000000E+00  0.10589995095E+04  0.10589995095E+04  0.00000000000E+00 0. -1.
         21   -1    0    0  501  502  0.00000000000E+00 -0.00000000000E+00 -0.46111900628E+03  0.46111900628E+03  0.00000000000E+00 0. -1.
   -9000010    2    1    2    0  502 -0.15519212527E+03  0.94415246546E+02  0.38561018303E+02  0.93203932733E+03  0.91335180573E+03 0.  0.
         13    1    3    3    0    0 -0.25784650149E+03  0.44447260908E+03  0.17459725250E+03  0.54270151124E+03  0.10566000000E+00 0. -1.
         -4    1    3    3    0  502  0.10265437622E+03 -0.35005736254E+03 -0.13603623420E+03  0.38933781609E+03  0.00000000000E+00 0. -1.
        -13    1    1    2    0    0  0.15519212527E+03 -0.94415246546E+02  0.55931948488E+03  0.58807918842E+03  0.10566000000E+00 0.  1.
<mgrwt>
<rscale>  1 0.61888366E+03</rscale>
<asrwt>0</asrwt>
<pdfrwt beam="2">  1       21 0.70941386E-01 0.93124130E+03</pdfrwt>
<pdfrwt beam="1">  1       -4 0.16292300E+00 0.93124130E+03</pdfrwt>
<totfact> 0.16562834E+01</totfact>
</mgrwt>
</event>
<event>
 6    2  0.2321478E-005  0.9396807E+03  0.7818608E-02  0.1014950E+00
         21   -1    0    0  501  502  0.00000000000E+00  0.00000000000E+00  0.31118434410E+03  0.31118434410E+03  0.00000000000E+00 0. -1.
         -4   -1    0    0    0  501 -0.00000000000E+00 -0.00000000000E+00 -0.92020934323E+03  0.92020934323E+03  0.00000000000E+00 0. -1.
   -9000010    2    1    2    0  502 -0.40536768230E+02 -0.60317290729E+02 -0.42074628214E+03  0.10295762164E+04  0.93686623713E+03 0.  0.
         13    1    3    3    0    0  0.44836766200E+03 -0.18122156047E+02 -0.18972127142E+03  0.48719210262E+03  0.10566000000E+00 0. -1.
         -4    1    3    3    0  502 -0.48890443023E+03 -0.42195134682E+02 -0.23102501073E+03  0.54238411377E+03  0.00000000000E+00 0. -1.
        -13    1    1    2    0    0  0.40536768230E+02  0.60317290729E+02 -0.18827871699E+03  0.20181747094E+03  0.10566000000E+00 0.  1.
<mgrwt>
<rscale>  1 0.49554034E+03</rscale>
<asrwt>0</asrwt>
<pdfrwt beam="1">  1       21 0.47874515E-01 0.93968066E+03</pdfrwt>
<pdfrwt beam="2">  1       -4 0.14157067E+00 0.93968066E+03</pdfrwt>
<totfact> 0.57784197E+01</totfact>
</mgrwt>
</event>
<event>
 6    2  0.2321478E-005  0.1018860E+04  0.7818608E-02  0.9771498E-01
         -4   -1    0    0    0  501 -0.00000000000E+00  0.00000000000E+00  0.26248890677E+04  0.26248890677E+04  0.00000000000E+00 0. -1.
         21   -1    0    0  501  502  0.00000000000E+00 -0.00000000000E+00 -0.14003466872E+03  0.14003466872E+03  0.00000000000E+00 0. -1.
   -9000010    2    1    2    0  502 -0.18607671742E+03  0.36169915785E+02  0.20059763653E+04  0.22498926792E+04  0.10010709677E+04 0.  0.
         13    1    3    3    0    0  0.37763076052E+03  0.20422691567E+03  0.90323628479E+03  0.10000747081E+04  0.10566000000E+00 0. -1.
         -4    1    3    3    0  502 -0.56370747794E+03 -0.16805699989E+03  0.11027400805E+04  0.12498179712E+04  0.00000000000E+00 0. -1.
        -13    1    1    2    0    0  0.18607671742E+03 -0.36169915785E+02  0.47887803371E+03  0.51503105723E+03  0.10566000000E+00 0.  1.
<mgrwt>
<rscale>  1 0.66914822E+03</rscale>
<asrwt>0</asrwt>
<pdfrwt beam="2">  1       21 0.21543797E-01 0.10188601E+04</pdfrwt>
<pdfrwt beam="1">  1       -4 0.40382905E+00 0.10188601E+04</pdfrwt>
<totfact> 0.54947268E+00</totfact>
</mgrwt>
</event>
<event>
 6    2  0.2321478E-005  0.1253257E+04  0.7818608E-02  0.9236246E-01
         -4   -1    0    0    0  501 -0.00000000000E+00  0.00000000000E+00  0.11232753894E+04  0.11232753894E+04  0.00000000000E+00 0. -1.
         21   -1    0    0  501  502  0.00000000000E+00 -0.00000000000E+00 -0.81708777975E+03  0.81708777975E+03  0.00000000000E+00 0. -1.
   -9000010    2    1    2    0  502  0.65576278299E+03  0.95509923877E+02  0.19021727398E+03  0.12676105378E+04  0.10637231271E+04 0.  0.
         13    1    3    3    0    0  0.34154934877E+03  0.56270327049E+03 -0.39708045649E+02  0.65944496989E+03  0.10566000000E+00 0. -1.
         -4    1    3    3    0  502  0.31421343423E+03 -0.46719334662E+03  0.22992531963E+03  0.60816556790E+03  0.00000000000E+00 0. -1.
        -13    1    1    2    0    0 -0.65576278299E+03 -0.95509923877E+02  0.11597033570E+03  0.67275263139E+03  0.10566000000E+00 0.  1.
<mgrwt>
<rscale>  1 0.10687015E+04</rscale>
<asrwt>0</asrwt>
<pdfrwt beam="2">  1       21 0.12570581E+00 0.12532573E+04</pdfrwt>
<pdfrwt beam="1">  1       -4 0.17281160E+00 0.12532573E+04</pdfrwt>
<totfact> 0.33274349E+00</totfact>
</mgrwt>
</event>
<event>
 6    2  0.2321478E-005  0.1037640E+04  0.7818608E-02  0.9672060E-01
         -4   -1    0    0    0  501 -0.00000000000E+00  0.00000000000E+00  0.26076310480E+04  0.26076310480E+04  0.00000000000E+00 0. -1.
         21   -1    0    0  501  502  0.00000000000E+00 -0.00000000000E+00 -0.16001600442E+03  0.16001600442E+03  0.00000000000E+00 0. -1.
   -9000010    2    1    2    0  502 -0.17462154020E+03 -0.17904792048E+03  0.18792907406E+04  0.21467256688E+04  0.10070484443E+04 0.  0.
         13    1    3    3    0    0  0.39145257956E+03  0.76460176927E+02  0.93480532190E+03  0.10163376809E+04  0.10566000000E+00 0. -1.
         -4    1    3    3    0  502 -0.56607411976E+03 -0.25550809740E+03  0.94448541872E+03  0.11303879878E+04  0.00000000000E+00 0. -1.
        -13    1    1    2    0    0  0.17462154020E+03  0.17904792048E+03  0.56832430292E+03  0.62092138357E+03  0.10566000000E+00 0.  1.
<mgrwt>
<rscale>  1 0.72705000E+03</rscale>
<asrwt>0</asrwt>
<pdfrwt beam="2">  1       21 0.24617849E-01 0.10376403E+04</pdfrwt>
<pdfrwt beam="1">  1       -4 0.40117397E+00 0.10376403E+04</pdfrwt>
<totfact> 0.44014557E+00</totfact>
</mgrwt>
</event>
<event>
 6    2  0.2321478E-005  0.1064726E+04  0.7818608E-02  0.9511157E-01
         21   -1    0    0  501  502  0.00000000000E+00  0.00000000000E+00  0.68518929678E+03  0.68518929678E+03  0.00000000000E+00 0. -1.
         -4   -1    0    0    0  501 -0.00000000000E+00 -0.00000000000E+00 -0.11212233890E+04  0.11212233890E+04  0.00000000000E+00 0. -1.
   -9000010    2    1    2    0  502 -0.32953583421E+03  0.23040672035E+03  0.17091318289E+03  0.10783562809E+04  0.98588023086E+03 0.  0.
         13    1    3    3    0    0  0.30294070818E+03 -0.84812780914E+02  0.19703303969E+03  0.37119847841E+03  0.10566000000E+00 0. -1.
         -4    1    3    3    0  502 -0.63247654240E+03  0.31521950126E+03 -0.26119856795E+02  0.70715780246E+03  0.00000000000E+00 0. -1.
        -13    1    1    2    0    0  0.32953583421E+03 -0.23040672035E+03 -0.60694727511E+03  0.72805640492E+03  0.10566000000E+00 0.  1.
<mgrwt>
<rscale>  1 0.83466219E+03</rscale>
<asrwt>0</asrwt>
<pdfrwt beam="1">  1       21 0.10541374E+00 0.10647258E+04</pdfrwt>
<pdfrwt beam="2">  1       -4 0.17249590E+00 0.10647258E+04</pdfrwt>
<totfact> 0.53792712E+00</totfact>
</mgrwt>
</event>
<event>
 6    2  0.2321478E-005  0.1013769E+04  0.7818608E-02  0.9864924E-01
         -4   -1    0    0    0  501 -0.00000000000E+00  0.00000000000E+00  0.31625183165E+03  0.31625183165E+03  0.00000000000E+00 0. -1.
         21   -1    0    0  501  502  0.00000000000E+00 -0.00000000000E+00 -0.10757543687E+04  0.10757543687E+04  0.00000000000E+00 0. -1.
   -9000010    2    1    2    0  502 -0.56677666401E+02 -0.12992390240E+03 -0.72436790672E+03  0.12459684255E+04  0.10038106767E+04 0.  0.
         13    1    3    3    0    0  0.51070141509E+01 -0.19271359712E+02 -0.96966344693E+03  0.96986838199E+03  0.10566000000E+00 0. -1.
         -4    1    3    3    0  502 -0.61784680552E+02 -0.11065254269E+03  0.24529554021E+03  0.27610004347E+03  0.00000000000E+00 0. -1.
        -13    1    1    2    0    0  0.56677666401E+02  0.12992390240E+03 -0.35134630337E+02  0.14603777490E+03  0.10566000000E+00 0.  1.
<mgrwt>
<rscale>  1 0.61991748E+03</rscale>
<asrwt>0</asrwt>
<pdfrwt beam="2">  1       21 0.16550067E+00 0.10137694E+04</pdfrwt>
<pdfrwt beam="1">  1       -4 0.48654128E-01 0.10137694E+04</pdfrwt>
<totfact> 0.33430723E+01</totfact>
</mgrwt>
</event>
<event>
 6    2  0.2321478E-005  0.1013955E+04  0.7818608E-02  0.9951688E-01
         21   -1    0    0  501  502  0.00000000000E+00  0.00000000000E+00  0.18243784500E+04  0.18243784500E+04  0.00000000000E+00 0. -1.
         -4   -1    0    0    0  501 -0.00000000000E+00 -0.00000000000E+00 -0.17993753740E+03  0.17993753740E+03  0.00000000000E+00 0. -1.
   -9000010    2    1    2    0  502 -0.95092358838E+01  0.10679518549E+03  0.15854110115E+04  0.18819224516E+04  0.10082700042E+04 0.  0.
         13    1    3    3    0    0 -0.27576247572E+02 -0.44534155696E+03  0.87300137142E+03  0.98041876637E+03  0.10566000000E+00 0. -1.
         -4    1    3    3    0  502  0.18067011688E+02  0.55213674245E+03  0.71240964005E+03  0.90150368525E+03  0.00000000000E+00 0. -1.
        -13    1    1    2    0    0  0.95092358838E+01 -0.10679518549E+03  0.59029901132E+02  0.12239353578E+03  0.10566000000E+00 0.  1.
<mgrwt>
<rscale>  1 0.57820332E+03</rscale>
<asrwt>0</asrwt>
<pdfrwt beam="1">  1       21 0.28067360E+00 0.10139547E+04</pdfrwt>
<pdfrwt beam="2">  1       -4 0.27682699E-01 0.10139547E+04</pdfrwt>
<totfact> 0.17667860E+01</totfact>
</mgrwt>
</event>
<event>
 6    2  0.2321478E-005  0.1054628E+04  0.7818608E-02  0.9610984E-01
         21   -1    0    0  501  502  0.00000000000E+00  0.00000000000E+00  0.13462427031E+04  0.13462427031E+04  0.00000000000E+00 0. -1.
         -4   -1    0    0    0  501 -0.00000000000E+00 -0.00000000000E+00 -0.34275741485E+03  0.34275741485E+03  0.00000000000E+00 0. -1.
   -9000010    2    1    2    0  502  0.10679348714E+03 -0.27295073190E+03  0.69251631601E+03  0.12616727683E+04  0.10130806361E+04 0.  0.
         13    1    3    3    0    0  0.27418071889E+03 -0.54861906259E+03  0.15138413326E+03  0.63172391867E+03  0.10566000000E+00 0. -1.
         -4    1    3    3    0  502 -0.16738723175E+03  0.27566833070E+03  0.54113218276E+03  0.62994884960E+03  0.00000000000E+00 0. -1.
        -13    1    1    2    0    0 -0.10679348714E+03  0.27295073190E+03  0.31096897228E+03  0.42732734973E+03  0.10566000000E+00 0.  1.
<mgrwt>
<rscale>  1 0.76573402E+03</rscale>
<asrwt>0</asrwt>
<pdfrwt beam="1">  1       21 0.20711426E+00 0.10546276E+04</pdfrwt>
<pdfrwt beam="2">  1       -4 0.52731911E-01 0.10546276E+04</pdfrwt>
<totfact> 0.14142691E+01</totfact>
</mgrwt>
</event>
<event>
 6    2  0.2321478E-005  0.1010503E+04  0.7818608E-02  0.9917142E-01
         -4   -1    0    0    0  501 -0.00000000000E+00  0.00000000000E+00  0.16524140299E+04  0.16524140299E+04  0.00000000000E+00 0. -1.
         21   -1    0    0  501  502  0.00000000000E+00 -0.00000000000E+00 -0.19985951980E+03  0.19985951980E+03  0.00000000000E+00 0. -1.
   -9000010    2    1    2    0  502  0.20287844545E+02  0.11924406215E+03  0.11765689799E+04  0.15509452121E+04  0.10032376306E+04 0.  0.
         13    1    3    3    0    0 -0.27814843517E+03  0.43326868028E+03  0.36543458611E+03  0.63137211626E+03  0.10566000000E+00 0. -1.
         -4    1    3    3    0  502  0.29843627971E+03 -0.31402461814E+03  0.81113439378E+03  0.91957309585E+03  0.00000000000E+00 0. -1.
        -13    1    1    2    0    0 -0.20287844545E+02 -0.11924406215E+03  0.27598553024E+03  0.30132833763E+03  0.10566000000E+00 0.  1.
<mgrwt>
<rscale>  1 0.59437642E+03</rscale>
<asrwt>0</asrwt>
<pdfrwt beam="2">  1       21 0.30747620E-01 0.10105031E+04</pdfrwt>
<pdfrwt beam="1">  1       -4 0.25421753E+00 0.10105031E+04</pdfrwt>
<totfact> 0.24710147E+01</totfact>
</mgrwt>
</event>
<event>
 6    2  0.2321478E-005  0.1045833E+04  0.7818608E-02  0.9713002E-01
         -4   -1    0    0    0  501 -0.00000000000E+00  0.00000000000E+00  0.62608759994E+03  0.62608759994E+03  0.00000000000E+00 0. -1.
         21   -1    0    0  501  502  0.00000000000E+00 -0.00000000000E+00 -0.71351296600E+03  0.71351296600E+03  0.00000000000E+00 0. -1.
   -9000010    2    1    2    0  502 -0.17192115770E+03 -0.12555272147E+03 -0.24572161529E+03  0.10743118854E+04  0.10239367874E+04 0.  0.
         13    1    3    3    0    0 -0.13874278750E+00 -0.45348926064E+03  0.19937330815E+03  0.49538092003E+03  0.10566000000E+00 0. -1.
         -4    1    3    3    0  502 -0.17178241491E+03  0.32793653917E+03 -0.44509492344E+03  0.57893096537E+03  0.00000000000E+00 0. -1.
        -13    1    1    2    0    0  0.17192115770E+03  0.12555272147E+03  0.15829624923E+03  0.26528868053E+03  0.10566000000E+00 0.  1.
<mgrwt>
<rscale>  1 0.70247923E+03</rscale>
<asrwt>0</asrwt>
<pdfrwt beam="2">  1       21 0.10977122E+00 0.10458331E+04</pdfrwt>
<pdfrwt beam="1">  1       -4 0.96321170E-01 0.10458331E+04</pdfrwt>
<totfact> 0.21917748E+01</totfact>
</mgrwt>
</event>
<event>
 6    2  0.2321478E-005  0.1098904E+04  0.7818608E-02  0.9613994E-01
         21   -1    0    0  501  502  0.00000000000E+00  0.00000000000E+00  0.40051936191E+03  0.40051936191E+03  0.00000000000E+00 0. -1.
         -4   -1    0    0    0  501 -0.00000000000E+00 -0.00000000000E+00 -0.12293142025E+04  0.12293142025E+04  0.00000000000E+00 0. -1.
   -9000010    2    1    2    0  502 -0.11914857386E+03 -0.22706777252E+03 -0.48558864416E+03  0.12014101052E+04  0.10685662139E+04 0.  0.
         13    1    3    3    0    0  0.96791814152E+02 -0.13487306788E+03 -0.79547754990E+03  0.81261549535E+03  0.10566000000E+00 0. -1.
         -4    1    3    3    0  502 -0.21594038801E+03 -0.92194704645E+02  0.30988890574E+03  0.38879460984E+03  0.00000000000E+00 0. -1.
        -13    1    1    2    0    0  0.11914857386E+03  0.22706777252E+03 -0.34320619639E+03  0.42842345918E+03  0.10566000000E+00 0.  1.
<mgrwt>
<rscale>  1 0.76376871E+03</rscale>
<asrwt>0</asrwt>
<pdfrwt beam="1">  1       21 0.61618363E-01 0.10989040E+04</pdfrwt>
<pdfrwt beam="2">  1       -4 0.18912526E+00 0.10989040E+04</pdfrwt>
<totfact> 0.14624891E+01</totfact>
</mgrwt>
</event>
<event>
 6    2  0.2321478E-005  0.1004408E+04  0.7818608E-02  0.9951726E-01
         -4   -1    0    0    0  501 -0.00000000000E+00  0.00000000000E+00  0.13633013160E+04  0.13633013160E+04  0.00000000000E+00 0. -1.
         21   -1    0    0  501  502  0.00000000000E+00 -0.00000000000E+00 -0.22787868393E+03  0.22787868393E+03  0.00000000000E+00 0. -1.
   -9000010    2    1    2    0  502  0.42800233506E+02  0.10164746485E+03  0.10276344913E+04  0.14369646909E+04  0.99833401621E+03 0.  0.
         13    1    3    3    0    0 -0.10968314614E+03  0.94995994407E+02 -0.17349595135E+03  0.22617578960E+03  0.10566000000E+00 0. -1.
         -4    1    3    3    0  502  0.15248337965E+03  0.66514704406E+01  0.12011304427E+04  0.12107889013E+04  0.00000000000E+00 0. -1.
        -13    1    1    2    0    0 -0.42800233506E+02 -0.10164746485E+03  0.10778814075E+03  0.15421530906E+03  0.10566000000E+00 0.  1.
<mgrwt>
<rscale>  1 0.57818589E+03</rscale>
<asrwt>0</asrwt>
<pdfrwt beam="2">  1       21 0.35058260E-01 0.10044077E+04</pdfrwt>
<pdfrwt beam="1">  1       -4 0.20973866E+00 0.10044077E+04</pdfrwt>
<totfact> 0.36068690E+01</totfact>
</mgrwt>
</event>
<event>
 6    2  0.2321478E-005  0.9990932E+03  0.7818608E-02  0.9746769E-01
         21   -1    0    0  501  502  0.00000000000E+00  0.00000000000E+00  0.85994406128E+03  0.85994406128E+03  0.00000000000E+00 0. -1.
         -4   -1    0    0    0  501 -0.00000000000E+00 -0.00000000000E+00 -0.52029118474E+03  0.52029118474E+03  0.00000000000E+00 0. -1.
   -9000010    2    1    2    0  502 -0.17591520360E+03  0.12908325234E+03  0.49244580459E+03  0.11138626969E+04  0.97497620083E+03 0.  0.
         13    1    3    3    0    0  0.39902894383E+03 -0.20794839075E+02  0.25505651698E+03  0.47403624478E+03  0.10566000000E+00 0. -1.
         -4    1    3    3    0  502 -0.57494414743E+03  0.14987809141E+03  0.23738928761E+03  0.63982645212E+03  0.00000000000E+00 0. -1.
        -13    1    1    2    0    0  0.17591520360E+03 -0.12908325234E+03 -0.15279292806E+03  0.26637254911E+03  0.10566000000E+00 0.  1.
<mgrwt>
<rscale>  1 0.68299142E+03</rscale>
<asrwt>0</asrwt>
<pdfrwt beam="1">  1       21 0.13229909E+00 0.99909321E+03</pdfrwt>
<pdfrwt beam="2">  1       -4 0.80044798E-01 0.99909321E+03</pdfrwt>
<totfact> 0.20909349E+01</totfact>
</mgrwt>
</event>
<event>
 6    2  0.2321478E-005  0.9926745E+03  0.7818608E-02  0.1003317E+00
         -4   -1    0    0    0  501 -0.00000000000E+00  0.00000000000E+00  0.53847812267E+03  0.53847812267E+03  0.00000000000E+00 0. -1.
         21   -1    0    0  501  502  0.00000000000E+00 -0.00000000000E+00 -0.58150202944E+03  0.58150202944E+03  0.00000000000E+00 0. -1.
   -9000010    2    1    2    0  502  0.45419064555E+02 -0.75779920114E+02 -0.12368290159E+03  0.10003500040E+04  0.98873514286E+03 0.  0.
         13    1    3    3    0    0  0.20659127431E+03  0.38406955760E+03 -0.24222627655E+03  0.49886166410E+03  0.10566000000E+00 0. -1.
         -4    1    3    3    0  502 -0.16117220976E+03 -0.45984947771E+03  0.11854337496E+03  0.50148833994E+03  0.00000000000E+00 0. -1.
        -13    1    1    2    0    0 -0.45419064555E+02  0.75779920114E+02  0.80658994810E+02  0.11963014806E+03  0.10566000000E+00 0.  1.
<mgrwt>
<rscale>  1 0.54219466E+03</rscale>
<asrwt>0</asrwt>
<pdfrwt beam="2">  1       21 0.89461852E-01 0.99267450E+03</pdfrwt>
<pdfrwt beam="1">  1       -4 0.82842787E-01 0.99267450E+03</pdfrwt>
<totfact> 0.52064527E+01</totfact>
</mgrwt>
</event>
<event>
 6    2  0.2321478E-005  0.1136592E+04  0.7818608E-02  0.9388762E-01
         -4   -1    0    0    0  501 -0.00000000000E+00  0.00000000000E+00  0.15387526834E+04  0.15387526834E+04  0.00000000000E+00 0. -1.
         21   -1    0    0  501  502  0.00000000000E+00 -0.00000000000E+00 -0.74452494826E+03  0.74452494826E+03  0.00000000000E+00 0. -1.
   -9000010    2    1    2    0  502 -0.40095158822E+03  0.31454535720E+03 -0.21122512362E+03  0.11560525343E+04  0.10159431339E+04 0.  0.
         13    1    3    3    0    0  0.28592700310E+03  0.24375787560E+03 -0.27053773292E+03  0.46299333593E+03  0.10566000000E+00 0. -1.
         -4    1    3    3    0  502 -0.68687859132E+03  0.70787481597E+02  0.59312609298E+02  0.69305919833E+03  0.00000000000E+00 0. -1.
        -13    1    1    2    0    0  0.40095158822E+03 -0.31454535720E+03  0.10054528587E+04  0.11272250974E+04  0.10566000000E+00 0.  1.
<mgrwt>
<rscale>  1 0.93006360E+03</rscale>
<asrwt>0</asrwt>
<pdfrwt beam="2">  1       21 0.11454230E+00 0.11365920E+04</pdfrwt>
<pdfrwt beam="1">  1       -4 0.23673118E+00 0.11365920E+04</pdfrwt>
<totfact> 0.16215109E+00</totfact>
</mgrwt>
</event>
<event>
 6    2  0.2321478E-005  0.9771715E+03  0.7818608E-02  0.9848872E-01
         -4   -1    0    0    0  501 -0.00000000000E+00  0.00000000000E+00  0.99708362812E+03  0.99708362812E+03  0.00000000000E+00 0. -1.
         21   -1    0    0  501  502  0.00000000000E+00 -0.00000000000E+00 -0.48522146290E+03  0.48522146290E+03  0.00000000000E+00 0. -1.
   -9000010    2    1    2    0  502  0.69145490349E+02 -0.15173107237E+03  0.35734996231E+02  0.97782465594E+03  0.96283988838E+03 0.  0.
         13    1    3    3    0    0  0.18965530009E+03 -0.49389574137E+03 -0.17627224131E+03  0.55765047334E+03  0.10566000000E+00 0. -1.
         -4    1    3    3    0  502 -0.12050980974E+03  0.34216466900E+03  0.21200723754E+03  0.42017418260E+03  0.00000000000E+00 0. -1.
        -13    1    1    2    0    0 -0.69145490349E+02  0.15173107237E+03  0.47612716899E+03  0.50448043508E+03  0.10566000000E+00 0.  1.
<mgrwt>
<rscale>  1 0.62804444E+03</rscale>
<asrwt>0</asrwt>
<pdfrwt beam="2">  1       21 0.74649456E-01 0.97717146E+03</pdfrwt>
<pdfrwt beam="1">  1       -4 0.15339748E+00 0.97717146E+03</pdfrwt>
<totfact> 0.17282436E+01</totfact>
</mgrwt>
</event>
<event>
 6    2  0.2321478E-005  0.1008221E+04  0.7818608E-02  0.1011524E+00
         -4   -1    0    0    0  501 -0.00000000000E+00  0.00000000000E+00  0.48854774590E+03  0.48854774590E+03  0.00000000000E+00 0. -1.
         21   -1    0    0  501  502  0.00000000000E+00 -0.00000000000E+00 -0.60820044840E+03  0.60820044840E+03  0.00000000000E+00 0. -1.
   -9000010    2    1    2    0  502  0.28880489420E+01 -0.65292663676E+02 -0.15867073579E+03  0.10206305824E+04  0.10061008451E+04 0.  0.
         13    1    3    3    0    0 -0.17617914646E+03  0.13129590160E+03 -0.52432830325E+03  0.56850495703E+03  0.10566000000E+00 0. -1.
         -4    1    3    3    0  502  0.17906719540E+03 -0.19658856527E+03  0.36565756746E+03  0.45212562536E+03  0.00000000000E+00 0. -1.
        -13    1    1    2    0    0 -0.28880489420E+01  0.65292663676E+02  0.39018033285E+02  0.76117611904E+02  0.10566000000E+00 0.  1.
<mgrwt>
<rscale>  1 0.50873226E+03</rscale>
<asrwt>0</asrwt>
<pdfrwt beam="2">  1       21 0.93569300E-01 0.10082214E+04</pdfrwt>
<pdfrwt beam="1">  1       -4 0.75161192E-01 0.10082214E+04</pdfrwt>
<totfact> 0.58289931E+01</totfact>
</mgrwt>
</event>
<event>
 6    2  0.2321478E-005  0.1131958E+04  0.7818608E-02  0.9381374E-01
         21   -1    0    0  501  502  0.00000000000E+00  0.00000000000E+00  0.12873450365E+04  0.12873450365E+04  0.00000000000E+00 0.  1.
         -4   -1    0    0    0  501 -0.00000000000E+00 -0.00000000000E+00 -0.59236661831E+03  0.59236661831E+03  0.00000000000E+00 0. -1.
   -9000010    2    1    2    0  502 -0.52780959984E+03  0.45255576106E+02  0.73306706549E+03  0.13485979221E+04  0.10003489351E+04 0.  0.
         13    1    3    3    0    0 -0.72025111659E+03 -0.16930206804E+03  0.75808140028E+03  0.10592980137E+04  0.10566000000E+00 0. -1.
         -4    1    3    3    0  502  0.19244151675E+03  0.21455764415E+03 -0.25014334796E+02  0.28929990836E+03  0.00000000000E+00 0. -1.
        -13    1    1    2    0    0  0.52780959984E+03 -0.45255576106E+02 -0.38088647338E+02  0.53111373271E+03  0.10566000000E+00 0.  1.
<mgrwt>
<rscale>  1 0.93624544E+03</rscale>
<asrwt>0</asrwt>
<pdfrwt beam="1">  1       21 0.19805308E+00 0.11319581E+04</pdfrwt>
<pdfrwt beam="2">  1       -4 0.91133326E-01 0.11319581E+04</pdfrwt>
<totfact> 0.47412465E+00</totfact>
</mgrwt>
</event>
<event>
 6    2  0.2321478E-005  0.1012694E+04  0.7818608E-02  0.1004674E+00
         21   -1    0    0  501  502  0.00000000000E+00  0.00000000000E+00  0.17751392539E+03  0.17751392539E+03  0.00000000000E+00 0. -1.
         -4   -1    0    0    0  501 -0.00000000000E+00 -0.00000000000E+00 -0.17360447359E+04  0.17360447359E+04  0.00000000000E+00 0. -1.
   -9000010    2    1    2    0  502  0.21383303994E+01  0.79726194682E+02 -0.15161143817E+04  0.18232259254E+04  0.10095489677E+04 0.  0.
         13    1    3    3    0    0 -0.24780404541E+03 -0.30950216917E+03 -0.11978028165E+04  0.12617170982E+04  0.10566000000E+00 0. -1.
         -4    1    3    3    0  502  0.24994237581E+03  0.38922836385E+03 -0.31831156524E+03  0.56150882720E+03  0.00000000000E+00 0. -1.
        -13    1    1    2    0    0 -0.21383303994E+01 -0.79726194682E+02 -0.42416428812E+02  0.90332735886E+02  0.10566000000E+00 0.  1.
<mgrwt>
<rscale>  1 0.53647348E+03</rscale>
<asrwt>0</asrwt>
<pdfrwt beam="1">  1       21 0.27309836E-01 0.10126944E+04</pdfrwt>
<pdfrwt beam="2">  1       -4 0.26708380E+00 0.10126944E+04</pdfrwt>
<totfact> 0.26122156E+01</totfact>
</mgrwt>
</event>
<event>
 6    2  0.2321478E-005  0.1279693E+04  0.7818608E-02  0.9166319E-01
         -4   -1    0    0    0  501 -0.00000000000E+00  0.00000000000E+00  0.19285022721E+04  0.19285022721E+04  0.00000000000E+00 0. -1.
         21   -1    0    0  501  502  0.00000000000E+00 -0.00000000000E+00 -0.59154794659E+03  0.59154794659E+03  0.00000000000E+00 0. -1.
   -9000010    2    1    2    0  502  0.70986005596E+03 -0.38634154006E+03  0.10725215589E+04  0.16697057097E+04  0.99219634055E+03 0.  0.
         13    1    3    3    0    0  0.26551482919E+03  0.33732847827E+03  0.39466880793E+03  0.58313986820E+03  0.10566000000E+00 0. -1.
         -4    1    3    3    0  502  0.44434522678E+03 -0.72367001833E+03  0.67785275097E+03  0.10865658415E+04  0.00000000000E+00 0. -1.
        -13    1    1    2    0    0 -0.70986005596E+03  0.38634154006E+03  0.26443276658E+03  0.85034450891E+03  0.10566000000E+00 0.  1.
<mgrwt>
<rscale>  1 0.11407934E+04</rscale>
<asrwt>0</asrwt>
<pdfrwt beam="2">  1       21 0.91007377E-01 0.12796932E+04</pdfrwt>
<pdfrwt beam="1">  1       -4 0.29669265E+00 0.12796932E+04</pdfrwt>
<totfact> 0.11997848E+00</totfact>
</mgrwt>
</event>
<event>
 6    2  0.2321478E-005  0.1035989E+04  0.7818608E-02  0.9649601E-01
         -4   -1    0    0    0  501 -0.00000000000E+00  0.00000000000E+00  0.66674315300E+03  0.66674315300E+03  0.00000000000E+00 0. -1.
         21   -1    0    0  501  502  0.00000000000E+00 -0.00000000000E+00 -0.65923552971E+03  0.65923552971E+03  0.00000000000E+00 0. -1.
   -9000010    2    1    2    0  502  0.22632566258E+03  0.14928473381E+03 -0.85086851206E+02  0.10394773997E+04  0.99988212054E+03 0.  0.
         13    1    3    3    0    0  0.20303734393E+03 -0.37011622605E+03 -0.25415993138E+03  0.49275497532E+03  0.10566000000E+00 0. -1.
         -4    1    3    3    0  502  0.23288318650E+02  0.51940095986E+03  0.16907308017E+03  0.54672242439E+03  0.00000000000E+00 0. -1.
        -13    1    1    2    0    0 -0.22632566258E+03 -0.14928473381E+03  0.92594474489E+02  0.28650128300E+03  0.10566000000E+00 0.  1.
<mgrwt>
<rscale>  1 0.74098454E+03</rscale>
<asrwt>0</asrwt>
<pdfrwt beam="2">  1       21 0.10142085E+00 0.10359891E+04</pdfrwt>
<pdfrwt beam="1">  1       -4 0.10257587E+00 0.10359891E+04</pdfrwt>
<totfact> 0.23004955E+01</totfact>
</mgrwt>
</event>
<event>
 6    2  0.2321478E-005  0.1063828E+04  0.7818608E-02  0.9568545E-01
         -4   -1    0    0    0  501 -0.00000000000E+00  0.00000000000E+00  0.88322991966E+03  0.88322991966E+03  0.00000000000E+00 0. -1.
         21   -1    0    0  501  502  0.00000000000E+00 -0.00000000000E+00 -0.10224070467E+04  0.10224070467E+04  0.00000000000E+00 0. -1.
   -9000010    2    1    2    0  502 -0.14721316391E+03  0.29572731037E+03 -0.68667758463E+03  0.12661972742E+04  0.10112383865E+04 0.  0.
         13    1    3    3    0    0 -0.47950920531E+03  0.38142726340E+03 -0.69031106017E+03  0.92300877905E+03  0.10566000000E+00 0. -1.
         -4    1    3    3    0  502  0.33229604139E+03 -0.85699953027E+02  0.36334755361E+01  0.34318849517E+03  0.00000000000E+00 0. -1.
        -13    1    1    2    0    0  0.14721316391E+03 -0.29572731037E+03  0.54750045756E+03  0.63943969217E+03  0.10566000000E+00 0.  1.
<mgrwt>
<rscale>  1 0.79413565E+03</rscale>
<asrwt>0</asrwt>
<pdfrwt beam="2">  1       21 0.15729339E+00 0.10638277E+04</pdfrwt>
<pdfrwt beam="1">  1       -4 0.13588153E+00 0.10638277E+04</pdfrwt>
<totfact> 0.35446536E+00</totfact>
</mgrwt>
</event>
<event>
 6    2  0.2321478E-005  0.1067463E+04  0.7818608E-02  0.9545909E-01
         -4   -1    0    0    0  501 -0.00000000000E+00  0.00000000000E+00  0.17963744448E+04  0.17963744448E+04  0.00000000000E+00 0. -1.
         21   -1    0    0  501  502  0.00000000000E+00 -0.00000000000E+00 -0.35582006000E+03  0.35582006000E+03  0.00000000000E+00 0. -1.
   -9000010    2    1    2    0  502  0.33051735544E+03  0.12563154331E+03  0.56462879365E+03  0.12075937112E+04  0.10072000247E+04 0.  0.
         13    1    3    3    0    0  0.67025050992E+03  0.99164642225E+02  0.53914580010E+03  0.86587965517E+03  0.10566000000E+00 0. -1.
         -4    1    3    3    0  502 -0.33973315448E+03  0.26466901089E+02  0.25482993550E+02  0.34171405599E+03  0.00000000000E+00 0. -1.
        -13    1    1    2    0    0 -0.33051735544E+03 -0.12563154331E+03  0.87592559111E+03  0.94460079359E+03  0.10566000000E+00 0.  1.
<mgrwt>
<rscale>  1 0.80982128E+03</rscale>
<asrwt>0</asrwt>
<pdfrwt beam="2">  1       21 0.54741549E-01 0.10674628E+04</pdfrwt>
<pdfrwt beam="1">  1       -4 0.27636529E+00 0.10674628E+04</pdfrwt>
<totfact> 0.53232172E+00</totfact>
</mgrwt>
</event>
<event>
 6    2  0.2321478E-005  0.9656039E+03  0.7818608E-02  0.9676877E-01
         -4   -1    0    0    0  501 -0.00000000000E+00  0.00000000000E+00  0.37342102050E+03  0.37342102050E+03  0.00000000000E+00 0. -1.
         21   -1    0    0  501  502  0.00000000000E+00 -0.00000000000E+00 -0.11272210321E+04  0.11272210321E+04  0.00000000000E+00 0. -1.
   -9000010    2    1    2    0  502  0.38887823461E+02 -0.30286942816E+03 -0.69490870810E+03  0.11896591751E+04  0.91605059188E+03 0.  0.
         13    1    3    3    0    0  0.32248342584E+03  0.20525849377E+03 -0.24408570111E+03  0.45354652447E+03  0.10566000000E+00 0. -1.
         -4    1    3    3    0  502 -0.28359560238E+03 -0.50812792192E+03 -0.45082300698E+03  0.73611265059E+03  0.00000000000E+00 0. -1.
        -13    1    1    2    0    0 -0.38887823461E+02  0.30286942816E+03 -0.58891303483E+02  0.31098287753E+03  0.10566000000E+00 0.  1.
<mgrwt>
<rscale>  1 0.72410374E+03</rscale>
<asrwt>0</asrwt>
<pdfrwt beam="2">  1       21 0.17341862E+00 0.96560387E+03</pdfrwt>
<pdfrwt beam="1">  1       -4 0.57449389E-01 0.96560387E+03</pdfrwt>
<totfact> 0.20580028E+01</totfact>
</mgrwt>
</event>
<event>
 6    2  0.2321478E-005  0.1105659E+04  0.7818608E-02  0.9524720E-01
         21   -1    0    0  501  502  0.00000000000E+00  0.00000000000E+00  0.11300250578E+04  0.11300250578E+04  0.00000000000E+00 0.  1.
         -4   -1    0    0    0  501 -0.00000000000E+00 -0.00000000000E+00 -0.48105189973E+03  0.48105189973E+03  0.00000000000E+00 0. -1.
   -9000010    2    1    2    0  502 -0.32711747789E+03 -0.10145921101E+03  0.35948395632E+03  0.11626309464E+04  0.10512764559E+04 0.  0.
         13    1    3    3    0    0 -0.69863473278E+03  0.36966558241E+02  0.15516675117E+03  0.71661269045E+03  0.10566000000E+00 0. -1.
         -4    1    3    3    0  502  0.37151725490E+03 -0.13842576925E+03  0.20431720515E+03  0.44601825590E+03  0.00000000000E+00 0. -1.
        -13    1    1    2    0    0  0.32711747789E+03  0.10145921101E+03  0.28948920174E+03  0.44844601116E+03  0.10566000000E+00 0.  1.
<mgrwt>
<rscale>  1 0.82485603E+03</rscale>
<asrwt>0</asrwt>
<pdfrwt beam="1">  1       21 0.17385001E+00 0.11056591E+04</pdfrwt>
<pdfrwt beam="2">  1       -4 0.74007985E-01 0.11056591E+04</pdfrwt>
<totfact> 0.11478189E+01</totfact>
</mgrwt>
</event>
<event>
 6    2  0.2321478E-005  0.1000891E+04  0.7818608E-02  0.1013676E+00
         -4   -1    0    0    0  501 -0.00000000000E+00  0.00000000000E+00  0.68069935132E+03  0.68069935132E+03  0.00000000000E+00 0. -1.
         21   -1    0    0  501  502  0.00000000000E+00 -0.00000000000E+00 -0.46172453075E+03  0.46172453075E+03  0.00000000000E+00 0. -1.
   -9000010    2    1    2    0  502  0.27718945837E+02  0.56050165289E+02  0.97283873240E+02  0.10056077324E+04  0.99893583300E+03 0.  0.
         13    1    3    3    0    0 -0.22619104438E+03 -0.40945144218E+03  0.76428233540E+01  0.46783682623E+03  0.10566000000E+00 0. -1.
         -4    1    3    3    0  502  0.25390999022E+03  0.46550160747E+03  0.89641049886E+02  0.53777090616E+03  0.00000000000E+00 0. -1.
        -13    1    1    2    0    0 -0.27718945837E+02 -0.56050165289E+02  0.12169094733E+03  0.13681614968E+03  0.10566000000E+00 0.  1.
<mgrwt>
<rscale>  1 0.50039365E+03</rscale>
<asrwt>0</asrwt>
<pdfrwt beam="2">  1       21 0.71034543E-01 0.10008910E+04</pdfrwt>
<pdfrwt beam="1">  1       -4 0.10472298E+00 0.10008910E+04</pdfrwt>
<totfact> 0.51326757E+01</totfact>
</mgrwt>
</event>
<event>
 6    2  0.2321478E-005  0.1033085E+04  0.7818608E-02  0.9711861E-01
         21   -1    0    0  501  502  0.00000000000E+00  0.00000000000E+00  0.49608171491E+03  0.49608171491E+03  0.00000000000E+00 0. -1.
         -4   -1    0    0    0  501 -0.00000000000E+00 -0.00000000000E+00 -0.10461690123E+04  0.10461690123E+04  0.00000000000E+00 0. -1.
   -9000010    2    1    2    0  502  0.18113711323E+03 -0.12784399193E+03 -0.96753334834E+02  0.10376058691E+04  0.10090143664E+04 0.  0.
         13    1    3    3    0    0  0.12573753059E+03 -0.66587376248E+01  0.45390995850E+03  0.47105045056E+03  0.10566000000E+00 0. -1.
         -4    1    3    3    0  502  0.55399582643E+02 -0.12118525431E+03 -0.55066329334E+03  0.56655541851E+03  0.00000000000E+00 0. -1.
        -13    1    1    2    0    0 -0.18113711323E+03  0.12784399193E+03 -0.45333396255E+03  0.50464485812E+03  0.10566000000E+00 0.  1.
<mgrwt>
<rscale>  1 0.70314962E+03</rscale>
<asrwt>0</asrwt>
<pdfrwt beam="1">  1       21 0.76320264E-01 0.10330851E+04</pdfrwt>
<pdfrwt beam="2">  1       -4 0.16094908E+00 0.10330851E+04</pdfrwt>
<totfact> 0.14310790E+01</totfact>
</mgrwt>
</event>
<event>
 6    2  0.2321478E-005  0.1205796E+04  0.7818608E-02  0.9592920E-01
         21   -1    0    0  501  502  0.00000000000E+00  0.00000000000E+00  0.89987310232E+03  0.89987310232E+03  0.00000000000E+00 0. -1.
         -4   -1    0    0    0  501 -0.00000000000E+00 -0.00000000000E+00 -0.58110048120E+03  0.58110048120E+03  0.00000000000E+00 0. -1.
   -9000010    2    1    2    0  502 -0.20274825451E+03  0.49135329729E+02  0.37879300682E+03  0.12638938903E+04  0.11876120952E+04 0.  0.
         13    1    3    3    0    0  0.62857876241E+02 -0.48447593217E+02  0.77387414757E+03  0.77793283086E+03  0.10566000000E+00 0. -1.
         -4    1    3    3    0  502 -0.26560613075E+03  0.97582922946E+02 -0.39508114074E+03  0.48596105946E+03  0.00000000000E+00 0. -1.
        -13    1    1    2    0    0  0.20274825451E+03 -0.49135329729E+02 -0.60020385710E+02  0.21707969320E+03  0.10566000000E+00 0.  1.
<mgrwt>
<rscale>  1 0.77766558E+03</rscale>
<asrwt>0</asrwt>
<pdfrwt beam="1">  1       21 0.13844202E+00 0.12057958E+04</pdfrwt>
<pdfrwt beam="2">  1       -4 0.89400074E-01 0.12057958E+04</pdfrwt>
<totfact> 0.14018858E+01</totfact>
</mgrwt>
</event>
<event>
 6    2  0.2321478E-005  0.1033962E+04  0.7818608E-02  0.9693571E-01
         -4   -1    0    0    0  501 -0.00000000000E+00  0.00000000000E+00  0.10062572828E+04  0.10062572828E+04  0.00000000000E+00 0. -1.
         21   -1    0    0  501  502  0.00000000000E+00 -0.00000000000E+00 -0.47860500843E+03  0.47860500843E+03  0.00000000000E+00 0. -1.
   -9000010    2    1    2    0  502  0.22867777083E+03 -0.54686470936E+02  0.15684245646E+03  0.10457904689E+04  0.10068733861E+04 0.  0.
         13    1    3    3    0    0  0.17877977510E+02  0.14032936595E+02 -0.42372105854E+03  0.42433016862E+03  0.10566000000E+00 0. -1.
         -4    1    3    3    0  502  0.21079979332E+03 -0.68719407531E+02  0.58056351499E+03  0.62146030024E+03  0.00000000000E+00 0. -1.
        -13    1    1    2    0    0 -0.22867777083E+03  0.54686470936E+02  0.37080981792E+03  0.43907182238E+03  0.10566000000E+00 0.  1.
<mgrwt>
<rscale>  1 0.71400889E+03</rscale>
<asrwt>0</asrwt>
<pdfrwt beam="2">  1       21 0.73631540E-01 0.10339624E+04</pdfrwt>
<pdfrwt beam="1">  1       -4 0.15480881E+00 0.10339624E+04</pdfrwt>
<totfact> 0.17304485E+01</totfact>
</mgrwt>
</event>
<event>
 6    2  0.2321478E-005  0.1151953E+04  0.7818608E-02  0.9323722E-01
         -4   -1    0    0    0  501 -0.00000000000E+00  0.00000000000E+00  0.18807102512E+04  0.18807102512E+04  0.00000000000E+00 0. -1.
         21   -1    0    0  501  502  0.00000000000E+00 -0.00000000000E+00 -0.60186503835E+03  0.60186503835E+03  0.00000000000E+00 0. -1.
   -9000010    2    1    2    0  502 -0.61893641226E+03 -0.93866274538E+01  0.10652735553E+03  0.11568680968E+04  0.97150672909E+03 0.  0.
         13    1    3    3    0    0 -0.12769667042E+03  0.34873985299E+03  0.34206495645E+03  0.50491025964E+03  0.10566000000E+00 0. -1.
         -4    1    3    3    0  502 -0.49123974184E+03 -0.35812648044E+03 -0.23553760092E+03  0.65195783713E+03  0.00000000000E+00 0. -1.
        -13    1    1    2    0    0  0.61893641226E+03  0.93866274538E+01  0.11723178574E+04  0.13257071928E+04  0.10566000000E+00 0.  1.
<mgrwt>
<rscale>  1 0.98627963E+03</rscale>
<asrwt>0</asrwt>
<pdfrwt beam="2">  1       21 0.92594623E-01 0.11519530E+04</pdfrwt>
<pdfrwt beam="1">  1       -4 0.28934003E+00 0.11519530E+04</pdfrwt>
<totfact> 0.13006189E+00</totfact>
</mgrwt>
</event>
<event>
 6    2  0.2321478E-005  0.1046584E+04  0.7818608E-02  0.1010022E+00
         -4   -1    0    0    0  501 -0.00000000000E+00  0.00000000000E+00  0.24063082466E+04  0.24063082466E+04  0.00000000000E+00 0. -1.
         21   -1    0    0  501  502  0.00000000000E+00 -0.00000000000E+00 -0.13558181530E+03  0.13558181530E+03  0.00000000000E+00 0. -1.
   -9000010    2    1    2    0  502  0.63134807504E+01  0.60874015266E+02  0.19280377921E+04  0.21937794180E+04  0.10447932338E+04 0.  0.
         13    1    3    3    0    0  0.41311363753E+03 -0.23120161580E+03  0.53984805379E+03  0.71802019262E+03  0.10566000000E+00 0. -1.
         -4    1    3    3    0  502 -0.40680015678E+03  0.29207563106E+03  0.13881897383E+04  0.14757592254E+04  0.00000000000E+00 0. -1.
        -13    1    1    2    0    0 -0.63134807504E+01 -0.60874015266E+02  0.34268863925E+03  0.34811064392E+03  0.10566000000E+00 0.  1.
<mgrwt>
<rscale>  1 0.51465902E+03</rscale>
<asrwt>0</asrwt>
<pdfrwt beam="2">  1       21 0.20858743E-01 0.10465842E+04</pdfrwt>
<pdfrwt beam="1">  1       -4 0.37020124E+00 0.10465842E+04</pdfrwt>
<totfact> 0.98670898E+00</totfact>
</mgrwt>
</event>
<event>
 6    2  0.2321478E-005  0.1047941E+04  0.7818608E-02  0.9611998E-01
         21   -1    0    0  501  502  0.00000000000E+00  0.00000000000E+00  0.57648707890E+03  0.57648707890E+03  0.00000000000E+00 0. -1.
         -4   -1    0    0    0  501 -0.00000000000E+00 -0.00000000000E+00 -0.11193183300E+04  0.11193183300E+04  0.00000000000E+00 0. -1.
   -9000010    2    1    2    0  502  0.27981607452E+03  0.10166517816E+03  0.32027240295E+02  0.10484298299E+04  0.10047619221E+04 0.  0.
         13    1    3    3    0    0 -0.36430225724E+03 -0.71012161427E+02  0.80568450987E+02  0.37980277535E+03  0.10566000000E+00 0. -1.
         -4    1    3    3    0  502  0.64411833176E+03  0.17267733959E+03 -0.48541210692E+02  0.66862705454E+03  0.00000000000E+00 0. -1.
        -13    1    1    2    0    0 -0.27981607452E+03 -0.10166517816E+03 -0.57485849139E+03  0.64737557901E+03  0.10566000000E+00 0.  1.
<mgrwt>
<rscale>  1 0.76507114E+03</rscale>
<asrwt>0</asrwt>
<pdfrwt beam="1">  1       21 0.88690321E-01 0.10479405E+04</pdfrwt>
<pdfrwt beam="2">  1       -4 0.17220282E+00 0.10479405E+04</pdfrwt>
<totfact> 0.82853857E+00</totfact>
</mgrwt>
</event>
<event>
 6    2  0.2321478E-005  0.7992092E+03  0.7818608E-02  0.1028654E+00
         -4   -1    0    0    0  501 -0.00000000000E+00  0.00000000000E+00  0.38074399671E+03  0.38074399671E+03  0.00000000000E+00 0. -1.
         21   -1    0    0  501  502  0.00000000000E+00 -0.00000000000E+00 -0.51788437176E+03  0.51788437176E+03  0.00000000000E+00 0. -1.
   -9000010    2    1    2    0  502  0.62447368598E+02  0.46953749933E+02 -0.16427999357E+03  0.81591864391E+03  0.79538103367E+03 0.  0.
         13    1    3    3    0    0  0.26295093232E+03 -0.28903319843E+03  0.20843648256E+01  0.39075278418E+03  0.10566000000E+00 0. -1.
         -4    1    3    3    0  502 -0.20050356372E+03  0.33598694836E+03 -0.16636435840E+03  0.42516585973E+03  0.00000000000E+00 0. -1.
        -13    1    1    2    0    0 -0.62447368598E+02 -0.46953749933E+02  0.27139618525E+02  0.82709724551E+02  0.10566000000E+00 0.  1.
<mgrwt>
<rscale>  1 0.44688954E+03</rscale>
<asrwt>0</asrwt>
<pdfrwt beam="2">  1       21 0.79674519E-01 0.79920918E+03</pdfrwt>
<pdfrwt beam="1">  1       -4 0.58575999E-01 0.79920918E+03</pdfrwt>
<totfact> 0.15103614E+02</totfact>
</mgrwt>
</event>
<event>
 6    2  0.2321478E-005  0.1012236E+04  0.7818608E-02  0.9820737E-01
         21   -1    0    0  501  502  0.00000000000E+00  0.00000000000E+00  0.10814621339E+03  0.10814621339E+03  0.00000000000E+00 0. -1.
         -4   -1    0    0    0  501 -0.00000000000E+00 -0.00000000000E+00 -0.33760756659E+04  0.33760756659E+04  0.00000000000E+00 0. -1.
   -9000010    2    1    2    0  502 -0.13407235108E+03  0.95177806413E+02 -0.24670359833E+04  0.26666250530E+04  0.99879348228E+03 0.  0.
         13    1    3    3    0    0 -0.19903604970E+03  0.82344869694E+02 -0.25507829122E+04  0.25598612273E+04  0.10566000000E+00 0. -1.
         -4    1    3    3    0  502  0.64963698614E+02  0.12832936719E+02  0.83746928841E+02  0.10676382577E+03  0.00000000000E+00 0. -1.
        -13    1    1    2    0    0  0.13407235108E+03 -0.95177806413E+02 -0.80089346917E+03  0.81759682624E+03  0.10566000000E+00 0.  1.
<mgrwt>
<rscale>  1 0.64261478E+03</rscale>
<asrwt>0</asrwt>
<pdfrwt beam="1">  1       21 0.16637878E-01 0.10122364E+04</pdfrwt>
<pdfrwt beam="2">  1       -4 0.51939628E+00 0.10122364E+04</pdfrwt>
<totfact> 0.12005425E+00</totfact>
</mgrwt>
</event>
<event>
 6    2  0.2321478E-005  0.1029122E+04  0.7818608E-02  0.9814507E-01
         -4   -1    0    0    0  501 -0.00000000000E+00  0.00000000000E+00  0.80909971264E+03  0.80909971264E+03  0.00000000000E+00 0. -1.
         21   -1    0    0  501  502  0.00000000000E+00 -0.00000000000E+00 -0.47976174550E+03  0.47976174550E+03  0.00000000000E+00 0. -1.
   -9000010    2    1    2    0  502 -0.15963316665E+03  0.39240974128E+01  0.13594150043E+03  0.10380620344E+04  0.10166585215E+04 0.  0.
         13    1    3    3    0    0  0.61038671354E+02  0.29713587327E+03 -0.32784443188E+03  0.44665135090E+03  0.10566000000E+00 0. -1.
         -4    1    3    3    0  502 -0.22067183800E+03 -0.29321177586E+03  0.46378593231E+03  0.59141068354E+03  0.00000000000E+00 0. -1.
        -13    1    1    2    0    0  0.15963316665E+03 -0.39240974128E+01  0.19339646670E+03  0.25079942370E+03  0.10566000000E+00 0.  1.
<mgrwt>
<rscale>  1 0.64589785E+03</rscale>
<asrwt>0</asrwt>
<pdfrwt beam="2">  1       21 0.73809500E-01 0.10291223E+04</pdfrwt>
<pdfrwt beam="1">  1       -4 0.12447688E+00 0.10291223E+04</pdfrwt>
<totfact> 0.30508007E+01</totfact>
</mgrwt>
</event>
<event>
 6    2  0.2321478E-005  0.1000917E+04  0.7818608E-02  0.1060851E+00
         -4   -1    0    0    0  501 -0.00000000000E+00  0.00000000000E+00  0.16795694941E+03  0.16795694941E+03  0.00000000000E+00 0. -1.
         21   -1    0    0  501  502  0.00000000000E+00 -0.00000000000E+00 -0.15760966287E+04  0.15760966287E+04  0.00000000000E+00 0. -1.
   -9000010    2    1    2    0  502 -0.14594186800E+02  0.58402412191E+01 -0.14089805154E+04  0.17283113777E+04  0.10007931989E+04 0.  0.
         13    1    3    3    0    0 -0.25148475703E+03  0.22569827216E+03 -0.13600920053E+04  0.14014401761E+04  0.10566000000E+00 0. -1.
         -4    1    3    3    0  502  0.23689057023E+03 -0.21985803095E+03 -0.48888510078E+02  0.32687120163E+03  0.00000000000E+00 0. -1.
        -13    1    1    2    0    0  0.14594186800E+02 -0.58402412191E+01  0.84083603281E+00  0.15742200454E+02  0.10566000000E+00 0.  1.
<mgrwt>
<rscale>  1 0.35433144E+03</rscale>
<asrwt>0</asrwt>
<pdfrwt beam="2">  1       21 0.24247640E+00 0.10009166E+04</pdfrwt>
<pdfrwt beam="1">  1       -4 0.25839531E-01 0.10009166E+04</pdfrwt>
<totfact> 0.35197952E+01</totfact>
</mgrwt>
</event>
<event>
 6    2  0.2321478E-005  0.1010414E+04  0.7818608E-02  0.9860862E-01
         -4   -1    0    0    0  501 -0.00000000000E+00  0.00000000000E+00  0.46005047253E+03  0.46005047253E+03  0.00000000000E+00 0. -1.
         21   -1    0    0  501  502  0.00000000000E+00 -0.00000000000E+00 -0.77364287152E+03  0.77364287152E+03  0.00000000000E+00 0. -1.
   -9000010    2    1    2    0  502  0.19538822672E+02  0.14374113794E+03 -0.37282608170E+03  0.10770028189E+04  0.99994625080E+03 0.  0.
         13    1    3    3    0    0  0.40311452142E+03 -0.23846288747E+03 -0.19080336468E+03  0.50573886663E+03  0.10566000000E+00 0. -1.
         -4    1    3    3    0  502 -0.38357569875E+03  0.38220402540E+03 -0.18202271702E+03  0.57126395232E+03  0.00000000000E+00 0. -1.
        -13    1    1    2    0    0 -0.19538822672E+02 -0.14374113794E+03  0.59233682704E+02  0.15669052510E+03  0.10566000000E+00 0.  1.
<mgrwt>
<rscale>  1 0.62196167E+03</rscale>
<asrwt>0</asrwt>
<pdfrwt beam="2">  1       21 0.11902198E+00 0.10104137E+04</pdfrwt>
<pdfrwt beam="1">  1       -4 0.70776997E-01 0.10104137E+04</pdfrwt>
<totfact> 0.36487534E+01</totfact>
</mgrwt>
</event>
<event>
 6    2  0.2321478E-005  0.9853658E+03  0.7818608E-02  0.9725249E-01
         -4   -1    0    0    0  501 -0.00000000000E+00  0.00000000000E+00  0.19400181391E+03  0.19400181391E+03  0.00000000000E+00 0. -1.
         21   -1    0    0  501  502  0.00000000000E+00 -0.00000000000E+00 -0.22849029509E+04  0.22849029509E+04  0.00000000000E+00 0.  1.
   -9000010    2    1    2    0  502  0.55458499276E+02 -0.23795172608E+03 -0.11876800529E+04  0.15432205195E+04  0.95459362798E+03 0.  0.
         13    1    3    3    0    0  0.66541565134E+02 -0.26886176167E+03 -0.13497410663E+04  0.13778662432E+04  0.10566000000E+00 0. -1.
         -4    1    3    3    0  502 -0.11083065858E+02  0.30910035597E+02  0.16206101337E+03  0.16535427634E+03  0.00000000000E+00 0. -1.
        -13    1    1    2    0    0 -0.55458499276E+02  0.23795172608E+03 -0.90322108409E+03  0.93568424535E+03  0.10566000000E+00 0.  1.
<mgrwt>
<rscale>  1 0.69533153E+03</rscale>
<asrwt>0</asrwt>
<pdfrwt beam="2">  1       21 0.35152352E+00 0.98536575E+03</pdfrwt>
<pdfrwt beam="1">  1       -4 0.29846434E-01 0.98536575E+03</pdfrwt>
<totfact> 0.55380050E+00</totfact>
</mgrwt>
</event>
<event>
 6    2  0.2321478E-005  0.1148131E+04  0.7818608E-02  0.9347668E-01
         -4   -1    0    0    0  501 -0.00000000000E+00  0.00000000000E+00  0.29431609547E+03  0.29431609547E+03  0.00000000000E+00 0. -1.
         21   -1    0    0  501  502  0.00000000000E+00 -0.00000000000E+00 -0.25384521511E+04  0.25384521511E+04  0.00000000000E+00 0. -1.
   -9000010    2    1    2    0  502 -0.15390590294E+02 -0.57301559113E+03 -0.16167232431E+04  0.19829267399E+04  0.99479679991E+03 0.  0.
         13    1    3    3    0    0  0.15416788983E+03 -0.10959145164E+03  0.87709086651E+02  0.20849680950E+03  0.10566000000E+00 0. -1.
         -4    1    3    3    0  502 -0.16955848012E+03 -0.46342413949E+03 -0.17044323297E+04  0.17744299304E+04  0.00000000000E+00 0. -1.
        -13    1    1    2    0    0  0.15390590294E+02  0.57301559113E+03 -0.62741281255E+03  0.84984150667E+03  0.10566000000E+00 0.  1.
<mgrwt>
<rscale>  1 0.96510440E+03</rscale>
<asrwt>0</asrwt>
<pdfrwt beam="2">  1       21 0.39053111E+00 0.11481308E+04</pdfrwt>
<pdfrwt beam="1">  1       -4 0.45279398E-01 0.11481308E+04</pdfrwt>
<totfact> 0.13009053E+00</totfact>
</mgrwt>
</event>
<event>
 6    2  0.2321478E-005  0.9925048E+03  0.7818608E-02  0.1023800E+00
         -4   -1    0    0    0  501 -0.00000000000E+00  0.00000000000E+00  0.10721898237E+03  0.10721898237E+03  0.00000000000E+00 0. -1.
         21   -1    0    0  501  502  0.00000000000E+00 -0.00000000000E+00 -0.27914928013E+04  0.27914928013E+04  0.00000000000E+00 0. -1.
   -9000010    2    1    2    0  502  0.10900686387E+02  0.45887856161E+02 -0.26714099995E+04  0.28498240621E+04  0.99138351770E+03 0.  0.
         13    1    3    3    0    0 -0.39760414251E+03  0.28792826613E+03 -0.16854302855E+04  0.17554677436E+04  0.10566000000E+00 0. -1.
         -4    1    3    3    0  502  0.40850482889E+03 -0.24204040997E+03 -0.98597971399E+03  0.10943563184E+04  0.00000000000E+00 0. -1.
        -13    1    1    2    0    0 -0.10900686387E+02 -0.45887856161E+02 -0.12863819434E+02  0.48887721579E+02  0.10566000000E+00 0.  1.
<mgrwt>
<rscale>  1 0.46339814E+03</rscale>
<asrwt>0</asrwt>
<pdfrwt beam="2">  1       21 0.42946045E+00 0.99250481E+03</pdfrwt>
<pdfrwt beam="1">  1       -4 0.16495228E-01 0.99250481E+03</pdfrwt>
<totfact> 0.52609076E+00</totfact>
</mgrwt>
</event>
<event>
 6    2  0.2321478E-005  0.1025115E+04  0.7818608E-02  0.9777186E-01
         -4   -1    0    0    0  501 -0.00000000000E+00  0.00000000000E+00  0.10464358284E+04  0.10464358284E+04  0.00000000000E+00 0. -1.
         21   -1    0    0  501  502  0.00000000000E+00 -0.00000000000E+00 -0.35154463535E+03  0.35154463535E+03  0.00000000000E+00 0. -1.
   -9000010    2    1    2    0  502  0.22677186716E+02  0.18123477464E+03  0.63457414565E+03  0.12056306374E+04  0.10087123421E+04 0.  0.
         13    1    3    3    0    0  0.95290765172E+00 -0.30204638099E+03 -0.10680577280E+03  0.32037541817E+03  0.10566000000E+00 0. -1.
         -4    1    3    3    0  502  0.21724279064E+02  0.48328115562E+03  0.74137991845E+03  0.88525521922E+03  0.00000000000E+00 0. -1.
        -13    1    1    2    0    0 -0.22677186716E+02 -0.18123477464E+03  0.60317047430E+02  0.19234982638E+03  0.10566000000E+00 0.  1.
<mgrwt>
<rscale>  1 0.66601387E+03</rscale>
<asrwt>0</asrwt>
<pdfrwt beam="2">  1       21 0.54083790E-01 0.10251151E+04</pdfrwt>
<pdfrwt beam="1">  1       -4 0.16099013E+00 0.10251151E+04</pdfrwt>
<totfact> 0.31151807E+01</totfact>
</mgrwt>
</event>
<event>
 6    2  0.2321478E-005  0.1037978E+04  0.7818608E-02  0.9648630E-01
         21   -1    0    0  501  502  0.00000000000E+00  0.00000000000E+00  0.39065024644E+03  0.39065024644E+03  0.00000000000E+00 0. -1.
         -4   -1    0    0    0  501 -0.00000000000E+00 -0.00000000000E+00 -0.13703718192E+04  0.13703718192E+04  0.00000000000E+00 0. -1.
   -9000010    2    1    2    0  502  0.26547605796E+03 -0.51678650770E+02 -0.38391313017E+03  0.11067010957E+04  0.10021226489E+04 0.  0.
         13    1    3    3    0    0  0.61137909072E+03  0.42125842447E+02 -0.46704633876E+02  0.61460581934E+03  0.10566000000E+00 0. -1.
         -4    1    3    3    0  502 -0.34590303276E+03 -0.93804493217E+02 -0.33720849630E+03  0.49209527634E+03  0.00000000000E+00 0. -1.
        -13    1    1    2    0    0 -0.26547605796E+03  0.51678650770E+02 -0.59580844260E+03  0.65432096996E+03  0.10566000000E+00 0.  1.
<mgrwt>
<rscale>  1 0.74159458E+03</rscale>
<asrwt>0</asrwt>
<pdfrwt beam="1">  1       21 0.60100038E-01 0.10379779E+04</pdfrwt>
<pdfrwt beam="2">  1       -4 0.21082643E+00 0.10379779E+04</pdfrwt>
<totfact> 0.11170339E+01</totfact>
</mgrwt>
</event>
<event>
 6    2  0.2321478E-005  0.1054183E+04  0.7818608E-02  0.9571145E-01
         21   -1    0    0  501  502  0.00000000000E+00  0.00000000000E+00  0.10098537454E+04  0.10098537454E+04  0.00000000000E+00 0. -1.
         -4   -1    0    0    0  501 -0.00000000000E+00 -0.00000000000E+00 -0.48257613854E+03  0.48257613854E+03  0.00000000000E+00 0. -1.
   -9000010    2    1    2    0  502 -0.15566624728E+03 -0.29828826014E+03  0.34168458933E+03  0.11081739198E+04  0.99904615069E+03 0.  0.
         13    1    3    3    0    0  0.48080036877E+02  0.36073537404E+03  0.13356380983E+03  0.38766093754E+03  0.10566000000E+00 0. -1.
         -4    1    3    3    0  502 -0.20374628415E+03 -0.65902363418E+03  0.20812077950E+03  0.72051298224E+03  0.00000000000E+00 0. -1.
        -13    1    1    2    0    0  0.15566624728E+03  0.29828826014E+03  0.18559301755E+03  0.38425596418E+03  0.10566000000E+00 0.  1.
<mgrwt>
<rscale>  1 0.79235816E+03</rscale>
<asrwt>0</asrwt>
<pdfrwt beam="1">  1       21 0.15536211E+00 0.10541827E+04</pdfrwt>
<pdfrwt beam="2">  1       -4 0.74242483E-01 0.10541827E+04</pdfrwt>
<totfact> 0.15874307E+01</totfact>
</mgrwt>
</event>
<event>
 6    2  0.2321478E-005  0.1016148E+04  0.7818608E-02  0.9880734E-01
         -4   -1    0    0    0  501 -0.00000000000E+00  0.00000000000E+00  0.65345352872E+03  0.65345352872E+03  0.00000000000E+00 0. -1.
         21   -1    0    0  501  502  0.00000000000E+00 -0.00000000000E+00 -0.17728183998E+04  0.17728183998E+04  0.00000000000E+00 0. -1.
   -9000010    2    1    2    0  502 -0.13268877417E+03 -0.16714436181E+02 -0.16176637644E+04  0.19103383268E+04  0.10073086841E+04 0.  0.
         13    1    3    3    0    0  0.32071737737E+03  0.18339253005E+03 -0.22607293058E+03  0.43312981579E+03  0.10566000000E+00 0. -1.
         -4    1    3    3    0  502 -0.45340615154E+03 -0.20010696623E+03 -0.13915908338E+04  0.14772085110E+04  0.00000000000E+00 0. -1.
        -13    1    1    2    0    0  0.13268877417E+03  0.16714436181E+02  0.49829889331E+03  0.51593360174E+03  0.10566000000E+00 0.  1.
<mgrwt>
<rscale>  1 0.61204155E+03</rscale>
<asrwt>0</asrwt>
<pdfrwt beam="2">  1       21 0.27274128E+00 0.10161479E+04</pdfrwt>
<pdfrwt beam="1">  1       -4 0.10053131E+00 0.10161479E+04</pdfrwt>
<totfact> 0.12455168E+00</totfact>
</mgrwt>
</event>
<event>
 6    2  0.2321478E-005  0.1025686E+04  0.7818608E-02  0.9730012E-01
         -4   -1    0    0    0  501 -0.00000000000E+00  0.00000000000E+00  0.82756998146E+03  0.82756998146E+03  0.00000000000E+00 0. -1.
         21   -1    0    0  501  502  0.00000000000E+00 -0.00000000000E+00 -0.46798154993E+03  0.46798154993E+03  0.00000000000E+00 0. -1.
   -9000010    2    1    2    0  502 -0.19971660366E+03 -0.74674522297E+02  0.24953243222E+03  0.10556029115E+04  0.10032786582E+04 0.  0.
         13    1    3    3    0    0  0.16656121471E+03  0.37197108077E+03  0.24971346949E+03  0.47797693582E+03  0.10566000000E+00 0. -1.
         -4    1    3    3    0  502 -0.36627781837E+03 -0.44664560306E+03 -0.18103726227E+00  0.57762597565E+03  0.00000000000E+00 0. -1.
        -13    1    1    2    0    0  0.19971660366E+03  0.74674522297E+02  0.11005599931E+03  0.23994861993E+03  0.10566000000E+00 0.  1.
<mgrwt>
<rscale>  1 0.69257689E+03</rscale>
<asrwt>0</asrwt>
<pdfrwt beam="2">  1       21 0.71997161E-01 0.10256857E+04</pdfrwt>
<pdfrwt beam="1">  1       -4 0.12731846E+00 0.10256857E+04</pdfrwt>
<totfact> 0.30512595E+01</totfact>
</mgrwt>
</event>
<event>
 6    2  0.2321478E-005  0.1232360E+04  0.7818608E-02  0.9287007E-01
         -4   -1    0    0    0  501 -0.00000000000E+00  0.00000000000E+00  0.14888944328E+04  0.14888944328E+04  0.00000000000E+00 0. -1.
         21   -1    0    0  501  502  0.00000000000E+00 -0.00000000000E+00 -0.55333230357E+03  0.55333230357E+03  0.00000000000E+00 0.  1.
   -9000010    2    1    2    0  502  0.55244972769E+03  0.17019264862E+03  0.70583409473E+03  0.14201807411E+04  0.10883681954E+04 0.  0.
         13    1    3    3    0    0  0.77559227496E+02 -0.44220479103E+03  0.18013242499E+03  0.48374395363E+03  0.10566000000E+00 0. -1.
         -4    1    3    3    0  502  0.47489050020E+03  0.61239743965E+03  0.52570166974E+03  0.93643678742E+03  0.00000000000E+00 0. -1.
        -13    1    1    2    0    0 -0.55244972769E+03 -0.17019264862E+03  0.22972803447E+03  0.62204599529E+03  0.10566000000E+00 0.  1.
<mgrwt>
<rscale>  1 0.10198789E+04</rscale>
<asrwt>0</asrwt>
<pdfrwt beam="2">  1       21 0.85128047E-01 0.12323602E+04</pdfrwt>
<pdfrwt beam="1">  1       -4 0.22906068E+00 0.12323602E+04</pdfrwt>
<totfact> 0.37390737E+00</totfact>
</mgrwt>
</event>
<event>
 6    2  0.2321478E-005  0.1011572E+04  0.7818608E-02  0.9955020E-01
         -4   -1    0    0    0  501 -0.00000000000E+00  0.00000000000E+00  0.18344654349E+03  0.18344654349E+03  0.00000000000E+00 0. -1.
         21   -1    0    0  501  502  0.00000000000E+00 -0.00000000000E+00 -0.21070070468E+04  0.21070070468E+04  0.00000000000E+00 0. -1.
   -9000010    2    1    2    0  502 -0.94409619179E+02  0.50013202327E+02 -0.19345388241E+04  0.21830523273E+04  0.10059137663E+04 0.  0.
         13    1    3    3    0    0 -0.50645665285E+03  0.23689266411E+03 -0.10727336193E+04  0.12096999234E+04  0.10566000000E+00 0. -1.
         -4    1    3    3    0  502  0.41204703367E+03 -0.18687946178E+03 -0.86180520486E+03  0.97335240397E+03  0.00000000000E+00 0. -1.
        -13    1    1    2    0    0  0.94409619179E+02 -0.50013202327E+02  0.10978320783E+02  0.10740126299E+03  0.10566000000E+00 0.  1.
<mgrwt>
<rscale>  1 0.57667298E+03</rscale>
<asrwt>0</asrwt>
<pdfrwt beam="2">  1       21 0.32415492E+00 0.10115716E+04</pdfrwt>
<pdfrwt beam="1">  1       -4 0.28222546E-01 0.10115716E+04</pdfrwt>
<totfact> 0.91277820E+00</totfact>
</mgrwt>
</event>
<event>
 6    2  0.2321478E-005  0.9572085E+03  0.7818608E-02  0.1035515E+00
         21   -1    0    0  501  502  0.00000000000E+00  0.00000000000E+00  0.38971694706E+03  0.38971694706E+03  0.00000000000E+00 0. -1.
         -4   -1    0    0    0  501 -0.00000000000E+00 -0.00000000000E+00 -0.74411218520E+03  0.74411218520E+03  0.00000000000E+00 0. -1.
   -9000010    2    1    2    0  502 -0.19565197182E+02  0.31557044358E+02 -0.20372084598E+03  0.97864721448E+03  0.95648813027E+03 0.  0.
         13    1    3    3    0    0  0.17157246158E+03  0.44139434673E+03  0.20261178955E+02  0.47400063864E+03  0.10566000000E+00 0. -1.
         -4    1    3    3    0  502 -0.19113765876E+03 -0.40983730237E+03 -0.22398202494E+03  0.50464657584E+03  0.00000000000E+00 0. -1.
        -13    1    1    2    0    0  0.19565197182E+02 -0.31557044358E+02 -0.15067439216E+03  0.15518191778E+03  0.10566000000E+00 0.  1.
<mgrwt>
<rscale>  1 0.42480232E+03</rscale>
<asrwt>0</asrwt>
<pdfrwt beam="1">  1       21 0.59956453E-01 0.95720854E+03</pdfrwt>
<pdfrwt beam="2">  1       -4 0.11447880E+00 0.95720854E+03</pdfrwt>
<totfact> 0.60714775E+01</totfact>
</mgrwt>
</event>
<event>
 6    2  0.2321478E-005  0.1017003E+04  0.7818608E-02  0.9722353E-01
         -4   -1    0    0    0  501 -0.00000000000E+00  0.00000000000E+00  0.16875245666E+04  0.16875245666E+04  0.00000000000E+00 0. -1.
         21   -1    0    0  501  502  0.00000000000E+00 -0.00000000000E+00 -0.24869707064E+03  0.24869707064E+03  0.00000000000E+00 0. -1.
   -9000010    2    1    2    0  502  0.19723446432E+03 -0.10699568117E+03  0.92176152021E+03  0.13725668278E+04  0.99194046548E+03 0.  0.
         13    1    3    3    0    0  0.10262150054E+03 -0.42308061130E+03  0.94637643048E+03  0.10417085655E+04  0.10566000000E+00 0. -1.
         -4    1    3    3    0  502  0.94612963784E+02  0.31608493013E+03 -0.24614910275E+02  0.33085826237E+03  0.00000000000E+00 0. -1.
        -13    1    1    2    0    0 -0.19723446432E+03  0.10699568117E+03  0.51706597579E+03  0.56365480943E+03  0.10566000000E+00 0.  1.
<mgrwt>
<rscale>  1 0.69701342E+03</rscale>
<asrwt>0</asrwt>
<pdfrwt beam="2">  1       21 0.38261089E-01 0.10170031E+04</pdfrwt>
<pdfrwt beam="1">  1       -4 0.25961916E+00 0.10170031E+04</pdfrwt>
<totfact> 0.14602369E+01</totfact>
</mgrwt>
</event>
<event>
 6    2  0.2321478E-005  0.9850761E+03  0.7818608E-02  0.1001828E+00
         21   -1    0    0  501  502  0.00000000000E+00  0.00000000000E+00  0.15478913598E+04  0.15478913598E+04  0.00000000000E+00 0. -1.
         -4   -1    0    0    0  501 -0.00000000000E+00 -0.00000000000E+00 -0.29959966222E+03  0.29959966222E+03  0.00000000000E+00 0. -1.
   -9000010    2    1    2    0  502  0.93628928454E+02  0.14388016897E+02  0.13736591292E+04  0.16903592451E+04  0.98051087845E+03 0.  0.
         13    1    3    3    0    0  0.17228020580E+03  0.28145122545E+02 -0.10883752444E+03  0.20571396434E+03  0.10566000000E+00 0. -1.
         -4    1    3    3    0  502 -0.78651277349E+02 -0.13757105648E+02  0.14824966537E+04  0.14846452807E+04  0.00000000000E+00 0. -1.
        -13    1    1    2    0    0 -0.93628928454E+02 -0.14388016897E+02 -0.12536743161E+03  0.15713177701E+03  0.10566000000E+00 0.  1.
<mgrwt>
<rscale>  1 0.54855729E+03</rscale>
<asrwt>0</asrwt>
<pdfrwt beam="1">  1       21 0.23813713E+00 0.98507613E+03</pdfrwt>
<pdfrwt beam="2">  1       -4 0.46092257E-01 0.98507613E+03</pdfrwt>
<totfact> 0.11839059E+01</totfact>
</mgrwt>
</event>
<event>
 6    2  0.2321478E-005  0.1064582E+04  0.7818608E-02  0.9537720E-01
         21   -1    0    0  501  502  0.00000000000E+00  0.00000000000E+00  0.12639043682E+04  0.12639043682E+04  0.00000000000E+00 0. -1.
         -4   -1    0    0    0  501 -0.00000000000E+00 -0.00000000000E+00 -0.49123206846E+03  0.49123206846E+03  0.00000000000E+00 0. -1.
   -9000010    2    1    2    0  502  0.30071783926E+03  0.20991254532E+03  0.87095229015E+03  0.13754609657E+04  0.99942007231E+03 0.  0.
         13    1    3    3    0    0  0.41062017891E+03 -0.66360287791E+02 -0.39374690216E+02  0.41780736771E+03  0.10566000000E+00 0. -1.
         -4    1    3    3    0  502 -0.10990233965E+03  0.27627283311E+03  0.91032698037E+03  0.95765359800E+03  0.00000000000E+00 0. -1.
        -13    1    1    2    0    0 -0.30071783926E+03 -0.20991254532E+03 -0.98279990440E+02  0.37967547092E+03  0.10566000000E+00 0.  1.
<mgrwt>
<rscale>  1 0.81559101E+03</rscale>
<asrwt>0</asrwt>
<pdfrwt beam="1">  1       21 0.19444682E+00 0.10645821E+04</pdfrwt>
<pdfrwt beam="2">  1       -4 0.75574165E-01 0.10645821E+04</pdfrwt>
<totfact> 0.78202188E+00</totfact>
</mgrwt>
</event>
<event>
 6    2  0.2321478E-005  0.9914563E+03  0.7818608E-02  0.9877766E-01
         21   -1    0    0  501  502  0.00000000000E+00  0.00000000000E+00  0.17190722027E+03  0.17190722027E+03  0.00000000000E+00 0. -1.
         -4   -1    0    0    0  501 -0.00000000000E+00 -0.00000000000E+00 -0.20027001468E+04  0.20027001468E+04  0.00000000000E+00 0. -1.
   -9000010    2    1    2    0  502  0.73269719289E+02 -0.12555148773E+03 -0.13678542126E+04  0.16893817578E+04  0.98074153012E+03 0.  0.
         13    1    3    3    0    0 -0.33109872872E+03  0.15443230072E+03 -0.18748439538E+03  0.41064110040E+03  0.10566000000E+00 0. -1.
         -4    1    3    3    0  502  0.40436844801E+03 -0.27998378845E+03 -0.11803698172E+04  0.12787406574E+04  0.00000000000E+00 0. -1.
        -13    1    1    2    0    0 -0.73269719289E+02  0.12555148773E+03 -0.46293871392E+03  0.48522560922E+03  0.10566000000E+00 0.  1.
<mgrwt>
<rscale>  1 0.61351026E+03</rscale>
<asrwt>0</asrwt>
<pdfrwt beam="1">  1       21 0.26447265E-01 0.99145629E+03</pdfrwt>
<pdfrwt beam="2">  1       -4 0.30810772E+00 0.99145629E+03</pdfrwt>
<totfact> 0.15582623E+01</totfact>
</mgrwt>
</event>
<event>
 6    2  0.2321478E-005  0.1029405E+04  0.7818608E-02  0.9589768E-01
         21   -1    0    0  501  502  0.00000000000E+00  0.00000000000E+00  0.12151084022E+04  0.12151084022E+04  0.00000000000E+00 0. -1.
         -4   -1    0    0    0  501 -0.00000000000E+00 -0.00000000000E+00 -0.41312695941E+03  0.41312695941E+03  0.00000000000E+00 0. -1.
   -9000010    2    1    2    0  502 -0.19097970619E+03 -0.28000118165E+03  0.77443729578E+03  0.12881874222E+04  0.97200812734E+03 0.  0.
         13    1    3    3    0    0 -0.15012594843E+03  0.26022816546E+03 -0.47096851186E+02  0.30409640420E+03  0.10566000000E+00 0. -1.
         -4    1    3    3    0  502 -0.40853757756E+02 -0.54022934711E+03  0.82153414697E+03  0.98409101796E+03  0.00000000000E+00 0. -1.
        -13    1    1    2    0    0  0.19097970619E+03  0.28000118165E+03  0.27544146963E+02  0.34004793941E+03  0.10566000000E+00 0.  1.
<mgrwt>
<rscale>  1 0.77977129E+03</rscale>
<asrwt>0</asrwt>
<pdfrwt beam="1">  1       21 0.18693975E+00 0.10294045E+04</pdfrwt>
<pdfrwt beam="2">  1       -4 0.63557994E-01 0.10294045E+04</pdfrwt>
<totfact> 0.13070355E+01</totfact>
</mgrwt>
</event>
<event>
 6    2  0.2321478E-005  0.9953203E+03  0.7818608E-02  0.9861751E-01
         21   -1    0    0  501  502  0.00000000000E+00  0.00000000000E+00  0.52325589947E+03  0.52325589947E+03  0.00000000000E+00 0. -1.
         -4   -1    0    0    0  501 -0.00000000000E+00 -0.00000000000E+00 -0.63537384080E+03  0.63537384080E+03  0.00000000000E+00 0. -1.
   -9000010    2    1    2    0  502 -0.12585901462E+03  0.84017815661E+02 -0.54851031795E+02  0.99683049737E+03  0.98374941926E+03 0.  0.
         13    1    3    3    0    0  0.45740505896E+02  0.33336092768E+03 -0.40986752536E+03  0.53029529650E+03  0.10566000000E+00 0. -1.
         -4    1    3    3    0  502 -0.17159952051E+03 -0.24934311202E+03  0.35501649356E+03  0.46653520087E+03  0.00000000000E+00 0. -1.
        -13    1    1    2    0    0  0.12585901462E+03 -0.84017815661E+02 -0.57266909539E+02  0.16179924289E+03  0.10566000000E+00 0.  1.
<mgrwt>
<rscale>  1 0.62151322E+03</rscale>
<asrwt>0</asrwt>
<pdfrwt beam="1">  1       21 0.80500908E-01 0.99532025E+03</pdfrwt>
<pdfrwt beam="2">  1       -4 0.97749822E-01 0.99532025E+03</pdfrwt>
<totfact> 0.45352158E+01</totfact>
</mgrwt>
</event>
<event>
 6    2  0.2321478E-005  0.1011933E+04  0.7818608E-02  0.9760361E-01
         21   -1    0    0  501  502  0.00000000000E+00  0.00000000000E+00  0.18344196432E+04  0.18344196432E+04  0.00000000000E+00 0. -1.
         -4   -1    0    0    0  501 -0.00000000000E+00 -0.00000000000E+00 -0.20083826780E+03  0.20083826780E+03  0.00000000000E+00 0. -1.
   -9000010    2    1    2    0  502  0.20066574696E+03 -0.54390926161E+01  0.13968091793E+04  0.17248430117E+04  0.99182216435E+03 0.  0.
         13    1    3    3    0    0 -0.37460273505E+03 -0.14824175521E+03  0.72108314645E+03  0.82599258008E+03  0.10566000000E+00 0. -1.
         -4    1    3    3    0  502  0.57526848202E+03  0.14280266260E+03  0.67572603290E+03  0.89885043160E+03  0.00000000000E+00 0. -1.
        -13    1    1    2    0    0 -0.20066574696E+03  0.54390926161E+01  0.23677219609E+03  0.31041489935E+03  0.10566000000E+00 0.  1.
<mgrwt>
<rscale>  1 0.67533907E+03</rscale>
<asrwt>0</asrwt>
<pdfrwt beam="1">  1       21 0.28221840E+00 0.10119326E+04</pdfrwt>
<pdfrwt beam="2">  1       -4 0.30898196E-01 0.10119326E+04</pdfrwt>
<totfact> 0.13949466E+01</totfact>
</mgrwt>
</event>
<event>
 6    2  0.2321478E-005  0.1037872E+04  0.7818608E-02  0.9645123E-01
         21   -1    0    0  501  502  0.00000000000E+00  0.00000000000E+00  0.13194559221E+04  0.13194559221E+04  0.00000000000E+00 0. -1.
         -4   -1    0    0    0  501 -0.00000000000E+00 -0.00000000000E+00 -0.36063564808E+03  0.36063564808E+03  0.00000000000E+00 0. -1.
   -9000010    2    1    2    0  502 -0.71414244284E+02  0.26430091202E+03  0.94868829377E+03  0.14061250857E+04  0.10011110386E+04 0.  0.
         13    1    3    3    0    0  0.31302666466E+03  0.43771177410E+03  0.78926457505E+03  0.95525696573E+03  0.10566000000E+00 0. -1.
         -4    1    3    3    0  502 -0.38444090895E+03 -0.17341086207E+03  0.15942371871E+03  0.45086812001E+03  0.00000000000E+00 0. -1.
        -13    1    1    2    0    0  0.71414244284E+02 -0.26430091202E+03  0.10131980213E+02  0.27396648439E+03  0.10566000000E+00 0.  1.
<mgrwt>
<rscale>  1 0.74380296E+03</rscale>
<asrwt>0</asrwt>
<pdfrwt beam="1">  1       21 0.20299322E+00 0.10378720E+04</pdfrwt>
<pdfrwt beam="2">  1       -4 0.55482408E-01 0.10378720E+04</pdfrwt>
<totfact> 0.13559420E+01</totfact>
</mgrwt>
</event>
<event>
 6    2  0.2321478E-005  0.1059413E+04  0.7818608E-02  0.9576107E-01
         -4   -1    0    0    0  501 -0.00000000000E+00  0.00000000000E+00  0.62278680530E+03  0.62278680530E+03  0.00000000000E+00 0. -1.
         21   -1    0    0  501  502  0.00000000000E+00 -0.00000000000E+00 -0.94251841459E+03  0.94251841459E+03  0.00000000000E+00 0. -1.
   -9000010    2    1    2    0  502 -0.20503124347E+01 -0.32588135617E+03 -0.52273758545E+03  0.11813595211E+04  0.10080440828E+04 0.  0.
         13    1    3    3    0    0 -0.32017214606E+03 -0.28756934162E+03  0.13390738330E+03  0.45070780759E+03  0.10566000000E+00 0. -1.
         -4    1    3    3    0  502  0.31812183363E+03 -0.38312014549E+02 -0.65664496875E+03  0.73065171352E+03  0.00000000000E+00 0. -1.
        -13    1    1    2    0    0  0.20503124347E+01  0.32588135617E+03  0.20300597617E+03  0.38394569877E+03  0.10566000000E+00 0.  1.
<mgrwt>
<rscale>  1 0.78897998E+03</rscale>
<asrwt>0</asrwt>
<pdfrwt beam="2">  1       21 0.14500283E+00 0.10594129E+04</pdfrwt>
<pdfrwt beam="1">  1       -4 0.95813355E-01 0.10594129E+04</pdfrwt>
<totfact> 0.10630909E+01</totfact>
</mgrwt>
</event>
<event>
 6    2  0.2321478E-005  0.1002666E+04  0.7818608E-02  0.1029246E+00
         -4   -1    0    0    0  501 -0.00000000000E+00  0.00000000000E+00  0.51743507857E+03  0.51743507857E+03  0.00000000000E+00 0. -1.
         21   -1    0    0  501  502  0.00000000000E+00 -0.00000000000E+00 -0.59071823029E+03  0.59071823029E+03  0.00000000000E+00 0. -1.
   -9000010    2    1    2    0  502 -0.35114602077E+02 -0.16682841425E+02 -0.15790968433E+03  0.10150242926E+04  0.10019119192E+04 0.  0.
         13    1    3    3    0    0  0.99636723108E+02 -0.39326848516E+03  0.22278850126E+03  0.46284155547E+03  0.10566000000E+00 0. -1.
         -4    1    3    3    0  502 -0.13475132519E+03  0.37658564374E+03 -0.38069818559E+03  0.55218273716E+03  0.00000000000E+00 0. -1.
        -13    1    1    2    0    0  0.35114602077E+02  0.16682841425E+02  0.84626532618E+02  0.93129016230E+02  0.10566000000E+00 0.  1.
<mgrwt>
<rscale>  1 0.44492652E+03</rscale>
<asrwt>0</asrwt>
<pdfrwt beam="2">  1       21 0.90879727E-01 0.10026659E+04</pdfrwt>
<pdfrwt beam="1">  1       -4 0.79605397E-01 0.10026659E+04</pdfrwt>
<totfact> 0.54902004E+01</totfact>
</mgrwt>
</event>
<event>
 6    2  0.2321478E-005  0.1016689E+04  0.7818608E-02  0.9652581E-01
         -4   -1    0    0    0  501 -0.00000000000E+00  0.00000000000E+00  0.19906145348E+04  0.19906145348E+04  0.00000000000E+00 0. -1.
         21   -1    0    0  501  502  0.00000000000E+00 -0.00000000000E+00 -0.21276628906E+03  0.21276628906E+03  0.00000000000E+00 0.  1.
   -9000010    2    1    2    0  502  0.94895932891E+02 -0.26765476729E+03  0.14232739739E+04  0.17491042144E+04  0.97622355808E+03 0.  0.
         13    1    3    3    0    0  0.27396972065E+03  0.86994346181E+02  0.17183606868E+02  0.28796303862E+03  0.10566000000E+00 0. -1.
         -4    1    3    3    0  502 -0.17907378776E+03 -0.35464911347E+03  0.14060903671E+04  0.14611411758E+04  0.00000000000E+00 0. -1.
        -13    1    1    2    0    0 -0.94895932891E+02  0.26765476729E+03  0.35457427178E+03  0.45427660946E+03  0.10566000000E+00 0.  1.
<mgrwt>
<rscale>  1 0.73911652E+03</rscale>
<asrwt>0</asrwt>
<pdfrwt beam="2">  1       21 0.32733277E-01 0.10166891E+04</pdfrwt>
<pdfrwt beam="1">  1       -4 0.30624838E+00 0.10166891E+04</pdfrwt>
<totfact> 0.10382777E+01</totfact>
</mgrwt>
</event>
<event>
 6    2  0.2321478E-005  0.1099045E+04  0.7818608E-02  0.9443429E-01
         21   -1    0    0  501  502  0.00000000000E+00  0.00000000000E+00  0.11836871737E+04  0.11836871737E+04  0.00000000000E+00 0. -1.
         -4   -1    0    0    0  501 -0.00000000000E+00 -0.00000000000E+00 -0.57161466830E+03  0.57161466830E+03  0.00000000000E+00 0. -1.
   -9000010    2    1    2    0  502 -0.29395751644E+03  0.35886827568E+03  0.67098798542E+03  0.12876817979E+04  0.99634435573E+03 0.  0.
         13    1    3    3    0    0 -0.67811265897E+02  0.83163633267E+02 -0.26508994782E+03  0.28598470113E+03  0.10566000000E+00 0. -1.
         -4    1    3    3    0  502 -0.22614625054E+03  0.27570464241E+03  0.93607793324E+03  0.10016970967E+04  0.00000000000E+00 0. -1.
        -13    1    1    2    0    0  0.29395751644E+03 -0.35886827568E+03 -0.58915480003E+02  0.46762004416E+03  0.10566000000E+00 0.  1.
<mgrwt>
<rscale>  1 0.88586226E+03</rscale>
<asrwt>0</asrwt>
<pdfrwt beam="1">  1       21 0.18210572E+00 0.10990448E+04</pdfrwt>
<pdfrwt beam="2">  1       -4 0.87940718E-01 0.10990448E+04</pdfrwt>
<totfact> 0.67145887E+00</totfact>
</mgrwt>
</event>
<event>
 6    2  0.2321478E-005  0.1001702E+04  0.7818608E-02  0.1001268E+00
         21   -1    0    0  501  502  0.00000000000E+00  0.00000000000E+00  0.58359386342E+03  0.58359386342E+03  0.00000000000E+00 0. -1.
         -4   -1    0    0    0  501 -0.00000000000E+00 -0.00000000000E+00 -0.89462727702E+03  0.89462727702E+03  0.00000000000E+00 0. -1.
   -9000010    2    1    2    0  502  0.90542661268E+02  0.14457130850E+02  0.14581753976E+03  0.10122599973E+04  0.99749715044E+03 0.  0.
         13    1    3    3    0    0  0.21682772041E+03  0.28708136880E+03 -0.30421828425E+03  0.47114620691E+03  0.10566000000E+00 0. -1.
         -4    1    3    3    0  502 -0.12628505914E+03 -0.27262423795E+03  0.45003582401E+03  0.54111379041E+03  0.00000000000E+00 0. -1.
        -13    1    1    2    0    0 -0.90542661268E+02 -0.14457130850E+02 -0.45685095337E+03  0.46596114312E+03  0.10566000000E+00 0.  1.
<mgrwt>
<rscale>  1 0.55097780E+03</rscale>
<asrwt>0</asrwt>
<pdfrwt beam="1">  1       21 0.89783671E-01 0.10017023E+04</pdfrwt>
<pdfrwt beam="2">  1       -4 0.13763497E+00 0.10017023E+04</pdfrwt>
<totfact> 0.14865317E+01</totfact>
</mgrwt>
</event>
<event>
 6    2  0.2321478E-005  0.1001765E+04  0.7818608E-02  0.1007731E+00
         -4   -1    0    0    0  501 -0.00000000000E+00  0.00000000000E+00  0.61983402912E+03  0.61983402912E+03  0.00000000000E+00 0. -1.
         21   -1    0    0  501  502  0.00000000000E+00 -0.00000000000E+00 -0.46853599567E+03  0.46853599567E+03  0.00000000000E+00 0. -1.
   -9000010    2    1    2    0  502 -0.52461105155E+01  0.74733734593E+02  0.15329100979E+03  0.10134258063E+04  0.99895999844E+03 0.  0.
         13    1    3    3    0    0  0.37130635496E+03 -0.29434720598E+03  0.91102177139E+02  0.48250212927E+03  0.10566000000E+00 0. -1.
         -4    1    3    3    0  502 -0.37655246548E+03  0.36908094058E+03  0.62188832654E+02  0.53092367706E+03  0.00000000000E+00 0. -1.
        -13    1    1    2    0    0  0.52461105155E+01 -0.74733734593E+02 -0.19929763455E+01  0.74944218459E+02  0.10566000000E+00 0.  1.
<mgrwt>
<rscale>  1 0.52386656E+03</rscale>
<asrwt>0</asrwt>
<pdfrwt beam="2">  1       21 0.72082461E-01 0.10017653E+04</pdfrwt>
<pdfrwt beam="1">  1       -4 0.95359082E-01 0.10017653E+04</pdfrwt>
<totfact> 0.62201154E+01</totfact>
</mgrwt>
</event>
<event>
 6    2  0.2321478E-005  0.1291787E+04  0.7818608E-02  0.9152641E-01
         -4   -1    0    0    0  501 -0.00000000000E+00  0.00000000000E+00  0.16462777876E+04  0.16462777876E+04  0.00000000000E+00 0. -1.
         21   -1    0    0  501  502  0.00000000000E+00 -0.00000000000E+00 -0.68203207593E+03  0.68203207593E+03  0.00000000000E+00 0. -1.
   -9000010    2    1    2    0  502 -0.11325475308E+03 -0.81947471006E+03  0.60367739172E+03  0.14258826011E+04  0.99214381983E+03 0.  0.
         13    1    3    3    0    0  0.54795653701E+02 -0.46845223709E+03 -0.21581327985E+03  0.51867662857E+03  0.10566000000E+00 0. -1.
         -4    1    3    3    0  502 -0.16805040678E+03 -0.35102247297E+03  0.81949067157E+03  0.90720597250E+03  0.00000000000E+00 0. -1.
        -13    1    1    2    0    0  0.11325475308E+03  0.81947471006E+03  0.36056831996E+03  0.90242726247E+03  0.10566000000E+00 0.  1.
<mgrwt>
<rscale>  1 0.11555916E+04</rscale>
<asrwt>0</asrwt>
<pdfrwt beam="2">  1       21 0.10492801E+00 0.12917874E+04</pdfrwt>
<pdfrwt beam="1">  1       -4 0.25327351E+00 0.12917874E+04</pdfrwt>
<totfact> 0.15653134E+00</totfact>
</mgrwt>
</event>
<event>
 6    2  0.2321478E-005  0.1006786E+04  0.7818608E-02  0.9926321E-01
         -4   -1    0    0    0  501 -0.00000000000E+00  0.00000000000E+00  0.96923112539E+03  0.96923112539E+03  0.00000000000E+00 0. -1.
         21   -1    0    0  501  502  0.00000000000E+00 -0.00000000000E+00 -0.33267077732E+03  0.33267077732E+03  0.00000000000E+00 0. -1.
   -9000010    2    1    2    0  502  0.79868639442E+02  0.87890895418E+02  0.51088590278E+03  0.11289918497E+04  0.99975716151E+03 0.  0.
         13    1    3    3    0    0  0.27331855212E+03  0.45441303970E+03  0.89179685879E+02  0.53772415709E+03  0.10566000000E+00 0. -1.
         -4    1    3    3    0  502 -0.19344991268E+03 -0.36652214428E+03  0.42170621690E+03  0.59126769262E+03  0.00000000000E+00 0. -1.
        -13    1    1    2    0    0 -0.79868639442E+02 -0.87890895418E+02  0.12567444529E+03  0.17291005299E+03  0.10566000000E+00 0.  1.
<mgrwt>
<rscale>  1 0.59002443E+03</rscale>
<asrwt>0</asrwt>
<pdfrwt beam="2">  1       21 0.51180120E-01 0.10067861E+04</pdfrwt>
<pdfrwt beam="1">  1       -4 0.14911248E+00 0.10067861E+04</pdfrwt>
<totfact> 0.43343276E+01</totfact>
</mgrwt>
</event>
<event>
 6    2  0.2321478E-005  0.1416411E+04  0.7818608E-02  0.9030005E-01
         21   -1    0    0  501  502  0.00000000000E+00  0.00000000000E+00  0.14212907686E+04  0.14212907686E+04  0.00000000000E+00 0.  1.
         -4   -1    0    0    0  501 -0.00000000000E+00 -0.00000000000E+00 -0.10328054932E+04  0.10328054932E+04  0.00000000000E+00 0. -1.
   -9000010    2    1    2    0  502  0.29627712002E+03 -0.95863534279E+03  0.16359774966E+03  0.14258276866E+04  0.99972922130E+03 0.  0.
         13    1    3    3    0    0  0.17365783726E+03  0.18532680099E+03 -0.40998843246E+02  0.25726248059E+03  0.10566000000E+00 0. -1.
         -4    1    3    3    0  502  0.12261928276E+03 -0.11439621438E+04  0.20459659290E+03  0.11685652060E+04  0.00000000000E+00 0. -1.
        -13    1    1    2    0    0 -0.29627712002E+03  0.95863534279E+03  0.22488752571E+03  0.10282685752E+04  0.10566000000E+00 0.  1.
<mgrwt>
<rscale>  1 0.12994450E+04</rscale>
<asrwt>0</asrwt>
<pdfrwt beam="1">  1       21 0.21866012E+00 0.14164111E+04</pdfrwt>
<pdfrwt beam="2">  1       -4 0.15889315E+00 0.14164111E+04</pdfrwt>
<totfact> 0.80565481E-01</totfact>
</mgrwt>
</event>
<event>
 6    2  0.2321478E-005  0.1005203E+04  0.7818608E-02  0.1002310E+00
         -4   -1    0    0    0  501 -0.00000000000E+00  0.00000000000E+00  0.23478901476E+03  0.23478901476E+03  0.00000000000E+00 0. -1.
         21   -1    0    0  501  502  0.00000000000E+00 -0.00000000000E+00 -0.14065332002E+04  0.14065332002E+04  0.00000000000E+00 0. -1.
   -9000010    2    1    2    0  502 -0.87792082398E+02 -0.19139146706E+01 -0.11834470663E+04  0.15527328173E+04  0.10013596408E+04 0.  0.
         13    1    3    3    0    0 -0.20497702369E+03 -0.15951443435E+03 -0.12991044574E+04  0.13248142652E+04  0.10566000000E+00 0. -1.
         -4    1    3    3    0  502  0.11718494129E+03  0.15760051968E+03  0.11565739104E+03  0.22791855206E+03  0.00000000000E+00 0. -1.
        -13    1    1    2    0    0  0.87792082398E+02  0.19139146706E+01  0.11702880875E+02  0.88589397706E+02  0.10566000000E+00 0.  1.
<mgrwt>
<rscale>  1 0.54648709E+03</rscale>
<asrwt>0</asrwt>
<pdfrwt beam="2">  1       21 0.21638972E+00 0.10052026E+04</pdfrwt>
<pdfrwt beam="1">  1       -4 0.36121387E-01 0.10052026E+04</pdfrwt>
<totfact> 0.26958435E+01</totfact>
</mgrwt>
</event>
<event>
 6    2  0.2321478E-005  0.1123199E+04  0.7818608E-02  0.9400134E-01
         21   -1    0    0  501  502  0.00000000000E+00  0.00000000000E+00  0.79850298230E+03  0.79850298230E+03  0.00000000000E+00 0.  1.
         -4   -1    0    0    0  501 -0.00000000000E+00 -0.00000000000E+00 -0.87379873740E+03  0.87379873740E+03  0.00000000000E+00 0. -1.
   -9000010    2    1    2    0  502  0.14212641850E+03  0.48666357607E+03 -0.22111252139E+03  0.11447565599E+04  0.10022651741E+04 0.  0.
         13    1    3    3    0    0  0.52876672998E+03  0.50965336798E+03 -0.11675753668E+03  0.74362164019E+03  0.10566000000E+00 0. -1.
         -4    1    3    3    0  502 -0.38664031148E+03 -0.22989791908E+02 -0.10435498471E+03  0.40113491973E+03  0.00000000000E+00 0. -1.
        -13    1    1    2    0    0 -0.14212641850E+03 -0.48666357607E+03  0.14581676629E+03  0.52754515978E+03  0.10566000000E+00 0.  1.
<mgrwt>
<rscale>  1 0.92064685E+03</rscale>
<asrwt>0</asrwt>
<pdfrwt beam="1">  1       21 0.12284661E+00 0.11231994E+04</pdfrwt>
<pdfrwt beam="2">  1       -4 0.13443057E+00 0.11231994E+04</pdfrwt>
<totfact> 0.70979133E+00</totfact>
</mgrwt>
</event>
<event>
 6    2  0.2321478E-005  0.1116097E+04  0.7818608E-02  0.9449942E-01
         21   -1    0    0  501  502  0.00000000000E+00  0.00000000000E+00  0.42124154864E+03  0.42124154864E+03  0.00000000000E+00 0. -1.
         -4   -1    0    0    0  501 -0.00000000000E+00 -0.00000000000E+00 -0.14253245386E+04  0.14253245386E+04  0.00000000000E+00 0. -1.
   -9000010    2    1    2    0  502  0.42750869309E+03  0.67851146085E+02 -0.69731545010E+03  0.13160250470E+04  0.10287398246E+04 0.  0.
         13    1    3    3    0    0  0.37965898631E+03 -0.45370941928E+03 -0.34586001980E+03  0.68528267707E+03  0.10566000000E+00 0. -1.
         -4    1    3    3    0  502  0.47849706779E+02  0.52156056536E+03 -0.35145543029E+03  0.63074236996E+03  0.00000000000E+00 0. -1.
        -13    1    1    2    0    0 -0.42750869309E+03 -0.67851146085E+02 -0.30676753991E+03  0.53054104026E+03  0.10566000000E+00 0.  1.
<mgrwt>
<rscale>  1 0.88077161E+03</rscale>
<asrwt>0</asrwt>
<pdfrwt beam="1">  1       21 0.64806392E-01 0.11160973E+04</pdfrwt>
<pdfrwt beam="2">  1       -4 0.21928070E+00 0.11160973E+04</pdfrwt>
<totfact> 0.82460908E+00</totfact>
</mgrwt>
</event>
<event>
 6    2  0.2321478E-005  0.1071850E+04  0.7818608E-02  0.9517421E-01
         -4   -1    0    0    0  501 -0.00000000000E+00  0.00000000000E+00  0.13682099807E+04  0.13682099807E+04  0.00000000000E+00 0. -1.
         21   -1    0    0  501  502  0.00000000000E+00 -0.00000000000E+00 -0.46915909997E+03  0.46915909997E+03  0.00000000000E+00 0. -1.
   -9000010    2    1    2    0  502  0.28543649669E+03  0.25927489684E+03  0.27962918743E+03  0.11077248447E+04  0.10000821883E+04 0.  0.
         13    1    3    3    0    0  0.17875457467E+03  0.62609751057E+03  0.30861657981E+02  0.65184641120E+03  0.10566000000E+00 0. -1.
         -4    1    3    3    0  502  0.10668192202E+03 -0.36682261372E+03  0.24876752945E+03  0.45587843350E+03  0.00000000000E+00 0. -1.
        -13    1    1    2    0    0 -0.28543649669E+03 -0.25927489684E+03  0.61942169336E+03  0.72964423601E+03  0.10566000000E+00 0.  1.
<mgrwt>
<rscale>  1 0.83011522E+03</rscale>
<asrwt>0</asrwt>
<pdfrwt beam="2">  1       21 0.72178324E-01 0.10718497E+04</pdfrwt>
<pdfrwt beam="1">  1       -4 0.21049384E+00 0.10718497E+04</pdfrwt>
<totfact> 0.73810272E+00</totfact>
</mgrwt>
</event>
<event>
 6    2  0.2321478E-005  0.9955457E+03  0.7818608E-02  0.1010724E+00
         21   -1    0    0  501  502  0.00000000000E+00  0.00000000000E+00  0.13663110982E+04  0.13663110982E+04  0.00000000000E+00 0. -1.
         -4   -1    0    0    0  501 -0.00000000000E+00 -0.00000000000E+00 -0.48973045335E+03  0.48973045335E+03  0.00000000000E+00 0. -1.
   -9000010    2    1    2    0  502 -0.32309951629E+02  0.61624554788E+02  0.11805081285E+04  0.15442508442E+04  0.99311112655E+03 0.  0.
         13    1    3    3    0    0  0.41717007160E+03  0.26554841591E+03  0.68510991733E+03  0.84493931132E+03  0.10566000000E+00 0. -1.
         -4    1    3    3    0  502 -0.44948002322E+03 -0.20392386112E+03  0.49539821114E+03  0.69931153287E+03  0.00000000000E+00 0. -1.
        -13    1    1    2    0    0  0.32309951629E+02 -0.61624554788E+02 -0.30392748362E+03  0.31179070735E+03  0.10566000000E+00 0.  1.
<mgrwt>
<rscale>  1 0.51188067E+03</rscale>
<asrwt>0</asrwt>
<pdfrwt beam="1">  1       21 0.21020171E+00 0.99554569E+03</pdfrwt>
<pdfrwt beam="2">  1       -4 0.75343147E-01 0.99554569E+03</pdfrwt>
<totfact> 0.62007379E+00</totfact>
</mgrwt>
</event>
<event>
 6    2  0.2321478E-005  0.1026565E+04  0.7818608E-02  0.9873266E-01
         21   -1    0    0  501  502  0.00000000000E+00  0.00000000000E+00  0.36403692158E+03  0.36403692158E+03  0.00000000000E+00 0. -1.
         -4   -1    0    0    0  501 -0.00000000000E+00 -0.00000000000E+00 -0.10419134386E+04  0.10419134386E+04  0.00000000000E+00 0. -1.
   -9000010    2    1    2    0  502 -0.11300165629E+03 -0.69905218037E+02 -0.40712176955E+03  0.11043475447E+04  0.10179289025E+04 0.  0.
         13    1    3    3    0    0 -0.18974465212E+03  0.26165750580E+03  0.21989496216E+03  0.39092389144E+03  0.10566000000E+00 0. -1.
         -4    1    3    3    0  502  0.76742995829E+02 -0.33156272384E+03 -0.62701673171E+03  0.71342365331E+03  0.00000000000E+00 0. -1.
        -13    1    1    2    0    0  0.11300165629E+03  0.69905218037E+02 -0.27075474748E+03  0.30160281543E+03  0.10566000000E+00 0.  1.
<mgrwt>
<rscale>  1 0.61574616E+03</rscale>
<asrwt>0</asrwt>
<pdfrwt beam="1">  1       21 0.56005682E-01 0.10265648E+04</pdfrwt>
<pdfrwt beam="2">  1       -4 0.16029437E+00 0.10265648E+04</pdfrwt>
<totfact> 0.29195603E+01</totfact>
</mgrwt>
</event>
<event>
 6    2  0.2321478E-005  0.9450352E+03  0.7818608E-02  0.9906748E-01
         -4   -1    0    0    0  501 -0.00000000000E+00  0.00000000000E+00  0.50675852879E+03  0.50675852879E+03  0.00000000000E+00 0. -1.
         21   -1    0    0  501  502  0.00000000000E+00 -0.00000000000E+00 -0.62556375546E+03  0.62556375546E+03  0.00000000000E+00 0. -1.
   -9000010    2    1    2    0  502 -0.44445853551E+02  0.14629070469E+03 -0.18954628619E+03  0.96385652262E+03  0.93258522260E+03 0.  0.
         13    1    3    3    0    0 -0.38863428443E+03  0.15060959840E+03 -0.38552702312E+03  0.56775959251E+03  0.10566000000E+00 0. -1.
         -4    1    3    3    0  502  0.34418843088E+03 -0.43188937031E+01  0.19598073694E+03  0.39609693011E+03  0.00000000000E+00 0. -1.
        -13    1    1    2    0    0  0.44445853551E+02 -0.14629070469E+03  0.70741059512E+02  0.16846576163E+03  0.10566000000E+00 0.  1.
<mgrwt>
<rscale>  1 0.59935377E+03</rscale>
<asrwt>0</asrwt>
<pdfrwt beam="2">  1       21 0.96240578E-01 0.94503524E+03</pdfrwt>
<pdfrwt beam="1">  1       -4 0.77962851E-01 0.94503524E+03</pdfrwt>
<totfact> 0.50331077E+01</totfact>
</mgrwt>
</event>
<event>
 6    2  0.2321478E-005  0.1104441E+04  0.7818608E-02  0.9438774E-01
         -4   -1    0    0    0  501 -0.00000000000E+00  0.00000000000E+00  0.43775521873E+03  0.43775521873E+03  0.00000000000E+00 0. -1.
         21   -1    0    0  501  502  0.00000000000E+00 -0.00000000000E+00 -0.14065089651E+04  0.14065089651E+04  0.00000000000E+00 0. -1.
   -9000010    2    1    2    0  502  0.46275618703E+02  0.46241986614E+03 -0.66946536325E+03  0.12915010221E+04  0.10019069079E+04 0.  0.
         13    1    3    3    0    0 -0.46483769261E+03  0.10888345513E+03 -0.35540756916E+03  0.59518420565E+03  0.10566000000E+00 0. -1.
         -4    1    3    3    0  502  0.51111331131E+03  0.35353641101E+03 -0.31405779409E+03  0.69631681650E+03  0.00000000000E+00 0. -1.
        -13    1    1    2    0    0 -0.46275618703E+02 -0.46241986614E+03 -0.29928838311E+03  0.55276316168E+03  0.10566000000E+00 0.  1.
<mgrwt>
<rscale>  1 0.88952297E+03</rscale>
<asrwt>0</asrwt>
<pdfrwt beam="2">  1       21 0.21638599E+00 0.11044415E+04</pdfrwt>
<pdfrwt beam="1">  1       -4 0.67346957E-01 0.11044415E+04</pdfrwt>
<totfact> 0.71450366E+00</totfact>
</mgrwt>
</event>
<event>
 6    2  0.2321478E-005  0.9979564E+03  0.7818608E-02  0.9743645E-01
         -4   -1    0    0    0  501 -0.00000000000E+00  0.00000000000E+00  0.49426676919E+03  0.49426676919E+03  0.00000000000E+00 0. -1.
         21   -1    0    0  501  502  0.00000000000E+00 -0.00000000000E+00 -0.82455791136E+03  0.82455791136E+03  0.00000000000E+00 0. -1.
   -9000010    2    1    2    0  502  0.11105201110E+03 -0.19133151138E+03 -0.41651767179E+03  0.10813898011E+04  0.97312724478E+03 0.  0.
         13    1    3    3    0    0 -0.95672472686E+02 -0.24312324391E+03  0.26210995651E+03  0.37008617135E+03  0.10566000000E+00 0. -1.
         -4    1    3    3    0  502  0.20672448378E+03  0.51791732533E+02 -0.67862762830E+03  0.71130362972E+03  0.00000000000E+00 0. -1.
        -13    1    1    2    0    0 -0.11105201110E+03  0.19133151138E+03  0.86226529622E+02  0.23743487947E+03  0.10566000000E+00 0.  1.
<mgrwt>
<rscale>  1 0.68476571E+03</rscale>
<asrwt>0</asrwt>
<pdfrwt beam="2">  1       21 0.12685506E+00 0.99795638E+03</pdfrwt>
<pdfrwt beam="1">  1       -4 0.76041043E-01 0.99795638E+03</pdfrwt>
<totfact> 0.26287314E+01</totfact>
</mgrwt>
</event>
<event>
 6    2  0.2321478E-005  0.8634205E+03  0.7818608E-02  0.1011319E+00
         -4   -1    0    0    0  501 -0.00000000000E+00  0.00000000000E+00  0.29658027024E+03  0.29658027024E+03  0.00000000000E+00 0. -1.
         21   -1    0    0  501  502  0.00000000000E+00 -0.00000000000E+00 -0.83154142329E+03  0.83154142329E+03  0.00000000000E+00 0. -1.
   -9000010    2    1    2    0  502 -0.82237162942E+02 -0.64837935338E+02 -0.38537299395E+03  0.94551956502E+03  0.85704608659E+03 0.  0.
         13    1    3    3    0    0 -0.43983076601E+03  0.57054854215E+02 -0.61225803930E+02  0.44772197774E+03  0.10566000000E+00 0. -1.
         -4    1    3    3    0  502  0.35759360307E+03 -0.12189278955E+03 -0.32414719002E+03  0.49779758728E+03  0.00000000000E+00 0. -1.
        -13    1    1    2    0    0  0.82237162942E+02  0.64837935338E+02 -0.14958815911E+03  0.18260212851E+03  0.10566000000E+00 0.  1.
<mgrwt>
<rscale>  1 0.50953896E+03</rscale>
<asrwt>0</asrwt>
<pdfrwt beam="2">  1       21 0.12792945E+00 0.86342047E+03</pdfrwt>
<pdfrwt beam="1">  1       -4 0.45627734E-01 0.86342047E+03</pdfrwt>
<totfact> 0.78925674E+01</totfact>
</mgrwt>
</event>
<event>
 6    2  0.2321478E-005  0.1035200E+04  0.7818608E-02  0.9722101E-01
         -4   -1    0    0    0  501 -0.00000000000E+00  0.00000000000E+00  0.42472991564E+03  0.42472991564E+03  0.00000000000E+00 0. -1.
         21   -1    0    0  501  502  0.00000000000E+00 -0.00000000000E+00 -0.92254078155E+03  0.92254078155E+03  0.00000000000E+00 0. -1.
   -9000010    2    1    2    0  502  0.16648608303E+03  0.13276292146E+03 -0.45137370436E+03  0.11293256805E+04  0.10130620230E+04 0.  0.
         13    1    3    3    0    0  0.11807520271E+03  0.16633097416E+03 -0.77448075974E+03  0.80089213058E+03  0.10566000000E+00 0. -1.
         -4    1    3    3    0  502  0.48410880312E+02 -0.33568052694E+02  0.32310705537E+03  0.32843354994E+03  0.00000000000E+00 0. -1.
        -13    1    1    2    0    0 -0.16648608303E+03 -0.13276292146E+03 -0.46437161547E+02  0.21794501668E+03  0.10566000000E+00 0.  1.
<mgrwt>
<rscale>  1 0.69716023E+03</rscale>
<asrwt>0</asrwt>
<pdfrwt beam="2">  1       21 0.14192935E+00 0.10351996E+04</pdfrwt>
<pdfrwt beam="1">  1       -4 0.65343065E-01 0.10351996E+04</pdfrwt>
<totfact> 0.27222145E+01</totfact>
</mgrwt>
</event>
<event>
 6    2  0.2321478E-005  0.1040306E+04  0.7818608E-02  0.9694555E-01
         -4   -1    0    0    0  501 -0.00000000000E+00  0.00000000000E+00  0.69755677991E+03  0.69755677991E+03  0.00000000000E+00 0. -1.
         21   -1    0    0  501  502  0.00000000000E+00 -0.00000000000E+00 -0.60479521115E+03  0.60479521115E+03  0.00000000000E+00 0. -1.
   -9000010    2    1    2    0  502 -0.19313033482E+03  0.12506637940E+03 -0.31638112154E+02  0.10407870522E+04  0.10145421590E+04 0.  0.
         13    1    3    3    0    0 -0.40517473517E+03  0.60716791145E+02 -0.42436087879E+03  0.58986037446E+03  0.10566000000E+00 0. -1.
         -4    1    3    3    0  502  0.21204440035E+03  0.64349588254E+02  0.39272276664E+03  0.45092667770E+03  0.00000000000E+00 0. -1.
        -13    1    1    2    0    0  0.19313033482E+03 -0.12506637940E+03  0.12439968091E+03  0.26156493890E+03  0.10566000000E+00 0.  1.
<mgrwt>
<rscale>  1 0.71341921E+03</rscale>
<asrwt>0</asrwt>
<pdfrwt beam="2">  1       21 0.93045418E-01 0.10403061E+04</pdfrwt>
<pdfrwt beam="1">  1       -4 0.10731643E+00 0.10403061E+04</pdfrwt>
<totfact> 0.25459335E+01</totfact>
</mgrwt>
</event>
<event>
 6    2  0.2321478E-005  0.1034563E+04  0.7818608E-02  0.9579473E-01
         21   -1    0    0  501  502  0.00000000000E+00  0.00000000000E+00  0.45984150379E+03  0.45984150379E+03  0.00000000000E+00 0. -1.
         -4   -1    0    0    0  501 -0.00000000000E+00 -0.00000000000E+00 -0.10957661641E+04  0.10957661641E+04  0.00000000000E+00 0. -1.
   -9000010    2    1    2    0  502  0.34218421458E+03 -0.50626008455E+02 -0.30917536154E+03  0.10797735110E+04  0.97502225690E+03 0.  0.
         13    1    3    3    0    0  0.48184528710E+03 -0.41533736893E+03 -0.25561890596E+03  0.68558080995E+03  0.10566000000E+00 0. -1.
         -4    1    3    3    0  502 -0.13966107252E+03  0.36471136047E+03 -0.53556455586E+02  0.39419270106E+03  0.00000000000E+00 0. -1.
        -13    1    1    2    0    0 -0.34218421458E+03  0.50626008455E+02 -0.32674929874E+03  0.47583415686E+03  0.10566000000E+00 0.  1.
<mgrwt>
<rscale>  1 0.78669846E+03</rscale>
<asrwt>0</asrwt>
<pdfrwt beam="1">  1       21 0.70744848E-01 0.10345634E+04</pdfrwt>
<pdfrwt beam="2">  1       -4 0.16857941E+00 0.10345634E+04</pdfrwt>
<totfact> 0.14990543E+01</totfact>
</mgrwt>
</event>
<event>
 6    2  0.2321478E-005  0.1024759E+04  0.7818608E-02  0.9767143E-01
         21   -1    0    0  501  502  0.00000000000E+00  0.00000000000E+00  0.52515362499E+03  0.52515362499E+03  0.00000000000E+00 0. -1.
         -4   -1    0    0    0  501 -0.00000000000E+00 -0.00000000000E+00 -0.90446097860E+03  0.90446097860E+03  0.00000000000E+00 0. -1.
   -9000010    2    1    2    0  502 -0.71615346562E+02 -0.17491298257E+03 -0.21534025583E+02  0.10249850511E+04  0.10071779045E+04 0.  0.
         13    1    3    3    0    0  0.44076336517E+02 -0.57492797110E+03  0.11259805901E+03  0.58750593993E+03  0.10566000000E+00 0. -1.
         -4    1    3    3    0  502 -0.11569168308E+03  0.40001498854E+03 -0.13413208460E+03  0.43747911116E+03  0.00000000000E+00 0. -1.
        -13    1    1    2    0    0  0.71615346562E+02  0.17491298257E+03 -0.35777332803E+03  0.40462955249E+03  0.10566000000E+00 0.  1.
<mgrwt>
<rscale>  1 0.67156063E+03</rscale>
<asrwt>0</asrwt>
<pdfrwt beam="1">  1       21 0.80792866E-01 0.10247588E+04</pdfrwt>
<pdfrwt beam="2">  1       -4 0.13914784E+00 0.10247588E+04</pdfrwt>
<totfact> 0.18536311E+01</totfact>
</mgrwt>
</event>
<event>
 6    2  0.2321478E-005  0.1026896E+04  0.7818608E-02  0.9694053E-01
         21   -1    0    0  501  502  0.00000000000E+00  0.00000000000E+00  0.25967385253E+03  0.25967385253E+03  0.00000000000E+00 0. -1.
         -4   -1    0    0    0  501 -0.00000000000E+00 -0.00000000000E+00 -0.15681539850E+04  0.15681539850E+04  0.00000000000E+00 0. -1.
   -9000010    2    1    2    0  502 -0.21469969849E+03  0.10641454912E+03 -0.11434207264E+04  0.15368559566E+04  0.99854657222E+03 0.  0.
         13    1    3    3    0    0 -0.29999831369E+03 -0.20755117566E+03 -0.11550645326E+04  0.12113011865E+04  0.10566000000E+00 0. -1.
         -4    1    3    3    0  502  0.85298615205E+02  0.31396572479E+03  0.11643806207E+02  0.32555477008E+03  0.00000000000E+00 0. -1.
        -13    1    1    2    0    0  0.21469969849E+03 -0.10641454912E+03 -0.16505940600E+03  0.29097188089E+03  0.10566000000E+00 0.  1.
<mgrwt>
<rscale>  1 0.71371990E+03</rscale>
<asrwt>0</asrwt>
<pdfrwt beam="1">  1       21 0.39949825E-01 0.10268959E+04</pdfrwt>
<pdfrwt beam="2">  1       -4 0.24125445E+00 0.10268959E+04</pdfrwt>
<totfact> 0.17320787E+01</totfact>
</mgrwt>
</event>
<event>
 6    2  0.2321478E-005  0.1048693E+04  0.7818608E-02  0.9599898E-01
         21   -1    0    0  501  502  0.00000000000E+00  0.00000000000E+00  0.10748722101E+04  0.10748722101E+04  0.00000000000E+00 0. -1.
         -4   -1    0    0    0  501 -0.00000000000E+00 -0.00000000000E+00 -0.51651012469E+03  0.51651012469E+03  0.00000000000E+00 0. -1.
   -9000010    2    1    2    0  502  0.16713313827E+03 -0.26064455744E+03  0.12119418162E+03  0.10556726573E+04  0.10019419437E+04 0.  0.
         13    1    3    3    0    0  0.64552303721E+01 -0.30477227089E+02  0.54578955022E+03  0.54667794510E+03  0.10566000000E+00 0. -1.
         -4    1    3    3    0  502  0.16067790790E+03 -0.23016733035E+03 -0.42459536860E+03  0.50899471224E+03  0.00000000000E+00 0. -1.
        -13    1    1    2    0    0 -0.16713313827E+03  0.26064455744E+03  0.43716790380E+03  0.53570967745E+03  0.10566000000E+00 0.  1.
<mgrwt>
<rscale>  1 0.77302958E+03</rscale>
<asrwt>0</asrwt>
<pdfrwt beam="1">  1       21 0.16536496E+00 0.10486929E+04</pdfrwt>
<pdfrwt beam="2">  1       -4 0.79463096E-01 0.10486929E+04</pdfrwt>
<totfact> 0.11373790E+01</totfact>
</mgrwt>
</event>
<event>
 6    2  0.2321478E-005  0.1039612E+04  0.7818608E-02  0.9756587E-01
         21   -1    0    0  501  502  0.00000000000E+00  0.00000000000E+00  0.12299530374E+04  0.12299530374E+04  0.00000000000E+00 0. -1.
         -4   -1    0    0    0  501 -0.00000000000E+00 -0.00000000000E+00 -0.33700534404E+03  0.33700534404E+03  0.00000000000E+00 0. -1.
   -9000010    2    1    2    0  502 -0.15443564085E+03 -0.10625387698E+03  0.90607129401E+03  0.13790421938E+04  0.10225712341E+04 0.  0.
         13    1    3    3    0    0  0.38857944719E+03 -0.16330933360E+01  0.99531476588E+02  0.40112738597E+03  0.10566000000E+00 0. -1.
         -4    1    3    3    0  502 -0.54301508804E+03 -0.10462078365E+03  0.80653981742E+03  0.97791480779E+03  0.00000000000E+00 0. -1.
        -13    1    1    2    0    0  0.15443564085E+03  0.10625387698E+03 -0.13123600634E+02  0.18791618769E+03  0.10566000000E+00 0.  1.
<mgrwt>
<rscale>  1 0.67745266E+03</rscale>
<asrwt>0</asrwt>
<pdfrwt beam="1">  1       21 0.18922354E+00 0.10396116E+04</pdfrwt>
<pdfrwt beam="2">  1       -4 0.51846977E-01 0.10396116E+04</pdfrwt>
<totfact> 0.19535112E+01</totfact>
</mgrwt>
</event>
<event>
 6    2  0.2321478E-005  0.9580526E+03  0.7818608E-02  0.1006156E+00
         -4   -1    0    0    0  501 -0.00000000000E+00  0.00000000000E+00  0.40252153313E+03  0.40252153313E+03  0.00000000000E+00 0. -1.
         21   -1    0    0  501  502  0.00000000000E+00 -0.00000000000E+00 -0.68895087227E+03  0.68895087227E+03  0.00000000000E+00 0. -1.
   -9000010    2    1    2    0  502  0.78457502316E+02 -0.43976965494E+02 -0.22993243596E+03  0.98525816720E+03  0.95382135527E+03 0.  0.
         13    1    3    3    0    0  0.16727730458E+03  0.30021635834E+03  0.22285668192E+03  0.40960550568E+03  0.10566000000E+00 0. -1.
         -4    1    3    3    0  502 -0.88819802263E+02 -0.34419332384E+03 -0.45278911788E+03  0.57565266152E+03  0.00000000000E+00 0. -1.
        -13    1    1    2    0    0 -0.78457502316E+02  0.43976965494E+02 -0.56496903181E+02  0.10621423820E+03  0.10566000000E+00 0.  1.
<mgrwt>
<rscale>  1 0.53031352E+03</rscale>
<asrwt>0</asrwt>
<pdfrwt beam="2">  1       21 0.10599244E+00 0.95805257E+03</pdfrwt>
<pdfrwt beam="1">  1       -4 0.61926390E-01 0.95805257E+03</pdfrwt>
<totfact> 0.66190371E+01</totfact>
</mgrwt>
</event>
<event>
 6    2  0.2321478E-005  0.1012129E+04  0.7818608E-02  0.1007247E+00
         21   -1    0    0  501  502  0.00000000000E+00  0.00000000000E+00  0.37782040278E+03  0.37782040278E+03  0.00000000000E+00 0. -1.
         -4   -1    0    0    0  501 -0.00000000000E+00 -0.00000000000E+00 -0.80762784074E+03  0.80762784074E+03  0.00000000000E+00 0. -1.
   -9000010    2    1    2    0  502 -0.29904487429E+02 -0.67403425059E+02 -0.33667141281E+03  0.10666550180E+04  0.10094393430E+04 0.  0.
         13    1    3    3    0    0 -0.20496155970E+03  0.36614064279E+03  0.95085625036E+02  0.43024353395E+03  0.10566000000E+00 0. -1.
         -4    1    3    3    0  502  0.17505707227E+03 -0.43354406785E+03 -0.43175703785E+03  0.63641148407E+03  0.00000000000E+00 0. -1.
        -13    1    1    2    0    0  0.29904487429E+02  0.67403425059E+02 -0.93136025147E+02  0.11879322549E+03  0.10566000000E+00 0.  1.
<mgrwt>
<rscale>  1 0.52583798E+03</rscale>
<asrwt>0</asrwt>
<pdfrwt beam="1">  1       21 0.58126216E-01 0.10121291E+04</pdfrwt>
<pdfrwt beam="2">  1       -4 0.12425044E+00 0.10121291E+04</pdfrwt>
<totfact> 0.52729509E+01</totfact>
</mgrwt>
</event>
<event>
 6    2  0.2321478E-005  0.1009389E+04  0.7818608E-02  0.9802071E-01
         21   -1    0    0  501  502  0.00000000000E+00  0.00000000000E+00  0.53084412670E+03  0.53084412670E+03  0.00000000000E+00 0. -1.
         -4   -1    0    0    0  501 -0.00000000000E+00 -0.00000000000E+00 -0.99754552138E+03  0.99754552138E+03  0.00000000000E+00 0. -1.
   -9000010    2    1    2    0  502  0.76325604410E+02 -0.15889215477E+03  0.21210333425E+02  0.10096120654E+04  0.99387842796E+03 0.  0.
         13    1    3    3    0    0 -0.20942526589E+03  0.31740837831E+03  0.19534680260E+03  0.42751304666E+03  0.10566000000E+00 0. -1.
         -4    1    3    3    0  502  0.28575087030E+03 -0.47630053308E+03 -0.17413646918E+03  0.58209901871E+03  0.00000000000E+00 0. -1.
        -13    1    1    2    0    0 -0.76325604410E+02  0.15889215477E+03 -0.48791172810E+03  0.51877758271E+03  0.10566000000E+00 0.  1.
<mgrwt>
<rscale>  1 0.65251534E+03</rscale>
<asrwt>0</asrwt>
<pdfrwt beam="1">  1       21 0.81668329E-01 0.10093892E+04</pdfrwt>
<pdfrwt beam="2">  1       -4 0.15346854E+00 0.10093892E+04</pdfrwt>
<totfact> 0.13939701E+01</totfact>
</mgrwt>
</event>
<event>
 6    2  0.2321478E-005  0.1322885E+04  0.7818608E-02  0.9114239E-01
         -4   -1    0    0    0  501 -0.00000000000E+00  0.00000000000E+00  0.10688749767E+04  0.10688749767E+04  0.00000000000E+00 0. -1.
         21   -1    0    0  501  502  0.00000000000E+00 -0.00000000000E+00 -0.11471540508E+04  0.11471540508E+04  0.00000000000E+00 0.  1.
   -9000010    2    1    2    0  502  0.63059610754E+03  0.62944966705E+03 -0.18052825020E+02  0.13230085651E+04  0.97783813825E+03 0.  0.
         13    1    3    3    0    0  0.72309245987E+03  0.38205814525E+02 -0.25007634536E+02  0.72453280307E+03  0.10566000000E+00 0. -1.
         -4    1    3    3    0  502 -0.92496352329E+02  0.59124385253E+03  0.69548095162E+01  0.59847576202E+03  0.00000000000E+00 0. -1.
        -13    1    1    2    0    0 -0.63059610754E+03 -0.62944966705E+03 -0.60226249085E+02  0.89302046250E+03  0.10566000000E+00 0.  1.
<mgrwt>
<rscale>  1 0.11984215E+04</rscale>
<asrwt>0</asrwt>
<pdfrwt beam="2">  1       21 0.17648524E+00 0.13228854E+04</pdfrwt>
<pdfrwt beam="1">  1       -4 0.16444230E+00 0.13228854E+04</pdfrwt>
<totfact> 0.14638702E+00</totfact>
</mgrwt>
</event>
<event>
 6    2  0.2321478E-005  0.1054262E+04  0.7818608E-02  0.9787269E-01
         -4   -1    0    0    0  501 -0.00000000000E+00  0.00000000000E+00  0.26276432508E+04  0.26276432508E+04  0.00000000000E+00 0. -1.
         21   -1    0    0  501  502  0.00000000000E+00 -0.00000000000E+00 -0.14153685187E+03  0.14153685187E+03  0.00000000000E+00 0. -1.
   -9000010    2    1    2    0  502 -0.82692457622E+02 -0.13979916580E+03  0.20835507624E+04  0.23350915161E+04  0.10416749780E+04 0.  0.
         13    1    3    3    0    0 -0.17627464895E+03 -0.40461896202E+03  0.19910550045E+04  0.20393845392E+04  0.10566000000E+00 0. -1.
         -4    1    3    3    0  502  0.93582191332E+02  0.26481979622E+03  0.92495757864E+02  0.29570697696E+03  0.00000000000E+00 0. -1.
        -13    1    1    2    0    0  0.82692457622E+02  0.13979916580E+03  0.40255563649E+03  0.43408858652E+03  0.10566000000E+00 0.  1.
<mgrwt>
<rscale>  1 0.66050275E+03</rscale>
<asrwt>0</asrwt>
<pdfrwt beam="2">  1       21 0.21774902E-01 0.10542621E+04</pdfrwt>
<pdfrwt beam="1">  1       -4 0.40425277E+00 0.10542621E+04</pdfrwt>
<totfact> 0.53176444E+00</totfact>
</mgrwt>
</event>
<event>
 6    2  0.2321478E-005  0.1135373E+04  0.7818608E-02  0.9372733E-01
         -4   -1    0    0    0  501 -0.00000000000E+00  0.00000000000E+00  0.74684821472E+03  0.74684821472E+03  0.00000000000E+00 0. -1.
         21   -1    0    0  501  502  0.00000000000E+00 -0.00000000000E+00 -0.10700853950E+04  0.10700853950E+04  0.00000000000E+00 0. -1.
   -9000010    2    1    2    0  502 -0.42527397620E+03  0.33526361342E+03  0.85311742302E+02  0.11385739126E+04  0.99790421175E+03 0.  0.
         13    1    3    3    0    0 -0.22448822042E+03  0.66515736049E+03  0.20999451927E+03  0.73275301746E+03  0.10566000000E+00 0. -1.
         -4    1    3    3    0  502 -0.20078575578E+03 -0.32989374707E+03 -0.12468277697E+03  0.40582089516E+03  0.00000000000E+00 0. -1.
        -13    1    1    2    0    0  0.42527397620E+03 -0.33526361342E+03 -0.40854892255E+03  0.67835969706E+03  0.10566000000E+00 0.  1.
<mgrwt>
<rscale>  1 0.94354060E+03</rscale>
<asrwt>0</asrwt>
<pdfrwt beam="2">  1       21 0.16462852E+00 0.11353733E+04</pdfrwt>
<pdfrwt beam="1">  1       -4 0.11489973E+00 0.11353733E+04</pdfrwt>
<totfact> 0.47231480E+00</totfact>
</mgrwt>
</event>
<event>
 6    2  0.2321478E-005  0.9995592E+03  0.7818608E-02  0.9731595E-01
         21   -1    0    0  501  502  0.00000000000E+00  0.00000000000E+00  0.39371577000E+03  0.39371577000E+03  0.00000000000E+00 0. -1.
         -4   -1    0    0    0  501 -0.00000000000E+00 -0.00000000000E+00 -0.98739210122E+03  0.98739210122E+03  0.00000000000E+00 0. -1.
   -9000010    2    1    2    0  502  0.10430989221E+03  0.20405288212E+03 -0.38492101822E+03  0.10711128323E+04  0.97293390158E+03 0.  0.
         13    1    3    3    0    0 -0.52434953706E+02  0.22216801574E+03 -0.69047097549E+03  0.72722639580E+03  0.10566000000E+00 0. -1.
         -4    1    3    3    0  502  0.15674484592E+03 -0.18115133615E+02  0.30554995727E+03  0.34388643645E+03  0.00000000000E+00 0. -1.
        -13    1    1    2    0    0 -0.10430989221E+03 -0.20405288212E+03 -0.20875531299E+03  0.30999503896E+03  0.10566000000E+00 0.  1.
<mgrwt>
<rscale>  1 0.69166380E+03</rscale>
<asrwt>0</asrwt>
<pdfrwt beam="1">  1       21 0.60571657E-01 0.99955916E+03</pdfrwt>
<pdfrwt beam="2">  1       -4 0.15190648E+00 0.99955916E+03</pdfrwt>
<totfact> 0.28479636E+01</totfact>
</mgrwt>
</event>
<event>
 6    2  0.2321478E-005  0.1002999E+04  0.7818608E-02  0.1033961E+00
         21   -1    0    0  501  502  0.00000000000E+00  0.00000000000E+00  0.11420927988E+04  0.11420927988E+04  0.00000000000E+00 0. -1.
         -4   -1    0    0    0  501 -0.00000000000E+00 -0.00000000000E+00 -0.23814270791E+03  0.23814270791E+03  0.00000000000E+00 0. -1.
   -9000010    2    1    2    0  502  0.78633189823E+01 -0.32853866377E+02  0.89732893260E+03  0.13458108176E+04  0.10024302146E+04 0.  0.
         13    1    3    3    0    0 -0.43726566399E+03 -0.24844264445E+03  0.52269917749E+03  0.72535470620E+03  0.10566000000E+00 0. -1.
         -4    1    3    3    0  502  0.44512898298E+03  0.21558877807E+03  0.37462975511E+03  0.62045611137E+03  0.00000000000E+00 0. -1.
        -13    1    1    2    0    0 -0.78633189823E+01  0.32853866377E+02  0.66211582789E+01  0.34424689140E+02  0.10566000000E+00 0.  1.
<mgrwt>
<rscale>  1 0.42968146E+03</rscale>
<asrwt>0</asrwt>
<pdfrwt beam="1">  1       21 0.17570658E+00 0.10029993E+04</pdfrwt>
<pdfrwt beam="2">  1       -4 0.36637340E-01 0.10029993E+04</pdfrwt>
<totfact> 0.50316502E+01</totfact>
</mgrwt>
</event>
<event>
 6    2  0.2321478E-005  0.1025810E+04  0.7818608E-02  0.9640983E-01
         -4   -1    0    0    0  501 -0.00000000000E+00  0.00000000000E+00  0.16194017574E+04  0.16194017574E+04  0.00000000000E+00 0. -1.
         21   -1    0    0  501  502  0.00000000000E+00 -0.00000000000E+00 -0.27011148857E+03  0.27011148857E+03  0.00000000000E+00 0. -1.
   -9000010    2    1    2    0  502  0.13527955403E+03 -0.25375601893E+03  0.11416971282E+04  0.15348477725E+04  0.98467897169E+03 0.  0.
         13    1    3    3    0    0  0.14429337482E+02  0.31801725130E+03  0.79253378323E+03  0.85408019918E+03  0.10566000000E+00 0. -1.
         -4    1    3    3    0  502  0.12085021655E+03 -0.57177327023E+03  0.34916334495E+03  0.68076757329E+03  0.00000000000E+00 0. -1.
        -13    1    1    2    0    0 -0.13527955403E+03  0.25375601893E+03  0.20759314065E+03  0.35466547350E+03  0.10566000000E+00 0.  1.
<mgrwt>
<rscale>  1 0.74642042E+03</rscale>
<asrwt>0</asrwt>
<pdfrwt beam="2">  1       21 0.41555615E-01 0.10258096E+04</pdfrwt>
<pdfrwt beam="1">  1       -4 0.24913873E+00 0.10258096E+04</pdfrwt>
<totfact> 0.14245818E+01</totfact>
</mgrwt>
</event>
<event>
 6    2  0.2321478E-005  0.1045143E+04  0.7818608E-02  0.9616858E-01
         -4   -1    0    0    0  501 -0.00000000000E+00  0.00000000000E+00  0.44152686216E+03  0.44152686216E+03  0.00000000000E+00 0. -1.
         21   -1    0    0  501  502  0.00000000000E+00 -0.00000000000E+00 -0.13676680455E+04  0.13676680455E+04  0.00000000000E+00 0. -1.
   -9000010    2    1    2    0  502 -0.24961810151E+03 -0.15753224258E+03 -0.10568694988E+04  0.14863706401E+04  0.10025960992E+04 0.  0.
         13    1    3    3    0    0  0.33172742978E+03 -0.27790468848E+03 -0.31018486421E+03  0.53243662975E+03  0.10566000000E+00 0. -1.
         -4    1    3    3    0  502 -0.58134553129E+03  0.12037244590E+03 -0.74668463463E+03  0.95393401034E+03  0.00000000000E+00 0. -1.
        -13    1    1    2    0    0  0.24961810151E+03  0.15753224258E+03  0.13072831554E+03  0.32282426753E+03  0.10566000000E+00 0.  1.
<mgrwt>
<rscale>  1 0.76190376E+03</rscale>
<asrwt>0</asrwt>
<pdfrwt beam="2">  1       21 0.21041047E+00 0.10451433E+04</pdfrwt>
<pdfrwt beam="1">  1       -4 0.67927210E-01 0.10451433E+04</pdfrwt>
<totfact> 0.77479867E+00</totfact>
</mgrwt>
</event>
<event>
 6    2  0.2321478E-005  0.1196967E+04  0.7818608E-02  0.9668747E-01
         21   -1    0    0  501  502  0.00000000000E+00  0.00000000000E+00  0.14890562266E+04  0.14890562266E+04  0.00000000000E+00 0. -1.
         -4   -1    0    0    0  501 -0.00000000000E+00 -0.00000000000E+00 -0.77885681769E+03  0.77885681769E+03  0.00000000000E+00 0. -1.
   -9000010    2    1    2    0  502  0.11312287747E+03  0.11979394674E+03  0.12337946437E+04  0.17190056239E+04  0.11855731682E+04 0.  0.
         13    1    3    3    0    0 -0.32662351256E+03  0.45184963201E+03  0.94416058363E+03  0.10964899579E+04  0.10566000000E+00 0. -1.
         -4    1    3    3    0  502  0.43974639003E+03 -0.33205568527E+03  0.28963406004E+03  0.62251566598E+03  0.00000000000E+00 0. -1.
        -13    1    1    2    0    0 -0.11312287747E+03 -0.11979394674E+03 -0.52359523480E+03  0.54890742038E+03  0.10566000000E+00 0.  1.
<mgrwt>
<rscale>  1 0.72908433E+03</rscale>
<asrwt>0</asrwt>
<pdfrwt beam="1">  1       21 0.22908557E+00 0.11969675E+04</pdfrwt>
<pdfrwt beam="2">  1       -4 0.11982413E+00 0.11969675E+04</pdfrwt>
<totfact> 0.14895442E+00</totfact>
</mgrwt>
</event>
<event>
 6    2  0.2321478E-005  0.1004853E+04  0.7818608E-02  0.1004045E+00
         -4   -1    0    0    0  501 -0.00000000000E+00  0.00000000000E+00  0.45650198063E+03  0.45650198063E+03  0.00000000000E+00 0. -1.
         21   -1    0    0  501  502  0.00000000000E+00 -0.00000000000E+00 -0.11605914872E+04  0.11605914872E+04  0.00000000000E+00 0. -1.
   -9000010    2    1    2    0  502  0.45115827379E+02 -0.69974458239E+02 -0.93442012943E+03  0.13721770133E+04  0.10013974810E+04 0.  0.
         13    1    3    3    0    0  0.26351382721E+03  0.34579416983E+03 -0.75145105638E+03  0.86815427564E+03  0.10566000000E+00 0. -1.
         -4    1    3    3    0  502 -0.21839799983E+03 -0.41576862807E+03 -0.18296907305E+03  0.50402273769E+03  0.00000000000E+00 0. -1.
        -13    1    1    2    0    0 -0.45115827379E+02  0.69974458239E+02  0.23033062287E+03  0.24491645449E+03  0.10566000000E+00 0.  1.
<mgrwt>
<rscale>  1 0.53911710E+03</rscale>
<asrwt>0</asrwt>
<pdfrwt beam="2">  1       21 0.17855254E+00 0.10048526E+04</pdfrwt>
<pdfrwt beam="1">  1       -4 0.70231073E-01 0.10048526E+04</pdfrwt>
<totfact> 0.12070004E+01</totfact>
</mgrwt>
</event>
<event>
 6    2  0.2321478E-005  0.1062956E+04  0.7818608E-02  0.9651714E-01
         21   -1    0    0  501  502  0.00000000000E+00  0.00000000000E+00  0.20039117342E+04  0.20039117342E+04  0.00000000000E+00 0.  1.
         -4   -1    0    0    0  501 -0.00000000000E+00 -0.00000000000E+00 -0.25899445976E+03  0.25899445976E+03  0.00000000000E+00 0. -1.
   -9000010    2    1    2    0  502 -0.24543173848E+03  0.43283940738E+02  0.17068821588E+04  0.20108012178E+04  0.10333269550E+04 0.  0.
         13    1    3    3    0    0 -0.49310143925E+03  0.13067076195E+03  0.32651178249E+03  0.60566808789E+03  0.10566000000E+00 0. -1.
         -4    1    3    3    0  502  0.24766970077E+03 -0.87386821212E+02  0.13803703763E+04  0.14051331299E+04  0.00000000000E+00 0. -1.
        -13    1    1    2    0    0  0.24543173848E+03 -0.43283940738E+02  0.38035115641E+02  0.25210497608E+03  0.10566000000E+00 0.  1.
<mgrwt>
<rscale>  1 0.73965941E+03</rscale>
<asrwt>0</asrwt>
<pdfrwt beam="1">  1       21 0.30829410E+00 0.10629557E+04</pdfrwt>
<pdfrwt beam="2">  1       -4 0.39845303E-01 0.10629557E+04</pdfrwt>
<totfact> 0.57210436E+00</totfact>
</mgrwt>
</event>
<event>
 6    2  0.2321478E-005  0.1086258E+04  0.7818608E-02  0.9446505E-01
         -4   -1    0    0    0  501 -0.00000000000E+00  0.00000000000E+00  0.56986405035E+03  0.56986405035E+03  0.00000000000E+00 0. -1.
         21   -1    0    0  501  502  0.00000000000E+00 -0.00000000000E+00 -0.17523670847E+04  0.17523670847E+04  0.00000000000E+00 0. -1.
   -9000010    2    1    2    0  502  0.32562810600E+03 -0.34618242667E+03 -0.14224886556E+04  0.17898130235E+04  0.97677057080E+03 0.  0.
         13    1    3    3    0    0  0.47091571660E+03 -0.26041611089E+03 -0.22961114957E+03  0.58506363254E+03  0.10566000000E+00 0. -1.
         -4    1    3    3    0  502 -0.14528761060E+03 -0.85766315780E+02 -0.11928775060E+04  0.12047493910E+04  0.00000000000E+00 0. -1.
        -13    1    1    2    0    0 -0.32562810600E+03  0.34618242667E+03  0.23998562121E+03  0.53241811155E+03  0.10566000000E+00 0.  1.
<mgrwt>
<rscale>  1 0.88345315E+03</rscale>
<asrwt>0</asrwt>
<pdfrwt beam="2">  1       21 0.26959493E+00 0.10862581E+04</pdfrwt>
<pdfrwt beam="1">  1       -4 0.87671394E-01 0.10862581E+04</pdfrwt>
<totfact> 0.17820369E+00</totfact>
</mgrwt>
</event>
<event>
 6    2  0.2321478E-005  0.1031906E+04  0.7818608E-02  0.9665458E-01
         -4   -1    0    0    0  501 -0.00000000000E+00  0.00000000000E+00  0.42131283149E+03  0.42131283149E+03  0.00000000000E+00 0. -1.
         21   -1    0    0  501  502  0.00000000000E+00 -0.00000000000E+00 -0.14093067499E+04  0.14093067499E+04  0.00000000000E+00 0. -1.
   -9000010    2    1    2    0  502 -0.18019327798E+03  0.18746578272E+03 -0.11333321658E+04  0.15327332702E+04  0.99860725134E+03 0.  0.
         13    1    3    3    0    0  0.14117978624E+03  0.17120449436E+03  0.11053865707E+03  0.24791433360E+03  0.10566000000E+00 0. -1.
         -4    1    3    3    0  502 -0.32137306421E+03  0.16261288360E+02 -0.12438708228E+04  0.12848189366E+04  0.00000000000E+00 0. -1.
        -13    1    1    2    0    0  0.18019327798E+03 -0.18746578272E+03  0.14533824733E+03  0.29788631123E+03  0.10566000000E+00 0.  1.
<mgrwt>
<rscale>  1 0.73111188E+03</rscale>
<asrwt>0</asrwt>
<pdfrwt beam="2">  1       21 0.21681642E+00 0.10319058E+04</pdfrwt>
<pdfrwt beam="1">  1       -4 0.64817360E-01 0.10319058E+04</pdfrwt>
<totfact> 0.78025746E+00</totfact>
</mgrwt>
</event>
<event>
 6    2  0.2321478E-005  0.9850290E+03  0.7818608E-02  0.9905106E-01
         -4   -1    0    0    0  501 -0.00000000000E+00  0.00000000000E+00  0.11201584046E+04  0.11201584046E+04  0.00000000000E+00 0. -1.
         21   -1    0    0  501  502  0.00000000000E+00 -0.00000000000E+00 -0.35081744806E+03  0.35081744806E+03  0.00000000000E+00 0. -1.
   -9000010    2    1    2    0  502 -0.14508298482E+02  0.13495263894E+03  0.37511203356E+03  0.10540356167E+04  0.97563278854E+03 0.  0.
         13    1    3    3    0    0  0.46598443426E+03  0.16776423348E+03  0.12247265891E+03  0.51018221681E+03  0.10566000000E+00 0. -1.
         -4    1    3    3    0  502 -0.48049273274E+03 -0.32811594543E+02  0.25263937465E+03  0.54385339989E+03  0.00000000000E+00 0. -1.
        -13    1    1    2    0    0  0.14508298482E+02 -0.13495263894E+03  0.39422892296E+03  0.41694023593E+03  0.10566000000E+00 0.  1.
<mgrwt>
<rscale>  1 0.60014467E+03</rscale>
<asrwt>0</asrwt>
<pdfrwt beam="2">  1       21 0.53971916E-01 0.98502896E+03</pdfrwt>
<pdfrwt beam="1">  1       -4 0.17233206E+00 0.98502896E+03</pdfrwt>
<totfact> 0.25966848E+01</totfact>
</mgrwt>
</event>
<event>
 6    2  0.2321478E-005  0.1055387E+04  0.7818608E-02  0.9501914E-01
         21   -1    0    0  501  502  0.00000000000E+00  0.00000000000E+00  0.15313127509E+04  0.15313127509E+04  0.00000000000E+00 0.  1.
         -4   -1    0    0    0  501 -0.00000000000E+00 -0.00000000000E+00 -0.60335541428E+03  0.60335541428E+03  0.00000000000E+00 0. -1.
   -9000010    2    1    2    0  502 -0.39569968642E+03 -0.15890872099E+03  0.12235387718E+04  0.16158246248E+04  0.96540761781E+03 0.  0.
         13    1    3    3    0    0 -0.20408246001E+03  0.91598814681E+02  0.12765574032E+04  0.12960087994E+04  0.10566000000E+00 0. -1.
         -4    1    3    3    0  502 -0.19161722640E+03 -0.25050753567E+03 -0.53018631388E+02  0.31981582537E+03  0.00000000000E+00 0. -1.
        -13    1    1    2    0    0  0.39569968642E+03  0.15890872099E+03 -0.29558143517E+03  0.51884354040E+03  0.10566000000E+00 0.  1.
<mgrwt>
<rscale>  1 0.84142831E+03</rscale>
<asrwt>0</asrwt>
<pdfrwt beam="1">  1       21 0.23558658E+00 0.10553872E+04</pdfrwt>
<pdfrwt beam="2">  1       -4 0.92823910E-01 0.10553872E+04</pdfrwt>
<totfact> 0.25764819E+00</totfact>
</mgrwt>
</event>
<event>
 6    2  0.2321478E-005  0.1037324E+04  0.7818608E-02  0.9660460E-01
         21   -1    0    0  501  502  0.00000000000E+00  0.00000000000E+00  0.55434595094E+03  0.55434595094E+03  0.00000000000E+00 0. -1.
         -4   -1    0    0    0  501 -0.00000000000E+00 -0.00000000000E+00 -0.75946902662E+03  0.75946902662E+03  0.00000000000E+00 0. -1.
   -9000010    2    1    2    0  502 -0.24578863853E+03 -0.85795147889E+02 -0.15946816484E+03  0.10495097671E+04  0.10041253873E+04 0.  0.
         13    1    3    3    0    0 -0.45196799190E+03  0.33814462852E+03 -0.59305902208E+02  0.56756854802E+03  0.10566000000E+00 0. -1.
         -4    1    3    3    0  502  0.20617935337E+03 -0.42393977641E+03 -0.10016226264E+03  0.48194121907E+03  0.00000000000E+00 0. -1.
        -13    1    1    2    0    0  0.24578863853E+03  0.85795147889E+02 -0.45654910840E+02  0.26430521047E+03  0.10566000000E+00 0.  1.
<mgrwt>
<rscale>  1 0.73420568E+03</rscale>
<asrwt>0</asrwt>
<pdfrwt beam="1">  1       21 0.85283992E-01 0.10373238E+04</pdfrwt>
<pdfrwt beam="2">  1       -4 0.11684139E+00 0.10373238E+04</pdfrwt>
<totfact> 0.25465183E+01</totfact>
</mgrwt>
</event>
<event>
 6    2  0.2321478E-005  0.1042089E+04  0.7818608E-02  0.9689974E-01
         -4   -1    0    0    0  501 -0.00000000000E+00  0.00000000000E+00  0.73970719927E+03  0.73970719927E+03  0.00000000000E+00 0. -1.
         21   -1    0    0  501  502  0.00000000000E+00 -0.00000000000E+00 -0.80486205987E+03  0.80486205987E+03  0.00000000000E+00 0. -1.
   -9000010    2    1    2    0  502 -0.11631610371E+03  0.20126589355E+03 -0.41736660807E+03  0.11225615316E+04  0.10158307491E+04 0.  0.
         13    1    3    3    0    0 -0.21585270984E+03  0.65869317972E+02 -0.73192566880E+03  0.76592842695E+03  0.10566000000E+00 0. -1.
         -4    1    3    3    0  502  0.99536606136E+02  0.13539657558E+03  0.31455906073E+03  0.35663310464E+03  0.00000000000E+00 0. -1.
        -13    1    1    2    0    0  0.11631610371E+03 -0.20126589355E+03  0.35221174747E+03  0.42200772755E+03  0.10566000000E+00 0.  1.
<mgrwt>
<rscale>  1 0.71616885E+03</rscale>
<asrwt>0</asrwt>
<pdfrwt beam="2">  1       21 0.12382493E+00 0.10420890E+04</pdfrwt>
<pdfrwt beam="1">  1       -4 0.11380111E+00 0.10420890E+04</pdfrwt>
<totfact> 0.10705800E+01</totfact>
</mgrwt>
</event>
<event>
 6    2  0.2321478E-005  0.1019025E+04  0.7818608E-02  0.9924418E-01
         21   -1    0    0  501  502  0.00000000000E+00  0.00000000000E+00  0.49882043231E+03  0.49882043231E+03  0.00000000000E+00 0. -1.
         -4   -1    0    0    0  501 -0.00000000000E+00 -0.00000000000E+00 -0.67008130909E+03  0.67008130909E+03  0.00000000000E+00 0. -1.
   -9000010    2    1    2    0  502 -0.11007427619E+03  0.34086015204E+02 -0.80464133237E+02  0.10221970635E+04  0.10124890899E+04 0.  0.
         13    1    3    3    0    0 -0.16640841310E+03  0.46568225584E+03 -0.25118263649E+03  0.55465705746E+03  0.10566000000E+00 0. -1.
         -4    1    3    3    0  502  0.56334136906E+02 -0.43159624063E+03  0.17071850325E+03  0.46754000605E+03  0.00000000000E+00 0. -1.
        -13    1    1    2    0    0  0.11007427619E+03 -0.34086015204E+02 -0.90796743546E+02  0.14670467789E+03  0.10566000000E+00 0.  1.
<mgrwt>
<rscale>  1 0.59092335E+03</rscale>
<asrwt>0</asrwt>
<pdfrwt beam="1">  1       21 0.76741605E-01 0.10190252E+04</pdfrwt>
<pdfrwt beam="2">  1       -4 0.10308943E+00 0.10190252E+04</pdfrwt>
<totfact> 0.44529234E+01</totfact>
</mgrwt>
</event>
<event>
 6    2  0.2321478E-005  0.1257004E+04  0.7818608E-02  0.9223456E-01
         -4   -1    0    0    0  501 -0.00000000000E+00  0.00000000000E+00  0.53156497612E+03  0.53156497612E+03  0.00000000000E+00 0. -1.
         21   -1    0    0  501  502  0.00000000000E+00 -0.00000000000E+00 -0.18476775273E+04  0.18476775273E+04  0.00000000000E+00 0.  1.
   -9000010    2    1    2    0  502  0.63428973805E+03  0.26828340452E+03 -0.62591351576E+03  0.14042172850E+04  0.10515507583E+04 0.  0.
         13    1    3    3    0    0  0.45376514279E+02  0.50623685044E+03 -0.57436154618E+03  0.76695891265E+03  0.10566000000E+00 0. -1.
         -4    1    3    3    0  502  0.58891322377E+03 -0.23795344592E+03 -0.51551969577E+02  0.63725837234E+03  0.00000000000E+00 0. -1.
        -13    1    1    2    0    0 -0.63428973805E+03 -0.26828340452E+03 -0.69019903547E+03  0.97502521848E+03  0.10566000000E+00 0.  1.
<mgrwt>
<rscale>  1 0.10814565E+04</rscale>
<asrwt>0</asrwt>
<pdfrwt beam="2">  1       21 0.28425808E+00 0.12570038E+04</pdfrwt>
<pdfrwt beam="1">  1       -4 0.81779228E-01 0.12570038E+04</pdfrwt>
<totfact> 0.16495498E+00</totfact>
</mgrwt>
</event>
<event>
 6    2  0.2321478E-005  0.1036925E+04  0.7818608E-02  0.9638741E-01
         -4   -1    0    0    0  501 -0.00000000000E+00  0.00000000000E+00  0.27712498527E+03  0.27712498527E+03  0.00000000000E+00 0. -1.
         21   -1    0    0  501  502  0.00000000000E+00 -0.00000000000E+00 -0.15659086988E+04  0.15659086988E+04  0.00000000000E+00 0. -1.
   -9000010    2    1    2    0  502 -0.15203363896E+03  0.23577508832E+03 -0.10197245154E+04  0.14543217305E+04  0.99825321870E+03 0.  0.
         13    1    3    3    0    0 -0.14775989537E+02  0.60498739685E+03 -0.41934460623E+03  0.73625945844E+03  0.10566000000E+00 0. -1.
         -4    1    3    3    0  502 -0.13725764942E+03 -0.36921230853E+03 -0.60037990922E+03  0.71806227202E+03  0.00000000000E+00 0. -1.
        -13    1    1    2    0    0  0.15203363896E+03 -0.23577508832E+03 -0.26905919813E+03  0.38871195365E+03  0.10566000000E+00 0.  1.
<mgrwt>
<rscale>  1 0.74784264E+03</rscale>
<asrwt>0</asrwt>
<pdfrwt beam="2">  1       21 0.24090903E+00 0.10369251E+04</pdfrwt>
<pdfrwt beam="1">  1       -4 0.42634613E-01 0.10369251E+04</pdfrwt>
<totfact> 0.13255373E+01</totfact>
</mgrwt>
</event>
<event>
 6    2  0.2321478E-005  0.1053181E+04  0.7818608E-02  0.9590485E-01
         21   -1    0    0  501  502  0.00000000000E+00  0.00000000000E+00  0.15997040245E+04  0.15997040245E+04  0.00000000000E+00 0. -1.
         -4   -1    0    0    0  501 -0.00000000000E+00 -0.00000000000E+00 -0.42059564215E+03  0.42059564215E+03  0.00000000000E+00 0. -1.
   -9000010    2    1    2    0  502  0.29610387571E+03  0.10952714053E+03  0.13079907362E+04  0.16792947224E+04  0.10047473806E+04 0.  0.
         13    1    3    3    0    0 -0.18433568912E+03 -0.24963992517E+03  0.92448673809E+02  0.32380010342E+03  0.10566000000E+00 0. -1.
         -4    1    3    3    0  502  0.48043956482E+03  0.35916706569E+03  0.12155420624E+04  0.13554946190E+04  0.00000000000E+00 0. -1.
        -13    1    1    2    0    0 -0.29610387571E+03 -0.10952714053E+03 -0.12888235387E+03  0.34100494428E+03  0.10566000000E+00 0.  1.
<mgrwt>
<rscale>  1 0.77929153E+03</rscale>
<asrwt>0</asrwt>
<pdfrwt beam="1">  1       21 0.24610831E+00 0.10531814E+04</pdfrwt>
<pdfrwt beam="2">  1       -4 0.64707023E-01 0.10531814E+04</pdfrwt>
<totfact> 0.50336613E+00</totfact>
</mgrwt>
</event>
<event>
 6    2  0.2321478E-005  0.1006166E+04  0.7818608E-02  0.9658330E-01
         -4   -1    0    0    0  501 -0.00000000000E+00  0.00000000000E+00  0.13690637077E+04  0.13690637077E+04  0.00000000000E+00 0. -1.
         21   -1    0    0  501  502  0.00000000000E+00 -0.00000000000E+00 -0.32796067941E+03  0.32796067941E+03  0.00000000000E+00 0. -1.
   -9000010    2    1    2    0  502  0.48573919376E+02 -0.28320127505E+03  0.60275565661E+03  0.11728957605E+04  0.96426536572E+03 0.  0.
         13    1    3    3    0    0  0.17144060811E+03  0.22912641219E+03 -0.92340164317E+02  0.30069504815E+03  0.10566000000E+00 0. -1.
         -4    1    3    3    0  502 -0.12286668873E+03 -0.51232768724E+03  0.69509582093E+03  0.87220071233E+03  0.00000000000E+00 0. -1.
        -13    1    1    2    0    0 -0.48573919376E+02  0.28320127505E+03  0.43834737167E+03  0.52412862663E+03  0.10566000000E+00 0.  1.
<mgrwt>
<rscale>  1 0.73552938E+03</rscale>
<asrwt>0</asrwt>
<pdfrwt beam="2">  1       21 0.50455490E-01 0.10061660E+04</pdfrwt>
<pdfrwt beam="1">  1       -4 0.21062518E+00 0.10061660E+04</pdfrwt>
<totfact> 0.16511610E+01</totfact>
</mgrwt>
</event>
<event>
 6    2  0.2321478E-005  0.1051762E+04  0.7818608E-02  0.9597887E-01
         -4   -1    0    0    0  501 -0.00000000000E+00  0.00000000000E+00  0.37597233803E+03  0.37597233803E+03  0.00000000000E+00 0. -1.
         21   -1    0    0  501  502  0.00000000000E+00 -0.00000000000E+00 -0.13881728763E+04  0.13881728763E+04  0.00000000000E+00 0. -1.
   -9000010    2    1    2    0  502 -0.52086883104E+02  0.30462518221E+03 -0.10054320475E+04  0.14550249001E+04  0.10053329363E+04 0.  0.
         13    1    3    3    0    0 -0.51637710006E+03  0.24172644598E+03 -0.66451072714E+03  0.87558637598E+03  0.10566000000E+00 0. -1.
         -4    1    3    3    0  502  0.46429021696E+03  0.62898736232E+02 -0.34092132037E+03  0.57943852415E+03  0.00000000000E+00 0. -1.
        -13    1    1    2    0    0  0.52086883104E+02 -0.30462518221E+03 -0.67684907647E+01  0.30912031421E+03  0.10566000000E+00 0.  1.
<mgrwt>
<rscale>  1 0.77436202E+03</rscale>
<asrwt>0</asrwt>
<pdfrwt beam="2">  1       21 0.21356506E+00 0.10517623E+04</pdfrwt>
<pdfrwt beam="1">  1       -4 0.57841899E-01 0.10517623E+04</pdfrwt>
<totfact> 0.10493610E+01</totfact>
</mgrwt>
</event>
<event>
 6    2  0.2321478E-005  0.1049014E+04  0.7818608E-02  0.9951109E-01
         -4   -1    0    0    0  501 -0.00000000000E+00  0.00000000000E+00  0.41362884715E+03  0.41362884715E+03  0.00000000000E+00 0. -1.
         21   -1    0    0  501  502  0.00000000000E+00 -0.00000000000E+00 -0.81580771254E+03  0.81580771254E+03  0.00000000000E+00 0. -1.
   -9000010    2    1    2    0  502  0.89084355427E+02  0.38383729454E+02 -0.30575889777E+03  0.10926661156E+04  0.10445196999E+04 0.  0.
         13    1    3    3    0    0 -0.81971112561E+02  0.27591820088E+03 -0.60752052092E+03  0.67225836653E+03  0.10566000000E+00 0. -1.
         -4    1    3    3    0  502  0.17105546799E+03 -0.23753447142E+03  0.30176162314E+03  0.42040774903E+03  0.00000000000E+00 0. -1.
        -13    1    1    2    0    0 -0.89084355427E+02 -0.38383729454E+02 -0.96419967619E+02  0.13677044413E+03  0.10566000000E+00 0.  1.
<mgrwt>
<rscale>  1 0.57847020E+03</rscale>
<asrwt>0</asrwt>
<pdfrwt beam="2">  1       21 0.12550888E+00 0.10490142E+04</pdfrwt>
<pdfrwt beam="1">  1       -4 0.63635208E-01 0.10490142E+04</pdfrwt>
<totfact> 0.40085546E+01</totfact>
</mgrwt>
</event>
<event>
 6    2  0.2321478E-005  0.1009887E+04  0.7818608E-02  0.9928463E-01
         21   -1    0    0  501  502  0.00000000000E+00  0.00000000000E+00  0.54735900232E+03  0.54735900232E+03  0.00000000000E+00 0. -1.
         -4   -1    0    0    0  501 -0.00000000000E+00 -0.00000000000E+00 -0.58222331508E+03  0.58222331508E+03  0.00000000000E+00 0. -1.
   -9000010    2    1    2    0  502 -0.19344141727E+02 -0.11525290972E+03 -0.91851932642E+01  0.10099292466E+04  0.10031028294E+04 0.  0.
         13    1    3    3    0    0  0.10242878646E+03 -0.53621422897E+03  0.10760335103E+03  0.55641337867E+03  0.10566000000E+00 0. -1.
         -4    1    3    3    0  502 -0.12177292819E+03  0.42096131926E+03 -0.11678854430E+03  0.45351586789E+03  0.00000000000E+00 0. -1.
        -13    1    1    2    0    0  0.19344141727E+02  0.11525290972E+03 -0.25679119503E+02  0.11965307083E+03  0.10566000000E+00 0.  1.
<mgrwt>
<rscale>  1 0.58901439E+03</rscale>
<asrwt>0</asrwt>
<pdfrwt beam="1">  1       21 0.84209077E-01 0.10098875E+04</pdfrwt>
<pdfrwt beam="2">  1       -4 0.89572818E-01 0.10098875E+04</pdfrwt>
<totfact> 0.50094897E+01</totfact>
</mgrwt>
</event>
<event>
 6    2  0.2321478E-005  0.1008462E+04  0.7818608E-02  0.9706033E-01
         21   -1    0    0  501  502  0.00000000000E+00  0.00000000000E+00  0.36061627449E+03  0.36061627449E+03  0.00000000000E+00 0. -1.
         -4   -1    0    0    0  501 -0.00000000000E+00 -0.00000000000E+00 -0.11028663116E+04  0.11028663116E+04  0.00000000000E+00 0. -1.
   -9000010    2    1    2    0  502  0.18449876651E+03  0.15820984436E+03 -0.66689013983E+03  0.12090237977E+04  0.97873690806E+03 0.  0.
         13    1    3    3    0    0 -0.30641468897E+03  0.33361114539E+03 -0.15592612233E+03  0.47906087789E+03  0.10566000000E+00 0. -1.
         -4    1    3    3    0  502  0.49091345547E+03 -0.17540130103E+03 -0.51096401750E+03  0.72996291984E+03  0.00000000000E+00 0. -1.
        -13    1    1    2    0    0 -0.18449876651E+03 -0.15820984436E+03 -0.75359897311E+02  0.25445878838E+03  0.10566000000E+00 0.  1.
<mgrwt>
<rscale>  1 0.70658726E+03</rscale>
<asrwt>0</asrwt>
<pdfrwt beam="1">  1       21 0.55479427E-01 0.10084622E+04</pdfrwt>
<pdfrwt beam="2">  1       -4 0.16967174E+00 0.10084622E+04</pdfrwt>
<totfact> 0.25484710E+01</totfact>
</mgrwt>
</event>
<event>
 6    2  0.2321478E-005  0.1009204E+04  0.7818608E-02  0.9816937E-01
         -4   -1    0    0    0  501 -0.00000000000E+00  0.00000000000E+00  0.64374624682E+03  0.64374624682E+03  0.00000000000E+00 0. -1.
         21   -1    0    0  501  502  0.00000000000E+00 -0.00000000000E+00 -0.83778403336E+03  0.83778403336E+03  0.00000000000E+00 0. -1.
   -9000010    2    1    2    0  502  0.12576450120E+03  0.11136130618E+03 -0.50469376644E+03  0.11283657303E+04  0.99512580771E+03 0.  0.
         13    1    3    3    0    0 -0.51723356368E+02 -0.42895651840E+03 -0.14641197421E+03  0.45619675320E+03  0.10566000000E+00 0. -1.
         -4    1    3    3    0  502  0.17748785757E+03  0.54031782458E+03 -0.35828179223E+03  0.67216897711E+03  0.00000000000E+00 0. -1.
        -13    1    1    2    0    0 -0.12576450120E+03 -0.11136130618E+03  0.31065597990E+03  0.35316454988E+03  0.10566000000E+00 0.  1.
<mgrwt>
<rscale>  1 0.64461474E+03</rscale>
<asrwt>0</asrwt>
<pdfrwt beam="2">  1       21 0.12888985E+00 0.10092044E+04</pdfrwt>
<pdfrwt beam="1">  1       -4 0.99037884E-01 0.10092044E+04</pdfrwt>
<totfact> 0.13578731E+01</totfact>
</mgrwt>
</event>
<event>
 6    2  0.2321478E-005  0.1004216E+04  0.7818608E-02  0.9812194E-01
         21   -1    0    0  501  502  0.00000000000E+00  0.00000000000E+00  0.73169478604E+03  0.73169478604E+03  0.00000000000E+00 0. -1.
         -4   -1    0    0    0  501 -0.00000000000E+00 -0.00000000000E+00 -0.48638136161E+03  0.48638136161E+03  0.00000000000E+00 0. -1.
   -9000010    2    1    2    0  502  0.15210276578E+03 -0.82772399675E+02  0.27770338577E+03  0.10419067909E+04  0.98917342711E+03 0.  0.
         13    1    3    3    0    0  0.13000713300E+03  0.22284798206E+03 -0.29529351385E+03  0.39212414899E+03  0.10566000000E+00 0. -1.
         -4    1    3    3    0  502  0.22095632784E+02 -0.30562038174E+03  0.57299689962E+03  0.64978264188E+03  0.00000000000E+00 0. -1.
        -13    1    1    2    0    0 -0.15210276578E+03  0.82772399675E+02 -0.32389961338E+02  0.17616935677E+03  0.10566000000E+00 0.  1.
<mgrwt>
<rscale>  1 0.64712215E+03</rscale>
<asrwt>0</asrwt>
<pdfrwt beam="1">  1       21 0.11256843E+00 0.10042164E+04</pdfrwt>
<pdfrwt beam="2">  1       -4 0.74827902E-01 0.10042164E+04</pdfrwt>
<totfact> 0.37140631E+01</totfact>
</mgrwt>
</event>
<event>
 6    2  0.2321478E-005  0.1052927E+04  0.7818608E-02  0.9796480E-01
         -4   -1    0    0    0  501 -0.00000000000E+00  0.00000000000E+00  0.14659546488E+04  0.14659546488E+04  0.00000000000E+00 0. -1.
         21   -1    0    0  501  502  0.00000000000E+00 -0.00000000000E+00 -0.35575665337E+03  0.35575665337E+03  0.00000000000E+00 0. -1.
   -9000010    2    1    2    0  502 -0.10609056383E+03  0.11732315182E+03  0.45385562821E+03  0.11465778014E+04  0.10409782869E+04 0.  0.
         13    1    3    3    0    0  0.95650407522E+02  0.36788456010E+03  0.66204121562E+03  0.76340463213E+03  0.10566000000E+00 0. -1.
         -4    1    3    3    0  502 -0.20174097135E+03 -0.25056140828E+03 -0.20818558741E+03  0.38317316927E+03  0.00000000000E+00 0. -1.
        -13    1    1    2    0    0  0.10609056383E+03 -0.11732315182E+03  0.65634236718E+03  0.67513350073E+03  0.10566000000E+00 0.  1.
<mgrwt>
<rscale>  1 0.65551789E+03</rscale>
<asrwt>0</asrwt>
<pdfrwt beam="2">  1       21 0.54731794E-01 0.10529272E+04</pdfrwt>
<pdfrwt beam="1">  1       -4 0.22553148E+00 0.10529272E+04</pdfrwt>
<totfact> 0.11042009E+01</totfact>
</mgrwt>
</event>
<event>
 6    2  0.2321478E-005  0.1231652E+04  0.7818608E-02  0.9237614E-01
         -4   -1    0    0    0  501 -0.00000000000E+00  0.00000000000E+00  0.83126894539E+03  0.83126894539E+03  0.00000000000E+00 0. -1.
         21   -1    0    0  501  502  0.00000000000E+00 -0.00000000000E+00 -0.12496841685E+04  0.12496841685E+04  0.00000000000E+00 0.  1.
   -9000010    2    1    2    0  502  0.19691010168E+02  0.69436141359E+03  0.67065236580E+02  0.12334763906E+04  0.10170746048E+04 0.  0.
         13    1    3    3    0    0  0.45172653178E+03  0.34832442813E+03  0.28613779879E+03  0.63817052408E+03  0.10566000000E+00 0. -1.
         -4    1    3    3    0  502 -0.43203552161E+03  0.34603698547E+03 -0.21907256221E+03  0.59530586656E+03  0.00000000000E+00 0. -1.
        -13    1    1    2    0    0 -0.19691010168E+02 -0.69436141359E+03 -0.48548045970E+03  0.84747672327E+03  0.10566000000E+00 0.  1.
<mgrwt>
<rscale>  1 0.10673480E+04</rscale>
<asrwt>0</asrwt>
<pdfrwt beam="2">  1       21 0.19225910E+00 0.12316518E+04</pdfrwt>
<pdfrwt beam="1">  1       -4 0.12788753E+00 0.12316518E+04</pdfrwt>
<totfact> 0.22315793E+00</totfact>
</mgrwt>
</event>
<event>
 6    2  0.2321478E-005  0.1014751E+04  0.7818608E-02  0.9764339E-01
         -4   -1    0    0    0  501 -0.00000000000E+00  0.00000000000E+00  0.84136291627E+03  0.84136291627E+03  0.00000000000E+00 0. -1.
         21   -1    0    0  501  502  0.00000000000E+00 -0.00000000000E+00 -0.46281302857E+03  0.46281302857E+03  0.00000000000E+00 0. -1.
   -9000010    2    1    2    0  502  0.59458348858E+02  0.18725435777E+03  0.19101635377E+03  0.10325726914E+04  0.99554991131E+03 0.  0.
         13    1    3    3    0    0 -0.14457552696E+03 -0.21505659406E+03 -0.27923006684E+03  0.38094732318E+03  0.10566000000E+00 0. -1.
         -4    1    3    3    0  502  0.20403387582E+03  0.40231095183E+03  0.47024642061E+03  0.65162536825E+03  0.00000000000E+00 0. -1.
        -13    1    1    2    0    0 -0.59458348858E+02 -0.18725435777E+03  0.18753353393E+03  0.27160325342E+03  0.10566000000E+00 0.  1.
<mgrwt>
<rscale>  1 0.67311962E+03</rscale>
<asrwt>0</asrwt>
<pdfrwt beam="2">  1       21 0.71202004E-01 0.10147508E+04</pdfrwt>
<pdfrwt beam="1">  1       -4 0.12944045E+00 0.10147508E+04</pdfrwt>
<totfact> 0.30033886E+01</totfact>
</mgrwt>
</event>
<event>
 6    2  0.2321478E-005  0.1031009E+04  0.7818608E-02  0.9605117E-01
         -4   -1    0    0    0  501 -0.00000000000E+00  0.00000000000E+00  0.27974752844E+03  0.27974752844E+03  0.00000000000E+00 0. -1.
         21   -1    0    0  501  502  0.00000000000E+00 -0.00000000000E+00 -0.16867725890E+04  0.16867725890E+04  0.00000000000E+00 0. -1.
   -9000010    2    1    2    0  502  0.10419745773E+03  0.30262886207E+03 -0.12141203508E+04  0.15928175933E+04  0.98007056935E+03 0.  0.
         13    1    3    3    0    0 -0.12803857315E+03 -0.18397930009E+03 -0.97946130656E+03  0.10047819272E+04  0.10566000000E+00 0. -1.
         -4    1    3    3    0  502  0.23223603089E+03  0.48660816216E+03 -0.23465904425E+03  0.58803566607E+03  0.00000000000E+00 0. -1.
        -13    1    1    2    0    0 -0.10419745773E+03 -0.30262886207E+03 -0.19290470978E+03  0.37370252418E+03  0.10566000000E+00 0.  1.
<mgrwt>
<rscale>  1 0.76958442E+03</rscale>
<asrwt>0</asrwt>
<pdfrwt beam="2">  1       21 0.25950347E+00 0.10310090E+04</pdfrwt>
<pdfrwt beam="1">  1       -4 0.43038082E-01 0.10310090E+04</pdfrwt>
<totfact> 0.99086549E+00</totfact>
</mgrwt>
</event>
<event>
 6    2  0.2321478E-005  0.1146738E+04  0.7818608E-02  0.9342829E-01
         -4   -1    0    0    0  501 -0.00000000000E+00  0.00000000000E+00  0.83730631039E+03  0.83730631039E+03  0.00000000000E+00 0. -1.
         21   -1    0    0  501  502  0.00000000000E+00 -0.00000000000E+00 -0.90751765389E+03  0.90751765389E+03  0.00000000000E+00 0.  1.
   -9000010    2    1    2    0  502 -0.42081371060E+03 -0.40705751025E+03 -0.13980398976E+03  0.11552282187E+04  0.98601576355E+03 0.  0.
         13    1    3    3    0    0  0.28918757471E+03 -0.27001794755E+03  0.71112553148E+02  0.40199023837E+03  0.10566000000E+00 0. -1.
         -4    1    3    3    0  502 -0.71000128531E+03 -0.13703956270E+03 -0.21091654291E+03  0.75323798029E+03  0.00000000000E+00 0. -1.
        -13    1    1    2    0    0  0.42081371060E+03  0.40705751025E+03  0.69592646254E+02  0.58959574562E+03  0.10566000000E+00 0.  1.
<mgrwt>
<rscale>  1 0.96933740E+03</rscale>
<asrwt>0</asrwt>
<pdfrwt beam="2">  1       21 0.13961810E+00 0.11467376E+04</pdfrwt>
<pdfrwt beam="1">  1       -4 0.12881636E+00 0.11467376E+04</pdfrwt>
<totfact> 0.56139586E+00</totfact>
</mgrwt>
</event>
<event>
 6    2  0.2321478E-005  0.1128851E+04  0.7818608E-02  0.9381025E-01
         21   -1    0    0  501  502  0.00000000000E+00  0.00000000000E+00  0.79113605822E+03  0.79113605822E+03  0.00000000000E+00 0.  1.
         -4   -1    0    0    0  501 -0.00000000000E+00 -0.00000000000E+00 -0.96857851605E+03  0.96857851605E+03  0.00000000000E+00 0. -1.
   -9000010    2    1    2    0  502  0.52949950271E+03  0.75107493518E+02 -0.37512602670E+03  0.11895482270E+04  0.99413006674E+03 0.  0.
         13    1    3    3    0    0 -0.14316159309E+03  0.18999982562E+03  0.18925782525E+03  0.30399623527E+03  0.10566000000E+00 0. -1.
         -4    1    3    3    0  502  0.67266109581E+03 -0.11489233210E+03 -0.56438385195E+03  0.88555199177E+03  0.00000000000E+00 0. -1.
        -13    1    1    2    0    0 -0.52949950271E+03 -0.75107493518E+02  0.19768356886E+03  0.57016634723E+03  0.10566000000E+00 0.  1.
<mgrwt>
<rscale>  1 0.93653810E+03</rscale>
<asrwt>0</asrwt>
<pdfrwt beam="1">  1       21 0.12171324E+00 0.11288514E+04</pdfrwt>
<pdfrwt beam="2">  1       -4 0.14901208E+00 0.11288514E+04</pdfrwt>
<totfact> 0.55353536E+00</totfact>
</mgrwt>
</event>
<event>
 6    2  0.2321478E-005  0.1238376E+04  0.7818608E-02  0.9218516E-01
         -4   -1    0    0    0  501 -0.00000000000E+00  0.00000000000E+00  0.89573764012E+03  0.89573764012E+03  0.00000000000E+00 0. -1.
         21   -1    0    0  501  502  0.00000000000E+00 -0.00000000000E+00 -0.10997662731E+04  0.10997662731E+04  0.00000000000E+00 0.  1.
   -9000010    2    1    2    0  502  0.73214792946E+03  0.46038557508E+02 -0.17209044792E+02  0.12384955189E+04  0.99770479583E+03 0.  0.
         13    1    3    3    0    0  0.44912151248E+03  0.29860395114E+03  0.40235277367E+03  0.67287607942E+03  0.10566000000E+00 0. -1.
         -4    1    3    3    0  502  0.28302641698E+03 -0.25256539363E+03 -0.41956181846E+03  0.56561943944E+03  0.00000000000E+00 0. -1.
        -13    1    1    2    0    0 -0.73214792946E+03 -0.46038557508E+02 -0.18681958814E+03  0.75700839432E+03  0.10566000000E+00 0.  1.
<mgrwt>
<rscale>  1 0.10864341E+04</rscale>
<asrwt>0</asrwt>
<pdfrwt beam="2">  1       21 0.16919481E+00 0.12383760E+04</pdfrwt>
<pdfrwt beam="1">  1       -4 0.13780579E+00 0.12383760E+04</pdfrwt>
<totfact> 0.27060342E+00</totfact>
</mgrwt>
</event>
<event>
 6    2  0.2321478E-005  0.1037707E+04  0.7818608E-02  0.9639245E-01
         -4   -1    0    0    0  501 -0.00000000000E+00  0.00000000000E+00  0.58143112855E+03  0.58143112855E+03  0.00000000000E+00 0. -1.
         21   -1    0    0  501  502  0.00000000000E+00 -0.00000000000E+00 -0.11568555212E+04  0.11568555212E+04  0.00000000000E+00 0. -1.
   -9000010    2    1    2    0  502  0.87374351236E+02  0.26541882221E+03 -0.85383961680E+03  0.13438294574E+04  0.99937685126E+03 0.  0.
         13    1    3    3    0    0 -0.92709160042E+02  0.34116467963E+03  0.10221611080E+03  0.36801694452E+03  0.10566000000E+00 0. -1.
         -4    1    3    3    0  502  0.18008351128E+03 -0.75745857421E+02 -0.95605572760E+03  0.97581251284E+03  0.00000000000E+00 0. -1.
        -13    1    1    2    0    0 -0.87374351236E+02 -0.26541882221E+03  0.27841522414E+03  0.39445719240E+03  0.10566000000E+00 0.  1.
<mgrwt>
<rscale>  1 0.74752288E+03</rscale>
<asrwt>0</asrwt>
<pdfrwt beam="2">  1       21 0.17797777E+00 0.10377069E+04</pdfrwt>
<pdfrwt beam="1">  1       -4 0.89450944E-01 0.10377069E+04</pdfrwt>
<totfact> 0.69664400E+00</totfact>
</mgrwt>
</event>
<event>
 6    2  0.2321478E-005  0.1002353E+04  0.7818608E-02  0.1015355E+00
         21   -1    0    0  501  502  0.00000000000E+00  0.00000000000E+00  0.87905126103E+03  0.87905126103E+03  0.00000000000E+00 0. -1.
         -4   -1    0    0    0  501 -0.00000000000E+00 -0.00000000000E+00 -0.34059846548E+03  0.34059846548E+03  0.00000000000E+00 0. -1.
   -9000010    2    1    2    0  502  0.59023331668E+02 -0.36820947764E+01  0.56951737229E+03  0.11528490484E+04  0.10006066058E+04 0.  0.
         13    1    3    3    0    0  0.19908051526E+03 -0.46884499569E+03  0.36035786162E+03  0.62394429330E+03  0.10566000000E+00 0. -1.
         -4    1    3    3    0  502 -0.14005718359E+03  0.46516290092E+03  0.20915951067E+03  0.52890475510E+03  0.00000000000E+00 0. -1.
        -13    1    1    2    0    0 -0.59023331668E+02  0.36820947764E+01 -0.31064576749E+02  0.66800678108E+02  0.10566000000E+00 0.  1.
<mgrwt>
<rscale>  1 0.49400618E+03</rscale>
<asrwt>0</asrwt>
<pdfrwt beam="1">  1       21 0.13523865E+00 0.10023527E+04</pdfrwt>
<pdfrwt beam="2">  1       -4 0.52399764E-01 0.10023527E+04</pdfrwt>
<totfact> 0.50258514E+01</totfact>
</mgrwt>
</event>
<event>
 6    2  0.2321478E-005  0.1025112E+04  0.7818608E-02  0.9746769E-01
         -4   -1    0    0    0  501 -0.00000000000E+00  0.00000000000E+00  0.77870370571E+03  0.77870370571E+03  0.00000000000E+00 0. -1.
         21   -1    0    0  501  502  0.00000000000E+00 -0.00000000000E+00 -0.11385441231E+04  0.11385441231E+04  0.00000000000E+00 0. -1.
   -9000010    2    1    2    0  502 -0.12874069547E+03  0.15565704236E+03 -0.88518734911E+03  0.13544044301E+04  0.10050131521E+04 0.  0.
         13    1    3    3    0    0 -0.19975122680E+03  0.48739610025E+03 -0.86724408502E+03  0.10146762170E+04  0.10566000000E+00 0. -1.
         -4    1    3    3    0  502  0.71010531330E+02 -0.33173905789E+03 -0.17943264084E+02  0.33972821316E+03  0.00000000000E+00 0. -1.
        -13    1    1    2    0    0  0.12874069547E+03 -0.15565704236E+03  0.52534693176E+03  0.56284339863E+03  0.10566000000E+00 0.  1.
<mgrwt>
<rscale>  1 0.68299167E+03</rscale>
<asrwt>0</asrwt>
<pdfrwt beam="2">  1       21 0.17516063E+00 0.10251121E+04</pdfrwt>
<pdfrwt beam="1">  1       -4 0.11980057E+00 0.10251121E+04</pdfrwt>
<totfact> 0.35984802E+00</totfact>
</mgrwt>
</event>
<event>
 6    2  0.2321478E-005  0.1011111E+04  0.7818608E-02  0.9889149E-01
         -4   -1    0    0    0  501 -0.00000000000E+00  0.00000000000E+00  0.48518595590E+03  0.48518595590E+03  0.00000000000E+00 0. -1.
         21   -1    0    0  501  502  0.00000000000E+00 -0.00000000000E+00 -0.86968966973E+03  0.86968966973E+03  0.00000000000E+00 0. -1.
   -9000010    2    1    2    0  502 -0.25886689749E+02 -0.12954823406E+03 -0.54368453925E+03  0.11480147738E+04  0.10024431042E+04 0.  0.
         13    1    3    3    0    0 -0.23084836721E+03  0.38067504091E+03 -0.34549775926E+03  0.56353630605E+03  0.10566000000E+00 0. -1.
         -4    1    3    3    0  502  0.20496167746E+03 -0.51022327497E+03 -0.19818678000E+03  0.58447846780E+03  0.00000000000E+00 0. -1.
        -13    1    1    2    0    0  0.25886689749E+02  0.12954823406E+03  0.15918082542E+03  0.20686085178E+03  0.10566000000E+00 0.  1.
<mgrwt>
<rscale>  1 0.60790041E+03</rscale>
<asrwt>0</asrwt>
<pdfrwt beam="2">  1       21 0.13379841E+00 0.10111108E+04</pdfrwt>
<pdfrwt beam="1">  1       -4 0.74643993E-01 0.10111108E+04</pdfrwt>
<totfact> 0.23767089E+01</totfact>
</mgrwt>
</event>
<event>
 6    2  0.2321478E-005  0.8950673E+03  0.7818608E-02  0.9823455E-01
         -4   -1    0    0    0  501 -0.00000000000E+00  0.00000000000E+00  0.13579637572E+03  0.13579637572E+03  0.00000000000E+00 0. -1.
         21   -1    0    0  501  502  0.00000000000E+00 -0.00000000000E+00 -0.26343322986E+04  0.26343322986E+04  0.00000000000E+00 0. -1.
   -9000010    2    1    2    0  502  0.13202766440E+03  0.19526220794E+03 -0.15232035982E+04  0.17667185942E+04  0.86347365665E+03 0.  0.
         13    1    3    3    0    0  0.44451609678E+03  0.19441197319E+03 -0.49932555248E+03  0.69621591058E+03  0.10566000000E+00 0. -1.
         -4    1    3    3    0  502 -0.31248843239E+03  0.85023475297E+00 -0.10238780457E+04  0.10705026837E+04  0.00000000000E+00 0. -1.
        -13    1    1    2    0    0 -0.13202766440E+03 -0.19526220794E+03 -0.97533232472E+03  0.10034100801E+04  0.10566000000E+00 0.  1.
<mgrwt>
<rscale>  1 0.64118856E+03</rscale>
<asrwt>0</asrwt>
<pdfrwt beam="2">  1       21 0.40528193E+00 0.89506725E+03</pdfrwt>
<pdfrwt beam="1">  1       -4 0.20891748E-01 0.89506725E+03</pdfrwt>
<totfact> 0.50311420E+00</totfact>
</mgrwt>
</event>
<event>
 6    2  0.2321478E-005  0.1020056E+04  0.7818608E-02  0.9739175E-01
         21   -1    0    0  501  502  0.00000000000E+00  0.00000000000E+00  0.43850087299E+03  0.43850087299E+03  0.00000000000E+00 0. -1.
         -4   -1    0    0    0  501 -0.00000000000E+00 -0.00000000000E+00 -0.90477622609E+03  0.90477622609E+03  0.00000000000E+00 0. -1.
   -9000010    2    1    2    0  502 -0.14951334880E+03  0.14783064458E+03 -0.26892366576E+03  0.10549095548E+04  0.99815133613E+03 0.  0.
         13    1    3    3    0    0 -0.34294120953E+03  0.29572724279E+03 -0.53053579153E+03  0.69751810914E+03  0.10566000000E+00 0. -1.
         -4    1    3    3    0  502  0.19342786074E+03 -0.14789659820E+03  0.26161212577E+03  0.35739144564E+03  0.00000000000E+00 0. -1.
        -13    1    1    2    0    0  0.14951334880E+03 -0.14783064458E+03 -0.19735168734E+03  0.28836754430E+03  0.10566000000E+00 0.  1.
<mgrwt>
<rscale>  1 0.68731497E+03</rscale>
<asrwt>0</asrwt>
<pdfrwt beam="1">  1       21 0.67461674E-01 0.10200560E+04</pdfrwt>
<pdfrwt beam="2">  1       -4 0.13919634E+00 0.10200560E+04</pdfrwt>
<totfact> 0.28134200E+01</totfact>
</mgrwt>
</event>
<event>
 6    2  0.2321478E-005  0.9813199E+03  0.7818608E-02  0.9821572E-01
         21   -1    0    0  501  502  0.00000000000E+00  0.00000000000E+00  0.60994432252E+03  0.60994432252E+03  0.00000000000E+00 0. -1.
         -4   -1    0    0    0  501 -0.00000000000E+00 -0.00000000000E+00 -0.63281992424E+03  0.63281992424E+03  0.00000000000E+00 0. -1.
   -9000010    2    1    2    0  502  0.17991313013E+03 -0.42526377527E+01  0.15059327387E+03  0.99280768797E+03  0.96467712310E+03 0.  0.
         13    1    3    3    0    0 -0.37229524310E+03 -0.15638232472E+03  0.11036447445E+03  0.41861618209E+03  0.10566000000E+00 0. -1.
         -4    1    3    3    0  502  0.55220837323E+03  0.15212968697E+03  0.40228799416E+02  0.57419150588E+03  0.00000000000E+00 0. -1.
        -13    1    1    2    0    0 -0.17991313013E+03  0.42526377527E+01 -0.17346887559E+03  0.24995655879E+03  0.10566000000E+00 0.  1.
<mgrwt>
<rscale>  1 0.64217592E+03</rscale>
<asrwt>0</asrwt>
<pdfrwt beam="1">  1       21 0.93837588E-01 0.98131991E+03</pdfrwt>
<pdfrwt beam="2">  1       -4 0.97356912E-01 0.98131991E+03</pdfrwt>
<totfact> 0.31757796E+01</totfact>
</mgrwt>
</event>
<event>
 6    2  0.2321478E-005  0.1042841E+04  0.7818608E-02  0.9606677E-01
         -4   -1    0    0    0  501 -0.00000000000E+00  0.00000000000E+00  0.24357650110E+03  0.24357650110E+03  0.00000000000E+00 0. -1.
         21   -1    0    0  501  502  0.00000000000E+00 -0.00000000000E+00 -0.18829570892E+04  0.18829570892E+04  0.00000000000E+00 0. -1.
   -9000010    2    1    2    0  502  0.15053452123E+03  0.26830123020E+03 -0.13316944939E+04  0.16914279296E+04  0.99642963822E+03 0.  0.
         13    1    3    3    0    0  0.15174404108E+03  0.57239942446E+03 -0.40840756227E+03  0.71934977807E+03  0.10566000000E+00 0. -1.
         -4    1    3    3    0  502 -0.12095198579E+01 -0.30409819425E+03 -0.92328693159E+03  0.97207815155E+03  0.00000000000E+00 0. -1.
        -13    1    1    2    0    0 -0.15053452123E+03 -0.26830123020E+03 -0.30768609424E+03  0.43510566069E+03  0.10566000000E+00 0.  1.
<mgrwt>
<rscale>  1 0.76855792E+03</rscale>
<asrwt>0</asrwt>
<pdfrwt beam="2">  1       21 0.28968571E+00 0.10428414E+04</pdfrwt>
<pdfrwt beam="1">  1       -4 0.37473307E-01 0.10428414E+04</pdfrwt>
<totfact> 0.84899691E+00</totfact>
</mgrwt>
</event>
<event>
 6    2  0.2321478E-005  0.1031389E+04  0.7818608E-02  0.9711884E-01
         21   -1    0    0  501  502  0.00000000000E+00  0.00000000000E+00  0.62098550215E+03  0.62098550215E+03  0.00000000000E+00 0. -1.
         -4   -1    0    0    0  501 -0.00000000000E+00 -0.00000000000E+00 -0.77256439630E+03  0.77256439630E+03  0.00000000000E+00 0. -1.
   -9000010    2    1    2    0  502 -0.20078878835E+03 -0.96528831271E+02  0.12440548556E+03  0.10388650499E+04  0.10070401751E+04 0.  0.
         13    1    3    3    0    0 -0.18975396381E+03 -0.54445919221E+03  0.11057484592E+02  0.57668419251E+03  0.10566000000E+00 0. -1.
         -4    1    3    3    0  502 -0.11034824543E+02  0.44793036094E+03  0.11334800097E+03  0.46218085738E+03  0.00000000000E+00 0. -1.
        -13    1    1    2    0    0  0.20078878835E+03  0.96528831271E+02 -0.27598437971E+03  0.35468484856E+03  0.10566000000E+00 0.  1.
<mgrwt>
<rscale>  1 0.70313600E+03</rscale>
<asrwt>0</asrwt>
<pdfrwt beam="1">  1       21 0.95536231E-01 0.10313893E+04</pdfrwt>
<pdfrwt beam="2">  1       -4 0.11885606E+00 0.10313893E+04</pdfrwt>
<totfact> 0.18554003E+01</totfact>
</mgrwt>
</event>
<event>
 6    2  0.2321478E-005  0.1042447E+04  0.7818608E-02  0.9644244E-01
         -4   -1    0    0    0  501 -0.00000000000E+00  0.00000000000E+00  0.65052945081E+03  0.65052945081E+03  0.00000000000E+00 0. -1.
         21   -1    0    0  501  502  0.00000000000E+00 -0.00000000000E+00 -0.10255509362E+04  0.10255509362E+04  0.00000000000E+00 0. -1.
   -9000010    2    1    2    0  502  0.25908798009E+03  0.79453556120E+02 -0.69793916078E+03  0.12545174792E+04  0.10066059728E+04 0.  0.
         13    1    3    3    0    0 -0.28369001221E+03  0.28456131028E+02  0.87662551029E+02  0.29828595079E+03  0.10566000000E+00 0. -1.
         -4    1    3    3    0  502  0.54277799230E+03  0.50997425092E+02 -0.78560171181E+03  0.95623152839E+03  0.00000000000E+00 0. -1.
        -13    1    1    2    0    0 -0.25908798009E+03 -0.79453556120E+02  0.32291767539E+03  0.42156290782E+03  0.10566000000E+00 0.  1.
<mgrwt>
<rscale>  1 0.74435749E+03</rscale>
<asrwt>0</asrwt>
<pdfrwt beam="2">  1       21 0.15777707E+00 0.10424467E+04</pdfrwt>
<pdfrwt beam="1">  1       -4 0.10008145E+00 0.10424467E+04</pdfrwt>
<totfact> 0.75746720E+00</totfact>
</mgrwt>
</event>
<event>
 6    2  0.2321478E-005  0.1025701E+04  0.7818608E-02  0.9764942E-01
         -4   -1    0    0    0  501 -0.00000000000E+00  0.00000000000E+00  0.44025774928E+03  0.44025774928E+03  0.00000000000E+00 0. -1.
         21   -1    0    0  501  502  0.00000000000E+00 -0.00000000000E+00 -0.85820637365E+03  0.85820637365E+03  0.00000000000E+00 0.  1.
   -9000010    2    1    2    0  502 -0.60811351504E+02  0.17986007869E+03 -0.27833393295E+03  0.10627949871E+04  0.10079760602E+04 0.  0.
         13    1    3    3    0    0 -0.20193467931E+03 -0.37498894416E+03 -0.24030088237E+03  0.48901824934E+03  0.10566000000E+00 0. -1.
         -4    1    3    3    0  502  0.14112332781E+03  0.55484902285E+03 -0.38033050587E+02  0.57377673772E+03  0.00000000000E+00 0. -1.
        -13    1    1    2    0    0  0.60811351504E+02 -0.17986007869E+03 -0.13961469142E+03  0.23566913587E+03  0.10566000000E+00 0.  1.
<mgrwt>
<rscale>  1 0.67278366E+03</rscale>
<asrwt>0</asrwt>
<pdfrwt beam="2">  1       21 0.13203175E+00 0.10257014E+04</pdfrwt>
<pdfrwt beam="1">  1       -4 0.67731962E-01 0.10257014E+04</pdfrwt>
<totfact> 0.30590033E+01</totfact>
</mgrwt>
</event>
<event>
 6    2  0.2321478E-005  0.1012318E+04  0.7818608E-02  0.9934275E-01
         -4   -1    0    0    0  501 -0.00000000000E+00  0.00000000000E+00  0.23615591121E+03  0.23615591121E+03  0.00000000000E+00 0. -1.
         21   -1    0    0  501  502  0.00000000000E+00 -0.00000000000E+00 -0.14129837649E+04  0.14129837649E+04  0.00000000000E+00 0. -1.
   -9000010    2    1    2    0  502 -0.11375521619E+03  0.55419609889E+01 -0.11500893756E+04  0.15321528396E+04  0.10058905455E+04 0.  0.
         13    1    3    3    0    0  0.94092724653E+02 -0.25514452261E+03  0.58718972390E+02  0.27820872944E+03  0.10566000000E+00 0. -1.
         -4    1    3    3    0  502 -0.20784794084E+03  0.26068648360E+03 -0.12088083479E+04  0.12539441101E+04  0.00000000000E+00 0. -1.
        -13    1    1    2    0    0  0.11375521619E+03 -0.55419609889E+01 -0.26738478086E+02  0.11698683651E+03  0.10566000000E+00 0.  1.
<mgrwt>
<rscale>  1 0.58628548E+03</rscale>
<asrwt>0</asrwt>
<pdfrwt beam="2">  1       21 0.21738212E+00 0.10123175E+04</pdfrwt>
<pdfrwt beam="1">  1       -4 0.36331679E-01 0.10123175E+04</pdfrwt>
<totfact> 0.26220631E+01</totfact>
</mgrwt>
</event>
<event>
 6    2  0.2321478E-005  0.8499195E+03  0.7818608E-02  0.1011669E+00
         -4   -1    0    0    0  501 -0.00000000000E+00  0.00000000000E+00  0.13797608285E+04  0.13797608285E+04  0.00000000000E+00 0. -1.
         21   -1    0    0  501  502  0.00000000000E+00 -0.00000000000E+00 -0.16754160319E+03  0.16754160319E+03  0.00000000000E+00 0. -1.
   -9000010    2    1    2    0  502  0.80652941558E+02 -0.72750976022E+02  0.10325894877E+04  0.13373870790E+04  0.84295050121E+03 0.  0.
         13    1    3    3    0    0  0.39979644093E+03  0.16162986621E+03  0.38368620126E+03  0.57721444892E+03  0.10566000000E+00 0. -1.
         -4    1    3    3    0  502 -0.31914349937E+03 -0.23438084223E+03  0.64890328643E+03  0.76017263009E+03  0.00000000000E+00 0. -1.
        -13    1    1    2    0    0 -0.80652941558E+02  0.72750976022E+02  0.17962973765E+03  0.20991535272E+03  0.10566000000E+00 0.  1.
<mgrwt>
<rscale>  1 0.50816835E+03</rscale>
<asrwt>0</asrwt>
<pdfrwt beam="2">  1       21 0.25775632E-01 0.84991950E+03</pdfrwt>
<pdfrwt beam="1">  1       -4 0.21227089E+00 0.84991950E+03</pdfrwt>
<totfact> 0.65520705E+01</totfact>
</mgrwt>
</event>
<event>
 6    2  0.2321478E-005  0.1118662E+04  0.7818608E-02  0.9513293E-01
         21   -1    0    0  501  502  0.00000000000E+00  0.00000000000E+00  0.12664503652E+04  0.12664503652E+04  0.00000000000E+00 0. -1.
         -4   -1    0    0    0  501 -0.00000000000E+00 -0.00000000000E+00 -0.42903305244E+03  0.42903305244E+03  0.00000000000E+00 0. -1.
   -9000010    2    1    2    0  502 -0.19463940189E+03 -0.28378484107E+03  0.54720581807E+03  0.12453267165E+04  0.10644181935E+04 0.  0.
         13    1    3    3    0    0  0.15453934294E+03  0.27031520519E+03  0.49955701162E+03  0.58865094725E+03  0.10566000000E+00 0. -1.
         -4    1    3    3    0  502 -0.34917874483E+03 -0.55410004626E+03  0.47648806456E+02  0.65667576921E+03  0.00000000000E+00 0. -1.
        -13    1    1    2    0    0  0.19463940189E+03  0.28378484107E+03  0.29021149467E+03  0.45015670115E+03  0.10566000000E+00 0.  1.
<mgrwt>
<rscale>  1 0.83310849E+03</rscale>
<asrwt>0</asrwt>
<pdfrwt beam="1">  1       21 0.19483852E+00 0.11186619E+04</pdfrwt>
<pdfrwt beam="2">  1       -4 0.66005085E-01 0.11186619E+04</pdfrwt>
<totfact> 0.10464215E+01</totfact>
</mgrwt>
</event>
<event>
 6    2  0.2321478E-005  0.1013372E+04  0.7818608E-02  0.9799483E-01
         -4   -1    0    0    0  501 -0.00000000000E+00  0.00000000000E+00  0.53739064731E+03  0.53739064731E+03  0.00000000000E+00 0. -1.
         21   -1    0    0  501  502  0.00000000000E+00 -0.00000000000E+00 -0.17106954822E+04  0.17106954822E+04  0.00000000000E+00 0. -1.
   -9000010    2    1    2    0  502 -0.31403751434E+02  0.17286030647E+03 -0.15388297144E+04  0.18425305477E+04  0.99802557487E+03 0.  0.
         13    1    3    3    0    0 -0.35659098411E+03 -0.19555500960E+03 -0.11376663926E+04  0.12081737142E+04  0.10566000000E+00 0. -1.
         -4    1    3    3    0  502  0.32518723267E+03  0.36841531608E+03 -0.40116332182E+03  0.63435683348E+03  0.00000000000E+00 0. -1.
        -13    1    1    2    0    0  0.31403751434E+02 -0.17286030647E+03  0.36552487956E+03  0.40555558177E+03  0.10566000000E+00 0.  1.
<mgrwt>
<rscale>  1 0.65390273E+03</rscale>
<asrwt>0</asrwt>
<pdfrwt beam="2">  1       21 0.26318392E+00 0.10133716E+04</pdfrwt>
<pdfrwt beam="1">  1       -4 0.82675484E-01 0.10133716E+04</pdfrwt>
<totfact> 0.22699704E+00</totfact>
</mgrwt>
</event>
<event>
 6    2  0.2321478E-005  0.1018402E+04  0.7818608E-02  0.9811983E-01
         -4   -1    0    0    0  501 -0.00000000000E+00  0.00000000000E+00  0.10839735936E+04  0.10839735936E+04  0.00000000000E+00 0. -1.
         21   -1    0    0  501  502  0.00000000000E+00 -0.00000000000E+00 -0.32755361715E+03  0.32755361715E+03  0.00000000000E+00 0. -1.
   -9000010    2    1    2    0  502  0.16407314761E+03  0.26158717474E+02  0.59294374349E+03  0.11784418912E+04  0.10047580464E+04 0.  0.
         13    1    3    3    0    0  0.23203302926E+03  0.56465206166E+02 -0.24211778310E+03  0.34007157810E+03  0.10566000000E+00 0. -1.
         -4    1    3    3    0  502 -0.67959881650E+02 -0.30306488693E+02  0.83506152659E+03  0.83837031315E+03  0.00000000000E+00 0. -1.
        -13    1    1    2    0    0 -0.16407314761E+03 -0.26158717474E+02  0.16347623298E+03  0.23308531953E+03  0.10566000000E+00 0.  1.
<mgrwt>
<rscale>  1 0.64723435E+03</rscale>
<asrwt>0</asrwt>
<pdfrwt beam="2">  1       21 0.50392865E-01 0.10184022E+04</pdfrwt>
<pdfrwt beam="1">  1       -4 0.16676517E+00 0.10184022E+04</pdfrwt>
<totfact> 0.32964711E+01</totfact>
</mgrwt>
</event>
<event>
 6    2  0.2321478E-005  0.1025350E+04  0.7818608E-02  0.9738956E-01
         21   -1    0    0  501  502  0.00000000000E+00  0.00000000000E+00  0.26735618831E+03  0.26735618831E+03  0.00000000000E+00 0. -1.
         -4   -1    0    0    0  501 -0.00000000000E+00 -0.00000000000E+00 -0.14905302093E+04  0.14905302093E+04  0.00000000000E+00 0. -1.
   -9000010    2    1    2    0  502  0.12797630554E+03 -0.16291297022E+03 -0.85338112079E+03  0.13340168766E+04  0.10042027281E+04 0.  0.
         13    1    3    3    0    0 -0.34983029988E+03 -0.30011923648E+03 -0.65015158650E+03  0.79696291721E+03  0.10566000000E+00 0. -1.
         -4    1    3    3    0  502  0.47780660542E+03  0.13720626625E+03 -0.20322953430E+03  0.53705395938E+03  0.00000000000E+00 0. -1.
        -13    1    1    2    0    0 -0.12797630554E+03  0.16291297022E+03 -0.36979290020E+03  0.42386952102E+03  0.10566000000E+00 0.  1.
<mgrwt>
<rscale>  1 0.68743973E+03</rscale>
<asrwt>0</asrwt>
<pdfrwt beam="1">  1       21 0.41131722E-01 0.10253495E+04</pdfrwt>
<pdfrwt beam="2">  1       -4 0.22931234E+00 0.10253495E+04</pdfrwt>
<totfact> 0.19360450E+01</totfact>
</mgrwt>
</event>
<event>
 6    2  0.2321478E-005  0.1016164E+04  0.7818608E-02  0.9519176E-01
         21   -1    0    0  501  502  0.00000000000E+00  0.00000000000E+00  0.13647985900E+04  0.13647985900E+04  0.00000000000E+00 0.  1.
         -4   -1    0    0    0  501 -0.00000000000E+00 -0.00000000000E+00 -0.39604865325E+03  0.39604865325E+03  0.00000000000E+00 0. -1.
   -9000010    2    1    2    0  502 -0.41586098806E+03  0.17136842757E+03  0.60714779960E+03  0.11837306033E+04  0.91119821732E+03 0.  0.
         13    1    3    3    0    0  0.14305405181E+02  0.44936026085E+03  0.47657538028E+03  0.65517432253E+03  0.10566000000E+00 0. -1.
         -4    1    3    3    0  502 -0.43016639324E+03 -0.27799183328E+03  0.13057241932E+03  0.52855628076E+03  0.00000000000E+00 0. -1.
        -13    1    1    2    0    0  0.41586098806E+03 -0.17136842757E+03  0.36160213714E+03  0.57711663995E+03  0.10566000000E+00 0.  1.
<mgrwt>
<rscale>  1 0.82884720E+03</rscale>
<asrwt>0</asrwt>
<pdfrwt beam="1">  1       21 0.20996901E+00 0.10161642E+04</pdfrwt>
<pdfrwt beam="2">  1       -4 0.60930563E-01 0.10161642E+04</pdfrwt>
<totfact> 0.99551221E+00</totfact>
</mgrwt>
</event>
<event>
 6    2  0.2321478E-005  0.1003314E+04  0.7818608E-02  0.9870269E-01
         21   -1    0    0  501  502  0.00000000000E+00  0.00000000000E+00  0.32073472933E+03  0.32073472933E+03  0.00000000000E+00 0. -1.
         -4   -1    0    0    0  501 -0.00000000000E+00 -0.00000000000E+00 -0.10763168250E+04  0.10763168250E+04  0.00000000000E+00 0. -1.
   -9000010    2    1    2    0  502  0.68626978123E+02  0.12627265154E+03 -0.75101755820E+03  0.12532625046E+04  0.99296781824E+03 0.  0.
         13    1    3    3    0    0  0.44324444487E+03 -0.12833482824E+03 -0.12051481735E+03  0.47692693194E+03  0.10566000000E+00 0. -1.
         -4    1    3    3    0  502 -0.37461746675E+03  0.25460747978E+03 -0.63050274086E+03  0.77633557266E+03  0.00000000000E+00 0. -1.
        -13    1    1    2    0    0 -0.68626978123E+02 -0.12627265154E+03 -0.45645374576E+01  0.14378904972E+03  0.10566000000E+00 0.  1.
<mgrwt>
<rscale>  1 0.61724065E+03</rscale>
<asrwt>0</asrwt>
<pdfrwt beam="1">  1       21 0.49343805E-01 0.10033143E+04</pdfrwt>
<pdfrwt beam="2">  1       -4 0.16558720E+00 0.10033143E+04</pdfrwt>
<totfact> 0.35234996E+01</totfact>
</mgrwt>
</event>
<event>
 6    2  0.2321478E-005  0.1017875E+04  0.7818608E-02  0.9730337E-01
         21   -1    0    0  501  502  0.00000000000E+00  0.00000000000E+00  0.69949319357E+03  0.69949319357E+03  0.00000000000E+00 0. -1.
         -4   -1    0    0    0  501 -0.00000000000E+00 -0.00000000000E+00 -0.57023520658E+03  0.57023520658E+03  0.00000000000E+00 0. -1.
   -9000010    2    1    2    0  502 -0.21787111571E+03 -0.51001043916E+01  0.20631935267E+03  0.10385741240E+04  0.99427093977E+03 0.  0.
         13    1    3    3    0    0 -0.17355048261E+03 -0.10660809920E+01  0.60909948524E+03  0.63334279867E+03  0.10566000000E+00 0. -1.
         -4    1    3    3    0  502 -0.44320633100E+02 -0.40340233995E+01 -0.40278013256E+03  0.40523132536E+03  0.00000000000E+00 0. -1.
        -13    1    1    2    0    0  0.21787111571E+03  0.51001043916E+01 -0.77061365686E+02  0.23115427613E+03  0.10566000000E+00 0.  1.
<mgrwt>
<rscale>  1 0.69238930E+03</rscale>
<asrwt>0</asrwt>
<pdfrwt beam="1">  1       21 0.10761434E+00 0.10178745E+04</pdfrwt>
<pdfrwt beam="2">  1       -4 0.87728493E-01 0.10178745E+04</pdfrwt>
<totfact> 0.28820717E+01</totfact>
</mgrwt>
</event>
<event>
 6    2  0.2321478E-005  0.1131255E+04  0.7818608E-02  0.9364181E-01
         21   -1    0    0  501  502  0.00000000000E+00  0.00000000000E+00  0.24413397800E+04  0.24413397800E+04  0.00000000000E+00 0.  1.
         -4   -1    0    0    0  501 -0.00000000000E+00 -0.00000000000E+00 -0.40366537752E+03  0.40366537752E+03  0.00000000000E+00 0. -1.
   -9000010    2    1    2    0  502  0.32084833189E+03  0.46455535100E+03  0.55822629396E+03  0.12614894351E+04  0.98029774729E+03 0.  0.
         13    1    3    3    0    0 -0.14035211069E+03 -0.38610186834E+02  0.56033184849E+03  0.57893112984E+03  0.10566000000E+00 0. -1.
         -4    1    3    3    0  502  0.46120044258E+03  0.50316553784E+03 -0.21055545299E+01  0.68255830525E+03  0.00000000000E+00 0. -1.
        -13    1    1    2    0    0 -0.32084833189E+03 -0.46455535100E+03  0.14794481085E+04  0.15835157224E+04  0.10566000000E+00 0.  1.
<mgrwt>
<rscale>  1 0.95082976E+03</rscale>
<asrwt>0</asrwt>
<pdfrwt beam="1">  1       21 0.37559073E+00 0.11312555E+04</pdfrwt>
<pdfrwt beam="2">  1       -4 0.62102367E-01 0.11312555E+04</pdfrwt>
<totfact> 0.83067661E-01</totfact>
</mgrwt>
</event>
<event>
 6    2  0.2321478E-005  0.9941908E+03  0.7818608E-02  0.9768183E-01
         21   -1    0    0  501  502  0.00000000000E+00  0.00000000000E+00  0.82103850286E+03  0.82103850286E+03  0.00000000000E+00 0. -1.
         -4   -1    0    0    0  501 -0.00000000000E+00 -0.00000000000E+00 -0.45204194632E+03  0.45204194632E+03  0.00000000000E+00 0. -1.
   -9000010    2    1    2    0  502  0.33771684429E+02  0.20348752878E+03  0.21896712305E+03  0.10180186074E+04  0.97255723897E+03 0.  0.
         13    1    3    3    0    0 -0.26250015074E+03 -0.20467165141E+03  0.36398079188E+03  0.49323305044E+03  0.10566000000E+00 0. -1.
         -4    1    3    3    0  502  0.29627183516E+03  0.40815918019E+03 -0.14501366883E+03  0.52478555700E+03  0.00000000000E+00 0. -1.
        -13    1    1    2    0    0 -0.33771684429E+02 -0.20348752878E+03  0.15002943349E+03  0.25506184175E+03  0.10566000000E+00 0.  1.
<mgrwt>
<rscale>  1 0.67098355E+03</rscale>
<asrwt>0</asrwt>
<pdfrwt beam="1">  1       21 0.12631362E+00 0.99419077E+03</pdfrwt>
<pdfrwt beam="2">  1       -4 0.69544915E-01 0.99419077E+03</pdfrwt>
<totfact> 0.32529874E+01</totfact>
</mgrwt>
</event>
<event>
 6    2  0.2321478E-005  0.1030410E+04  0.7818608E-02  0.1039843E+00
         21   -1    0    0  501  502  0.00000000000E+00  0.00000000000E+00  0.25841844551E+03  0.25841844551E+03  0.00000000000E+00 0. -1.
         -4   -1    0    0    0  501 -0.00000000000E+00 -0.00000000000E+00 -0.11587783266E+04  0.11587783266E+04  0.00000000000E+00 0. -1.
   -9000010    2    1    2    0  502 -0.25908345217E+02  0.40858162462E+01 -0.77554758867E+03  0.12896583240E+04  0.10300760137E+04 0.  0.
         13    1    3    3    0    0  0.39884238762E+03  0.28830339762E+03 -0.52801169221E+03  0.72179668710E+03  0.10566000000E+00 0. -1.
         -4    1    3    3    0  502 -0.42475073284E+03 -0.28421758137E+03 -0.24753589646E+03  0.56786163688E+03  0.00000000000E+00 0. -1.
        -13    1    1    2    0    0  0.25908345217E+02 -0.40858162462E+01 -0.12481229239E+03  0.12753844809E+03  0.10566000000E+00 0.  1.
<mgrwt>
<rscale>  1 0.41157778E+03</rscale>
<asrwt>0</asrwt>
<pdfrwt beam="1">  1       21 0.39756685E-01 0.10304099E+04</pdfrwt>
<pdfrwt beam="2">  1       -4 0.17827358E+00 0.10304099E+04</pdfrwt>
<totfact> 0.45140111E+01</totfact>
</mgrwt>
</event>
<event>
 6    2  0.2321478E-005  0.1008591E+04  0.7818608E-02  0.9760992E-01
         -4   -1    0    0    0  501 -0.00000000000E+00  0.00000000000E+00  0.10541887538E+04  0.10541887538E+04  0.00000000000E+00 0. -1.
         21   -1    0    0  501  502  0.00000000000E+00 -0.00000000000E+00 -0.34833526904E+03  0.34833526904E+03  0.00000000000E+00 0. -1.
   -9000010    2    1    2    0  502 -0.46769387084E+02 -0.19683772602E+03  0.56572325091E+03  0.11564164050E+04  0.98809090634E+03 0.  0.
         13    1    3    3    0    0  0.36004276710E+03  0.10916746873E+03 -0.24461483692E+02  0.37702348166E+03  0.10566000000E+00 0. -1.
         -4    1    3    3    0  502 -0.40681215419E+03 -0.30600519475E+03  0.59018473461E+03  0.77939292335E+03  0.00000000000E+00 0. -1.
        -13    1    1    2    0    0  0.46769387084E+02  0.19683772602E+03  0.14013023387E+03  0.24610761785E+03  0.10566000000E+00 0.  1.
<mgrwt>
<rscale>  1 0.67498616E+03</rscale>
<asrwt>0</asrwt>
<pdfrwt beam="2">  1       21 0.53590042E-01 0.10085911E+04</pdfrwt>
<pdfrwt beam="1">  1       -4 0.16218288E+00 0.10085911E+04</pdfrwt>
<totfact> 0.31186704E+01</totfact>
</mgrwt>
</event>
<event>
 6    2  0.2321478E-005  0.9856595E+03  0.7818608E-02  0.9545724E-01
         -4   -1    0    0    0  501 -0.00000000000E+00  0.00000000000E+00  0.11159017609E+04  0.11159017609E+04  0.00000000000E+00 0. -1.
         21   -1    0    0  501  502  0.00000000000E+00 -0.00000000000E+00 -0.53669096374E+03  0.53669096374E+03  0.00000000000E+00 0. -1.
   -9000010    2    1    2    0  502 -0.18012165558E+03 -0.41174750489E+03  0.92294531214E+02  0.98997120387E+03  0.87723707480E+03 0.  0.
         13    1    3    3    0    0 -0.77202601565E+02 -0.33980751345E+03  0.47390584663E+03  0.58823137499E+03  0.10566000000E+00 0. -1.
         -4    1    3    3    0  502 -0.10291905401E+03 -0.71939991445E+02 -0.38161131542E+03  0.40173982888E+03  0.00000000000E+00 0. -1.
        -13    1    1    2    0    0  0.18012165558E+03  0.41174750489E+03  0.48691626599E+03  0.66262152082E+03  0.10566000000E+00 0.  1.
<mgrwt>
<rscale>  1 0.80995090E+03</rscale>
<asrwt>0</asrwt>
<pdfrwt beam="2">  1       21 0.82567841E-01 0.98565953E+03</pdfrwt>
<pdfrwt beam="1">  1       -4 0.17167719E+00 0.98565953E+03</pdfrwt>
<totfact> 0.99854817E+00</totfact>
</mgrwt>
</event>
<event>
 6    2  0.2321478E-005  0.1006183E+04  0.7818608E-02  0.9823874E-01
         21   -1    0    0  501  502  0.00000000000E+00  0.00000000000E+00  0.30662708577E+03  0.30662708577E+03  0.00000000000E+00 0. -1.
         -4   -1    0    0    0  501 -0.00000000000E+00 -0.00000000000E+00 -0.11254077137E+04  0.11254077137E+04  0.00000000000E+00 0. -1.
   -9000010    2    1    2    0  502 -0.15999398400E+03 -0.43101397360E+02 -0.73718521097E+03  0.12473360485E+04  0.99244615836E+03 0.  0.
         13    1    3    3    0    0 -0.42221897646E+03  0.28361322578E+02 -0.85276873915E+03  0.95199147178E+03  0.10566000000E+00 0. -1.
         -4    1    3    3    0  502  0.26222499247E+03 -0.71462719937E+02  0.11558352817E+03  0.29534457672E+03  0.00000000000E+00 0. -1.
        -13    1    1    2    0    0  0.15999398400E+03  0.43101397360E+02 -0.81595416929E+02  0.18469875094E+03  0.10566000000E+00 0.  1.
<mgrwt>
<rscale>  1 0.64096931E+03</rscale>
<asrwt>0</asrwt>
<pdfrwt beam="1">  1       21 0.47173397E-01 0.10061835E+04</pdfrwt>
<pdfrwt beam="2">  1       -4 0.17313965E+00 0.10061835E+04</pdfrwt>
<totfact> 0.34231680E+01</totfact>
</mgrwt>
</event>
<event>
 6    2  0.2321478E-005  0.1057736E+04  0.7818608E-02  0.9572932E-01
         -4   -1    0    0    0  501 -0.00000000000E+00  0.00000000000E+00  0.18347793636E+04  0.18347793636E+04  0.00000000000E+00 0. -1.
         21   -1    0    0  501  502  0.00000000000E+00 -0.00000000000E+00 -0.26338588767E+03  0.26338588767E+03  0.00000000000E+00 0. -1.
   -9000010    2    1    2    0  502 -0.32884767540E+03  0.38033563162E+02  0.11536094892E+04  0.15651260254E+04  0.10045980671E+04 0.  0.
         13    1    3    3    0    0 -0.29062582409E+03 -0.43328710459E+03  0.86790109482E+03  0.10126467332E+04  0.10566000000E+00 0. -1.
         -4    1    3    3    0  502 -0.38221851310E+02  0.47132066776E+03  0.28570839435E+03  0.55247929226E+03  0.00000000000E+00 0. -1.
        -13    1    1    2    0    0  0.32884767540E+03 -0.38033563162E+02  0.41778398681E+03  0.53303922589E+03  0.10566000000E+00 0.  1.
<mgrwt>
<rscale>  1 0.79113919E+03</rscale>
<asrwt>0</asrwt>
<pdfrwt beam="2">  1       21 0.40520907E-01 0.10577356E+04</pdfrwt>
<pdfrwt beam="1">  1       -4 0.28227374E+00 0.10577356E+04</pdfrwt>
<totfact> 0.93476349E+00</totfact>
</mgrwt>
</event>
<event>
 6    2  0.2321478E-005  0.1029556E+04  0.7818608E-02  0.9656029E-01
         -4   -1    0    0    0  501 -0.00000000000E+00  0.00000000000E+00  0.81704167244E+03  0.81704167244E+03  0.00000000000E+00 0. -1.
         21   -1    0    0  501  502  0.00000000000E+00 -0.00000000000E+00 -0.52961742320E+03  0.52961742320E+03  0.00000000000E+00 0. -1.
   -9000010    2    1    2    0  502  0.26845013093E+03  0.31490886472E+02  0.14074028762E+03  0.10391313010E+04  0.99344294421E+03 0.  0.
         13    1    3    3    0    0  0.56074328491E+03 -0.62663263050E+02 -0.18275588461E+03  0.59309311295E+03  0.10566000000E+00 0. -1.
         -4    1    3    3    0  502 -0.29229315398E+03  0.94154149522E+02  0.32349617224E+03  0.44603818803E+03  0.00000000000E+00 0. -1.
        -13    1    1    2    0    0 -0.26845013093E+03 -0.31490886472E+02  0.14668396162E+03  0.30752779466E+03  0.10566000000E+00 0.  1.
<mgrwt>
<rscale>  1 0.73696252E+03</rscale>
<asrwt>0</asrwt>
<pdfrwt beam="2">  1       21 0.81479604E-01 0.10295562E+04</pdfrwt>
<pdfrwt beam="1">  1       -4 0.12569872E+00 0.10295562E+04</pdfrwt>
<totfact> 0.23613188E+01</totfact>
</mgrwt>
</event>
<event>
 6    2  0.2321478E-005  0.9367287E+03  0.7818608E-02  0.1019163E+00
         21   -1    0    0  501  502  0.00000000000E+00  0.00000000000E+00  0.11572104349E+04  0.11572104349E+04  0.00000000000E+00 0. -1.
         -4   -1    0    0    0  501 -0.00000000000E+00 -0.00000000000E+00 -0.26201029742E+03  0.26201029742E+03  0.00000000000E+00 0. -1.
   -9000010    2    1    2    0  502 -0.61965993332E+02  0.18006349204E+02  0.95030186040E+03  0.13343665988E+04  0.93450338750E+03 0.  0.
         13    1    3    3    0    0  0.17474085188E+03  0.46653132349E+01 -0.13663895161E+03  0.22187010777E+03  0.10566000000E+00 0. -1.
         -4    1    3    3    0  502 -0.23670684521E+03  0.13341035969E+02  0.10869408120E+04  0.11124964911E+04  0.00000000000E+00 0. -1.
        -13    1    1    2    0    0  0.61965993332E+02 -0.18006349204E+02 -0.55101722910E+02  0.84854133505E+02  0.10566000000E+00 0.  1.
<mgrwt>
<rscale>  1 0.47989863E+03</rscale>
<asrwt>0</asrwt>
<pdfrwt beam="1">  1       21 0.17803237E+00 0.93672867E+03</pdfrwt>
<pdfrwt beam="2">  1       -4 0.40309277E-01 0.93672867E+03</pdfrwt>
<totfact> 0.40158029E+01</totfact>
</mgrwt>
</event>
<event>
 6    2  0.2321478E-005  0.1047528E+04  0.7818608E-02  0.1013141E+00
         21   -1    0    0  501  502  0.00000000000E+00  0.00000000000E+00  0.22720282302E+04  0.22720282302E+04  0.00000000000E+00 0. -1.
         -4   -1    0    0    0  501 -0.00000000000E+00 -0.00000000000E+00 -0.25250452672E+03  0.25250452672E+03  0.00000000000E+00 0. -1.
   -9000010    2    1    2    0  502 -0.10299791987E+02 -0.54481486668E+02  0.21451281282E+04  0.23872345386E+04  0.10460591463E+04 0.  0.
         13    1    3    3    0    0  0.16199431392E+03 -0.21408972105E+03  0.21353589354E+04  0.21521696868E+04  0.10566000000E+00 0. -1.
         -4    1    3    3    0  502 -0.17229410590E+03  0.15960823439E+03  0.97691927644E+01  0.23506485177E+03  0.00000000000E+00 0. -1.
        -13    1    1    2    0    0  0.10299791987E+02  0.54481486668E+02 -0.12560442470E+03  0.13729821839E+03  0.10566000000E+00 0.  1.
<mgrwt>
<rscale>  1 0.50245006E+03</rscale>
<asrwt>0</asrwt>
<pdfrwt beam="1">  1       21 0.34954279E+00 0.10475276E+04</pdfrwt>
<pdfrwt beam="2">  1       -4 0.38846852E-01 0.10475276E+04</pdfrwt>
<totfact> 0.33304814E+00</totfact>
</mgrwt>
</event>
<event>
 6    2  0.2321478E-005  0.1019006E+04  0.7818608E-02  0.9716277E-01
         21   -1    0    0  501  502  0.00000000000E+00  0.00000000000E+00  0.33482490921E+03  0.33482490921E+03  0.00000000000E+00 0. -1.
         -4   -1    0    0    0  501 -0.00000000000E+00 -0.00000000000E+00 -0.11681160337E+04  0.11681160337E+04  0.00000000000E+00 0. -1.
   -9000010    2    1    2    0  502  0.20371805998E+01  0.22763066161E+03 -0.63209281904E+03  0.11991307431E+04  0.99325391469E+03 0.  0.
         13    1    3    3    0    0  0.43959752999E+03  0.32918618888E+03 -0.22699323477E+03  0.59425202997E+03  0.10566000000E+00 0. -1.
         -4    1    3    3    0  502 -0.43756034939E+03 -0.10155552728E+03 -0.40509958426E+03  0.60487871317E+03  0.00000000000E+00 0. -1.
        -13    1    1    2    0    0 -0.20371805998E+01 -0.22763066161E+03 -0.20119830545E+03  0.30381019977E+03  0.10566000000E+00 0.  1.
<mgrwt>
<rscale>  1 0.70055882E+03</rscale>
<asrwt>0</asrwt>
<pdfrwt beam="1">  1       21 0.51511525E-01 0.10190060E+04</pdfrwt>
<pdfrwt beam="2">  1       -4 0.17971016E+00 0.10190060E+04</pdfrwt>
<totfact> 0.25413235E+01</totfact>
</mgrwt>
</event>
<event>
 6    2  0.2321478E-005  0.1225664E+04  0.7818608E-02  0.9231993E-01
         -4   -1    0    0    0  501 -0.00000000000E+00  0.00000000000E+00  0.14497361708E+04  0.14497361708E+04  0.00000000000E+00 0. -1.
         21   -1    0    0  501  502  0.00000000000E+00 -0.00000000000E+00 -0.67548735920E+03  0.67548735920E+03  0.00000000000E+00 0. -1.
   -9000010    2    1    2    0  502 -0.10509479460E+03 -0.71199698237E+03  0.29536654094E+03  0.12607509399E+04  0.99210227302E+03 0.  0.
         13    1    3    3    0    0  0.36440111234E+03 -0.36730835645E+03  0.41846470497E+03  0.66544445287E+03  0.10566000000E+00 0. -1.
         -4    1    3    3    0  502 -0.46949590694E+03 -0.34468862591E+03 -0.12309816403E+03  0.59530648700E+03  0.00000000000E+00 0. -1.
        -13    1    1    2    0    0  0.10509479460E+03  0.71199698237E+03  0.47888227062E+03  0.86447259010E+03  0.10566000000E+00 0.  1.
<mgrwt>
<rscale>  1 0.10729219E+04</rscale>
<asrwt>0</asrwt>
<pdfrwt beam="2">  1       21 0.10392113E+00 0.12256637E+04</pdfrwt>
<pdfrwt beam="1">  1       -4 0.22303633E+00 0.12256637E+04</pdfrwt>
<totfact> 0.25055091E+00</totfact>
</mgrwt>
</event>
<event>
 6    2  0.2321478E-005  0.1035818E+04  0.7818608E-02  0.9740210E-01
         21   -1    0    0  501  502  0.00000000000E+00  0.00000000000E+00  0.11137347542E+04  0.11137347542E+04  0.00000000000E+00 0. -1.
         -4   -1    0    0    0  501 -0.00000000000E+00 -0.00000000000E+00 -0.34461352093E+03  0.34461352093E+03  0.00000000000E+00 0. -1.
   -9000010    2    1    2    0  502 -0.16198076880E+03 -0.11750720212E+03  0.68142244956E+03  0.12398607472E+04  0.10163033040E+04 0.  0.
         13    1    3    3    0    0  0.29555486612E+03 -0.37563955408E+03  0.47957022184E+03  0.67708593422E+03  0.10566000000E+00 0. -1.
         -4    1    3    3    0  502 -0.45753563492E+03  0.25813235196E+03  0.20185222772E+03  0.56277481303E+03  0.00000000000E+00 0. -1.
        -13    1    1    2    0    0  0.16198076880E+03  0.11750720212E+03  0.87698783706E+02  0.21848752788E+03  0.10566000000E+00 0.  1.
<mgrwt>
<rscale>  1 0.68672362E+03</rscale>
<asrwt>0</asrwt>
<pdfrwt beam="1">  1       21 0.17134381E+00 0.10358176E+04</pdfrwt>
<pdfrwt beam="2">  1       -4 0.53017465E-01 0.10358176E+04</pdfrwt>
<totfact> 0.25128765E+01</totfact>
</mgrwt>
</event>
<event>
 6    2  0.2321478E-005  0.1028882E+04  0.7818608E-02  0.9664470E-01
         21   -1    0    0  501  502  0.00000000000E+00  0.00000000000E+00  0.10793838484E+04  0.10793838484E+04  0.00000000000E+00 0.  1.
         -4   -1    0    0    0  501 -0.00000000000E+00 -0.00000000000E+00 -0.40846965247E+03  0.40846965247E+03  0.00000000000E+00 0. -1.
   -9000010    2    1    2    0  502 -0.26242851890E+03 -0.20158189962E+02  0.38323454505E+03  0.10979372626E+04  0.99464689009E+03 0.  0.
         13    1    3    3    0    0 -0.58891109439E+03 -0.23463364192E+03  0.18790188913E+03  0.66119312921E+03  0.10566000000E+00 0. -1.
         -4    1    3    3    0  502  0.32648257549E+03  0.21447545195E+03  0.19533265592E+03  0.43674413340E+03  0.00000000000E+00 0. -1.
        -13    1    1    2    0    0  0.26242851890E+03  0.20158189962E+02  0.28767965084E+03  0.38991623822E+03  0.10566000000E+00 0.  1.
<mgrwt>
<rscale>  1 0.73172226E+03</rscale>
<asrwt>0</asrwt>
<pdfrwt beam="1">  1       21 0.16605905E+00 0.10288817E+04</pdfrwt>
<pdfrwt beam="2">  1       -4 0.62841486E-01 0.10288817E+04</pdfrwt>
<totfact> 0.19074917E+01</totfact>
</mgrwt>
</event>
<event>
 6    2  0.2321478E-005  0.1068974E+04  0.7818608E-02  0.9523874E-01
         -4   -1    0    0    0  501 -0.00000000000E+00  0.00000000000E+00  0.46449088478E+03  0.46449088478E+03  0.00000000000E+00 0. -1.
         21   -1    0    0  501  502  0.00000000000E+00 -0.00000000000E+00 -0.11311283219E+04  0.11311283219E+04  0.00000000000E+00 0. -1.
   -9000010    2    1    2    0  502 -0.36556997392E+03 -0.10406503912E+03 -0.51217657090E+03  0.11853399011E+04  0.99911706184E+03 0.  0.
         13    1    3    3    0    0 -0.24859632604E+03 -0.46996853840E+03 -0.58912710973E+03  0.79356242539E+03  0.10566000000E+00 0. -1.
         -4    1    3    3    0  502 -0.11697364788E+03  0.36590349928E+03  0.76950538827E+02  0.39177747576E+03  0.00000000000E+00 0. -1.
        -13    1    1    2    0    0  0.36556997392E+03  0.10406503912E+03 -0.15446086623E+03  0.41027930555E+03  0.10566000000E+00 0.  1.
<mgrwt>
<rscale>  1 0.82546371E+03</rscale>
<asrwt>0</asrwt>
<pdfrwt beam="2">  1       21 0.17401974E+00 0.10689742E+04</pdfrwt>
<pdfrwt beam="1">  1       -4 0.71460136E-01 0.10689742E+04</pdfrwt>
<totfact> 0.12438659E+01</totfact>
</mgrwt>
</event>
<event>
 6    2  0.2321478E-005  0.1065979E+04  0.7818608E-02  0.9527526E-01
         21   -1    0    0  501  502  0.00000000000E+00  0.00000000000E+00  0.82519607877E+03  0.82519607877E+03  0.00000000000E+00 0. -1.
         -4   -1    0    0    0  501 -0.00000000000E+00 -0.00000000000E+00 -0.63231098866E+03  0.63231098866E+03  0.00000000000E+00 0. -1.
   -9000010    2    1    2    0  502 -0.28198864242E+03 -0.25242711121E+03  0.15407060946E+03  0.10770552098E+04  0.99653054708E+03 0.  0.
         13    1    3    3    0    0 -0.46126128020E+03 -0.15982281032E+03  0.48585081985E+03  0.68873531173E+03  0.10566000000E+00 0. -1.
         -4    1    3    3    0  502  0.17927263778E+03 -0.92604300888E+02 -0.33178021039E+03  0.38831989803E+03  0.00000000000E+00 0. -1.
        -13    1    1    2    0    0  0.28198864242E+03  0.25242711121E+03  0.38814480644E+02  0.38045185766E+03  0.10566000000E+00 0.  1.
<mgrwt>
<rscale>  1 0.82284542E+03</rscale>
<asrwt>0</asrwt>
<pdfrwt beam="1">  1       21 0.12695324E+00 0.10659785E+04</pdfrwt>
<pdfrwt beam="2">  1       -4 0.97278613E-01 0.10659785E+04</pdfrwt>
<totfact> 0.14666062E+01</totfact>
</mgrwt>
</event>
<event>
 6    2  0.2321478E-005  0.1031479E+04  0.7818608E-02  0.9814596E-01
         21   -1    0    0  501  502  0.00000000000E+00  0.00000000000E+00  0.35077311710E+03  0.35077311710E+03  0.00000000000E+00 0. -1.
         -4   -1    0    0    0  501 -0.00000000000E+00 -0.00000000000E+00 -0.13680666190E+04  0.13680666190E+04  0.00000000000E+00 0. -1.
   -9000010    2    1    2    0  502 -0.58400064922E+02  0.14739529830E+03 -0.44216012070E+03  0.11222541522E+04  0.10192216973E+04 0.  0.
         13    1    3    3    0    0  0.11917842705E+03  0.14941491174E+03 -0.74612411404E+03  0.77021394304E+03  0.10566000000E+00 0. -1.
         -4    1    3    3    0  502 -0.17757849197E+03 -0.20196134343E+01  0.30396399334E+03  0.35204020921E+03  0.00000000000E+00 0. -1.
        -13    1    1    2    0    0  0.58400064922E+02 -0.14739529830E+03 -0.57513338123E+03  0.59658558390E+03  0.10566000000E+00 0.  1.
<mgrwt>
<rscale>  1 0.64585079E+03</rscale>
<asrwt>0</asrwt>
<pdfrwt beam="1">  1       21 0.53965095E-01 0.10314789E+04</pdfrwt>
<pdfrwt beam="2">  1       -4 0.21047179E+00 0.10314789E+04</pdfrwt>
<totfact> 0.14256708E+01</totfact>
</mgrwt>
</event>
<event>
 6    2  0.2321478E-005  0.9736573E+03  0.7818608E-02  0.9957272E-01
         21   -1    0    0  501  502  0.00000000000E+00  0.00000000000E+00  0.11140818304E+04  0.11140818304E+04  0.00000000000E+00 0. -1.
         -4   -1    0    0    0  501 -0.00000000000E+00 -0.00000000000E+00 -0.30045025062E+03  0.30045025062E+03  0.00000000000E+00 0. -1.
   -9000010    2    1    2    0  502 -0.11080396711E+03  0.43280338057E+02  0.84750970851E+03  0.12908451958E+04  0.96636323752E+03 0.  0.
         13    1    3    3    0    0  0.81841372454E+02 -0.17044539654E+03 -0.15711048068E+03  0.24583197056E+03  0.10566000000E+00 0. -1.
         -4    1    3    3    0  502 -0.19264533956E+03  0.21372573460E+03  0.10046201892E+04  0.10450132253E+04  0.00000000000E+00 0. -1.
        -13    1    1    2    0    0  0.11080396711E+03 -0.43280338057E+02 -0.33878128746E+02  0.12368688516E+03  0.10566000000E+00 0.  1.
<mgrwt>
<rscale>  1 0.57564126E+03</rscale>
<asrwt>0</asrwt>
<pdfrwt beam="1">  1       21 0.17139720E+00 0.97365734E+03</pdfrwt>
<pdfrwt beam="2">  1       -4 0.46223116E-01 0.97365734E+03</pdfrwt>
<totfact> 0.33751042E+01</totfact>
</mgrwt>
</event>
<event>
 6    2  0.2321478E-005  0.1055968E+04  0.7818608E-02  0.9496091E-01
         -4   -1    0    0    0  501 -0.00000000000E+00  0.00000000000E+00  0.12952746993E+04  0.12952746993E+04  0.00000000000E+00 0. -1.
         21   -1    0    0  501  502  0.00000000000E+00 -0.00000000000E+00 -0.46152925267E+03  0.46152925267E+03  0.00000000000E+00 0. -1.
   -9000010    2    1    2    0  502 -0.47088553732E+02  0.43191775268E+03  0.36402023514E+03  0.11169507950E+04  0.96244380094E+03 0.  0.
         13    1    3    3    0    0  0.20219467180E+03  0.35946641245E+03  0.62501958192E+03  0.74883127334E+03  0.10566000000E+00 0. -1.
         -4    1    3    3    0  502 -0.24928322553E+03  0.72451340228E+02 -0.26099934678E+03  0.36811952169E+03  0.00000000000E+00 0. -1.
        -13    1    1    2    0    0  0.47088553732E+02 -0.43191775268E+03  0.46972521146E+03  0.63985315692E+03  0.10566000000E+00 0.  1.
<mgrwt>
<rscale>  1 0.84572616E+03</rscale>
<asrwt>0</asrwt>
<pdfrwt beam="2">  1       21 0.71004501E-01 0.10559680E+04</pdfrwt>
<pdfrwt beam="1">  1       -4 0.19927303E+00 0.10559680E+04</pdfrwt>
<totfact> 0.90973118E+00</totfact>
</mgrwt>
</event>
<event>
 6    2  0.2321478E-005  0.1086397E+04  0.7818608E-02  0.9469887E-01
         21   -1    0    0  501  502  0.00000000000E+00  0.00000000000E+00  0.24270934049E+04  0.24270934049E+04  0.00000000000E+00 0. -1.
         -4   -1    0    0    0  501 -0.00000000000E+00 -0.00000000000E+00 -0.28688171619E+03  0.28688171619E+03  0.00000000000E+00 0. -1.
   -9000010    2    1    2    0  502 -0.16593806767E+03 -0.40474303470E+03  0.19598363585E+04  0.22408074580E+04  0.99443810543E+03 0.  0.
         13    1    3    3    0    0 -0.23822068351E+03 -0.64089716984E+03  0.78824786132E+03  0.10434715992E+04  0.10566000000E+00 0. -1.
         -4    1    3    3    0  502  0.72282615840E+02  0.23615413515E+03  0.11715884971E+04  0.11973358588E+04  0.00000000000E+00 0. -1.
        -13    1    1    2    0    0  0.16593806767E+03  0.40474303470E+03  0.18037533023E+03  0.47316766305E+03  0.10566000000E+00 0.  1.
<mgrwt>
<rscale>  1 0.86540779E+03</rscale>
<asrwt>0</asrwt>
<pdfrwt beam="1">  1       21 0.37339897E+00 0.10863975E+04</pdfrwt>
<pdfrwt beam="2">  1       -4 0.44135650E-01 0.10863975E+04</pdfrwt>
<totfact> 0.17925897E+00</totfact>
</mgrwt>
</event>
<event>
 6    2  0.2321478E-005  0.1033634E+04  0.7818608E-02  0.9691069E-01
         21   -1    0    0  501  502  0.00000000000E+00  0.00000000000E+00  0.10279297032E+04  0.10279297032E+04  0.00000000000E+00 0. -1.
         -4   -1    0    0    0  501 -0.00000000000E+00 -0.00000000000E+00 -0.57725462538E+03  0.57725462538E+03  0.00000000000E+00 0. -1.
   -9000010    2    1    2    0  502  0.23584090661E+03  0.26600414257E+02  0.70973509679E+03  0.12538431556E+04  0.10060170157E+04 0.  0.
         13    1    3    3    0    0  0.11414103300E+03  0.96531787451E+02 -0.24599869014E+03  0.28785747883E+03  0.10566000000E+00 0. -1.
         -4    1    3    3    0  502  0.12169987362E+03 -0.69931373194E+02  0.95573378694E+03  0.96598567675E+03  0.00000000000E+00 0. -1.
        -13    1    1    2    0    0 -0.23584090661E+03 -0.26600414257E+02 -0.25906001896E+03  0.35134117302E+03  0.10566000000E+00 0.  1.
<mgrwt>
<rscale>  1 0.71551059E+03</rscale>
<asrwt>0</asrwt>
<pdfrwt beam="1">  1       21 0.15814303E+00 0.10336338E+04</pdfrwt>
<pdfrwt beam="2">  1       -4 0.88808404E-01 0.10336338E+04</pdfrwt>
<totfact> 0.10008657E+01</totfact>
</mgrwt>
</event>
<event>
 6    2  0.2321478E-005  0.1096066E+04  0.7818608E-02  0.9500665E-01
         21   -1    0    0  501  502  0.00000000000E+00  0.00000000000E+00  0.18944405876E+04  0.18944405876E+04  0.00000000000E+00 0. -1.
         -4   -1    0    0    0  501 -0.00000000000E+00 -0.00000000000E+00 -0.38371313272E+03  0.38371313272E+03  0.00000000000E+00 0. -1.
   -9000010    2    1    2    0  502  0.92078803519E+02  0.37109244472E+03  0.15449687618E+04  0.18942779763E+04  0.10272158819E+04 0.  0.
         13    1    3    3    0    0  0.26970856731E+03 -0.29871984715E+03  0.53670875591E+03  0.67084466025E+03  0.10566000000E+00 0. -1.
         -4    1    3    3    0  502 -0.17762976379E+03  0.66981229187E+03  0.10082600059E+04  0.12234333161E+04  0.00000000000E+00 0. -1.
        -13    1    1    2    0    0 -0.92078803519E+02 -0.37109244472E+03 -0.34241306921E+02  0.38387574402E+03  0.10566000000E+00 0.  1.
<mgrwt>
<rscale>  1 0.84234796E+03</rscale>
<asrwt>0</asrwt>
<pdfrwt beam="1">  1       21 0.29145239E+00 0.10960660E+04</pdfrwt>
<pdfrwt beam="2">  1       -4 0.59032791E-01 0.10960660E+04</pdfrwt>
<totfact> 0.31685827E+00</totfact>
</mgrwt>
</event>
<event>
 6    2  0.2321478E-005  0.1021230E+04  0.7818608E-02  0.9700931E-01
         21   -1    0    0  501  502  0.00000000000E+00  0.00000000000E+00  0.18058586673E+03  0.18058586673E+03  0.00000000000E+00 0. -1.
         -4   -1    0    0    0  501 -0.00000000000E+00 -0.00000000000E+00 -0.23792780813E+04  0.23792780813E+04  0.00000000000E+00 0. -1.
   -9000010    2    1    2    0  502 -0.23279615292E+03 -0.49866060408E+02 -0.14448652745E+04  0.17693351759E+04  0.99309145121E+03 0.  0.
         13    1    3    3    0    0 -0.33453791946E+03  0.37588006170E+03 -0.11082595649E+04  0.12171444921E+04  0.10566000000E+00 0. -1.
         -4    1    3    3    0  502  0.10174176654E+03 -0.42574612210E+03 -0.33660570963E+03  0.55219068382E+03  0.00000000000E+00 0. -1.
        -13    1    1    2    0    0  0.23279615292E+03  0.49866060408E+02 -0.75382694006E+03  0.79052877210E+03  0.10566000000E+00 0.  1.
<mgrwt>
<rscale>  1 0.70961396E+03</rscale>
<asrwt>0</asrwt>
<pdfrwt beam="1">  1       21 0.27782444E-01 0.10212303E+04</pdfrwt>
<pdfrwt beam="2">  1       -4 0.36604274E+00 0.10212303E+04</pdfrwt>
<totfact> 0.59978828E+00</totfact>
</mgrwt>
</event>
<event>
 6    2  0.2321478E-005  0.1011610E+04  0.7818608E-02  0.9753431E-01
         21   -1    0    0  501  502  0.00000000000E+00  0.00000000000E+00  0.13493201112E+04  0.13493201112E+04  0.00000000000E+00 0. -1.
         -4   -1    0    0    0  501 -0.00000000000E+00 -0.00000000000E+00 -0.29631292176E+03  0.29631292176E+03  0.00000000000E+00 0. -1.
   -9000010    2    1    2    0  502 -0.18652502532E+03 -0.86482962944E+02  0.10214837567E+04  0.14376315283E+04  0.99049707627E+03 0.  0.
         13    1    3    3    0    0  0.22284379132E+03 -0.13019219510E+03 -0.73053427282E+02  0.26822784605E+03  0.10566000000E+00 0. -1.
         -4    1    3    3    0  502 -0.40936881664E+03  0.43709232155E+02  0.10945371840E+04  0.11694036823E+04  0.00000000000E+00 0. -1.
        -13    1    1    2    0    0  0.18652502532E+03  0.86482962944E+02  0.31523432729E+02  0.20800150462E+03  0.10566000000E+00 0.  1.
<mgrwt>
<rscale>  1 0.67922726E+03</rscale>
<asrwt>0</asrwt>
<pdfrwt beam="1">  1       21 0.20758771E+00 0.10116103E+04</pdfrwt>
<pdfrwt beam="2">  1       -4 0.45586604E-01 0.10116103E+04</pdfrwt>
<totfact> 0.19179587E+01</totfact>
</mgrwt>
</event>
<event>
 6    2  0.2321478E-005  0.9801505E+03  0.7818608E-02  0.9855412E-01
         -4   -1    0    0    0  501 -0.00000000000E+00  0.00000000000E+00  0.51265260322E+03  0.51265260322E+03  0.00000000000E+00 0. -1.
         21   -1    0    0  501  502  0.00000000000E+00 -0.00000000000E+00 -0.64488880240E+03  0.64488880240E+03  0.00000000000E+00 0. -1.
   -9000010    2    1    2    0  502  0.10544501055E+03 -0.12266161300E+03 -0.16089266138E+03  0.99326807990E+03  0.96671118154E+03 0.  0.
         13    1    3    3    0    0 -0.27178296633E+03  0.28680217289E+03  0.49265421240E+02  0.39818156670E+03  0.10566000000E+00 0. -1.
         -4    1    3    3    0  502  0.37722797688E+03 -0.40946378590E+03 -0.21015808262E+03  0.59508651320E+03  0.00000000000E+00 0. -1.
        -13    1    1    2    0    0 -0.10544501055E+03  0.12266161300E+03  0.28656462189E+02  0.16427332572E+03  0.10566000000E+00 0.  1.
<mgrwt>
<rscale>  1 0.62471754E+03</rscale>
<asrwt>0</asrwt>
<pdfrwt beam="2">  1       21 0.99213662E-01 0.98015051E+03</pdfrwt>
<pdfrwt beam="1">  1       -4 0.78869631E-01 0.98015051E+03</pdfrwt>
<totfact> 0.45346181E+01</totfact>
</mgrwt>
</event>
<event>
 6    2  0.2321478E-005  0.1026595E+04  0.7818608E-02  0.9613735E-01
         21   -1    0    0  501  502  0.00000000000E+00  0.00000000000E+00  0.25232182450E+03  0.25232182450E+03  0.00000000000E+00 0. -1.
         -4   -1    0    0    0  501 -0.00000000000E+00 -0.00000000000E+00 -0.19359686530E+04  0.19359686530E+04  0.00000000000E+00 0. -1.
   -9000010    2    1    2    0  502  0.29172572600E+03 -0.11829758709E+03 -0.98829529667E+03  0.14250002429E+04  0.97713861883E+03 0.  0.
         13    1    3    3    0    0 -0.22947791601E+03  0.25715239683E+03 -0.16884445882E+03  0.38379152097E+03  0.10566000000E+00 0. -1.
         -4    1    3    3    0  502  0.52120364201E+03 -0.37544998392E+03 -0.81945083786E+03  0.10412087219E+04  0.00000000000E+00 0. -1.
        -13    1    1    2    0    0 -0.29172572600E+03  0.11829758709E+03 -0.69535153181E+03  0.76329023463E+03  0.10566000000E+00 0.  1.
<mgrwt>
<rscale>  1 0.76393731E+03</rscale>
<asrwt>0</asrwt>
<pdfrwt beam="1">  1       21 0.38818742E-01 0.10265954E+04</pdfrwt>
<pdfrwt beam="2">  1       -4 0.29784133E+00 0.10265954E+04</pdfrwt>
<totfact> 0.82270193E+00</totfact>
</mgrwt>
</event>
<event>
 6    2  0.2321478E-005  0.1001870E+04  0.7818608E-02  0.9850946E-01
         21   -1    0    0  501  502  0.00000000000E+00  0.00000000000E+00  0.25604825124E+03  0.25604825124E+03  0.00000000000E+00 0. -1.
         -4   -1    0    0    0  501 -0.00000000000E+00 -0.00000000000E+00 -0.13562286087E+04  0.13562286087E+04  0.00000000000E+00 0. -1.
   -9000010    2    1    2    0  502 -0.15083999506E+03  0.29375293377E+02 -0.82813191385E+03  0.12998252976E+04  0.99001400273E+03 0.  0.
         13    1    3    3    0    0  0.40259253855E+03  0.14204609486E+03 -0.44914442361E+03  0.61966811245E+03  0.10566000000E+00 0. -1.
         -4    1    3    3    0  502 -0.55343253361E+03 -0.11267080149E+03 -0.37898749024E+03  0.68015718516E+03  0.00000000000E+00 0. -1.
        -13    1    1    2    0    0  0.15083999506E+03 -0.29375293377E+02 -0.27204844360E+03  0.31245156232E+03  0.10566000000E+00 0.  1.
<mgrwt>
<rscale>  1 0.62698685E+03</rscale>
<asrwt>0</asrwt>
<pdfrwt beam="1">  1       21 0.39392038E-01 0.10018699E+04</pdfrwt>
<pdfrwt beam="2">  1       -4 0.20865056E+00 0.10018699E+04</pdfrwt>
<totfact> 0.28802078E+01</totfact>
</mgrwt>
</event>
<event>
 6    2  0.2321478E-005  0.1026950E+04  0.7818608E-02  0.9711036E-01
         21   -1    0    0  501  502  0.00000000000E+00  0.00000000000E+00  0.34801102535E+03  0.34801102535E+03  0.00000000000E+00 0. -1.
         -4   -1    0    0    0  501 -0.00000000000E+00 -0.00000000000E+00 -0.16052198888E+04  0.16052198888E+04  0.00000000000E+00 0. -1.
   -9000010    2    1    2    0  502 -0.18944892634E+03  0.12383132324E+03 -0.46135753998E+03  0.11258226518E+04  0.10016989425E+04 0.  0.
         13    1    3    3    0    0  0.69665898185E+02  0.53358204570E+03 -0.29238202844E+03  0.61241358458E+03  0.10566000000E+00 0. -1.
         -4    1    3    3    0  502 -0.25911482452E+03 -0.40975072245E+03 -0.16897551154E+03  0.51340906725E+03  0.00000000000E+00 0. -1.
        -13    1    1    2    0    0  0.18944892634E+03 -0.12383132324E+03 -0.79585132350E+03  0.82740826234E+03  0.10566000000E+00 0.  1.
<mgrwt>
<rscale>  1 0.70363472E+03</rscale>
<asrwt>0</asrwt>
<pdfrwt beam="1">  1       21 0.53540158E-01 0.10269498E+04</pdfrwt>
<pdfrwt beam="2">  1       -4 0.24695691E+00 0.10269498E+04</pdfrwt>
<totfact> 0.85325824E+00</totfact>
</mgrwt>
</event>
<event>
 6    2  0.2321478E-005  0.1430512E+04  0.7818608E-02  0.9031765E-01
         21   -1    0    0  501  502  0.00000000000E+00  0.00000000000E+00  0.15803218922E+04  0.15803218922E+04  0.00000000000E+00 0.  1.
         -4   -1    0    0    0  501 -0.00000000000E+00 -0.00000000000E+00 -0.90966300936E+03  0.90966300936E+03  0.00000000000E+00 0. -1.
   -9000010    2    1    2    0  502  0.71736023918E+03  0.64899656251E+03  0.41037811008E+03  0.14882123012E+04  0.10538327236E+04 0.  0.
         13    1    3    3    0    0  0.34526989420E+03 -0.25697654606E+03  0.24405211159E+03  0.49478246675E+03  0.10566000000E+00 0. -1.
         -4    1    3    3    0  502  0.37209034499E+03  0.90597310857E+03  0.16632599849E+03  0.99342983449E+03  0.00000000000E+00 0. -1.
        -13    1    1    2    0    0 -0.71736023918E+03 -0.64899656251E+03  0.26028077276E+03  0.10017726003E+04  0.10566000000E+00 0.  1.
<mgrwt>
<rscale>  1 0.12972292E+04</rscale>
<asrwt>0</asrwt>
<pdfrwt beam="1">  1       21 0.24312644E+00 0.14305124E+04</pdfrwt>
<pdfrwt beam="2">  1       -4 0.13994816E+00 0.14305124E+04</pdfrwt>
<totfact> 0.78220551E-01</totfact>
</mgrwt>
</event>
<event>
 6    2  0.2321478E-005  0.1085143E+04  0.7818608E-02  0.9473814E-01
         -4   -1    0    0    0  501 -0.00000000000E+00  0.00000000000E+00  0.61791668529E+03  0.61791668529E+03  0.00000000000E+00 0. -1.
         21   -1    0    0  501  502  0.00000000000E+00 -0.00000000000E+00 -0.10230960147E+04  0.10230960147E+04  0.00000000000E+00 0. -1.
   -9000010    2    1    2    0  502 -0.36728917831E+03 -0.22918906432E+03 -0.50473180212E+03  0.11967833969E+04  0.99504137566E+03 0.  0.
         13    1    3    3    0    0 -0.46885086920E+03 -0.44885393887E+03 -0.64666653504E+03  0.91622519868E+03  0.10566000000E+00 0. -1.
         -4    1    3    3    0  502  0.10156169089E+03  0.21966487455E+03  0.14193473292E+03  0.28055819820E+03  0.00000000000E+00 0. -1.
        -13    1    1    2    0    0  0.36728917831E+03  0.22918906432E+03  0.99552472753E+02  0.44422930307E+03  0.10566000000E+00 0.  1.
<mgrwt>
<rscale>  1 0.86242226E+03</rscale>
<asrwt>0</asrwt>
<pdfrwt beam="2">  1       21 0.15739939E+00 0.10851434E+04</pdfrwt>
<pdfrwt beam="1">  1       -4 0.95064106E-01 0.10851434E+04</pdfrwt>
<totfact> 0.85839131E+00</totfact>
</mgrwt>
</event>
<event>
 6    2  0.2321478E-005  0.1066259E+04  0.7818608E-02  0.9520617E-01
         -4   -1    0    0    0  501 -0.00000000000E+00  0.00000000000E+00  0.10293737503E+04  0.10293737503E+04  0.00000000000E+00 0. -1.
         21   -1    0    0  501  502  0.00000000000E+00 -0.00000000000E+00 -0.57756158962E+03  0.57756158962E+03  0.00000000000E+00 0. -1.
   -9000010    2    1    2    0  502  0.33740042488E+03 -0.19031107226E+03  0.78801012146E+02  0.10691671008E+04  0.99340391529E+03 0.  0.
         13    1    3    3    0    0 -0.10321074849E+03 -0.36374061343E+03 -0.28380399998E+03  0.47276253450E+03  0.10566000000E+00 0. -1.
         -4    1    3    3    0  502  0.44061117337E+03  0.17342954117E+03  0.36260501212E+03  0.59640456626E+03  0.00000000000E+00 0. -1.
        -13    1    1    2    0    0 -0.33740042488E+03  0.19031107226E+03  0.37301114848E+03  0.53776823911E+03  0.10566000000E+00 0.  1.
<mgrwt>
<rscale>  1 0.82780731E+03</rscale>
<asrwt>0</asrwt>
<pdfrwt beam="2">  1       21 0.88855630E-01 0.10662592E+04</pdfrwt>
<pdfrwt beam="1">  1       -4 0.15836519E+00 0.10662592E+04</pdfrwt>
<totfact> 0.10399042E+01</totfact>
</mgrwt>
</event>
<event>
 6    2  0.2321478E-005  0.1303513E+04  0.7818608E-02  0.9132130E-01
         -4   -1    0    0    0  501 -0.00000000000E+00  0.00000000000E+00  0.13738015348E+04  0.13738015348E+04  0.00000000000E+00 0. -1.
         21   -1    0    0  501  502  0.00000000000E+00 -0.00000000000E+00 -0.93961612714E+03  0.93961612714E+03  0.00000000000E+00 0.  1.
   -9000010    2    1    2    0  502 -0.83514845544E+03 -0.24414682602E+03  0.58770369522E+03  0.14298745159E+04  0.97060026913E+03 0.  0.
         13    1    3    3    0    0 -0.97168000103E+03  0.52549474881E+02  0.48659555667E+03  0.10879791904E+04  0.10566000000E+00 0. -1.
         -4    1    3    3    0  502  0.13653154560E+03 -0.29669630091E+03  0.10110813855E+03  0.34189532550E+03  0.00000000000E+00 0. -1.
        -13    1    1    2    0    0  0.83514845544E+03  0.24414682602E+03 -0.15351828754E+03  0.88354314612E+03  0.10566000000E+00 0.  1.
<mgrwt>
<rscale>  1 0.11782279E+04</rscale>
<asrwt>0</asrwt>
<pdfrwt beam="2">  1       21 0.14455633E+00 0.13035128E+04</pdfrwt>
<pdfrwt beam="1">  1       -4 0.21135408E+00 0.13035128E+04</pdfrwt>
<totfact> 0.12385656E+00</totfact>
</mgrwt>
</event>
<event>
 6    2  0.2321478E-005  0.1026522E+04  0.7818608E-02  0.1007326E+00
         21   -1    0    0  501  502  0.00000000000E+00  0.00000000000E+00  0.68733716864E+03  0.68733716864E+03  0.00000000000E+00 0. -1.
         -4   -1    0    0    0  501 -0.00000000000E+00 -0.00000000000E+00 -0.49606173011E+03  0.49606173011E+03  0.00000000000E+00 0. -1.
   -9000010    2    1    2    0  502 -0.36095959914E+01 -0.70414151114E+02  0.28571594645E+03  0.10655421953E+04  0.10240973518E+04 0.  0.
         13    1    3    3    0    0 -0.61942655466E+02  0.47308799379E+03  0.94174633569E+02  0.48633117853E+03  0.10566000000E+00 0. -1.
         -4    1    3    3    0  502  0.58333059474E+02 -0.54350214491E+03  0.19154131288E+03  0.57921101672E+03  0.00000000000E+00 0. -1.
        -13    1    1    2    0    0  0.36095959914E+01  0.70414151114E+02 -0.94440507914E+02  0.11785670350E+03  0.10566000000E+00 0.  1.
<mgrwt>
<rscale>  1 0.52551322E+03</rscale>
<asrwt>0</asrwt>
<pdfrwt beam="1">  1       21 0.10574418E+00 0.10265216E+04</pdfrwt>
<pdfrwt beam="2">  1       -4 0.76317189E-01 0.10265216E+04</pdfrwt>
<totfact> 0.41521997E+01</totfact>
</mgrwt>
</event>
<event>
 6    2  0.2321478E-005  0.1078939E+04  0.7818608E-02  0.9473828E-01
         -4   -1    0    0    0  501 -0.00000000000E+00  0.00000000000E+00  0.37502224176E+03  0.37502224176E+03  0.00000000000E+00 0. -1.
         21   -1    0    0  501  502  0.00000000000E+00 -0.00000000000E+00 -0.20170223417E+04  0.20170223417E+04  0.00000000000E+00 0.  1.
   -9000010    2    1    2    0  502 -0.42377830710E+03  0.11992766076E+03 -0.54256764343E+03  0.12076787468E+04  0.98495563882E+03 0.  0.
         13    1    3    3    0    0 -0.56838750776E+03 -0.24694370890E+03 -0.52623126247E+03  0.81299748284E+03  0.10566000000E+00 0. -1.
         -4    1    3    3    0  502  0.14460920066E+03  0.36687136966E+03 -0.16336380958E+02  0.39468126398E+03  0.00000000000E+00 0. -1.
        -13    1    1    2    0    0  0.42377830710E+03 -0.11992766076E+03 -0.10994324565E+04  0.11843658367E+04  0.10566000000E+00 0.  1.
<mgrwt>
<rscale>  1 0.86241161E+03</rscale>
<asrwt>0</asrwt>
<pdfrwt beam="2">  1       21 0.31031114E+00 0.10789385E+04</pdfrwt>
<pdfrwt beam="1">  1       -4 0.57695728E-01 0.10789385E+04</pdfrwt>
<totfact> 0.25474097E+00</totfact>
</mgrwt>
</event>
<event>
 6    2  0.2321478E-005  0.1069877E+04  0.7818608E-02  0.9471016E-01
         21   -1    0    0  501  502  0.00000000000E+00  0.00000000000E+00  0.19487515726E+04  0.19487515726E+04  0.00000000000E+00 0. -1.
         -4   -1    0    0    0  501 -0.00000000000E+00 -0.00000000000E+00 -0.32830934253E+03  0.32830934253E+03  0.00000000000E+00 0. -1.
   -9000010    2    1    2    0  502  0.44813557668E+02  0.45399398241E+03  0.14221016504E+04  0.17796096233E+04  0.96773886787E+03 0.  0.
         13    1    3    3    0    0  0.14174914592E+03  0.63833091135E+03  0.47069957081E+03  0.80567814286E+03  0.10566000000E+00 0. -1.
         -4    1    3    3    0  502 -0.96935588249E+02 -0.18433692894E+03  0.95140207955E+03  0.97393148045E+03  0.00000000000E+00 0. -1.
        -13    1    1    2    0    0 -0.44813557668E+02 -0.45399398241E+03  0.19834057972E+03  0.49745129183E+03  0.10566000000E+00 0.  1.
<mgrwt>
<rscale>  1 0.86454853E+03</rscale>
<asrwt>0</asrwt>
<pdfrwt beam="1">  1       21 0.29980793E+00 0.10698772E+04</pdfrwt>
<pdfrwt beam="2">  1       -4 0.50509131E-01 0.10698772E+04</pdfrwt>
<totfact> 0.39438360E+00</totfact>
</mgrwt>
</event>
<event>
 6    2  0.2321478E-005  0.1046286E+04  0.7818608E-02  0.9761055E-01
         -4   -1    0    0    0  501 -0.00000000000E+00  0.00000000000E+00  0.74594109385E+03  0.74594109385E+03  0.00000000000E+00 0. -1.
         21   -1    0    0  501  502  0.00000000000E+00 -0.00000000000E+00 -0.54765918557E+03  0.54765918557E+03  0.00000000000E+00 0. -1.
   -9000010    2    1    2    0  502 -0.17387833057E+03 -0.50955735942E+02  0.30613395219E+02  0.10467341167E+04  0.10304780299E+04 0.  0.
         13    1    3    3    0    0 -0.19964632697E+03  0.19932128805E+03 -0.43442939695E+03  0.51799280288E+03  0.10566000000E+00 0. -1.
         -4    1    3    3    0  502  0.25767996398E+02 -0.25027702399E+03  0.46504279217E+03  0.52874131380E+03  0.00000000000E+00 0. -1.
        -13    1    1    2    0    0  0.17387833057E+03  0.50955735942E+02  0.16766851306E+03  0.24686616274E+03  0.10566000000E+00 0.  1.
<mgrwt>
<rscale>  1 0.67495072E+03</rscale>
<asrwt>0</asrwt>
<pdfrwt beam="2">  1       21 0.84255259E-01 0.10462864E+04</pdfrwt>
<pdfrwt beam="1">  1       -4 0.11476017E+00 0.10462864E+04</pdfrwt>
<totfact> 0.27387923E+01</totfact>
</mgrwt>
</event>
<event>
 6    2  0.2321478E-005  0.9178132E+03  0.7818608E-02  0.9743447E-01
         21   -1    0    0  501  502  0.00000000000E+00  0.00000000000E+00  0.10565273075E+04  0.10565273075E+04  0.00000000000E+00 0. -1.
         -4   -1    0    0    0  501 -0.00000000000E+00 -0.00000000000E+00 -0.35871885911E+03  0.35871885911E+03  0.00000000000E+00 0. -1.
   -9000010    2    1    2    0  502 -0.28454087744E+03  0.41916711424E+01  0.65478252953E+03  0.11274401175E+04  0.87258236094E+03 0.  0.
         13    1    3    3    0    0  0.25300632493E+03 -0.40078173016E+02 -0.27589186809E+02  0.25764245535E+03  0.10566000000E+00 0. -1.
         -4    1    3    3    0  502 -0.53754720237E+03  0.44269844159E+02  0.68237171634E+03  0.86979766218E+03  0.00000000000E+00 0. -1.
        -13    1    1    2    0    0  0.28454087744E+03 -0.41916711424E+01  0.43025918894E+02  0.28780604910E+03  0.10566000000E+00 0.  1.
<mgrwt>
<rscale>  1 0.68487873E+03</rscale>
<asrwt>0</asrwt>
<pdfrwt beam="1">  1       21 0.16254266E+00 0.91781319E+03</pdfrwt>
<pdfrwt beam="2">  1       -4 0.55187517E-01 0.91781319E+03</pdfrwt>
<totfact> 0.27239922E+01</totfact>
</mgrwt>
</event>
<event>
 6    2  0.2321478E-005  0.1138155E+04  0.7818608E-02  0.9374720E-01
         -4   -1    0    0    0  501 -0.00000000000E+00  0.00000000000E+00  0.86415818424E+03  0.86415818424E+03  0.00000000000E+00 0. -1.
         21   -1    0    0  501  502  0.00000000000E+00 -0.00000000000E+00 -0.88412545864E+03  0.88412545864E+03  0.00000000000E+00 0. -1.
   -9000010    2    1    2    0  502  0.38540845848E+03  0.36924980022E+03 -0.25291654683E+03  0.11659173754E+04  0.10052419867E+04 0.  0.
         13    1    3    3    0    0 -0.21885841557E+03  0.17420841778E+03 -0.42431820457E+03  0.50822586395E+03  0.10566000000E+00 0. -1.
         -4    1    3    3    0  502  0.60426687405E+03  0.19504138244E+03  0.17140165774E+03  0.65769151144E+03  0.00000000000E+00 0. -1.
        -13    1    1    2    0    0 -0.38540845848E+03 -0.36924980022E+03  0.23294927243E+03  0.58236626750E+03  0.10566000000E+00 0.  1.
<mgrwt>
<rscale>  1 0.94185651E+03</rscale>
<asrwt>0</asrwt>
<pdfrwt beam="2">  1       21 0.13601930E+00 0.11381549E+04</pdfrwt>
<pdfrwt beam="1">  1       -4 0.13294741E+00 0.11381549E+04</pdfrwt>
<totfact> 0.55616780E+00</totfact>
</mgrwt>
</event>
<event>
 6    2  0.2321478E-005  0.1042467E+04  0.7818608E-02  0.9553952E-01
         21   -1    0    0  501  502  0.00000000000E+00  0.00000000000E+00  0.39327442358E+03  0.39327442358E+03  0.00000000000E+00 0. -1.
         -4   -1    0    0    0  501 -0.00000000000E+00 -0.00000000000E+00 -0.12791528977E+04  0.12791528977E+04  0.00000000000E+00 0. -1.
   -9000010    2    1    2    0  502 -0.17488732118E+03  0.32516709850E+03 -0.57989767418E+03  0.11929031007E+04  0.97489347008E+03 0.  0.
         13    1    3    3    0    0  0.37226539246E+03  0.11384896681E+03 -0.32551069572E+02  0.39064394653E+03  0.10566000000E+00 0. -1.
         -4    1    3    3    0  502 -0.54715271363E+03  0.21131813169E+03 -0.54734660461E+03  0.80225915414E+03  0.00000000000E+00 0. -1.
        -13    1    1    2    0    0  0.17488732118E+03 -0.32516709850E+03 -0.30598079991E+03  0.47952422059E+03  0.10566000000E+00 0.  1.
<mgrwt>
<rscale>  1 0.80420401E+03</rscale>
<asrwt>0</asrwt>
<pdfrwt beam="1">  1       21 0.60503756E-01 0.10424665E+04</pdfrwt>
<pdfrwt beam="2">  1       -4 0.19679276E+00 0.10424665E+04</pdfrwt>
<totfact> 0.13602148E+01</totfact>
</mgrwt>
</event>
<event>
 6    2  0.2321478E-005  0.9820230E+03  0.7818608E-02  0.9780703E-01
         -4   -1    0    0    0  501 -0.00000000000E+00  0.00000000000E+00  0.49724337437E+03  0.49724337437E+03  0.00000000000E+00 0. -1.
         21   -1    0    0  501  502  0.00000000000E+00 -0.00000000000E+00 -0.10470587759E+04  0.10470587759E+04  0.00000000000E+00 0. -1.
   -9000010    2    1    2    0  502 -0.10028768412E+03 -0.17921407011E+03 -0.76650779895E+03  0.12457541495E+04  0.96030926928E+03 0.  0.
         13    1    3    3    0    0 -0.33741771176E+03  0.15998156457E+03 -0.74259446820E+03  0.83119875395E+03  0.10566000000E+00 0. -1.
         -4    1    3    3    0  502  0.23713002764E+03 -0.33919563469E+03 -0.23913330749E+02  0.41455539556E+03  0.00000000000E+00 0. -1.
        -13    1    1    2    0    0  0.10028768412E+03  0.17921407011E+03  0.21669239740E+03  0.29854800078E+03  0.10566000000E+00 0.  1.
<mgrwt>
<rscale>  1 0.66408480E+03</rscale>
<asrwt>0</asrwt>
<pdfrwt beam="2">  1       21 0.16108596E+00 0.98202301E+03</pdfrwt>
<pdfrwt beam="1">  1       -4 0.76498982E-01 0.98202301E+03</pdfrwt>
<totfact> 0.13488233E+01</totfact>
</mgrwt>
</event>
<event>
 6    2  0.2321478E-005  0.1045852E+04  0.7818608E-02  0.9583709E-01
         21   -1    0    0  501  502  0.00000000000E+00  0.00000000000E+00  0.22461444012E+04  0.22461444012E+04  0.00000000000E+00 0.  1.
         -4   -1    0    0    0  501 -0.00000000000E+00 -0.00000000000E+00 -0.21147987008E+03  0.21147987008E+03  0.00000000000E+00 0. -1.
   -9000010    2    1    2    0  502  0.32987156021E+03  0.87192679916E+01  0.14803723734E+04  0.18125420446E+04  0.99242885274E+03 0.  0.
         13    1    3    3    0    0  0.12143857529E+03 -0.22831576569E+03  0.14743341608E+04  0.14968422245E+04  0.10566000000E+00 0. -1.
         -4    1    3    3    0  502  0.20843298492E+03  0.23703503368E+03  0.60382126437E+01  0.31569982009E+03  0.00000000000E+00 0. -1.
        -13    1    1    2    0    0 -0.32987156021E+03 -0.87192679916E+01  0.55429215772E+03  0.64508222665E+03  0.10566000000E+00 0.  1.
<mgrwt>
<rscale>  1 0.78383897E+03</rscale>
<asrwt>0</asrwt>
<pdfrwt beam="1">  1       21 0.34556066E+00 0.10458519E+04</pdfrwt>
<pdfrwt beam="2">  1       -4 0.32535366E-01 0.10458519E+04</pdfrwt>
<totfact> 0.50373016E+00</totfact>
</mgrwt>
</event>
<event>
 6    2  0.2321478E-005  0.1011954E+04  0.7818608E-02  0.1012289E+00
         -4   -1    0    0    0  501 -0.00000000000E+00  0.00000000000E+00  0.10292244949E+04  0.10292244949E+04  0.00000000000E+00 0. -1.
         21   -1    0    0  501  502  0.00000000000E+00 -0.00000000000E+00 -0.30998543736E+03  0.30998543736E+03  0.00000000000E+00 0. -1.
   -9000010    2    1    2    0  502  0.60543538833E+02 -0.17895216326E+02  0.53545722441E+03  0.11448866650E+04  0.10099828105E+04 0.  0.
         13    1    3    3    0    0 -0.37697490258E+03 -0.30221540633E+03  0.32478272079E+03  0.58217527936E+03  0.10566000000E+00 0. -1.
         -4    1    3    3    0  502  0.43751844142E+03  0.28432019001E+03  0.21067450361E+03  0.56271138561E+03  0.00000000000E+00 0. -1.
        -13    1    1    2    0    0 -0.60543538833E+02  0.17895216326E+02  0.18378183318E+03  0.19432326735E+03  0.10566000000E+00 0.  1.
<mgrwt>
<rscale>  1 0.50574853E+03</rscale>
<asrwt>0</asrwt>
<pdfrwt beam="2">  1       21 0.47690068E-01 0.10119541E+04</pdfrwt>
<pdfrwt beam="1">  1       -4 0.15834223E+00 0.10119541E+04</pdfrwt>
<totfact> 0.42883286E+01</totfact>
</mgrwt>
</event>
<event>
 6    2  0.2321478E-005  0.1079802E+04  0.7818608E-02  0.9537279E-01
         21   -1    0    0  501  502  0.00000000000E+00  0.00000000000E+00  0.90349934393E+03  0.90349934393E+03  0.00000000000E+00 0. -1.
         -4   -1    0    0    0  501 -0.00000000000E+00 -0.00000000000E+00 -0.68473518452E+03  0.68473518452E+03  0.00000000000E+00 0. -1.
   -9000010    2    1    2    0  502  0.34172359271E+03 -0.84362058738E+02  0.44706920974E+03  0.11686929001E+04  0.10208233175E+04 0.  0.
         13    1    3    3    0    0 -0.84040218682E+02  0.22229743779E+03 -0.21736076665E+03  0.32206307340E+03  0.10566000000E+00 0. -1.
         -4    1    3    3    0  502  0.42576381139E+03 -0.30665949652E+03  0.66442997639E+03  0.84662982668E+03  0.00000000000E+00 0. -1.
        -13    1    1    2    0    0 -0.34172359271E+03  0.84362058738E+02 -0.22830505033E+03  0.41954162837E+03  0.10566000000E+00 0.  1.
<mgrwt>
<rscale>  1 0.81590290E+03</rscale>
<asrwt>0</asrwt>
<pdfrwt beam="1">  1       21 0.13899990E+00 0.10798019E+04</pdfrwt>
<pdfrwt beam="2">  1       -4 0.10534387E+00 0.10798019E+04</pdfrwt>
<totfact> 0.94712019E+00</totfact>
</mgrwt>
</event>
<event>
 6    2  0.2321478E-005  0.1029238E+04  0.7818608E-02  0.9760413E-01
         -4   -1    0    0    0  501 -0.00000000000E+00  0.00000000000E+00  0.82393226392E+03  0.82393226392E+03  0.00000000000E+00 0. -1.
         21   -1    0    0  501  502  0.00000000000E+00 -0.00000000000E+00 -0.47403299835E+03  0.47403299835E+03  0.00000000000E+00 0. -1.
   -9000010    2    1    2    0  502  0.11398281833E+03 -0.15294914987E+03  0.18481608020E+03  0.10456995401E+04  0.10114074448E+04 0.  0.
         13    1    3    3    0    0  0.52669743744E+03  0.95773183510E+02  0.17532702933E+02  0.53562122822E+03  0.10566000000E+00 0. -1.
         -4    1    3    3    0  502 -0.41271461911E+03 -0.24872233338E+03  0.16728337727E+03  0.51007831189E+03  0.00000000000E+00 0. -1.
        -13    1    1    2    0    0 -0.11398281833E+03  0.15294914987E+03  0.16508318537E+03  0.25226572216E+03  0.10566000000E+00 0.  1.
<mgrwt>
<rscale>  1 0.67530958E+03</rscale>
<asrwt>0</asrwt>
<pdfrwt beam="2">  1       21 0.72928154E-01 0.10292378E+04</pdfrwt>
<pdfrwt beam="1">  1       -4 0.12675881E+00 0.10292378E+04</pdfrwt>
<totfact> 0.29947310E+01</totfact>
</mgrwt>
</event>
<event>
 6    2  0.2321478E-005  0.1176480E+04  0.7818608E-02  0.9309453E-01
         21   -1    0    0  501  502  0.00000000000E+00  0.00000000000E+00  0.10900934043E+04  0.10900934043E+04  0.00000000000E+00 0.  1.
         -4   -1    0    0    0  501 -0.00000000000E+00 -0.00000000000E+00 -0.73387455948E+03  0.73387455948E+03  0.00000000000E+00 0. -1.
   -9000010    2    1    2    0  502  0.21735030960E+03 -0.57218955630E+03  0.24974142763E+03  0.12026954817E+04  0.10047206556E+04 0.  0.
         13    1    3    3    0    0  0.61878752360E+03 -0.31444514807E+03  0.91643108955E+02  0.70012300425E+03  0.10566000000E+00 0. -1.
         -4    1    3    3    0  502 -0.40143721400E+03 -0.25774440823E+03  0.15809831868E+03  0.50257247749E+03  0.00000000000E+00 0. -1.
        -13    1    1    2    0    0 -0.21735030960E+03  0.57218955630E+03  0.10647741720E+03  0.62127248206E+03  0.10566000000E+00 0.  1.
<mgrwt>
<rscale>  1 0.99917263E+03</rscale>
<asrwt>0</asrwt>
<pdfrwt beam="1">  1       21 0.16770668E+00 0.11764802E+04</pdfrwt>
<pdfrwt beam="2">  1       -4 0.11290378E+00 0.11764802E+04</pdfrwt>
<totfact> 0.46509938E+00</totfact>
</mgrwt>
</event>
<event>
 6    2  0.2321478E-005  0.1055431E+04  0.7818608E-02  0.9529331E-01
         21   -1    0    0  501  502  0.00000000000E+00  0.00000000000E+00  0.81963104115E+03  0.81963104115E+03  0.00000000000E+00 0. -1.
         -4   -1    0    0    0  501 -0.00000000000E+00 -0.00000000000E+00 -0.68261606371E+03  0.68261606371E+03  0.00000000000E+00 0. -1.
   -9000010    2    1    2    0  502 -0.19191920918E+03 -0.33661893814E+03  0.27543604625E+03  0.10907793712E+04  0.98172772638E+03 0.  0.
         13    1    3    3    0    0  0.84088216673E+02 -0.76517167262E+02 -0.34520006987E+03  0.36344023507E+03  0.10566000000E+00 0. -1.
         -4    1    3    3    0  502 -0.27600742586E+03 -0.26010177087E+03  0.62063611612E+03  0.72733913615E+03  0.00000000000E+00 0. -1.
        -13    1    1    2    0    0  0.19191920918E+03  0.33661893814E+03 -0.13842106881E+03  0.41146773363E+03  0.10566000000E+00 0.  1.
<mgrwt>
<rscale>  1 0.82155446E+03</rscale>
<asrwt>0</asrwt>
<pdfrwt beam="1">  1       21 0.12609708E+00 0.10554310E+04</pdfrwt>
<pdfrwt beam="2">  1       -4 0.10501786E+00 0.10554310E+04</pdfrwt>
<totfact> 0.12417381E+01</totfact>
</mgrwt>
</event>
<event>
 6    2  0.2321478E-005  0.1033799E+04  0.7818608E-02  0.9820135E-01
         21   -1    0    0  501  502  0.00000000000E+00  0.00000000000E+00  0.22109533832E+03  0.22109533832E+03  0.00000000000E+00 0. -1.
         -4   -1    0    0    0  501 -0.00000000000E+00 -0.00000000000E+00 -0.16259435952E+04  0.16259435952E+04  0.00000000000E+00 0. -1.
   -9000010    2    1    2    0  502 -0.14926038107E+03 -0.40468703295E+02 -0.11290999981E+04  0.15308847137E+04  0.10221667299E+04 0.  0.
         13    1    3    3    0    0 -0.53077812439E+03  0.20283765356E+03 -0.50629720324E+03  0.76105545147E+03  0.10566000000E+00 0. -1.
         -4    1    3    3    0  502  0.38151774333E+03 -0.24330635685E+03 -0.62280279481E+03  0.76982926223E+03  0.00000000000E+00 0. -1.
        -13    1    1    2    0    0  0.14926038107E+03  0.40468703295E+02 -0.27574825886E+03  0.31615421985E+03  0.10566000000E+00 0.  1.
<mgrwt>
<rscale>  1 0.64293069E+03</rscale>
<asrwt>0</asrwt>
<pdfrwt beam="1">  1       21 0.34014668E-01 0.10337994E+04</pdfrwt>
<pdfrwt beam="2">  1       -4 0.25014517E+00 0.10337994E+04</pdfrwt>
<totfact> 0.21265683E+01</totfact>
</mgrwt>
</event>
<event>
 6    2  0.2321478E-005  0.1038344E+04  0.7818608E-02  0.9582383E-01
         -4   -1    0    0    0  501 -0.00000000000E+00  0.00000000000E+00  0.10621124304E+04  0.10621124304E+04  0.00000000000E+00 0. -1.
         21   -1    0    0  501  502  0.00000000000E+00 -0.00000000000E+00 -0.70521458127E+03  0.70521458127E+03  0.00000000000E+00 0.  1.
   -9000010    2    1    2    0  502  0.54437757537E+02  0.33433432617E+03  0.72551904505E+03  0.12667028929E+04  0.98153727543E+03 0.  0.
         13    1    3    3    0    0 -0.82343385124E+02  0.56035970457E+03  0.81085259060E+03  0.98907298337E+03  0.10566000000E+00 0. -1.
         -4    1    3    3    0  502  0.13678114266E+03 -0.22602537840E+03 -0.85333545554E+02  0.27762990953E+03  0.00000000000E+00 0. -1.
        -13    1    1    2    0    0 -0.54437757537E+02 -0.33433432617E+03 -0.36862119588E+03  0.50062411880E+03  0.10566000000E+00 0.  1.
<mgrwt>
<rscale>  1 0.78473269E+03</rscale>
<asrwt>0</asrwt>
<pdfrwt beam="2">  1       21 0.10849455E+00 0.10383440E+04</pdfrwt>
<pdfrwt beam="1">  1       -4 0.16340191E+00 0.10383440E+04</pdfrwt>
<totfact> 0.58415250E+00</totfact>
</mgrwt>
</event>
<event>
 6    2  0.2321478E-005  0.8384999E+03  0.7818608E-02  0.9878656E-01
         21   -1    0    0  501  502  0.00000000000E+00  0.00000000000E+00  0.39896775878E+03  0.39896775878E+03  0.00000000000E+00 0. -1.
         -4   -1    0    0    0  501 -0.00000000000E+00 -0.00000000000E+00 -0.93431017908E+03  0.93431017908E+03  0.00000000000E+00 0. -1.
   -9000010    2    1    2    0  502 -0.20027053630E+03 -0.13157214809E+03 -0.11081413393E+03  0.84579071243E+03  0.80353135538E+03 0.  0.
         13    1    3    3    0    0  0.19121957066E+03 -0.33716546925E+03  0.87718823747E+01  0.38771437288E+03  0.10566000000E+00 0. -1.
         -4    1    3    3    0  502 -0.39149010696E+03  0.20559332116E+03 -0.11958601631E+03  0.45807633954E+03  0.00000000000E+00 0. -1.
        -13    1    1    2    0    0  0.20027053630E+03  0.13157214809E+03 -0.42452828637E+03  0.48748722542E+03  0.10566000000E+00 0.  1.
<mgrwt>
<rscale>  1 0.61306953E+03</rscale>
<asrwt>0</asrwt>
<pdfrwt beam="1">  1       21 0.61379656E-01 0.83849994E+03</pdfrwt>
<pdfrwt beam="2">  1       -4 0.14374003E+00 0.83849994E+03</pdfrwt>
<totfact> 0.32549334E+01</totfact>
</mgrwt>
</event>
<event>
 6    2  0.2321478E-005  0.1007830E+04  0.7818608E-02  0.9757526E-01
         21   -1    0    0  501  502  0.00000000000E+00  0.00000000000E+00  0.70033326830E+03  0.70033326830E+03  0.00000000000E+00 0. -1.
         -4   -1    0    0    0  501 -0.00000000000E+00 -0.00000000000E+00 -0.67006362949E+03  0.67006362949E+03  0.00000000000E+00 0. -1.
   -9000010    2    1    2    0  502 -0.11664930104E+03 -0.16871877689E+03 -0.23520494697E+03  0.10349123945E+04  0.98673664776E+03 0.  0.
         13    1    3    3    0    0  0.33682092128E+03 -0.37551642349E+03 -0.16973900026E+03  0.53223327282E+03  0.10566000000E+00 0. -1.
         -4    1    3    3    0  502 -0.45347022231E+03  0.20679764660E+03 -0.65465946713E+02  0.50267912165E+03  0.00000000000E+00 0. -1.
        -13    1    1    2    0    0  0.11664930104E+03  0.16871877689E+03  0.26547458578E+03  0.33548450332E+03  0.10566000000E+00 0.  1.
<mgrwt>
<rscale>  1 0.67692606E+03</rscale>
<asrwt>0</asrwt>
<pdfrwt beam="1">  1       21 0.10774358E+00 0.10078305E+04</pdfrwt>
<pdfrwt beam="2">  1       -4 0.10308671E+00 0.10078305E+04</pdfrwt>
<totfact> 0.19580059E+01</totfact>
</mgrwt>
</event>
<event>
 6    2  0.2321478E-005  0.9791733E+03  0.7818608E-02  0.1016146E+00
         21   -1    0    0  501  502  0.00000000000E+00  0.00000000000E+00  0.64869229541E+03  0.64869229541E+03  0.00000000000E+00 0. -1.
         -4   -1    0    0    0  501 -0.00000000000E+00 -0.00000000000E+00 -0.52763322639E+03  0.52763322639E+03  0.00000000000E+00 0. -1.
   -9000010    2    1    2    0  502 -0.61846909237E+02 -0.31116429272E+01  0.26941738352E+03  0.10155619589E+04  0.97721320260E+03 0.  0.
         13    1    3    3    0    0 -0.43987569677E+03 -0.24258570255E+03  0.18842297626E+02  0.50268627894E+03  0.10566000000E+00 0. -1.
         -4    1    3    3    0  502  0.37802878753E+03  0.23947405963E+03  0.25057508590E+03  0.51287567997E+03  0.00000000000E+00 0. -1.
        -13    1    1    2    0    0  0.61846909237E+02  0.31116429272E+01 -0.14835831451E+03  0.16076356289E+03  0.10566000000E+00 0.  1.
<mgrwt>
<rscale>  1 0.49103401E+03</rscale>
<asrwt>0</asrwt>
<pdfrwt beam="1">  1       21 0.99798815E-01 0.97917331E+03</pdfrwt>
<pdfrwt beam="2">  1       -4 0.81174342E-01 0.97917331E+03</pdfrwt>
<totfact> 0.41834941E+01</totfact>
</mgrwt>
</event>
<event>
 6    2  0.2321478E-005  0.1315510E+04  0.7818608E-02  0.9200597E-01
         21   -1    0    0  501  502  0.00000000000E+00  0.00000000000E+00  0.36944738740E+03  0.36944738740E+03  0.00000000000E+00 0.  1.
         -4   -1    0    0    0  501 -0.00000000000E+00 -0.00000000000E+00 -0.26628704154E+04  0.26628704154E+04  0.00000000000E+00 0. -1.
   -9000010    2    1    2    0  502  0.30505133883E+03  0.57876958406E+03 -0.13569050168E+04  0.18899095802E+04  0.11412871881E+04 0.  0.
         13    1    3    3    0    0  0.19581608388E+03  0.43902220568E+02 -0.13281710909E+04  0.13432459944E+04  0.10566000000E+00 0. -1.
         -4    1    3    3    0  502  0.10923525496E+03  0.53486736349E+03 -0.28733925915E+02  0.54666358572E+03  0.00000000000E+00 0. -1.
        -13    1    1    2    0    0 -0.30505133883E+03 -0.57876958406E+03 -0.93651801120E+03  0.11424082227E+04  0.10566000000E+00 0.  1.
<mgrwt>
<rscale>  1 0.11047271E+04</rscale>
<asrwt>0</asrwt>
<pdfrwt beam="1">  1       21 0.56838058E-01 0.13155102E+04</pdfrwt>
<pdfrwt beam="2">  1       -4 0.40967238E+00 0.13155102E+04</pdfrwt>
<totfact> 0.64375028E-01</totfact>
</mgrwt>
</event>
<event>
 6    2  0.2321478E-005  0.1010743E+04  0.7818608E-02  0.1001171E+00
         21   -1    0    0  501  502  0.00000000000E+00  0.00000000000E+00  0.87739687296E+03  0.87739687296E+03  0.00000000000E+00 0. -1.
         -4   -1    0    0    0  501 -0.00000000000E+00 -0.00000000000E+00 -0.34827643150E+03  0.34827643150E+03  0.00000000000E+00 0. -1.
   -9000010    2    1    2    0  502  0.52478573770E+02 -0.72529299852E+02  0.45076522664E+03  0.11067025060E+04  0.10067704044E+04 0.  0.
         13    1    3    3    0    0  0.44588809323E+03 -0.27209414228E+03  0.75962095410E+02  0.52784625134E+03  0.10566000000E+00 0. -1.
         -4    1    3    3    0  502 -0.39340951946E+03  0.19956484243E+03  0.37480313123E+03  0.57885625462E+03  0.00000000000E+00 0. -1.
        -13    1    1    2    0    0 -0.52478573770E+02  0.72529299852E+02  0.78355214816E+02  0.11897079850E+03  0.10566000000E+00 0.  1.
<mgrwt>
<rscale>  1 0.55139802E+03</rscale>
<asrwt>0</asrwt>
<pdfrwt beam="1">  1       21 0.13498413E+00 0.10107429E+04</pdfrwt>
<pdfrwt beam="2">  1       -4 0.53580990E-01 0.10107429E+04</pdfrwt>
<totfact> 0.48131882E+01</totfact>
</mgrwt>
</event>
<event>
 6    2  0.2321478E-005  0.1169121E+04  0.7818608E-02  0.9307040E-01
         21   -1    0    0  501  502  0.00000000000E+00  0.00000000000E+00  0.76552161066E+03  0.76552161066E+03  0.00000000000E+00 0.  1.
         -4   -1    0    0    0  501 -0.00000000000E+00 -0.00000000000E+00 -0.10565046552E+04  0.10565046552E+04  0.00000000000E+00 0. -1.
   -9000010    2    1    2    0  502 -0.23175977916E+03 -0.58498650987E+03 -0.17338963510E+03  0.11819090633E+04  0.98535438107E+03 0.  0.
         13    1    3    3    0    0  0.34752639951E+03 -0.88149889295E+02  0.98404824274E+02  0.37179096539E+03  0.10566000000E+00 0. -1.
         -4    1    3    3    0  502 -0.57928617867E+03 -0.49683662058E+03 -0.27179445938E+03  0.81011809787E+03  0.00000000000E+00 0. -1.
        -13    1    1    2    0    0  0.23175977916E+03  0.58498650987E+03 -0.11759340944E+03  0.64011720261E+03  0.10566000000E+00 0.  1.
<mgrwt>
<rscale>  1 0.10013731E+04</rscale>
<asrwt>0</asrwt>
<pdfrwt beam="1">  1       21 0.11777256E+00 0.11691215E+04</pdfrwt>
<pdfrwt beam="2">  1       -4 0.16253918E+00 0.11691215E+04</pdfrwt>
<totfact> 0.47355399E+00</totfact>
</mgrwt>
</event>
<event>
 6    2  0.2321478E-005  0.1021876E+04  0.7818608E-02  0.9709509E-01
         21   -1    0    0  501  502  0.00000000000E+00  0.00000000000E+00  0.35425747099E+03  0.35425747099E+03  0.00000000000E+00 0. -1.
         -4   -1    0    0    0  501 -0.00000000000E+00 -0.00000000000E+00 -0.11125278704E+04  0.11125278704E+04  0.00000000000E+00 0. -1.
   -9000010    2    1    2    0  502 -0.22688910830E+03  0.42823374824E+02 -0.65553525687E+03  0.12140660711E+04  0.99544836285E+03 0.  0.
         13    1    3    3    0    0 -0.31221300007E+03  0.11841045716E+03  0.17414226939E+03  0.37659465600E+03  0.10566000000E+00 0. -1.
         -4    1    3    3    0  502  0.85323891764E+02 -0.75587082339E+02 -0.82967752626E+03  0.83747141510E+03  0.00000000000E+00 0. -1.
        -13    1    1    2    0    0  0.22688910830E+03 -0.42823374824E+02 -0.10273514255E+03  0.25271927029E+03  0.10566000000E+00 0.  1.
<mgrwt>
<rscale>  1 0.70453449E+03</rscale>
<asrwt>0</asrwt>
<pdfrwt beam="1">  1       21 0.54501150E-01 0.10218757E+04</pdfrwt>
<pdfrwt beam="2">  1       -4 0.17115813E+00 0.10218757E+04</pdfrwt>
<totfact> 0.25823754E+01</totfact>
</mgrwt>
</event>
<event>
 6    2  0.2321478E-005  0.9894200E+03  0.7818608E-02  0.9845310E-01
         21   -1    0    0  501  502  0.00000000000E+00  0.00000000000E+00  0.67624285611E+03  0.67624285611E+03  0.00000000000E+00 0. -1.
         -4   -1    0    0    0  501 -0.00000000000E+00 -0.00000000000E+00 -0.52052193302E+03  0.52052193302E+03  0.00000000000E+00 0. -1.
   -9000010    2    1    2    0  502 -0.16239965671E+03  0.56787141500E+01  0.27552892622E+02  0.98980355728E+03  0.97598464323E+03 0.  0.
         13    1    3    3    0    0  0.23415182172E+03 -0.34886773924E+03 -0.12150468807E+03  0.43737761201E+03  0.10566000000E+00 0. -1.
         -4    1    3    3    0  502 -0.39655147842E+03  0.35454645339E+03  0.14905758069E+03  0.55242594528E+03  0.00000000000E+00 0. -1.
        -13    1    1    2    0    0  0.16239965671E+03 -0.56787141500E+01  0.12816803046E+03  0.20696123185E+03  0.10566000000E+00 0.  1.
<mgrwt>
<rscale>  1 0.62986605E+03</rscale>
<asrwt>0</asrwt>
<pdfrwt beam="1">  1       21 0.10403736E+00 0.98941999E+03</pdfrwt>
<pdfrwt beam="2">  1       -4 0.80080297E-01 0.98941999E+03</pdfrwt>
<totfact> 0.38871271E+01</totfact>
</mgrwt>
</event>
<event>
 6    2  0.2321478E-005  0.1191850E+04  0.7818608E-02  0.9313667E-01
         -4   -1    0    0    0  501 -0.00000000000E+00  0.00000000000E+00  0.94593224266E+03  0.94593224266E+03  0.00000000000E+00 0. -1.
         21   -1    0    0  501  502  0.00000000000E+00 -0.00000000000E+00 -0.10822368267E+04  0.10822368267E+04  0.00000000000E+00 0.  1.
   -9000010    2    1    2    0  502  0.89979682352E+02  0.57270724905E+03 -0.55332429593E+03  0.13140294559E+04  0.10413528212E+04 0.  0.
         13    1    3    3    0    0 -0.17508000844E+03  0.41168416919E+03 -0.80077843044E+03  0.91726930088E+03  0.10566000000E+00 0. -1.
         -4    1    3    3    0  502  0.26505969079E+03  0.16102307986E+03  0.24745413451E+03  0.39676015502E+03  0.00000000000E+00 0. -1.
        -13    1    1    2    0    0 -0.89979682352E+02 -0.57270724905E+03  0.41701971184E+03  0.71413961350E+03  0.10566000000E+00 0.  1.
<mgrwt>
<rscale>  1 0.99534365E+03</rscale>
<asrwt>0</asrwt>
<pdfrwt beam="2">  1       21 0.16649797E+00 0.11918497E+04</pdfrwt>
<pdfrwt beam="1">  1       -4 0.14552804E+00 0.11918497E+04</pdfrwt>
<totfact> 0.24687661E+00</totfact>
</mgrwt>
</event>
<event>
 6    2  0.2321478E-005  0.1016088E+04  0.7818608E-02  0.9802358E-01
         21   -1    0    0  501  502  0.00000000000E+00  0.00000000000E+00  0.27360723200E+03  0.27360723200E+03  0.00000000000E+00 0. -1.
         -4   -1    0    0    0  501 -0.00000000000E+00 -0.00000000000E+00 -0.14224493300E+04  0.14224493300E+04  0.00000000000E+00 0. -1.
   -9000010    2    1    2    0  502  0.16186241613E+03 -0.60062854756E+02 -0.75452549501E+03  0.12656003124E+04  0.10013133575E+04 0.  0.
         13    1    3    3    0    0  0.55992949506E+03 -0.99368193900E+02 -0.24858438807E+03  0.62063619501E+03  0.10566000000E+00 0. -1.
         -4    1    3    3    0  502 -0.39806707893E+03  0.39305339144E+02 -0.50594110695E+03  0.64496411738E+03  0.00000000000E+00 0. -1.
        -13    1    1    2    0    0 -0.16186241613E+03  0.60062854756E+02 -0.39431660302E+03  0.43045624964E+03  0.10566000000E+00 0.  1.
<mgrwt>
<rscale>  1 0.65236157E+03</rscale>
<asrwt>0</asrwt>
<pdfrwt beam="1">  1       21 0.42093421E-01 0.10160883E+04</pdfrwt>
<pdfrwt beam="2">  1       -4 0.21883835E+00 0.10160883E+04</pdfrwt>
<totfact> 0.21509771E+01</totfact>
</mgrwt>
</event>
<event>
 6    2  0.2321478E-005  0.1128040E+04  0.7818608E-02  0.9379276E-01
         21   -1    0    0  501  502  0.00000000000E+00  0.00000000000E+00  0.10427528557E+04  0.10427528557E+04  0.00000000000E+00 0.  1.
         -4   -1    0    0    0  501 -0.00000000000E+00 -0.00000000000E+00 -0.78524157370E+03  0.78524157370E+03  0.00000000000E+00 0. -1.
   -9000010    2    1    2    0  502 -0.10713082688E+03 -0.52858482548E+03 -0.16869645651E+03  0.11405848140E+04  0.99075541468E+03 0.  0.
         13    1    3    3    0    0  0.21503032539E+03  0.84673566702E+02  0.24251878557E+03  0.33499705409E+03  0.10566000000E+00 0. -1.
         -4    1    3    3    0  502 -0.32216115227E+03 -0.61325839218E+03 -0.41121524207E+03  0.80558775992E+03  0.00000000000E+00 0. -1.
        -13    1    1    2    0    0  0.10713082688E+03  0.52858482548E+03  0.42620773853E+03  0.68740961540E+03  0.10566000000E+00 0.  1.
<mgrwt>
<rscale>  1 0.93801026E+03</rscale>
<asrwt>0</asrwt>
<pdfrwt beam="1">  1       21 0.16042352E+00 0.11280404E+04</pdfrwt>
<pdfrwt beam="2">  1       -4 0.12080640E+00 0.11280404E+04</pdfrwt>
<totfact> 0.44928683E+00</totfact>
</mgrwt>
</event>
<event>
 6    2  0.2321478E-005  0.1029557E+04  0.7818608E-02  0.9712531E-01
         21   -1    0    0  501  502  0.00000000000E+00  0.00000000000E+00  0.20166910491E+04  0.20166910491E+04  0.00000000000E+00 0. -1.
         -4   -1    0    0    0  501 -0.00000000000E+00 -0.00000000000E+00 -0.21614857976E+03  0.21614857976E+03  0.00000000000E+00 0. -1.
   -9000010    2    1    2    0  502  0.20404289645E+03 -0.91192991759E+02  0.17007027276E+04  0.19880588074E+04  0.10050066611E+04 0.  0.
         13    1    3    3    0    0 -0.29076528021E+02  0.27393989214E+03  0.14732267398E+04  0.14987613376E+04  0.10566000000E+00 0. -1.
         -4    1    3    3    0  502  0.23311942447E+03 -0.36513288390E+03  0.22747598776E+03  0.48929746982E+03  0.00000000000E+00 0. -1.
        -13    1    1    2    0    0 -0.20404289645E+03  0.91192991759E+02  0.99839741733E+02  0.24478082141E+03  0.10566000000E+00 0.  1.
<mgrwt>
<rscale>  1 0.70275582E+03</rscale>
<asrwt>0</asrwt>
<pdfrwt beam="1">  1       21 0.31026015E+00 0.10295572E+04</pdfrwt>
<pdfrwt beam="2">  1       -4 0.33253629E-01 0.10295572E+04</pdfrwt>
<totfact> 0.80480470E+00</totfact>
</mgrwt>
</event>
<event>
 6    2  0.2321478E-005  0.1002002E+04  0.7818608E-02  0.1010444E+00
         21   -1    0    0  501  502  0.00000000000E+00  0.00000000000E+00  0.71435710642E+03  0.71435710642E+03  0.00000000000E+00 0. -1.
         -4   -1    0    0    0  501 -0.00000000000E+00 -0.00000000000E+00 -0.49836580289E+03  0.49836580289E+03  0.00000000000E+00 0. -1.
   -9000010    2    1    2    0  502 -0.15531672872E+02  0.67061177111E+02  0.35057169951E+03  0.10615596582E+04  0.99963491191E+03 0.  0.
         13    1    3    3    0    0  0.30573252953E+03  0.30157910133E+03  0.47924943695E+03  0.64350786161E+03  0.10566000000E+00 0. -1.
         -4    1    3    3    0  502 -0.32126420241E+03 -0.23451792422E+03 -0.12867773744E+03  0.41805179660E+03  0.00000000000E+00 0. -1.
        -13    1    1    2    0    0  0.15531672872E+02 -0.67061177111E+02 -0.13458039598E+03  0.15116325110E+03  0.10566000000E+00 0.  1.
<mgrwt>
<rscale>  1 0.51298656E+03</rscale>
<asrwt>0</asrwt>
<pdfrwt beam="1">  1       21 0.10990109E+00 0.10020022E+04</pdfrwt>
<pdfrwt beam="2">  1       -4 0.76671662E-01 0.10020022E+04</pdfrwt>
<totfact> 0.37354634E+01</totfact>
</mgrwt>
</event>
<event>
 6    2  0.2321478E-005  0.9078746E+03  0.7818608E-02  0.9766141E-01
         -4   -1    0    0    0  501 -0.00000000000E+00  0.00000000000E+00  0.77400089769E+03  0.77400089769E+03  0.00000000000E+00 0. -1.
         21   -1    0    0  501  502  0.00000000000E+00 -0.00000000000E+00 -0.77113123066E+03  0.77113123066E+03  0.00000000000E+00 0. -1.
   -9000010    2    1    2    0  502 -0.90956251512E+02  0.25709558732E+03 -0.45246503733E+03  0.10143771144E+04  0.86594753849E+03 0.  0.
         13    1    3    3    0    0 -0.27672502886E+03  0.33962217262E+03  0.79190149360E+02  0.44518653692E+03  0.10566000000E+00 0. -1.
         -4    1    3    3    0  502  0.18576877735E+03 -0.82526585293E+02 -0.53165518669E+03  0.56919057744E+03  0.00000000000E+00 0. -1.
        -13    1    1    2    0    0  0.90956251512E+02 -0.25709558732E+03  0.45533470437E+03  0.53075501399E+03  0.10566000000E+00 0.  1.
<mgrwt>
<rscale>  1 0.67211718E+03</rscale>
<asrwt>0</asrwt>
<pdfrwt beam="2">  1       21 0.11863557E+00 0.90787462E+03</pdfrwt>
<pdfrwt beam="1">  1       -4 0.11907706E+00 0.90787462E+03</pdfrwt>
<totfact> 0.10865060E+01</totfact>
</mgrwt>
</event>
<event>
 6    2  0.2321478E-005  0.1111742E+04  0.7818608E-02  0.9419067E-01
         21   -1    0    0  501  502  0.00000000000E+00  0.00000000000E+00  0.89525506245E+03  0.89525506245E+03  0.00000000000E+00 0. -1.
         -4   -1    0    0    0  501 -0.00000000000E+00 -0.00000000000E+00 -0.71764579979E+03  0.71764579979E+03  0.00000000000E+00 0. -1.
   -9000010    2    1    2    0  502  0.18365491318E+03 -0.45285567041E+03  0.80384399459E+02  0.11146438296E+04  0.99857990662E+03 0.  0.
         13    1    3    3    0    0  0.35922663689E+03 -0.63239375732E+03 -0.18378838833E+03  0.75016253159E+03  0.10566000000E+00 0. -1.
         -4    1    3    3    0  502 -0.17557172371E+03  0.17953808691E+03  0.26417278779E+03  0.36448129804E+03  0.00000000000E+00 0. -1.
        -13    1    1    2    0    0 -0.18365491318E+03  0.45285567041E+03  0.97224863203E+02  0.49825703261E+03  0.10566000000E+00 0.  1.
<mgrwt>
<rscale>  1 0.90522991E+03</rscale>
<asrwt>0</asrwt>
<pdfrwt beam="1">  1       21 0.13773155E+00 0.11117415E+04</pdfrwt>
<pdfrwt beam="2">  1       -4 0.11040705E+00 0.11117415E+04</pdfrwt>
<totfact> 0.86228469E+00</totfact>
</mgrwt>
</event>
<event>
 6    2  0.2321478E-005  0.1049695E+04  0.7818608E-02  0.9587626E-01
         21   -1    0    0  501  502  0.00000000000E+00  0.00000000000E+00  0.11080313608E+04  0.11080313608E+04  0.00000000000E+00 0.  1.
         -4   -1    0    0    0  501 -0.00000000000E+00 -0.00000000000E+00 -0.54704526557E+03  0.54704526557E+03  0.00000000000E+00 0. -1.
   -9000010    2    1    2    0  502  0.28373609076E+03 -0.15226913706E+03  0.74219486921E+03  0.12855787370E+04  0.99908328269E+03 0.  0.
         13    1    3    3    0    0 -0.15785460552E+03 -0.38585776979E+03  0.65802112512E+03  0.77897118513E+03  0.10566000000E+00 0. -1.
         -4    1    3    3    0  502  0.44159069628E+03  0.23358863274E+03  0.84173744091E+02  0.50660755183E+03  0.00000000000E+00 0. -1.
        -13    1    1    2    0    0 -0.28373609076E+03  0.15226913706E+03 -0.18120877403E+03  0.36949788937E+03  0.10566000000E+00 0.  1.
<mgrwt>
<rscale>  1 0.78120591E+03</rscale>
<asrwt>0</asrwt>
<pdfrwt beam="1">  1       21 0.17046636E+00 0.10496949E+04</pdfrwt>
<pdfrwt beam="2">  1       -4 0.84160810E-01 0.10496949E+04</pdfrwt>
<totfact> 0.91150448E+00</totfact>
</mgrwt>
</event>
<event>
 6    2  0.2321478E-005  0.1004348E+04  0.7818608E-02  0.1016376E+00
         21   -1    0    0  501  502  0.00000000000E+00  0.00000000000E+00  0.89170754080E+03  0.89170754080E+03  0.00000000000E+00 0. -1.
         -4   -1    0    0    0  501 -0.00000000000E+00 -0.00000000000E+00 -0.31623781654E+03  0.31623781654E+03  0.00000000000E+00 0. -1.
   -9000010    2    1    2    0  502 -0.56858327683E+02 -0.37759477557E+01  0.53412639146E+03  0.11375435851E+04  0.10027299131E+04 0.  0.
         13    1    3    3    0    0  0.12485389208E+02 -0.64312799274E+02  0.82748898785E+03  0.83007834406E+03  0.10566000000E+00 0. -1.
         -4    1    3    3    0  502 -0.69343716891E+02  0.60536851519E+02 -0.29336259639E+03  0.30746524100E+03  0.00000000000E+00 0. -1.
        -13    1    1    2    0    0  0.56858327683E+02  0.37759477557E+01  0.41343332797E+02  0.70401772273E+02  0.10566000000E+00 0.  1.
<mgrwt>
<rscale>  1 0.49017453E+03</rscale>
<asrwt>0</asrwt>
<pdfrwt beam="1">  1       21 0.13718577E+00 0.10043478E+04</pdfrwt>
<pdfrwt beam="2">  1       -4 0.48651972E-01 0.10043478E+04</pdfrwt>
<totfact> 0.56568848E+01</totfact>
</mgrwt>
</event>
<event>
 6    2  0.2321478E-005  0.1134891E+04  0.7818608E-02  0.9577171E-01
         21   -1    0    0  501  502  0.00000000000E+00  0.00000000000E+00  0.43772838274E+03  0.43772838274E+03  0.00000000000E+00 0. -1.
         -4   -1    0    0    0  501 -0.00000000000E+00 -0.00000000000E+00 -0.18043041158E+04  0.18043041158E+04  0.00000000000E+00 0. -1.
   -9000010    2    1    2    0  502 -0.25751973453E+03 -0.58699164250E+02 -0.34397721391E+03  0.11858744857E+04  0.11037282123E+04 0.  0.
         13    1    3    3    0    0  0.51133871597E+02 -0.52298326481E+03  0.98258651109E+01  0.52556895540E+03  0.10566000000E+00 0. -1.
         -4    1    3    3    0  502 -0.30865360613E+03  0.46428410056E+03 -0.35380307902E+03  0.66030553029E+03  0.00000000000E+00 0. -1.
        -13    1    1    2    0    0  0.25751973453E+03  0.58699164250E+02 -0.10225985192E+04  0.10561580129E+04  0.10566000000E+00 0.  1.
<mgrwt>
<rscale>  1 0.78825737E+03</rscale>
<asrwt>0</asrwt>
<pdfrwt beam="1">  1       21 0.67342829E-01 0.11348912E+04</pdfrwt>
<pdfrwt beam="2">  1       -4 0.27758525E+00 0.11348912E+04</pdfrwt>
<totfact> 0.32622971E+00</totfact>
</mgrwt>
</event>
<event>
 6    2  0.2321478E-005  0.1085999E+04  0.7818608E-02  0.9498482E-01
         21   -1    0    0  501  502  0.00000000000E+00  0.00000000000E+00  0.86448393795E+03  0.86448393795E+03  0.00000000000E+00 0. -1.
         -4   -1    0    0    0  501 -0.00000000000E+00 -0.00000000000E+00 -0.64744363080E+03  0.64744363080E+03  0.00000000000E+00 0. -1.
   -9000010    2    1    2    0  502 -0.26194436550E+03 -0.29710792688E+03  0.25021009583E+03  0.11144502526E+04  0.10111905372E+04 0.  0.
         13    1    3    3    0    0  0.36059748430E+03 -0.12971060383E+03  0.27116816698E+03  0.46945454772E+03  0.10566000000E+00 0. -1.
         -4    1    3    3    0  502 -0.62254184980E+03 -0.16739732305E+03 -0.20958071157E+02  0.64499570484E+03  0.00000000000E+00 0. -1.
        -13    1    1    2    0    0  0.26194436550E+03  0.29710792688E+03 -0.33169788681E+02  0.39747731618E+03  0.10566000000E+00 0.  1.
<mgrwt>
<rscale>  1 0.84395801E+03</rscale>
<asrwt>0</asrwt>
<pdfrwt beam="1">  1       21 0.13299753E+00 0.10859992E+04</pdfrwt>
<pdfrwt beam="2">  1       -4 0.99606712E-01 0.10859992E+04</pdfrwt>
<totfact> 0.12218591E+01</totfact>
</mgrwt>
</event>
<event>
 6    2  0.2321478E-005  0.1107218E+04  0.7818608E-02  0.9411669E-01
         -4   -1    0    0    0  501 -0.00000000000E+00  0.00000000000E+00  0.20848422880E+04  0.20848422880E+04  0.00000000000E+00 0. -1.
         21   -1    0    0  501  502  0.00000000000E+00 -0.00000000000E+00 -0.31509917266E+03  0.31509917266E+03  0.00000000000E+00 0. -1.
   -9000010    2    1    2    0  502  0.46202697619E+03  0.21095165627E+03  0.11157760771E+04  0.15719061799E+04  0.98385123671E+03 0.  0.
         13    1    3    3    0    0  0.47300005667E+02 -0.20771203114E+02 -0.18237825565E+03  0.18955361435E+03  0.10566000000E+00 0. -1.
         -4    1    3    3    0  502  0.41472697052E+03  0.23172285939E+03  0.12981543328E+04  0.13823525655E+04  0.00000000000E+00 0. -1.
        -13    1    1    2    0    0 -0.46202697619E+03 -0.21095165627E+03  0.65396703822E+03  0.82803528081E+03  0.10566000000E+00 0.  1.
<mgrwt>
<rscale>  1 0.91121540E+03</rscale>
<asrwt>0</asrwt>
<pdfrwt beam="2">  1       21 0.48476797E-01 0.11072185E+04</pdfrwt>
<pdfrwt beam="1">  1       -4 0.32074496E+00 0.11072185E+04</pdfrwt>
<totfact> 0.36565419E+00</totfact>
</mgrwt>
</event>
<event>
 6    2  0.2321478E-005  0.1043922E+04  0.7818608E-02  0.9674032E-01
         -4   -1    0    0    0  501 -0.00000000000E+00  0.00000000000E+00  0.78735137879E+03  0.78735137879E+03  0.00000000000E+00 0. -1.
         21   -1    0    0  501  502  0.00000000000E+00 -0.00000000000E+00 -0.56494331765E+03  0.56494331765E+03  0.00000000000E+00 0. -1.
   -9000010    2    1    2    0  502 -0.22424173451E+03  0.96148923855E+02  0.34769131773E+02  0.10445003657E+04  0.10150089410E+04 0.  0.
         13    1    3    3    0    0 -0.51367390139E+03  0.29564826219E+03 -0.19570650905E+03  0.62415528576E+03  0.10566000000E+00 0. -1.
         -4    1    3    3    0  502  0.28943216687E+03 -0.19949933833E+03  0.23047564082E+03  0.42034507994E+03  0.00000000000E+00 0. -1.
        -13    1    1    2    0    0  0.22424173451E+03 -0.96148923855E+02  0.18763892936E+03  0.30779433074E+03  0.10566000000E+00 0.  1.
<mgrwt>
<rscale>  1 0.72584175E+03</rscale>
<asrwt>0</asrwt>
<pdfrwt beam="2">  1       21 0.86914356E-01 0.10439215E+04</pdfrwt>
<pdfrwt beam="1">  1       -4 0.12113098E+00 0.10439215E+04</pdfrwt>
<totfact> 0.22215974E+01</totfact>
</mgrwt>
</event>
<event>
 6    2  0.2321478E-005  0.1026381E+04  0.7818608E-02  0.9710507E-01
         21   -1    0    0  501  502  0.00000000000E+00  0.00000000000E+00  0.52972675084E+03  0.52972675084E+03  0.00000000000E+00 0. -1.
         -4   -1    0    0    0  501 -0.00000000000E+00 -0.00000000000E+00 -0.74236664413E+03  0.74236664413E+03  0.00000000000E+00 0. -1.
   -9000010    2    1    2    0  502 -0.52895293713E+02 -0.22086257535E+03 -0.15759341244E+03  0.10384091732E+04  0.10009394278E+04 0.  0.
         13    1    3    3    0    0 -0.70614186843E+02 -0.37186128443E+03 -0.52129059077E+03  0.64421352782E+03  0.10566000000E+00 0. -1.
         -4    1    3    3    0  502  0.17718893130E+02  0.15099870908E+03  0.36369717833E+03  0.39419564538E+03  0.00000000000E+00 0. -1.
        -13    1    1    2    0    0  0.52895293713E+02  0.22086257535E+03 -0.55046480853E+02  0.23368422177E+03  0.10566000000E+00 0.  1.
<mgrwt>
<rscale>  1 0.70394661E+03</rscale>
<asrwt>0</asrwt>
<pdfrwt beam="1">  1       21 0.81496423E-01 0.10263810E+04</pdfrwt>
<pdfrwt beam="2">  1       -4 0.11421025E+00 0.10263810E+04</pdfrwt>
<totfact> 0.30046439E+01</totfact>
</mgrwt>
</event>
<event>
 6    2  0.2321478E-005  0.9368843E+03  0.7818608E-02  0.9638861E-01
         -4   -1    0    0    0  501 -0.00000000000E+00  0.00000000000E+00  0.12210176948E+04  0.12210176948E+04  0.00000000000E+00 0. -1.
         21   -1    0    0  501  502  0.00000000000E+00 -0.00000000000E+00 -0.68704706076E+03  0.68704706076E+03  0.00000000000E+00 0. -1.
   -9000010    2    1    2    0  502  0.25842680740E+03 -0.27886058756E+03 -0.30638200286E+03  0.98570896326E+03  0.85627366332E+03 0.  0.
         13    1    3    3    0    0  0.76949145601E+02 -0.32485860023E+03  0.23802360831E+03  0.41001162231E+03  0.10566000000E+00 0. -1.
         -4    1    3    3    0  502  0.18147766180E+03  0.45998012674E+02 -0.54440561117E+03  0.57569734095E+03  0.00000000000E+00 0. -1.
        -13    1    1    2    0    0 -0.25842680740E+03  0.27886058756E+03  0.84035263692E+03  0.92235579232E+03  0.10566000000E+00 0.  1.
<mgrwt>
<rscale>  1 0.74776625E+03</rscale>
<asrwt>0</asrwt>
<pdfrwt beam="2">  1       21 0.10569955E+00 0.93688432E+03</pdfrwt>
<pdfrwt beam="1">  1       -4 0.18784888E+00 0.93688432E+03</pdfrwt>
<totfact> 0.42459234E+00</totfact>
</mgrwt>
</event>
<event>
 6    2  0.2321478E-005  0.1121507E+04  0.7818608E-02  0.9369403E-01
         21   -1    0    0  501  502  0.00000000000E+00  0.00000000000E+00  0.48491988571E+03  0.48491988571E+03  0.00000000000E+00 0.  1.
         -4   -1    0    0    0  501 -0.00000000000E+00 -0.00000000000E+00 -0.14944460664E+04  0.14944460664E+04  0.00000000000E+00 0. -1.
   -9000010    2    1    2    0  502 -0.28052320768E+03  0.49463034948E+03 -0.78034339786E+03  0.13662776944E+04  0.96665736786E+03 0.  0.
         13    1    3    3    0    0 -0.43923336371E+03  0.28816720936E+03 -0.92839724487E+03  0.10667182120E+04  0.10566000000E+00 0. -1.
         -4    1    3    3    0  502  0.15871015604E+03  0.20646314012E+03  0.14805384701E+03  0.29955948236E+03  0.00000000000E+00 0. -1.
        -13    1    1    2    0    0  0.28052320768E+03 -0.49463034948E+03 -0.22918278283E+03  0.61308825774E+03  0.10566000000E+00 0.  1.
<mgrwt>
<rscale>  1 0.94637050E+03</rscale>
<asrwt>0</asrwt>
<pdfrwt beam="1">  1       21 0.74603058E-01 0.11215074E+04</pdfrwt>
<pdfrwt beam="2">  1       -4 0.22991478E+00 0.11215074E+04</pdfrwt>
<totfact> 0.51065370E+00</totfact>
</mgrwt>
</event>
<event>
 6    2  0.2321478E-005  0.9693987E+03  0.7818608E-02  0.1010706E+00
         21   -1    0    0  501  502  0.00000000000E+00  0.00000000000E+00  0.41141926368E+03  0.41141926368E+03  0.00000000000E+00 0. -1.
         -4   -1    0    0    0  501 -0.00000000000E+00 -0.00000000000E+00 -0.66372204805E+03  0.66372204805E+03  0.00000000000E+00 0. -1.
   -9000010    2    1    2    0  502 -0.74858752942E+02  0.90557474634E+01 -0.24086446928E+03  0.99887411255E+03  0.96646156711E+03 0.  0.
         13    1    3    3    0    0  0.43426414500E+02  0.47582338970E+03 -0.19179525329E+03  0.51485840967E+03  0.10566000000E+00 0. -1.
         -4    1    3    3    0  502 -0.11828516744E+03 -0.46676764224E+03 -0.49069215986E+02  0.48401570288E+03  0.00000000000E+00 0. -1.
        -13    1    1    2    0    0  0.74858752942E+02 -0.90557474634E+01 -0.11438315102E+02  0.76267199179E+02  0.10566000000E+00 0.  1.
<mgrwt>
<rscale>  1 0.51194853E+03</rscale>
<asrwt>0</asrwt>
<pdfrwt beam="1">  1       21 0.63295271E-01 0.96939868E+03</pdfrwt>
<pdfrwt beam="2">  1       -4 0.10211108E+00 0.96939868E+03</pdfrwt>
<totfact> 0.71115862E+01</totfact>
</mgrwt>
</event>
<event>
 6    2  0.2321478E-005  0.1054282E+04  0.7818608E-02  0.9537803E-01
         21   -1    0    0  501  502  0.00000000000E+00  0.00000000000E+00  0.91803174099E+03  0.91803174099E+03  0.00000000000E+00 0. -1.
         -4   -1    0    0    0  501 -0.00000000000E+00 -0.00000000000E+00 -0.61062764215E+03  0.61062764215E+03  0.00000000000E+00 0. -1.
   -9000010    2    1    2    0  502 -0.35998521596E+03  0.11358852710E+03  0.41982088242E+03  0.11347948714E+04  0.98438717874E+03 0.  0.
         13    1    3    3    0    0 -0.58519623722E+03 -0.71388472058E+02 -0.39456583351E+02  0.59085343626E+03  0.10566000000E+00 0. -1.
         -4    1    3    3    0  502  0.22521102127E+03  0.18497699916E+03  0.45927746577E+03  0.54394143516E+03  0.00000000000E+00 0. -1.
        -13    1    1    2    0    0  0.35998521596E+03 -0.11358852710E+03 -0.11241678358E+03  0.39386451172E+03  0.10566000000E+00 0.  1.
<mgrwt>
<rscale>  1 0.81553235E+03</rscale>
<asrwt>0</asrwt>
<pdfrwt beam="1">  1       21 0.14123565E+00 0.10542817E+04</pdfrwt>
<pdfrwt beam="2">  1       -4 0.93942714E-01 0.10542817E+04</pdfrwt>
<totfact> 0.11985346E+01</totfact>
</mgrwt>
</event>
<event>
 6    2  0.2321478E-005  0.1021868E+04  0.7818608E-02  0.9726904E-01
         21   -1    0    0  501  502  0.00000000000E+00  0.00000000000E+00  0.18136303070E+04  0.18136303070E+04  0.00000000000E+00 0. -1.
         -4   -1    0    0    0  501 -0.00000000000E+00 -0.00000000000E+00 -0.21526768987E+03  0.21526768987E+03  0.00000000000E+00 0. -1.
   -9000010    2    1    2    0  502  0.20389653050E+03 -0.76753297064E+02  0.14069915705E+04  0.17389191142E+04  0.99837344839E+03 0.  0.
         13    1    3    3    0    0 -0.15176038736E+03 -0.42468183124E+03  0.99686497943E+03  0.10941323829E+04  0.10566000000E+00 0. -1.
         -4    1    3    3    0  502  0.35565691786E+03  0.34792853417E+03  0.41012659105E+03  0.64478673125E+03  0.00000000000E+00 0. -1.
        -13    1    1    2    0    0 -0.20389653050E+03  0.76753297064E+02  0.19137104668E+03  0.28997888274E+03  0.10566000000E+00 0.  1.
<mgrwt>
<rscale>  1 0.69437276E+03</rscale>
<asrwt>0</asrwt>
<pdfrwt beam="1">  1       21 0.27902004E+00 0.10218681E+04</pdfrwt>
<pdfrwt beam="2">  1       -4 0.33118107E-01 0.10218681E+04</pdfrwt>
<totfact> 0.12714838E+01</totfact>
</mgrwt>
</event>
<event>
 6    2  0.2321478E-005  0.1007485E+04  0.7818608E-02  0.9701684E-01
         -4   -1    0    0    0  501 -0.00000000000E+00  0.00000000000E+00  0.26315381696E+03  0.26315381696E+03  0.00000000000E+00 0. -1.
         21   -1    0    0  501  502  0.00000000000E+00 -0.00000000000E+00 -0.21944344690E+04  0.21944344690E+04  0.00000000000E+00 0. -1.
   -9000010    2    1    2    0  502 -0.15362577813E+03  0.19383268520E+03 -0.19647529811E+04  0.22080038363E+04  0.97665483903E+03 0.  0.
         13    1    3    3    0    0 -0.16972055958E+03  0.19515805133E+03 -0.20777870089E+04  0.20938220075E+04  0.10566000000E+00 0. -1.
         -4    1    3    3    0  502  0.16094781451E+02 -0.13253661222E+01  0.11303402781E+03  0.11418182880E+03  0.00000000000E+00 0. -1.
        -13    1    1    2    0    0  0.15362577813E+03 -0.19383268520E+03  0.33472329065E+02  0.24958444971E+03  0.10566000000E+00 0.  1.
<mgrwt>
<rscale>  1 0.70916637E+03</rscale>
<asrwt>0</asrwt>
<pdfrwt beam="2">  1       21 0.33760530E+00 0.10074853E+04</pdfrwt>
<pdfrwt beam="1">  1       -4 0.40485203E-01 0.10074853E+04</pdfrwt>
<totfact> 0.36694380E+00</totfact>
</mgrwt>
</event>
<event>
 6    2  0.2321478E-005  0.9941260E+03  0.7818608E-02  0.1031277E+00
         -4   -1    0    0    0  501 -0.00000000000E+00  0.00000000000E+00  0.99748170845E+03  0.99748170845E+03  0.00000000000E+00 0. -1.
         21   -1    0    0  501  502  0.00000000000E+00 -0.00000000000E+00 -0.27231490798E+03  0.27231490798E+03  0.00000000000E+00 0. -1.
   -9000010    2    1    2    0  502  0.37029067298E+02 -0.62624041555E+01  0.65590089255E+03  0.11910048231E+04  0.99341639724E+03 0.  0.
         13    1    3    3    0    0  0.11028063456E+02  0.30917608468E+02  0.92123506307E+03  0.92181970542E+03  0.10566000000E+00 0. -1.
         -4    1    3    3    0  502  0.26001003842E+02 -0.37180012624E+02 -0.26533417053E+03  0.26918511769E+03  0.00000000000E+00 0. -1.
        -13    1    1    2    0    0 -0.37029067298E+02  0.62624041555E+01  0.69265907925E+02  0.78791793325E+02  0.10566000000E+00 0.  1.
<mgrwt>
<rscale>  1 0.43827643E+03</rscale>
<asrwt>0</asrwt>
<pdfrwt beam="2">  1       21 0.41894602E-01 0.99412600E+03</pdfrwt>
<pdfrwt beam="1">  1       -4 0.15345872E+00 0.99412600E+03</pdfrwt>
<totfact> 0.61615805E+01</totfact>
</mgrwt>
</event>
<event>
 6    2  0.2321478E-005  0.8886178E+03  0.7818608E-02  0.9701835E-01
         -4   -1    0    0    0  501 -0.00000000000E+00  0.00000000000E+00  0.11127381119E+04  0.11127381119E+04  0.00000000000E+00 0. -1.
         21   -1    0    0  501  502  0.00000000000E+00 -0.00000000000E+00 -0.36536617201E+03  0.36536617201E+03  0.00000000000E+00 0. -1.
   -9000010    2    1    2    0  502  0.35963113164E+03 -0.21426433720E+02  0.66133961436E+03  0.11077055594E+04  0.81231021041E+03 0.  0.
         13    1    3    3    0    0  0.13349878791E+03  0.11467496906E+03 -0.16438796831E+03  0.24082294366E+03  0.10566000000E+00 0. -1.
         -4    1    3    3    0  502  0.22613234374E+03 -0.13610140278E+03  0.82572758267E+03  0.86688261576E+03  0.00000000000E+00 0. -1.
        -13    1    1    2    0    0 -0.35963113164E+03  0.21426433720E+02  0.86032325529E+02  0.37039872450E+03  0.10566000000E+00 0.  1.
<mgrwt>
<rscale>  1 0.70907631E+03</rscale>
<asrwt>0</asrwt>
<pdfrwt beam="2">  1       21 0.56210181E-01 0.88861776E+03</pdfrwt>
<pdfrwt beam="1">  1       -4 0.17119048E+00 0.88861776E+03</pdfrwt>
<totfact> 0.24441283E+01</totfact>
</mgrwt>
</event>
<event>
 6    2  0.2321478E-005  0.9971337E+03  0.7818608E-02  0.1058350E+00
         21   -1    0    0  501  502  0.00000000000E+00  0.00000000000E+00  0.96159403258E+03  0.96159403258E+03  0.00000000000E+00 0. -1.
         -4   -1    0    0    0  501 -0.00000000000E+00 -0.00000000000E+00 -0.28941196636E+03  0.28941196636E+03  0.00000000000E+00 0. -1.
   -9000010    2    1    2    0  502  0.15988395948E+02  0.59303914465E+01  0.70004802787E+03  0.12183361148E+04  0.99698788804E+03 0.  0.
         13    1    3    3    0    0 -0.41786774067E+03 -0.19593158349E+03  0.54754122399E+03  0.71610337049E+03  0.10566000000E+00 0. -1.
         -4    1    3    3    0  502  0.43385613662E+03  0.20186197493E+03  0.15250680388E+03  0.50223274429E+03  0.00000000000E+00 0. -1.
        -13    1    1    2    0    0 -0.15988395948E+02 -0.59303914465E+01 -0.27865961654E+02  0.32669884154E+02  0.10566000000E+00 0.  1.
<mgrwt>
<rscale>  1 0.36059203E+03</rscale>
<asrwt>0</asrwt>
<pdfrwt beam="1">  1       21 0.14793754E+00 0.99713372E+03</pdfrwt>
<pdfrwt beam="2">  1       -4 0.44524919E-01 0.99713372E+03</pdfrwt>
<totfact> 0.55379688E+01</totfact>
</mgrwt>
</event>
<event>
 6    2  0.2321478E-005  0.1042849E+04  0.7818608E-02  0.9634106E-01
         21   -1    0    0  501  502  0.00000000000E+00  0.00000000000E+00  0.10984506223E+04  0.10984506223E+04  0.00000000000E+00 0. -1.
         -4   -1    0    0    0  501 -0.00000000000E+00 -0.00000000000E+00 -0.40276030860E+03  0.40276030860E+03  0.00000000000E+00 0. -1.
   -9000010    2    1    2    0  502 -0.26162297133E+03 -0.10023611390E+03  0.61037093429E+03  0.12083401995E+04  0.10045095831E+04 0.  0.
         13    1    3    3    0    0 -0.53024471579E+03  0.25422127437E+03  0.42966542331E+03  0.72828586566E+03  0.10566000000E+00 0. -1.
         -4    1    3    3    0  502  0.26862174446E+03 -0.35445738828E+03  0.18070551098E+03  0.48005433380E+03  0.00000000000E+00 0. -1.
        -13    1    1    2    0    0  0.26162297133E+03  0.10023611390E+03  0.85319379404E+02  0.29287073143E+03  0.10566000000E+00 0.  1.
<mgrwt>
<rscale>  1 0.75079338E+03</rscale>
<asrwt>0</asrwt>
<pdfrwt beam="1">  1       21 0.16899240E+00 0.10428487E+04</pdfrwt>
<pdfrwt beam="2">  1       -4 0.61963125E-01 0.10428487E+04</pdfrwt>
<totfact> 0.18665515E+01</totfact>
</mgrwt>
</event>
<event>
 6    2  0.2321478E-005  0.9980879E+03  0.7818608E-02  0.1051497E+00
         21   -1    0    0  501  502  0.00000000000E+00  0.00000000000E+00  0.47756459330E+03  0.47756459330E+03  0.00000000000E+00 0. -1.
         -4   -1    0    0    0  501 -0.00000000000E+00 -0.00000000000E+00 -0.61722982328E+03  0.61722982328E+03  0.00000000000E+00 0. -1.
   -9000010    2    1    2    0  502  0.97056080509E+01  0.18213036762E+02 -0.46284682386E+02  0.99916047194E+03  0.99787447273E+03 0.  0.
         13    1    3    3    0    0  0.44413653821E+03 -0.21880035346E+03  0.40376364324E+02  0.49675056236E+03  0.10566000000E+00 0. -1.
         -4    1    3    3    0  502 -0.43443093016E+03  0.23701339022E+03 -0.86661046710E+02  0.50240990957E+03  0.00000000000E+00 0. -1.
        -13    1    1    2    0    0 -0.97056080509E+01 -0.18213036762E+02 -0.93380547597E+02  0.95633944649E+02  0.10566000000E+00 0.  1.
<mgrwt>
<rscale>  1 0.37848022E+03</rscale>
<asrwt>0</asrwt>
<pdfrwt beam="1">  1       21 0.73471475E-01 0.99808786E+03</pdfrwt>
<pdfrwt beam="2">  1       -4 0.94958435E-01 0.99808786E+03</pdfrwt>
<totfact> 0.60136585E+01</totfact>
</mgrwt>
</event>
<event>
 6    2  0.2321478E-005  0.1014144E+04  0.7818608E-02  0.9768813E-01
         -4   -1    0    0    0  501 -0.00000000000E+00  0.00000000000E+00  0.17881861595E+04  0.17881861595E+04  0.00000000000E+00 0. -1.
         21   -1    0    0  501  502  0.00000000000E+00 -0.00000000000E+00 -0.20408417044E+03  0.20408417044E+03  0.00000000000E+00 0. -1.
   -9000010    2    1    2    0  502 -0.13947005319E+03  0.13474645225E+03  0.13188554543E+04  0.16636912109E+04  0.99542967289E+03 0.  0.
         13    1    3    3    0    0 -0.27235430750E+03 -0.37219484761E+03  0.42300480639E+03  0.62581063493E+03  0.10566000000E+00 0. -1.
         -4    1    3    3    0  502  0.13288425432E+03  0.50694129986E+03  0.89585064791E+03  0.10378805759E+04  0.00000000000E+00 0. -1.
        -13    1    1    2    0    0  0.13947005319E+03 -0.13474645225E+03  0.26524653480E+03  0.32857911911E+03  0.10566000000E+00 0.  1.
<mgrwt>
<rscale>  1 0.67063405E+03</rscale>
<asrwt>0</asrwt>
<pdfrwt beam="2">  1       21 0.31397566E-01 0.10141443E+04</pdfrwt>
<pdfrwt beam="1">  1       -4 0.27510555E+00 0.10141443E+04</pdfrwt>
<totfact> 0.17603506E+01</totfact>
</mgrwt>
</event>
<event>
 6    2  0.2321478E-005  0.1135502E+04  0.7818608E-02  0.9382323E-01
         -4   -1    0    0    0  501 -0.00000000000E+00  0.00000000000E+00  0.22751462892E+03  0.22751462892E+03  0.00000000000E+00 0. -1.
         21   -1    0    0  501  502  0.00000000000E+00 -0.00000000000E+00 -0.31013425072E+04  0.31013425072E+04  0.00000000000E+00 0.  1.
   -9000010    2    1    2    0  502 -0.10609659565E+03 -0.51214310430E+03 -0.22011345020E+04  0.24767635752E+04  0.10078778025E+04 0.  0.
         13    1    3    3    0    0 -0.22681864463E+03  0.19280242694E+03 -0.12601057153E+04  0.12947918359E+04  0.10566000000E+00 0. -1.
         -4    1    3    3    0  502  0.12072204898E+03 -0.70494553124E+03 -0.94102878664E+03  0.11819717393E+04  0.00000000000E+00 0. -1.
        -13    1    1    2    0    0  0.10609659565E+03  0.51214310430E+03 -0.67269337625E+03  0.85209356089E+03  0.10566000000E+00 0.  1.
<mgrwt>
<rscale>  1 0.93544859E+03</rscale>
<asrwt>0</asrwt>
<pdfrwt beam="2">  1       21 0.47712958E+00 0.11355020E+04</pdfrwt>
<pdfrwt beam="1">  1       -4 0.35002254E-01 0.11355020E+04</pdfrwt>
<totfact> 0.57020735E-01</totfact>
</mgrwt>
</event>
<event>
 6    2  0.2321478E-005  0.1050529E+04  0.7818608E-02  0.9642256E-01
         21   -1    0    0  501  502  0.00000000000E+00  0.00000000000E+00  0.42717558645E+03  0.42717558645E+03  0.00000000000E+00 0. -1.
         -4   -1    0    0    0  501 -0.00000000000E+00 -0.00000000000E+00 -0.13541815306E+04  0.13541815306E+04  0.00000000000E+00 0. -1.
   -9000010    2    1    2    0  502  0.23424932762E+03  0.12725382979E+03 -0.28848297554E+03  0.10894193472E+04  0.10161426092E+04 0.  0.
         13    1    3    3    0    0  0.57412593120E+03 -0.14897133830E+03 -0.26826815685E+03  0.65098453104E+03  0.10566000000E+00 0. -1.
         -4    1    3    3    0  502 -0.33987660358E+03  0.27622516809E+03 -0.20214818689E+02  0.43843481619E+03  0.00000000000E+00 0. -1.
        -13    1    1    2    0    0 -0.23424932762E+03 -0.12725382979E+03 -0.63852296861E+03  0.69193776981E+03  0.10566000000E+00 0.  1.
<mgrwt>
<rscale>  1 0.74561413E+03</rscale>
<asrwt>0</asrwt>
<pdfrwt beam="1">  1       21 0.65719321E-01 0.10505294E+04</pdfrwt>
<pdfrwt beam="2">  1       -4 0.20833562E+00 0.10505294E+04</pdfrwt>
<totfact> 0.94693405E+00</totfact>
</mgrwt>
</event>
<event>
 6    2  0.2321478E-005  0.1066989E+04  0.7818608E-02  0.9535073E-01
         -4   -1    0    0    0  501 -0.00000000000E+00  0.00000000000E+00  0.49640081893E+03  0.49640081893E+03  0.00000000000E+00 0. -1.
         21   -1    0    0  501  502  0.00000000000E+00 -0.00000000000E+00 -0.12669487552E+04  0.12669487552E+04  0.00000000000E+00 0. -1.
   -9000010    2    1    2    0  502  0.41158451513E+02  0.36531039556E+03 -0.87641737657E+03  0.13807870919E+04  0.10016585606E+04 0.  0.
         13    1    3    3    0    0  0.15159717500E+03  0.39487654676E+03 -0.10730094323E+04  0.11533683035E+04  0.10566000000E+00 0. -1.
         -4    1    3    3    0  502 -0.11043872349E+03 -0.29566151197E+02  0.19659205573E+03  0.22741878840E+03  0.00000000000E+00 0. -1.
        -13    1    1    2    0    0 -0.41158451513E+02 -0.36531039556E+03  0.10586944028E+03  0.38256248220E+03  0.10566000000E+00 0.  1.
<mgrwt>
<rscale>  1 0.81746704E+03</rscale>
<asrwt>0</asrwt>
<pdfrwt beam="2">  1       21 0.19491519E+00 0.10669890E+04</pdfrwt>
<pdfrwt beam="1">  1       -4 0.76369358E-01 0.10669890E+04</pdfrwt>
<totfact> 0.75763990E+00</totfact>
</mgrwt>
</event>
<event>
 6    2  0.2321478E-005  0.1024260E+04  0.7818608E-02  0.9641543E-01
         -4   -1    0    0    0  501 -0.00000000000E+00  0.00000000000E+00  0.45319512320E+03  0.45319512320E+03  0.00000000000E+00 0. -1.
         21   -1    0    0  501  502  0.00000000000E+00 -0.00000000000E+00 -0.10202576389E+04  0.10202576389E+04  0.00000000000E+00 0. -1.
   -9000010    2    1    2    0  502  0.18171296077E+03  0.22385238133E+03 -0.59372754857E+03  0.11839004803E+04  0.98284203035E+03 0.  0.
         13    1    3    3    0    0 -0.11233381913E+02  0.51752148273E+03 -0.28592282457E+02  0.51843244857E+03  0.10566000000E+00 0. -1.
         -4    1    3    3    0  502  0.19294634268E+03 -0.29366910140E+03 -0.56513526611E+03  0.66546803175E+03  0.00000000000E+00 0. -1.
        -13    1    1    2    0    0 -0.18171296077E+03 -0.22385238133E+03  0.26665032877E+02  0.28955228178E+03  0.10566000000E+00 0.  1.
<mgrwt>
<rscale>  1 0.74606551E+03</rscale>
<asrwt>0</asrwt>
<pdfrwt beam="2">  1       21 0.15696271E+00 0.10242597E+04</pdfrwt>
<pdfrwt beam="1">  1       -4 0.69722327E-01 0.10242597E+04</pdfrwt>
<totfact> 0.17820889E+01</totfact>
</mgrwt>
</event>
<event>
 6    2  0.2321478E-005  0.1184451E+04  0.7818608E-02  0.9303773E-01
         21   -1    0    0  501  502  0.00000000000E+00  0.00000000000E+00  0.94401251039E+03  0.94401251039E+03  0.00000000000E+00 0.  1.
         -4   -1    0    0    0  501 -0.00000000000E+00 -0.00000000000E+00 -0.10808515544E+04  0.10808515544E+04  0.00000000000E+00 0. -1.
   -9000010    2    1    2    0  502  0.47312987294E+03 -0.38876555991E+03  0.35819930223E+03  0.12374292976E+04  0.10138707951E+04 0.  0.
         13    1    3    3    0    0  0.49418147641E+03 -0.69161053957E+03  0.13510407042E+03  0.86069366854E+03  0.10566000000E+00 0. -1.
         -4    1    3    3    0  502 -0.21051603465E+02  0.30284497966E+03  0.22309523180E+03  0.37673562901E+03  0.00000000000E+00 0. -1.
        -13    1    1    2    0    0 -0.47312987294E+03  0.38876555991E+03 -0.49503834622E+03  0.78743476722E+03  0.10566000000E+00 0.  1.
<mgrwt>
<rscale>  1 0.10043623E+04</rscale>
<asrwt>0</asrwt>
<pdfrwt beam="1">  1       21 0.14523269E+00 0.11844511E+04</pdfrwt>
<pdfrwt beam="2">  1       -4 0.16628485E+00 0.11844511E+04</pdfrwt>
<totfact> 0.25305791E+00</totfact>
</mgrwt>
</event>
<event>
 6    2  0.2321478E-005  0.1013642E+04  0.7818608E-02  0.1001527E+00
         21   -1    0    0  501  502  0.00000000000E+00  0.00000000000E+00  0.17696214565E+04  0.17696214565E+04  0.00000000000E+00 0. -1.
         -4   -1    0    0    0  501 -0.00000000000E+00 -0.00000000000E+00 -0.17990088997E+03  0.17990088997E+03  0.00000000000E+00 0. -1.
   -9000010    2    1    2    0  502 -0.24980991255E+02  0.84138992943E+02  0.15526702940E+04  0.18542534958E+04  0.10098354147E+04 0.  0.
         13    1    3    3    0    0 -0.46638999821E+03  0.19690238266E+03  0.11053964545E+04  0.12158089947E+04  0.10566000000E+00 0. -1.
         -4    1    3    3    0  502  0.44140900696E+03 -0.11276338972E+03  0.44727383944E+03  0.63844450106E+03  0.00000000000E+00 0. -1.
        -13    1    1    2    0    0  0.24980991255E+02 -0.84138992943E+02  0.37050272570E+02  0.95268850728E+02  0.10566000000E+00 0.  1.
<mgrwt>
<rscale>  1 0.54985618E+03</rscale>
<asrwt>0</asrwt>
<pdfrwt beam="1">  1       21 0.27224944E+00 0.10136424E+04</pdfrwt>
<pdfrwt beam="2">  1       -4 0.27677061E-01 0.10136424E+04</pdfrwt>
<totfact> 0.19952804E+01</totfact>
</mgrwt>
</event>
<event>
 6    2  0.2321478E-005  0.1359996E+04  0.7818608E-02  0.9084460E-01
         21   -1    0    0  501  502  0.00000000000E+00  0.00000000000E+00  0.24688403265E+04  0.24688403265E+04  0.00000000000E+00 0. -1.
         -4   -1    0    0    0  501 -0.00000000000E+00 -0.00000000000E+00 -0.53895819691E+03  0.53895819691E+03  0.00000000000E+00 0. -1.
   -9000010    2    1    2    0  502 -0.56165900986E+03  0.72715365451E+03  0.13774205621E+04  0.19356851547E+04  0.10026845629E+04 0.  0.
         13    1    3    3    0    0  0.14235971492E+03  0.43545284989E+03  0.13401150590E+03  0.47733066923E+03  0.10566000000E+00 0. -1.
         -4    1    3    3    0  502 -0.70401872478E+03  0.29170080462E+03  0.12434090562E+04  0.14583544855E+04  0.00000000000E+00 0. -1.
        -13    1    1    2    0    0  0.56165900986E+03 -0.72715365451E+03  0.55246156746E+03  0.10721133687E+04  0.10566000000E+00 0.  1.
<mgrwt>
<rscale>  1 0.12329907E+04</rscale>
<asrwt>0</asrwt>
<pdfrwt beam="1">  1       21 0.37982158E+00 0.13599962E+04</pdfrwt>
<pdfrwt beam="2">  1       -4 0.82916647E-01 0.13599962E+04</pdfrwt>
<totfact> 0.38931977E-01</totfact>
</mgrwt>
</event>
<event>
 6    2  0.2321478E-005  0.1033645E+04  0.7818608E-02  0.9767068E-01
         -4   -1    0    0    0  501 -0.00000000000E+00  0.00000000000E+00  0.79656549641E+03  0.79656549641E+03  0.00000000000E+00 0. -1.
         21   -1    0    0  501  502  0.00000000000E+00 -0.00000000000E+00 -0.51895917366E+03  0.51895917366E+03  0.00000000000E+00 0. -1.
   -9000010    2    1    2    0  502 -0.15568972712E+03  0.98474606742E+02  0.67139879356E+02  0.10358236256E+04  0.10170969869E+04 0.  0.
         13    1    3    3    0    0  0.23798594105E+03 -0.25674693894E+03  0.29585506283E+03  0.45835196973E+03  0.10566000000E+00 0. -1.
         -4    1    3    3    0  502 -0.39367566817E+03  0.35522154568E+03 -0.22871518347E+03  0.57747165590E+03  0.00000000000E+00 0. -1.
        -13    1    1    2    0    0  0.15568972712E+03 -0.98474606742E+02  0.21046644339E+03  0.27970104444E+03  0.10566000000E+00 0.  1.
<mgrwt>
<rscale>  1 0.67160225E+03</rscale>
<asrwt>0</asrwt>
<pdfrwt beam="2">  1       21 0.79839873E-01 0.10336454E+04</pdfrwt>
<pdfrwt beam="1">  1       -4 0.12254854E+00 0.10336454E+04</pdfrwt>
<totfact> 0.26415100E+01</totfact>
</mgrwt>
</event>
<event>
 6    2  0.2321478E-005  0.1233085E+04  0.7818608E-02  0.9226443E-01
         -4   -1    0    0    0  501 -0.00000000000E+00  0.00000000000E+00  0.15551958394E+04  0.15551958394E+04  0.00000000000E+00 0. -1.
         21   -1    0    0  501  502  0.00000000000E+00 -0.00000000000E+00 -0.65937683226E+03  0.65937683226E+03  0.00000000000E+00 0. -1.
   -9000010    2    1    2    0  502  0.47603585093E+03 -0.54217923944E+03  0.27647042149E+03  0.12636987890E+04  0.99996513753E+03 0.  0.
         13    1    3    3    0    0  0.25381288900E+03 -0.71699719304E+03 -0.12689208279E+03  0.77110801403E+03  0.10566000000E+00 0. -1.
         -4    1    3    3    0  502  0.22222296193E+03  0.17481795361E+03  0.40336250428E+03  0.49259077496E+03  0.00000000000E+00 0. -1.
        -13    1    1    2    0    0 -0.47603585093E+03  0.54217923944E+03  0.61934858568E+03  0.95087388270E+03  0.10566000000E+00 0.  1.
<mgrwt>
<rscale>  1 0.10784612E+04</rscale>
<asrwt>0</asrwt>
<pdfrwt beam="2">  1       21 0.10144259E+00 0.12330850E+04</pdfrwt>
<pdfrwt beam="1">  1       -4 0.23926090E+00 0.12330850E+04</pdfrwt>
<totfact> 0.20999258E+00</totfact>
</mgrwt>
</event>
<event>
 6    2  0.2321478E-005  0.1065174E+04  0.7818608E-02  0.9518841E-01
         -4   -1    0    0    0  501 -0.00000000000E+00  0.00000000000E+00  0.71774052170E+03  0.71774052170E+03  0.00000000000E+00 0. -1.
         21   -1    0    0  501  502  0.00000000000E+00 -0.00000000000E+00 -0.74234365425E+03  0.74234365425E+03  0.00000000000E+00 0. -1.
   -9000010    2    1    2    0  502 -0.34907175776E+03 -0.17608666209E+03 -0.64244322695E+02  0.10671095715E+04  0.99082687687E+03 0.  0.
         13    1    3    3    0    0 -0.23497857665E+03  0.27472617887E+03  0.30526155681E+03  0.47315328813E+03  0.10566000000E+00 0. -1.
         -4    1    3    3    0  502 -0.11409318110E+03 -0.45081284096E+03 -0.36950587951E+03  0.59395628336E+03  0.00000000000E+00 0. -1.
        -13    1    1    2    0    0  0.34907175776E+03  0.17608666209E+03  0.39641190148E+02  0.39297460446E+03  0.10566000000E+00 0.  1.
<mgrwt>
<rscale>  1 0.82908925E+03</rscale>
<asrwt>0</asrwt>
<pdfrwt beam="2">  1       21 0.11420672E+00 0.10651739E+04</pdfrwt>
<pdfrwt beam="1">  1       -4 0.11042162E+00 0.10651739E+04</pdfrwt>
<totfact> 0.14187711E+01</totfact>
</mgrwt>
</event>
<event>
 6    2  0.2321478E-005  0.1020030E+04  0.7818608E-02  0.9843199E-01
         21   -1    0    0  501  502  0.00000000000E+00  0.00000000000E+00  0.49834769463E+03  0.49834769463E+03  0.00000000000E+00 0. -1.
         -4   -1    0    0    0  501 -0.00000000000E+00 -0.00000000000E+00 -0.72410505832E+03  0.72410505832E+03  0.00000000000E+00 0. -1.
   -9000010    2    1    2    0  502  0.12887437251E+03  0.75431406630E+02 -0.95843574097E+02  0.10245232077E+04  0.10090407878E+04 0.  0.
         13    1    3    3    0    0 -0.26059013454E+02 -0.13587020777E+03 -0.51331896587E+03  0.53163536134E+03  0.10566000000E+00 0. -1.
         -4    1    3    3    0  502  0.15493338596E+03  0.21130161440E+03  0.41747539177E+03  0.49288784634E+03  0.00000000000E+00 0. -1.
        -13    1    1    2    0    0 -0.12887437251E+03 -0.75431406630E+02 -0.12991378960E+03  0.19792954526E+03  0.10566000000E+00 0.  1.
<mgrwt>
<rscale>  1 0.63094905E+03</rscale>
<asrwt>0</asrwt>
<pdfrwt beam="1">  1       21 0.76668876E-01 0.10200303E+04</pdfrwt>
<pdfrwt beam="2">  1       -4 0.11140078E+00 0.10200303E+04</pdfrwt>
<totfact> 0.36900578E+01</totfact>
</mgrwt>
</event>
<event>
 6    2  0.2321478E-005  0.1065740E+04  0.7818608E-02  0.9516050E-01
         -4   -1    0    0    0  501 -0.00000000000E+00  0.00000000000E+00  0.18543781498E+04  0.18543781498E+04  0.00000000000E+00 0. -1.
         21   -1    0    0  501  502  0.00000000000E+00 -0.00000000000E+00 -0.42149860550E+03  0.42149860550E+03  0.00000000000E+00 0. -1.
   -9000010    2    1    2    0  502 -0.95580720859E+02 -0.38239859691E+03  0.34721713171E+03  0.11208757828E+04  0.99017090589E+03 0.  0.
         13    1    3    3    0    0  0.44641774256E+03 -0.13471311624E+03  0.10733757766E+03  0.47849534093E+03  0.10566000000E+00 0. -1.
         -4    1    3    3    0  502 -0.54199846341E+03 -0.24768548067E+03  0.23987955405E+03  0.64238044190E+03  0.00000000000E+00 0. -1.
        -13    1    1    2    0    0  0.95580720859E+02  0.38239859691E+03  0.10856624126E+04  0.11550009724E+04  0.10566000000E+00 0.  1.
<mgrwt>
<rscale>  1 0.83110812E+03</rscale>
<asrwt>0</asrwt>
<pdfrwt beam="2">  1       21 0.64845940E-01 0.10657405E+04</pdfrwt>
<pdfrwt beam="1">  1       -4 0.28528894E+00 0.10657405E+04</pdfrwt>
<totfact> 0.32157476E+00</totfact>
</mgrwt>
</event>
<event>
 6    2  0.2321478E-005  0.1057408E+04  0.7818608E-02  0.9608441E-01
         21   -1    0    0  501  502  0.00000000000E+00  0.00000000000E+00  0.75769909150E+03  0.75769909150E+03  0.00000000000E+00 0. -1.
         -4   -1    0    0    0  501 -0.00000000000E+00 -0.00000000000E+00 -0.69926927538E+03  0.69926927538E+03  0.00000000000E+00 0. -1.
   -9000010    2    1    2    0  502  0.34764750905E+02  0.29126478106E+03  0.27472452782E+03  0.10925137414E+04  0.10159079428E+04 0.  0.
         13    1    3    3    0    0 -0.29985755184E+03 -0.13499041088E+03  0.41813188128E+03  0.53195041472E+03  0.10566000000E+00 0. -1.
         -4    1    3    3    0  502  0.33462230274E+03  0.42625519193E+03 -0.14340735346E+03  0.56056332663E+03  0.00000000000E+00 0. -1.
        -13    1    1    2    0    0 -0.34764750905E+02 -0.29126478106E+03 -0.21629471170E+03  0.36445462552E+03  0.10566000000E+00 0.  1.
<mgrwt>
<rscale>  1 0.76740040E+03</rscale>
<asrwt>0</asrwt>
<pdfrwt beam="1">  1       21 0.11656909E+00 0.10574085E+04</pdfrwt>
<pdfrwt beam="2">  1       -4 0.10757989E+00 0.10574085E+04</pdfrwt>
<totfact> 0.14366424E+01</totfact>
</mgrwt>
</event>
<event>
 6    2  0.2321478E-005  0.1261103E+04  0.7818608E-02  0.9176469E-01
         21   -1    0    0  501  502  0.00000000000E+00  0.00000000000E+00  0.11621273134E+04  0.11621273134E+04  0.00000000000E+00 0.  1.
         -4   -1    0    0    0  501 -0.00000000000E+00 -0.00000000000E+00 -0.93663804370E+03  0.93663804370E+03  0.00000000000E+00 0. -1.
   -9000010    2    1    2    0  502 -0.40980714817E+03 -0.70197923897E+03  0.24958484479E+03  0.12855634396E+04  0.96419085862E+03 0.  0.
         13    1    3    3    0    0 -0.37636713127E+03 -0.91724214242E+03  0.34219810740E+03  0.10488493320E+04  0.10566000000E+00 0. -1.
         -4    1    3    3    0  502 -0.33440016904E+02  0.21526290345E+03 -0.92613262609E+02  0.23671410761E+03  0.00000000000E+00 0. -1.
        -13    1    1    2    0    0  0.40980714817E+03  0.70197923897E+03 -0.24095575138E+02  0.81320191745E+03  0.10566000000E+00 0.  1.
<mgrwt>
<rscale>  1 0.11299646E+04</rscale>
<asrwt>0</asrwt>
<pdfrwt beam="1">  1       21 0.17878882E+00 0.12611030E+04</pdfrwt>
<pdfrwt beam="2">  1       -4 0.14409816E+00 0.12611030E+04</pdfrwt>
<totfact> 0.20338471E+00</totfact>
</mgrwt>
</event>
<event>
 6    2  0.2321478E-005  0.1032213E+04  0.7818608E-02  0.9685290E-01
         -4   -1    0    0    0  501 -0.00000000000E+00  0.00000000000E+00  0.73474523227E+03  0.73474523227E+03  0.00000000000E+00 0. -1.
         21   -1    0    0  501  502  0.00000000000E+00 -0.00000000000E+00 -0.12663319022E+04  0.12663319022E+04  0.00000000000E+00 0. -1.
   -9000010    2    1    2    0  502  0.19386635922E+03  0.14649717374E+03 -0.10227493064E+04  0.14530932535E+04  0.10032040034E+04 0.  0.
         13    1    3    3    0    0  0.25348612801E+03 -0.83424226612E+02 -0.11521192801E+04  0.11826215225E+04  0.10566000000E+00 0. -1.
         -4    1    3    3    0  502 -0.59619768787E+02  0.22992140035E+03  0.12936997371E+03  0.27047173100E+03  0.00000000000E+00 0. -1.
        -13    1    1    2    0    0 -0.19386635922E+03 -0.14649717374E+03  0.49116263649E+03  0.54798388097E+03  0.10566000000E+00 0.  1.
<mgrwt>
<rscale>  1 0.71899432E+03</rscale>
<asrwt>0</asrwt>
<pdfrwt beam="2">  1       21 0.19482029E+00 0.10322131E+04</pdfrwt>
<pdfrwt beam="1">  1       -4 0.11303773E+00 0.10322131E+04</pdfrwt>
<totfact> 0.30043285E+00</totfact>
</mgrwt>
</event>
<event>
 6    2  0.2321478E-005  0.1100366E+04  0.7818608E-02  0.9446301E-01
         -4   -1    0    0    0  501 -0.00000000000E+00  0.00000000000E+00  0.54022797750E+03  0.54022797750E+03  0.00000000000E+00 0. -1.
         21   -1    0    0  501  502  0.00000000000E+00 -0.00000000000E+00 -0.11953336257E+04  0.11953336257E+04  0.00000000000E+00 0. -1.
   -9000010    2    1    2    0  502  0.45006102252E+03  0.82429433596E+02 -0.64995388550E+03  0.12779852846E+04  0.10007281343E+04 0.  0.
         13    1    3    3    0    0  0.46644717764E+03 -0.25373666322E+03 -0.75712693659E+03  0.92476833481E+03  0.10566000000E+00 0. -1.
         -4    1    3    3    0  502 -0.16386155116E+02  0.33616609681E+03  0.10717305109E+03  0.35321694977E+03  0.00000000000E+00 0. -1.
        -13    1    1    2    0    0 -0.45006102252E+03 -0.82429433596E+02 -0.51517626696E+01  0.45757631859E+03  0.10566000000E+00 0.  1.
<mgrwt>
<rscale>  1 0.88361282E+03</rscale>
<asrwt>0</asrwt>
<pdfrwt beam="2">  1       21 0.18389748E+00 0.11003665E+04</pdfrwt>
<pdfrwt beam="1">  1       -4 0.83111996E-01 0.11003665E+04</pdfrwt>
<totfact> 0.74337651E+00</totfact>
</mgrwt>
</event>
<event>
 6    2  0.2321478E-005  0.1154757E+04  0.7818608E-02  0.9355339E-01
         -4   -1    0    0    0  501 -0.00000000000E+00  0.00000000000E+00  0.33332657932E+03  0.33332657932E+03  0.00000000000E+00 0. -1.
         21   -1    0    0  501  502  0.00000000000E+00 -0.00000000000E+00 -0.24095996844E+04  0.24095996844E+04  0.00000000000E+00 0.  1.
   -9000010    2    1    2    0  502  0.30829668330E+03  0.45306474717E+03 -0.96897095368E+03  0.15074374634E+04  0.10164391211E+04 0.  0.
         13    1    3    3    0    0  0.97520514018E+02  0.29970532679E+03  0.15670183695E+03  0.35197870735E+03  0.10566000000E+00 0. -1.
         -4    1    3    3    0  502  0.21077616928E+03  0.15335942038E+03 -0.11256727906E+04  0.11554587560E+04  0.00000000000E+00 0. -1.
        -13    1    1    2    0    0 -0.30829668330E+03 -0.45306474717E+03 -0.11073021514E+04  0.12354888003E+04  0.10566000000E+00 0.  1.
<mgrwt>
<rscale>  1 0.95844006E+03</rscale>
<asrwt>0</asrwt>
<pdfrwt beam="2">  1       21 0.37070763E+00 0.11547567E+04</pdfrwt>
<pdfrwt beam="1">  1       -4 0.51281014E-01 0.11547567E+04</pdfrwt>
<totfact> 0.13442084E+00</totfact>
</mgrwt>
</event>
<event>
 6    2  0.2321478E-005  0.9767910E+03  0.7818608E-02  0.1063607E+00
         21   -1    0    0  501  502  0.00000000000E+00  0.00000000000E+00  0.99593739485E+03  0.99593739485E+03  0.00000000000E+00 0. -1.
         -4   -1    0    0    0  501 -0.00000000000E+00 -0.00000000000E+00 -0.30642462534E+03  0.30642462534E+03  0.00000000000E+00 0. -1.
   -9000010    2    1    2    0  502 -0.15382423135E+02  0.29508413543E+01  0.75529333706E+03  0.12347423438E+04  0.97666540030E+03 0.  0.
         13    1    3    3    0    0 -0.27335439867E+03 -0.18966063168E+03  0.83860441239E+03  0.90219241524E+03  0.10566000000E+00 0. -1.
         -4    1    3    3    0  502  0.25797197553E+03  0.19261147303E+03 -0.83311075334E+02  0.33254992855E+03  0.00000000000E+00 0. -1.
        -13    1    1    2    0    0  0.15382423135E+02 -0.29508413543E+01 -0.65780567544E+02  0.67619676401E+02  0.10566000000E+00 0.  1.
<mgrwt>
<rscale>  1 0.34759357E+03</rscale>
<asrwt>0</asrwt>
<pdfrwt beam="1">  1       21 0.15322114E+00 0.97679099E+03</pdfrwt>
<pdfrwt beam="2">  1       -4 0.47142250E-01 0.97679099E+03</pdfrwt>
<totfact> 0.44678786E+01</totfact>
</mgrwt>
</event>
<event>
 6    2  0.2321478E-005  0.1048430E+04  0.7818608E-02  0.9595627E-01
         21   -1    0    0  501  502  0.00000000000E+00  0.00000000000E+00  0.17279476349E+04  0.17279476349E+04  0.00000000000E+00 0. -1.
         -4   -1    0    0    0  501 -0.00000000000E+00 -0.00000000000E+00 -0.30355494512E+03  0.30355494512E+03  0.00000000000E+00 0. -1.
   -9000010    2    1    2    0  502  0.20236350301E+03  0.24065426807E+03  0.13483723240E+04  0.17080144484E+04  0.10001699695E+04 0.  0.
         13    1    3    3    0    0  0.54519047148E+03  0.14787580164E+03  0.39132864198E+03  0.68719576549E+03  0.10566000000E+00 0. -1.
         -4    1    3    3    0  502 -0.34282696847E+03  0.92778466430E+02  0.95704368204E+03  0.10208186830E+04  0.00000000000E+00 0. -1.
        -13    1    1    2    0    0 -0.20236350301E+03 -0.24065426807E+03  0.76020365759E+02  0.32348813157E+03  0.10566000000E+00 0.  1.
<mgrwt>
<rscale>  1 0.77586321E+03</rscale>
<asrwt>0</asrwt>
<pdfrwt beam="1">  1       21 0.26583809E+00 0.10484300E+04</pdfrwt>
<pdfrwt beam="2">  1       -4 0.46700762E-01 0.10484300E+04</pdfrwt>
<totfact> 0.76087559E+00</totfact>
</mgrwt>
</event>
<event>
 6    2  0.2321478E-005  0.1129706E+04  0.7818608E-02  0.9391356E-01
         21   -1    0    0  501  502  0.00000000000E+00  0.00000000000E+00  0.13818024192E+04  0.13818024192E+04  0.00000000000E+00 0.  1.
         -4   -1    0    0    0  501 -0.00000000000E+00 -0.00000000000E+00 -0.51925559807E+03  0.51925559807E+03  0.00000000000E+00 0. -1.
   -9000010    2    1    2    0  502  0.41917006973E+03 -0.29779448280E+03  0.79736255420E+03  0.13827587782E+04  0.10059073986E+04 0.  0.
         13    1    3    3    0    0  0.35331035722E+02  0.34952284105E+03  0.39774716141E+03  0.53067627992E+03  0.10566000000E+00 0. -1.
         -4    1    3    3    0  502  0.38383903400E+03 -0.64731732385E+03  0.39961539279E+03  0.85208249832E+03  0.00000000000E+00 0. -1.
        -13    1    1    2    0    0 -0.41917006973E+03  0.29779448280E+03  0.65184266909E+02  0.51829923901E+03  0.10566000000E+00 0.  1.
<mgrwt>
<rscale>  1 0.92790517E+03</rscale>
<asrwt>0</asrwt>
<pdfrwt beam="1">  1       21 0.21258499E+00 0.11297056E+04</pdfrwt>
<pdfrwt beam="2">  1       -4 0.79885477E-01 0.11297056E+04</pdfrwt>
<totfact> 0.51311650E+00</totfact>
</mgrwt>
</event>
<event>
 6    2  0.2321478E-005  0.1089877E+04  0.7818608E-02  0.9518811E-01
         -4   -1    0    0    0  501 -0.00000000000E+00  0.00000000000E+00  0.76349176260E+03  0.76349176260E+03  0.00000000000E+00 0. -1.
         21   -1    0    0  501  502  0.00000000000E+00 -0.00000000000E+00 -0.69501069561E+03  0.69501069561E+03  0.00000000000E+00 0.  1.
   -9000010    2    1    2    0  502  0.29027760945E+03  0.22131100350E+03  0.84358896707E+02  0.10931372061E+04  0.10269337257E+04 0.  0.
         13    1    3    3    0    0  0.47994716895E+03 -0.50179871917E+02  0.40662237987E+03  0.63103809354E+03  0.10566000000E+00 0. -1.
         -4    1    3    3    0  502 -0.18966955950E+03  0.27149087542E+03 -0.32226348317E+03  0.46209911255E+03  0.00000000000E+00 0. -1.
        -13    1    1    2    0    0 -0.29027760945E+03 -0.22131100350E+03 -0.15877829722E+02  0.36536525212E+03  0.10566000000E+00 0.  1.
<mgrwt>
<rscale>  1 0.82911057E+03</rscale>
<asrwt>0</asrwt>
<pdfrwt beam="2">  1       21 0.10692472E+00 0.10898773E+04</pdfrwt>
<pdfrwt beam="1">  1       -4 0.11746027E+00 0.10898773E+04</pdfrwt>
<totfact> 0.14355455E+01</totfact>
</mgrwt>
</event>
<event>
 6    2  0.2321478E-005  0.1005640E+04  0.7818608E-02  0.9821112E-01
         21   -1    0    0  501  502  0.00000000000E+00  0.00000000000E+00  0.94527712018E+03  0.94527712018E+03  0.00000000000E+00 0. -1.
         -4   -1    0    0    0  501 -0.00000000000E+00 -0.00000000000E+00 -0.51572396550E+03  0.51572396550E+03  0.00000000000E+00 0. -1.
   -9000010    2    1    2    0  502 -0.16182317764E+03 -0.43128397817E+02  0.64002245841E+03  0.11920324286E+04  0.99159758169E+03 0.  0.
         13    1    3    3    0    0 -0.56010841380E+03 -0.11485366049E+03  0.51219991342E+03  0.76763374144E+03  0.10566000000E+00 0. -1.
         -4    1    3    3    0  502  0.39828523615E+03  0.71725262671E+02  0.12782254499E+03  0.42439868715E+03  0.00000000000E+00 0. -1.
        -13    1    1    2    0    0  0.16182317764E+03  0.43128397817E+02 -0.21046930373E+03  0.26896865709E+03  0.10566000000E+00 0.  1.
<mgrwt>
<rscale>  1 0.64241765E+03</rscale>
<asrwt>0</asrwt>
<pdfrwt beam="1">  1       21 0.14542725E+00 0.10056404E+04</pdfrwt>
<pdfrwt beam="2">  1       -4 0.79342149E-01 0.10056404E+04</pdfrwt>
<totfact> 0.16492944E+01</totfact>
</mgrwt>
</event>
<event>
 6    2  0.2321478E-005  0.1060376E+04  0.7818608E-02  0.9550834E-01
         21   -1    0    0  501  502  0.00000000000E+00  0.00000000000E+00  0.99899507146E+03  0.99899507146E+03  0.00000000000E+00 0. -1.
         -4   -1    0    0    0  501 -0.00000000000E+00 -0.00000000000E+00 -0.95101270045E+03  0.95101270045E+03  0.00000000000E+00 0. -1.
   -9000010    2    1    2    0  502 -0.26408992031E+03  0.23667782297E+03  0.65545303071E+03  0.12466014232E+04  0.99931804490E+03 0.  0.
         13    1    3    3    0    0 -0.19490513096E+03  0.22616568152E+03 -0.21842227918E+03  0.36992868066E+03  0.10566000000E+00 0. -1.
         -4    1    3    3    0  502 -0.69184789352E+02  0.10512141456E+02  0.87387530990E+03  0.87667274250E+03  0.00000000000E+00 0. -1.
        -13    1    1    2    0    0  0.26408992031E+03 -0.23667782297E+03 -0.60747065970E+03  0.70340634875E+03  0.10566000000E+00 0.  1.
<mgrwt>
<rscale>  1 0.80637595E+03</rscale>
<asrwt>0</asrwt>
<pdfrwt beam="1">  1       21 0.15369155E+00 0.10603756E+04</pdfrwt>
<pdfrwt beam="2">  1       -4 0.14630965E+00 0.10603756E+04</pdfrwt>
<totfact> 0.31152255E+00</totfact>
</mgrwt>
</event>
<event>
 6    2  0.2321478E-005  0.1143873E+04  0.7818608E-02  0.9513628E-01
         -4   -1    0    0    0  501 -0.00000000000E+00  0.00000000000E+00  0.52642438777E+03  0.52642438777E+03  0.00000000000E+00 0. -1.
         21   -1    0    0  501  502  0.00000000000E+00 -0.00000000000E+00 -0.11628304629E+04  0.11628304629E+04  0.00000000000E+00 0. -1.
   -9000010    2    1    2    0  502  0.10596284506E+03  0.30352284610E+03 -0.72687111813E+03  0.13552815316E+04  0.10977668992E+04 0.  0.
         13    1    3    3    0    0  0.19409147425E+03 -0.23180110660E+03 -0.75371354921E+03  0.81208828265E+03  0.10566000000E+00 0. -1.
         -4    1    3    3    0  502 -0.88128629187E+02  0.53532395270E+03  0.26842431073E+02  0.54319324897E+03  0.00000000000E+00 0. -1.
        -13    1    1    2    0    0 -0.10596284506E+03 -0.30352284610E+03  0.90465043044E+02  0.33397331902E+03  0.10566000000E+00 0.  1.
<mgrwt>
<rscale>  1 0.83286483E+03</rscale>
<asrwt>0</asrwt>
<pdfrwt beam="2">  1       21 0.17889699E+00 0.11438734E+04</pdfrwt>
<pdfrwt beam="1">  1       -4 0.80988369E-01 0.11438734E+04</pdfrwt>
<totfact> 0.85362530E+00</totfact>
</mgrwt>
</event>
<event>
 6    2  0.2321478E-005  0.1006809E+04  0.7818608E-02  0.1011888E+00
         -4   -1    0    0    0  501 -0.00000000000E+00  0.00000000000E+00  0.72211098282E+03  0.72211098282E+03  0.00000000000E+00 0. -1.
         21   -1    0    0  501  502  0.00000000000E+00 -0.00000000000E+00 -0.43772466979E+03  0.43772466979E+03  0.00000000000E+00 0. -1.
   -9000010    2    1    2    0  502  0.43515050078E+02  0.48151795742E+02  0.15987319785E+03  0.10194231103E+04  0.10047148269E+04 0.  0.
         13    1    3    3    0    0 -0.39646489190E+03  0.14181715344E+03  0.33360116191E+03  0.53720225420E+03  0.10566000000E+00 0. -1.
         -4    1    3    3    0  502  0.43997994198E+03 -0.93665357700E+02 -0.17372796406E+03  0.48222085612E+03  0.00000000000E+00 0. -1.
        -13    1    1    2    0    0 -0.43515050078E+02 -0.48151795742E+02  0.12451311518E+03  0.14041254229E+03  0.10566000000E+00 0.  1.
<mgrwt>
<rscale>  1 0.50731003E+03</rscale>
<asrwt>0</asrwt>
<pdfrwt beam="2">  1       21 0.67342257E-01 0.10068088E+04</pdfrwt>
<pdfrwt beam="1">  1       -4 0.11109400E+00 0.10068088E+04</pdfrwt>
<totfact> 0.50145175E+01</totfact>
</mgrwt>
</event>
<event>
 6    2  0.2321478E-005  0.1039261E+04  0.7818608E-02  0.9734387E-01
         21   -1    0    0  501  502  0.00000000000E+00  0.00000000000E+00  0.28509000823E+03  0.28509000823E+03  0.00000000000E+00 0. -1.
         -4   -1    0    0    0  501 -0.00000000000E+00 -0.00000000000E+00 -0.20187880549E+04  0.20187880549E+04  0.00000000000E+00 0. -1.
   -9000010    2    1    2    0  502 -0.16274563305E+03  0.11967000655E+03 -0.70568767991E+03  0.12562080880E+04  0.10194393592E+04 0.  0.
         13    1    3    3    0    0  0.36513133031E+03 -0.16834012526E+03 -0.12699283846E+03  0.42164733882E+03  0.10566000000E+00 0. -1.
         -4    1    3    3    0  502 -0.52787696336E+03  0.28801013181E+03 -0.57869484145E+03  0.83456074913E+03  0.00000000000E+00 0. -1.
        -13    1    1    2    0    0  0.16274563305E+03 -0.11967000655E+03 -0.10280103668E+04  0.10476699752E+04  0.10566000000E+00 0.  1.
<mgrwt>
<rscale>  1 0.69005773E+03</rscale>
<asrwt>0</asrwt>
<pdfrwt beam="1">  1       21 0.43860001E-01 0.10392611E+04</pdfrwt>
<pdfrwt beam="2">  1       -4 0.31058278E+00 0.10392611E+04</pdfrwt>
<totfact> 0.52935090E+00</totfact>
</mgrwt>
</event>
<event>
 6    2  0.2321478E-005  0.9940880E+03  0.7818608E-02  0.9934259E-01
         -4   -1    0    0    0  501 -0.00000000000E+00  0.00000000000E+00  0.46330819041E+03  0.46330819041E+03  0.00000000000E+00 0. -1.
         21   -1    0    0  501  502  0.00000000000E+00 -0.00000000000E+00 -0.70134140459E+03  0.70134140459E+03  0.00000000000E+00 0. -1.
   -9000010    2    1    2    0  502 -0.84626963190E+01  0.11997924010E+03 -0.28715011986E+03  0.10347299396E+04  0.98678478971E+03 0.  0.
         13    1    3    3    0    0 -0.41176780993E+03 -0.59484175841E+02 -0.40207782042E+03  0.57858247581E+03  0.10566000000E+00 0. -1.
         -4    1    3    3    0  502  0.40330511361E+03  0.17946341594E+03  0.11492770056E+03  0.45614746375E+03  0.00000000000E+00 0. -1.
        -13    1    1    2    0    0  0.84626963190E+01 -0.11997924010E+03  0.49116905673E+02  0.12991965545E+03  0.10566000000E+00 0.  1.
<mgrwt>
<rscale>  1 0.58629284E+03</rscale>
<asrwt>0</asrwt>
<pdfrwt beam="2">  1       21 0.10789868E+00 0.99408795E+03</pdfrwt>
<pdfrwt beam="1">  1       -4 0.71278184E-01 0.99408795E+03</pdfrwt>
<totfact> 0.46187112E+01</totfact>
</mgrwt>
</event>
<event>
 6    2  0.2321478E-005  0.8626891E+03  0.7818608E-02  0.1003542E+00
         -4   -1    0    0    0  501 -0.00000000000E+00  0.00000000000E+00  0.72465875661E+03  0.72465875661E+03  0.00000000000E+00 0. -1.
         21   -1    0    0  501  502  0.00000000000E+00 -0.00000000000E+00 -0.34561943304E+03  0.34561943304E+03  0.00000000000E+00 0. -1.
   -9000010    2    1    2    0  502  0.12596338848E+02 -0.13306258158E+03  0.36191071690E+03  0.93552761006E+03  0.85227238827E+03 0.  0.
         13    1    3    3    0    0  0.23820247119E+03 -0.42480279248E+03  0.26389022734E+03  0.55392769657E+03  0.10566000000E+00 0. -1.
         -4    1    3    3    0  502 -0.22560613234E+03  0.29174021089E+03  0.98020489560E+02  0.38159991349E+03  0.00000000000E+00 0. -1.
        -13    1    1    2    0    0 -0.12596338848E+02  0.13306258158E+03  0.17128606672E+02  0.13475057959E+03  0.10566000000E+00 0.  1.
<mgrwt>
<rscale>  1 0.54123907E+03</rscale>
<asrwt>0</asrwt>
<pdfrwt beam="2">  1       21 0.53172221E-01 0.86268913E+03</pdfrwt>
<pdfrwt beam="1">  1       -4 0.11148596E+00 0.86268913E+03</pdfrwt>
<totfact> 0.85057977E+01</totfact>
</mgrwt>
</event>
<event>
 6    2  0.2321478E-005  0.1091067E+04  0.7818608E-02  0.9502600E-01
         21   -1    0    0  501  502  0.00000000000E+00  0.00000000000E+00  0.72510460952E+03  0.72510460952E+03  0.00000000000E+00 0. -1.
         -4   -1    0    0    0  501 -0.00000000000E+00 -0.00000000000E+00 -0.97609047076E+03  0.97609047076E+03  0.00000000000E+00 0. -1.
   -9000010    2    1    2    0  502 -0.21776648928E+03 -0.31750650049E+03  0.19890667964E+03  0.11090498859E+04  0.10208796014E+04 0.  0.
         13    1    3    3    0    0 -0.16998940224E+03 -0.34800491866E+03 -0.37100363318E+03  0.53632781700E+03  0.10566000000E+00 0. -1.
         -4    1    3    3    0  502 -0.47777087038E+02  0.30498418177E+02  0.56991031282E+03  0.57272206891E+03  0.00000000000E+00 0. -1.
        -13    1    1    2    0    0  0.21776648928E+03  0.31750650049E+03 -0.44989254089E+03  0.59214519437E+03  0.10566000000E+00 0.  1.
<mgrwt>
<rscale>  1 0.84092376E+03</rscale>
<asrwt>0</asrwt>
<pdfrwt beam="1">  1       21 0.11155456E+00 0.10910673E+04</pdfrwt>
<pdfrwt beam="2">  1       -4 0.15016776E+00 0.10910673E+04</pdfrwt>
<totfact> 0.68155361E+00</totfact>
</mgrwt>
</event>
<event>
 6    2  0.2321478E-005  0.1021099E+04  0.7818608E-02  0.9609652E-01
         -4   -1    0    0    0  501 -0.00000000000E+00  0.00000000000E+00  0.18594246989E+04  0.18594246989E+04  0.00000000000E+00 0. -1.
         21   -1    0    0  501  502  0.00000000000E+00 -0.00000000000E+00 -0.27508534139E+03  0.27508534139E+03  0.00000000000E+00 0. -1.
   -9000010    2    1    2    0  502  0.18262931756E+02 -0.32388966158E+03  0.83879766215E+03  0.13214476330E+04  0.96819640624E+03 0.  0.
         13    1    3    3    0    0 -0.45299962723E+03 -0.25301295729E+02  0.46645840428E+03  0.65071673709E+03  0.10566000000E+00 0. -1.
         -4    1    3    3    0  502  0.47126255898E+03 -0.29858836585E+03  0.37233925786E+03  0.67073089587E+03  0.00000000000E+00 0. -1.
        -13    1    1    2    0    0 -0.18262931756E+02  0.32388966158E+03  0.74554169538E+03  0.81306240737E+03  0.10566000000E+00 0.  1.
<mgrwt>
<rscale>  1 0.76660626E+03</rscale>
<asrwt>0</asrwt>
<pdfrwt beam="2">  1       21 0.42320823E-01 0.10210986E+04</pdfrwt>
<pdfrwt beam="1">  1       -4 0.28606533E+00 0.10210986E+04</pdfrwt>
<totfact> 0.81201769E+00</totfact>
</mgrwt>
</event>
<event>
 6    2  0.2321478E-005  0.1004685E+04  0.7818608E-02  0.1011113E+00
         21   -1    0    0  501  502  0.00000000000E+00  0.00000000000E+00  0.47083670159E+03  0.47083670159E+03  0.00000000000E+00 0. -1.
         -4   -1    0    0    0  501 -0.00000000000E+00 -0.00000000000E+00 -0.69102323483E+03  0.69102323483E+03  0.00000000000E+00 0. -1.
   -9000010    2    1    2    0  502  0.35447694474E+02 -0.56726155328E+02 -0.81622489505E+02  0.10079950570E+04  0.10024556890E+04 0.  0.
         13    1    3    3    0    0  0.38271809191E+03  0.58078142221E+02  0.29220116075E+03  0.48500282266E+03  0.10566000000E+00 0. -1.
         -4    1    3    3    0  502 -0.34727039744E+03 -0.11480429755E+03 -0.37382365025E+03  0.52299223432E+03  0.00000000000E+00 0. -1.
        -13    1    1    2    0    0 -0.35447694474E+02  0.56726155328E+02 -0.13856404374E+03  0.15386487943E+03  0.10566000000E+00 0.  1.
<mgrwt>
<rscale>  1 0.51034557E+03</rscale>
<asrwt>0</asrwt>
<pdfrwt beam="1">  1       21 0.72436416E-01 0.10046849E+04</pdfrwt>
<pdfrwt beam="2">  1       -4 0.10631127E+00 0.10046849E+04</pdfrwt>
<totfact> 0.47281955E+01</totfact>
</mgrwt>
</event>
<event>
 6    2  0.2321478E-005  0.1029602E+04  0.7818608E-02  0.9727879E-01
         -4   -1    0    0    0  501 -0.00000000000E+00  0.00000000000E+00  0.15608883476E+04  0.15608883476E+04  0.00000000000E+00 0. -1.
         21   -1    0    0  501  502  0.00000000000E+00 -0.00000000000E+00 -0.24711361586E+03  0.24711361586E+03  0.00000000000E+00 0. -1.
   -9000010    2    1    2    0  502  0.68108844646E+02 -0.20107816048E+03  0.10762346466E+04  0.14894167401E+04  0.10074770319E+04 0.  0.
         13    1    3    3    0    0 -0.32150803178E+03  0.19699775728E+03  0.14434832076E+03  0.40374742073E+03  0.10566000000E+00 0. -1.
         -4    1    3    3    0  502  0.38961687643E+03 -0.39807591776E+03  0.93188632588E+03  0.10856693194E+04  0.00000000000E+00 0. -1.
        -13    1    1    2    0    0 -0.68108844646E+02  0.20107816048E+03  0.23754008511E+03  0.31858522335E+03  0.10566000000E+00 0.  1.
<mgrwt>
<rscale>  1 0.69380852E+03</rscale>
<asrwt>0</asrwt>
<pdfrwt beam="2">  1       21 0.38017480E-01 0.10296025E+04</pdfrwt>
<pdfrwt beam="1">  1       -4 0.24013666E+00 0.10296025E+04</pdfrwt>
<totfact> 0.19513249E+01</totfact>
</mgrwt>
</event>
<event>
 6    2  0.2321478E-005  0.1139715E+04  0.7818608E-02  0.9325199E-01
         -4   -1    0    0    0  501 -0.00000000000E+00  0.00000000000E+00  0.16590036346E+04  0.16590036346E+04  0.00000000000E+00 0. -1.
         21   -1    0    0  501  502  0.00000000000E+00 -0.00000000000E+00 -0.62033865129E+03  0.62033865129E+03  0.00000000000E+00 0. -1.
   -9000010    2    1    2    0  502  0.56781765747E+03  0.28591984902E+03  0.97902142429E+02  0.11439120652E+04  0.94592966500E+03 0.  0.
         13    1    3    3    0    0  0.80735989001E+03  0.30324275892E+03 -0.46486686651E+02  0.86368234093E+03  0.10566000000E+00 0. -1.
         -4    1    3    3    0  502 -0.23954223254E+03 -0.17322909892E+02  0.14438882908E+03  0.28022972423E+03  0.00000000000E+00 0. -1.
        -13    1    1    2    0    0 -0.56781765747E+03 -0.28591984902E+03  0.94076284088E+03  0.11354302207E+04  0.10566000000E+00 0.  1.
<mgrwt>
<rscale>  1 0.98495701E+03</rscale>
<asrwt>0</asrwt>
<pdfrwt beam="2">  1       21 0.95436716E-01 0.11397149E+04</pdfrwt>
<pdfrwt beam="1">  1       -4 0.25523133E+00 0.11397149E+04</pdfrwt>
<totfact> 0.19660727E+00</totfact>
</mgrwt>
</event>
<event>
 6    2  0.2321478E-005  0.9732699E+03  0.7818608E-02  0.9814749E-01
         21   -1    0    0  501  502  0.00000000000E+00  0.00000000000E+00  0.17870373560E+04  0.17870373560E+04  0.00000000000E+00 0. -1.
         -4   -1    0    0    0  501 -0.00000000000E+00 -0.00000000000E+00 -0.19783642226E+03  0.19783642226E+03  0.00000000000E+00 0. -1.
   -9000010    2    1    2    0  502  0.18466622584E+03  0.38467044691E+02  0.14656934777E+04  0.17594066380E+04  0.95481569878E+03 0.  0.
         13    1    3    3    0    0  0.18106303404E+01  0.32882578468E+03  0.13617205129E+04  0.14008613213E+04  0.10566000000E+00 0. -1.
         -4    1    3    3    0  502  0.18285559550E+03 -0.29035873999E+03  0.10397296478E+03  0.35854531666E+03  0.00000000000E+00 0. -1.
        -13    1    1    2    0    0 -0.18466622584E+03 -0.38467044691E+02  0.12350745603E+03  0.22546714030E+03  0.10566000000E+00 0.  1.
<mgrwt>
<rscale>  1 0.64576985E+03</rscale>
<asrwt>0</asrwt>
<pdfrwt beam="1">  1       21 0.27492881E+00 0.97326993E+03</pdfrwt>
<pdfrwt beam="2">  1       -4 0.30436374E-01 0.97326993E+03</pdfrwt>
<totfact> 0.16051415E+01</totfact>
</mgrwt>
</event>
<event>
 6    2  0.2321478E-005  0.9533694E+03  0.7818608E-02  0.9791008E-01
         -4   -1    0    0    0  501 -0.00000000000E+00  0.00000000000E+00  0.28480504383E+04  0.28480504383E+04  0.00000000000E+00 0. -1.
         21   -1    0    0  501  502  0.00000000000E+00 -0.00000000000E+00 -0.12105688515E+03  0.12105688515E+03  0.00000000000E+00 0. -1.
   -9000010    2    1    2    0  502  0.58405250748E+01  0.21687641546E+03  0.21198865681E+04  0.23243993324E+04  0.92835537559E+03 0.  0.
         13    1    3    3    0    0  0.33684514238E+03  0.33075300236E+03  0.59332964294E+03  0.75822310362E+03  0.10566000000E+00 0. -1.
         -4    1    3    3    0  502 -0.33100461730E+03 -0.11387658690E+03  0.15265569252E+04  0.15661762288E+04  0.00000000000E+00 0. -1.
        -13    1    1    2    0    0 -0.58405250748E+01 -0.21687641546E+03  0.60710698499E+03  0.64470799103E+03  0.10566000000E+00 0.  1.
<mgrwt>
<rscale>  1 0.65847358E+03</rscale>
<asrwt>0</asrwt>
<pdfrwt beam="2">  1       21 0.18624138E-01 0.95336939E+03</pdfrwt>
<pdfrwt beam="1">  1       -4 0.43816156E+00 0.95336939E+03</pdfrwt>
<totfact> 0.41841457E+00</totfact>
</mgrwt>
</event>
<event>
 6    2  0.2321478E-005  0.1020627E+04  0.7818608E-02  0.9682272E-01
         21   -1    0    0  501  502  0.00000000000E+00  0.00000000000E+00  0.22421869184E+03  0.22421869184E+03  0.00000000000E+00 0. -1.
         -4   -1    0    0    0  501 -0.00000000000E+00 -0.00000000000E+00 -0.20937583227E+04  0.20937583227E+04  0.00000000000E+00 0. -1.
   -9000010    2    1    2    0  502 -0.36117414797E+02 -0.25134606507E+03 -0.10683706361E+04  0.14775300612E+04  0.98853424501E+03 0.  0.
         13    1    3    3    0    0 -0.13231617400E+03 -0.62026994249E+03 -0.59417017325E+03  0.86906879901E+03  0.10566000000E+00 0. -1.
         -4    1    3    3    0  502  0.96198759207E+02  0.36892387743E+03 -0.47420046284E+03  0.60846126218E+03  0.00000000000E+00 0. -1.
        -13    1    1    2    0    0  0.36117414797E+02  0.25134606507E+03 -0.80116899474E+03  0.84044695334E+03  0.10566000000E+00 0.  1.
<mgrwt>
<rscale>  1 0.72082164E+03</rscale>
<asrwt>0</asrwt>
<pdfrwt beam="1">  1       21 0.34495184E-01 0.10206269E+04</pdfrwt>
<pdfrwt beam="2">  1       -4 0.32211666E+00 0.10206269E+04</pdfrwt>
<totfact> 0.74178687E+00</totfact>
</mgrwt>
</event>
<event>
 6    2  0.2321478E-005  0.1016402E+04  0.7818608E-02  0.1002733E+00
         21   -1    0    0  501  502  0.00000000000E+00  0.00000000000E+00  0.23093063675E+03  0.23093063675E+03  0.00000000000E+00 0. -1.
         -4   -1    0    0    0  501 -0.00000000000E+00 -0.00000000000E+00 -0.13109012001E+04  0.13109012001E+04  0.00000000000E+00 0. -1.
   -9000010    2    1    2    0  502 -0.80236053086E+02  0.24258827060E+02 -0.98998004194E+03  0.14188496430E+04  0.10129400333E+04 0.  0.
         13    1    3    3    0    0 -0.17908841872E+03  0.28896043409E+03  0.47790956574E+02  0.34329984108E+03  0.10566000000E+00 0. -1.
         -4    1    3    3    0  502  0.98852365631E+02 -0.26470160703E+03 -0.10377709985E+04  0.10755498019E+04  0.00000000000E+00 0. -1.
        -13    1    1    2    0    0  0.80236053086E+02 -0.24258827060E+02 -0.89990521383E+02  0.12298219386E+03  0.10566000000E+00 0.  1.
<mgrwt>
<rscale>  1 0.54467858E+03</rscale>
<asrwt>0</asrwt>
<pdfrwt beam="1">  1       21 0.35527790E-01 0.10164024E+04</pdfrwt>
<pdfrwt beam="2">  1       -4 0.20167711E+00 0.10164024E+04</pdfrwt>
<totfact> 0.39579940E+01</totfact>
</mgrwt>
</event>
<event>
 6    2  0.2321478E-005  0.9998150E+03  0.7818608E-02  0.9863260E-01
         21   -1    0    0  501  502  0.00000000000E+00  0.00000000000E+00  0.20862224189E+03  0.20862224189E+03  0.00000000000E+00 0. -1.
         -4   -1    0    0    0  501 -0.00000000000E+00 -0.00000000000E+00 -0.16582851716E+04  0.16582851716E+04  0.00000000000E+00 0. -1.
   -9000010    2    1    2    0  502 -0.13326614124E+03 -0.65664630029E+02 -0.10971913601E+04  0.14844052219E+04  0.98871546668E+03 0.  0.
         13    1    3    3    0    0 -0.16733582030E+03  0.23414275651E+03  0.55310832254E+02  0.29305870830E+03  0.10566000000E+00 0. -1.
         -4    1    3    3    0  502  0.34069679062E+02 -0.29980738654E+03 -0.11525021923E+04  0.11913465136E+04  0.00000000000E+00 0. -1.
        -13    1    1    2    0    0  0.13326614124E+03  0.65664630029E+02 -0.35247156957E+03  0.38250219157E+03  0.10566000000E+00 0.  1.
<mgrwt>
<rscale>  1 0.62075360E+03</rscale>
<asrwt>0</asrwt>
<pdfrwt beam="1">  1       21 0.32095728E-01 0.99981497E+03</pdfrwt>
<pdfrwt beam="2">  1       -4 0.25512080E+00 0.99981497E+03</pdfrwt>
<totfact> 0.22385553E+01</totfact>
</mgrwt>
</event>
<event>
 6    2  0.2321478E-005  0.1030378E+04  0.7818608E-02  0.9640553E-01
         21   -1    0    0  501  502  0.00000000000E+00  0.00000000000E+00  0.18229146844E+04  0.18229146844E+04  0.00000000000E+00 0. -1.
         -4   -1    0    0    0  501 -0.00000000000E+00 -0.00000000000E+00 -0.31420224053E+03  0.31420224053E+03  0.00000000000E+00 0. -1.
   -9000010    2    1    2    0  502 -0.10505277242E+03 -0.26403867134E+03  0.15382062634E+04  0.18514205799E+04  0.99041766442E+03 0.  0.
         13    1    3    3    0    0  0.13503693420E+03  0.31129940013E+03  0.88802361854E+03  0.95064622671E+03  0.10566000000E+00 0. -1.
         -4    1    3    3    0  502 -0.24008970662E+03 -0.57533807147E+03  0.65018264490E+03  0.90077435323E+03  0.00000000000E+00 0. -1.
        -13    1    1    2    0    0  0.10505277242E+03  0.26403867134E+03 -0.29493819616E+02  0.28569634494E+03  0.10566000000E+00 0.  1.
<mgrwt>
<rscale>  1 0.74669298E+03</rscale>
<asrwt>0</asrwt>
<pdfrwt beam="1">  1       21 0.28044841E+00 0.10303784E+04</pdfrwt>
<pdfrwt beam="2">  1       -4 0.48338807E-01 0.10303784E+04</pdfrwt>
<totfact> 0.57503163E+00</totfact>
</mgrwt>
</event>
<event>
 6    2  0.2321478E-005  0.7783765E+03  0.7818608E-02  0.1031801E+00
         21   -1    0    0  501  502  0.00000000000E+00  0.00000000000E+00  0.11345612822E+04  0.11345612822E+04  0.00000000000E+00 0. -1.
         -4   -1    0    0    0  501 -0.00000000000E+00 -0.00000000000E+00 -0.40726224285E+03  0.40726224285E+03  0.00000000000E+00 0. -1.
   -9000010    2    1    2    0  502 -0.30829804018E+02  0.70596462397E+02  0.99498380753E+03  0.12632746359E+04  0.77455515694E+03 0.  0.
         13    1    3    3    0    0 -0.32026908600E+03 -0.78302607520E+02  0.15875736553E+03  0.36593373453E+03  0.10566000000E+00 0. -1.
         -4    1    3    3    0  502  0.28943928198E+03  0.14889906992E+03  0.83622644200E+03  0.89734090137E+03  0.00000000000E+00 0. -1.
        -13    1    1    2    0    0  0.30829804018E+02 -0.70596462397E+02 -0.26768476823E+03  0.27854888911E+03  0.10566000000E+00 0.  1.
<mgrwt>
<rscale>  1 0.43658010E+03</rscale>
<asrwt>0</asrwt>
<pdfrwt beam="1">  1       21 0.17454789E+00 0.77837653E+03</pdfrwt>
<pdfrwt beam="2">  1       -4 0.62655730E-01 0.77837653E+03</pdfrwt>
<totfact> 0.17148352E+01</totfact>
</mgrwt>
</event>
<event>
 6    2  0.2321478E-005  0.1053789E+04  0.7818608E-02  0.9569255E-01
         21   -1    0    0  501  502  0.00000000000E+00  0.00000000000E+00  0.44899116987E+03  0.44899116987E+03  0.00000000000E+00 0.  1.
         -4   -1    0    0    0  501 -0.00000000000E+00 -0.00000000000E+00 -0.16970629206E+04  0.16970629206E+04  0.00000000000E+00 0. -1.
   -9000010    2    1    2    0  502 -0.31454614001E+03 -0.12653371047E+03 -0.23763164640E+03  0.10802495729E+04  0.99775762904E+03 0.  0.
         13    1    3    3    0    0  0.35791401821E+03 -0.13048016909E+03 -0.72377971034E+02  0.38777068070E+03  0.10566000000E+00 0. -1.
         -4    1    3    3    0  502 -0.67246015822E+03  0.39464586185E+01 -0.16525367537E+03  0.69247889220E+03  0.00000000000E+00 0. -1.
        -13    1    1    2    0    0  0.31454614001E+03  0.12653371047E+03 -0.10104401044E+04  0.10658045176E+04  0.10566000000E+00 0.  1.
<mgrwt>
<rscale>  1 0.79364953E+03</rscale>
<asrwt>0</asrwt>
<pdfrwt beam="1">  1       21 0.69075566E-01 0.10537886E+04</pdfrwt>
<pdfrwt beam="2">  1       -4 0.26108660E+00 0.10537886E+04</pdfrwt>
<totfact> 0.39329742E+00</totfact>
</mgrwt>
</event>
<event>
 6    2  0.2321478E-005  0.1023983E+04  0.7818608E-02  0.9734710E-01
         21   -1    0    0  501  502  0.00000000000E+00  0.00000000000E+00  0.10190661983E+04  0.10190661983E+04  0.00000000000E+00 0. -1.
         -4   -1    0    0    0  501 -0.00000000000E+00 -0.00000000000E+00 -0.45928975392E+03  0.45928975392E+03  0.00000000000E+00 0. -1.
   -9000010    2    1    2    0  502  0.21025151274E+03  0.17255109951E+02  0.68598721424E+03  0.12325255085E+04  0.10020165835E+04 0.  0.
         13    1    3    3    0    0  0.12765205931E+03  0.40884264250E+03  0.71262731930E+03  0.83143554287E+03  0.10566000000E+00 0. -1.
         -4    1    3    3    0  502  0.82599453428E+02 -0.39158753255E+03 -0.26640105066E+02  0.40108996566E+03  0.00000000000E+00 0. -1.
        -13    1    1    2    0    0 -0.21025151274E+03 -0.17255109951E+02 -0.12621076988E+03  0.24583044365E+03  0.10566000000E+00 0.  1.
<mgrwt>
<rscale>  1 0.68987227E+03</rscale>
<asrwt>0</asrwt>
<pdfrwt beam="1">  1       21 0.15677941E+00 0.10239827E+04</pdfrwt>
<pdfrwt beam="2">  1       -4 0.70659962E-01 0.10239827E+04</pdfrwt>
<totfact> 0.17353295E+01</totfact>
</mgrwt>
</event>
<event>
 6    2  0.2321478E-005  0.1128408E+04  0.7818608E-02  0.9549338E-01
         21   -1    0    0  501  502  0.00000000000E+00  0.00000000000E+00  0.34299012700E+03  0.34299012700E+03  0.00000000000E+00 0. -1.
         -4   -1    0    0    0  501 -0.00000000000E+00 -0.00000000000E+00 -0.14800450318E+04  0.14800450318E+04  0.00000000000E+00 0. -1.
   -9000010    2    1    2    0  502  0.17901753914E+03  0.23548085066E+03 -0.87624444957E+03  0.14286741375E+04  0.10889476321E+04 0.  0.
         13    1    3    3    0    0 -0.25254683391E+03 -0.32025521753E+03 -0.44397080078E+03  0.60287095699E+03  0.10566000000E+00 0. -1.
         -4    1    3    3    0  502  0.43156437306E+03  0.55573606819E+03 -0.43227364879E+03  0.82580318056E+03  0.00000000000E+00 0. -1.
        -13    1    1    2    0    0 -0.17901753914E+03 -0.23548085066E+03 -0.26081045518E+03  0.39436102120E+03  0.10566000000E+00 0.  1.
<mgrwt>
<rscale>  1 0.80742058E+03</rscale>
<asrwt>0</asrwt>
<pdfrwt beam="1">  1       21 0.52767710E-01 0.11284084E+04</pdfrwt>
<pdfrwt beam="2">  1       -4 0.22769924E+00 0.11284084E+04</pdfrwt>
<totfact> 0.11497262E+01</totfact>
</mgrwt>
</event>
<event>
 6    2  0.2321478E-005  0.1050536E+04  0.7818608E-02  0.9598826E-01
         21   -1    0    0  501  502  0.00000000000E+00  0.00000000000E+00  0.15891841616E+04  0.15891841616E+04  0.00000000000E+00 0.  1.
         -4   -1    0    0    0  501 -0.00000000000E+00 -0.00000000000E+00 -0.38498068430E+03  0.38498068430E+03  0.00000000000E+00 0. -1.
   -9000010    2    1    2    0  502  0.68948803139E+02 -0.30134649421E+03  0.12799687482E+04  0.16558818987E+04  0.10040225191E+04 0.  0.
         13    1    3    3    0    0 -0.23672949510E+03 -0.55855879146E+03  0.52740971720E+03  0.80385931501E+03  0.10566000000E+00 0. -1.
         -4    1    3    3    0  502  0.30567829824E+03  0.25721229725E+03  0.75255903104E+03  0.85202258366E+03  0.00000000000E+00 0. -1.
        -13    1    1    2    0    0 -0.68948803139E+02  0.30134649421E+03 -0.75765270976E+02  0.31828294720E+03  0.10566000000E+00 0.  1.
<mgrwt>
<rscale>  1 0.77373929E+03</rscale>
<asrwt>0</asrwt>
<pdfrwt beam="1">  1       21 0.24448987E+00 0.10505355E+04</pdfrwt>
<pdfrwt beam="2">  1       -4 0.59227798E-01 0.10505355E+04</pdfrwt>
<totfact> 0.62605846E+00</totfact>
</mgrwt>
</event>
<event>
 6    2  0.2321478E-005  0.1035128E+04  0.7818608E-02  0.9688641E-01
         21   -1    0    0  501  502  0.00000000000E+00  0.00000000000E+00  0.10369390571E+04  0.10369390571E+04  0.00000000000E+00 0. -1.
         -4   -1    0    0    0  501 -0.00000000000E+00 -0.00000000000E+00 -0.39098873992E+03  0.39098873992E+03  0.00000000000E+00 0. -1.
   -9000010    2    1    2    0  502 -0.19816449682E+03 -0.13225660067E+03  0.51821318906E+03  0.11575988099E+04  0.10073376391E+04 0.  0.
         13    1    3    3    0    0  0.34258632200E+03 -0.13904202544E+03  0.49297579452E+03  0.61621685956E+03  0.10566000000E+00 0. -1.
         -4    1    3    3    0  502 -0.54075081882E+03  0.67854247711E+01  0.25237394544E+02  0.54138195031E+03  0.00000000000E+00 0. -1.
        -13    1    1    2    0    0  0.19816449682E+03  0.13225660067E+03  0.12773712809E+03  0.27032898712E+03  0.10566000000E+00 0.  1.
<mgrwt>
<rscale>  1 0.71697144E+03</rscale>
<asrwt>0</asrwt>
<pdfrwt beam="1">  1       21 0.15952909E+00 0.10351281E+04</pdfrwt>
<pdfrwt beam="2">  1       -4 0.60152114E-01 0.10351281E+04</pdfrwt>
<totfact> 0.23548108E+01</totfact>
</mgrwt>
</event>
<event>
 6    2  0.2321478E-005  0.1000209E+04  0.7818608E-02  0.9637670E-01
         -4   -1    0    0    0  501 -0.00000000000E+00  0.00000000000E+00  0.19670936880E+04  0.19670936880E+04  0.00000000000E+00 0. -1.
         21   -1    0    0  501  502  0.00000000000E+00 -0.00000000000E+00 -0.36430398039E+03  0.36430398039E+03  0.00000000000E+00 0. -1.
   -9000010    2    1    2    0  502  0.49900129340E+02  0.30973042269E+03  0.17255766014E+04  0.19945006662E+04  0.94973435369E+03 0.  0.
         13    1    3    3    0    0 -0.27545228148E+03  0.26514296496E+03  0.15965152910E+04  0.16416564308E+04  0.10566000000E+00 0. -1.
         -4    1    3    3    0  502  0.32535241082E+03  0.44587457725E+02  0.12906131038E+03  0.35284423539E+03  0.00000000000E+00 0. -1.
        -13    1    1    2    0    0 -0.49900129340E+02 -0.30973042269E+03 -0.12278689376E+03  0.33689700220E+03  0.10566000000E+00 0.  1.
<mgrwt>
<rscale>  1 0.74852313E+03</rscale>
<asrwt>0</asrwt>
<pdfrwt beam="2">  1       21 0.56046767E-01 0.10002091E+04</pdfrwt>
<pdfrwt beam="1">  1       -4 0.30262979E+00 0.10002091E+04</pdfrwt>
<totfact> 0.35120097E+00</totfact>
</mgrwt>
</event>
<event>
 6    2  0.2321478E-005  0.1107751E+04  0.7818608E-02  0.9432895E-01
         21   -1    0    0  501  502  0.00000000000E+00  0.00000000000E+00  0.11430348512E+04  0.11430348512E+04  0.00000000000E+00 0. -1.
         -4   -1    0    0    0  501 -0.00000000000E+00 -0.00000000000E+00 -0.57636611193E+03  0.57636611193E+03  0.00000000000E+00 0. -1.
   -9000010    2    1    2    0  502 -0.19704962907E+03  0.42701014150E+03  0.57697501858E+03  0.12490049089E+04  0.10029690290E+04 0.  0.
         13    1    3    3    0    0  0.30246257636E+03 -0.15036056286E+03  0.11583002928E+03  0.35708334574E+03  0.10566000000E+00 0. -1.
         -4    1    3    3    0  502 -0.49951220543E+03  0.57737070436E+03  0.46114498930E+03  0.89192156313E+03  0.00000000000E+00 0. -1.
        -13    1    1    2    0    0  0.19704962907E+03 -0.42701014150E+03 -0.10306279350E+02  0.47039605421E+03  0.10566000000E+00 0.  1.
<mgrwt>
<rscale>  1 0.89417304E+03</rscale>
<asrwt>0</asrwt>
<pdfrwt beam="1">  1       21 0.17585152E+00 0.11077514E+04</pdfrwt>
<pdfrwt beam="2">  1       -4 0.88671709E-01 0.11077514E+04</pdfrwt>
<totfact> 0.73082730E+00</totfact>
</mgrwt>
</event>
<event>
 6    2  0.2321478E-005  0.9862736E+03  0.7818608E-02  0.9843981E-01
         21   -1    0    0  501  502  0.00000000000E+00  0.00000000000E+00  0.21468048838E+03  0.21468048838E+03  0.00000000000E+00 0. -1.
         -4   -1    0    0    0  501 -0.00000000000E+00 -0.00000000000E+00 -0.15438934584E+04  0.15438934584E+04  0.00000000000E+00 0. -1.
   -9000010    2    1    2    0  502  0.15148072978E+03 -0.64829068328E+02 -0.11228128879E+04  0.14944712685E+04  0.97241265502E+03 0.  0.
         13    1    3    3    0    0 -0.14017565320E+03  0.36228989756E+03 -0.20076874544E+03  0.43727712487E+03  0.10566000000E+00 0. -1.
         -4    1    3    3    0  502  0.29165638298E+03 -0.42711896589E+03 -0.92204414245E+03  0.10571941437E+04  0.00000000000E+00 0. -1.
        -13    1    1    2    0    0 -0.15148072978E+03  0.64829068328E+02 -0.20640008216E+03  0.26410267828E+03  0.10566000000E+00 0.  1.
<mgrwt>
<rscale>  1 0.63054741E+03</rscale>
<asrwt>0</asrwt>
<pdfrwt beam="1">  1       21 0.33027769E-01 0.98627359E+03</pdfrwt>
<pdfrwt beam="2">  1       -4 0.23752206E+00 0.98627359E+03</pdfrwt>
<totfact> 0.27193037E+01</totfact>
</mgrwt>
</event>
<event>
 6    2  0.2321478E-005  0.1070921E+04  0.7818608E-02  0.9558188E-01
         21   -1    0    0  501  502  0.00000000000E+00  0.00000000000E+00  0.54316874036E+03  0.54316874036E+03  0.00000000000E+00 0. -1.
         -4   -1    0    0    0  501 -0.00000000000E+00 -0.00000000000E+00 -0.10558211684E+04  0.10558211684E+04  0.00000000000E+00 0. -1.
   -9000010    2    1    2    0  502  0.26344786621E+03 -0.20791364035E+03 -0.11262629421E+03  0.10768273105E+04  0.10169756706E+04 0.  0.
         13    1    3    3    0    0  0.17263339168E+03 -0.24382980402E+03  0.43104366132E+03  0.52445582310E+03  0.10566000000E+00 0. -1.
         -4    1    3    3    0  502  0.90814474530E+02  0.35916163672E+02 -0.54366995553E+03  0.55237148744E+03  0.00000000000E+00 0. -1.
        -13    1    1    2    0    0 -0.26344786621E+03  0.20791364035E+03 -0.40002613383E+03  0.52216259821E+03  0.10566000000E+00 0.  1.
<mgrwt>
<rscale>  1 0.80126524E+03</rscale>
<asrwt>0</asrwt>
<pdfrwt beam="1">  1       21 0.83564423E-01 0.10709213E+04</pdfrwt>
<pdfrwt beam="2">  1       -4 0.16243402E+00 0.10709213E+04</pdfrwt>
<totfact> 0.11225730E+01</totfact>
</mgrwt>
</event>
<event>
 6    2  0.2321478E-005  0.1013428E+04  0.7818608E-02  0.9799757E-01
         21   -1    0    0  501  502  0.00000000000E+00  0.00000000000E+00  0.20046932607E+04  0.20046932607E+04  0.00000000000E+00 0. -1.
         -4   -1    0    0    0  501 -0.00000000000E+00 -0.00000000000E+00 -0.41847842243E+03  0.41847842243E+03  0.00000000000E+00 0. -1.
   -9000010    2    1    2    0  502  0.82337203012E+01  0.17530914351E+03  0.18482122544E+04  0.21078246565E+04  0.99811580259E+03 0.  0.
         13    1    3    3    0    0  0.12142350945E+03  0.66411107732E+02 -0.88811395710E+02  0.16444323960E+03  0.10566000000E+00 0. -1.
         -4    1    3    3    0  502 -0.11318978915E+03  0.10889803578E+03  0.19370236501E+04  0.19433814169E+04  0.00000000000E+00 0. -1.
        -13    1    1    2    0    0 -0.82337203012E+01 -0.17530914351E+03 -0.26199741614E+03  0.31534702659E+03  0.10566000000E+00 0.  1.
<mgrwt>
<rscale>  1 0.65375563E+03</rscale>
<asrwt>0</asrwt>
<pdfrwt beam="1">  1       21 0.30841434E+00 0.10134280E+04</pdfrwt>
<pdfrwt beam="2">  1       -4 0.64381297E-01 0.10134280E+04</pdfrwt>
<totfact> 0.20850301E+00</totfact>
</mgrwt>
</event>
<event>
 6    2  0.2321478E-005  0.1024853E+04  0.7818608E-02  0.9699865E-01
         -4   -1    0    0    0  501 -0.00000000000E+00  0.00000000000E+00  0.91408877864E+03  0.91408877864E+03  0.00000000000E+00 0. -1.
         21   -1    0    0  501  502  0.00000000000E+00 -0.00000000000E+00 -0.45325565684E+03  0.45325565684E+03  0.00000000000E+00 0. -1.
   -9000010    2    1    2    0  502  0.41516255549E+02  0.23273056821E+03  0.26042422412E+03  0.10574237129E+04  0.99721462846E+03 0.  0.
         13    1    3    3    0    0 -0.47639313550E+03  0.88821124062E+02  0.16194284122E+03  0.51094530688E+03  0.10566000000E+00 0. -1.
         -4    1    3    3    0  502  0.51790939105E+03  0.14390944415E+03  0.98481382898E+02  0.54647840601E+03  0.00000000000E+00 0. -1.
        -13    1    1    2    0    0 -0.41516255549E+02 -0.23273056821E+03  0.20040889768E+03  0.30992072259E+03  0.10566000000E+00 0.  1.
<mgrwt>
<rscale>  1 0.71024834E+03</rscale>
<asrwt>0</asrwt>
<pdfrwt beam="2">  1       21 0.69731640E-01 0.10248532E+04</pdfrwt>
<pdfrwt beam="1">  1       -4 0.14062904E+00 0.10248532E+04</pdfrwt>
<totfact> 0.25380966E+01</totfact>
</mgrwt>
</event>
<event>
 6    2  0.2321478E-005  0.1038237E+04  0.7818608E-02  0.9702787E-01
         -4   -1    0    0    0  501 -0.00000000000E+00  0.00000000000E+00  0.17930344775E+04  0.17930344775E+04  0.00000000000E+00 0. -1.
         21   -1    0    0  501  502  0.00000000000E+00 -0.00000000000E+00 -0.33616749988E+03  0.33616749988E+03  0.00000000000E+00 0. -1.
   -9000010    2    1    2    0  502  0.20822665802E+03  0.85674932561E+02  0.51151166462E+03  0.11574019907E+04  0.10135268372E+04 0.  0.
         13    1    3    3    0    0  0.41714359331E+03 -0.32918070817E+03  0.43484110228E+03  0.68662618030E+03  0.10566000000E+00 0. -1.
         -4    1    3    3    0  502 -0.20891693529E+03  0.41485564073E+03  0.76670562334E+02  0.47077581037E+03  0.00000000000E+00 0. -1.
        -13    1    1    2    0    0 -0.20822665802E+03 -0.85674932561E+02  0.94535531304E+03  0.97179998674E+03  0.10566000000E+00 0.  1.
<mgrwt>
<rscale>  1 0.70851114E+03</rscale>
<asrwt>0</asrwt>
<pdfrwt beam="2">  1       21 0.51718078E-01 0.10382366E+04</pdfrwt>
<pdfrwt beam="1">  1       -4 0.27585145E+00 0.10382366E+04</pdfrwt>
<totfact> 0.60939884E+00</totfact>
</mgrwt>
</event>
<event>
 6    2  0.2321478E-005  0.9448390E+03  0.7818608E-02  0.9916208E-01
         21   -1    0    0  501  502  0.00000000000E+00  0.00000000000E+00  0.14873182830E+03  0.14873182830E+03  0.00000000000E+00 0. -1.
         -4   -1    0    0    0  501 -0.00000000000E+00 -0.00000000000E+00 -0.20091388006E+04  0.20091388006E+04  0.00000000000E+00 0. -1.
   -9000010    2    1    2    0  502  0.94786718202E+02 -0.11420216315E+03 -0.16013946237E+04  0.18593508407E+04  0.93310993576E+03 0.  0.
         13    1    3    3    0    0 -0.62683368953E+01  0.26414913769E+03 -0.62642974618E+02  0.27154780872E+03  0.10566000000E+00 0. -1.
         -4    1    3    3    0  502  0.10105505510E+03 -0.37835130084E+03 -0.15387516490E+04  0.15878030320E+04  0.00000000000E+00 0. -1.
        -13    1    1    2    0    0 -0.94786718202E+02  0.11420216315E+03 -0.25901234864E+03  0.29851978817E+03  0.10566000000E+00 0.  1.
<mgrwt>
<rscale>  1 0.59482193E+03</rscale>
<asrwt>0</asrwt>
<pdfrwt beam="1">  1       21 0.22881819E-01 0.94483904E+03</pdfrwt>
<pdfrwt beam="2">  1       -4 0.30909829E+00 0.94483904E+03</pdfrwt>
<totfact> 0.20558458E+01</totfact>
</mgrwt>
</event>
<event>
 6    2  0.2321478E-005  0.1241632E+04  0.7818608E-02  0.9219286E-01
         -4   -1    0    0    0  501 -0.00000000000E+00  0.00000000000E+00  0.12082597963E+04  0.12082597963E+04  0.00000000000E+00 0. -1.
         21   -1    0    0  501  502  0.00000000000E+00 -0.00000000000E+00 -0.80277785940E+03  0.80277785940E+03  0.00000000000E+00 0. -1.
   -9000010    2    1    2    0  502  0.67678483491E+03  0.26208154179E+03  0.20843227770E+03  0.12590050589E+04  0.10074349987E+04 0.  0.
         13    1    3    3    0    0  0.87575994848E+03  0.39152225674E+03  0.29919796727E+03  0.10048704392E+04  0.10566000000E+00 0. -1.
         -4    1    3    3    0  502 -0.19897511357E+03 -0.12944071495E+03 -0.90765689571E+02  0.25413461966E+03  0.00000000000E+00 0. -1.
        -13    1    1    2    0    0 -0.67678483491E+03 -0.26208154179E+03  0.19704965923E+03  0.75203259682E+03  0.10566000000E+00 0.  1.
<mgrwt>
<rscale>  1 0.10856568E+04</rscale>
<asrwt>0</asrwt>
<pdfrwt beam="2">  1       21 0.12350429E+00 0.12416319E+04</pdfrwt>
<pdfrwt beam="1">  1       -4 0.18588612E+00 0.12416319E+04</pdfrwt>
<totfact> 0.28250595E+00</totfact>
</mgrwt>
</event>
<event>
 6    2  0.2321478E-005  0.1030566E+04  0.7818608E-02  0.9706563E-01
         21   -1    0    0  501  502  0.00000000000E+00  0.00000000000E+00  0.13339144367E+04  0.13339144367E+04  0.00000000000E+00 0. -1.
         -4   -1    0    0    0  501 -0.00000000000E+00 -0.00000000000E+00 -0.29656416532E+03  0.29656416532E+03  0.00000000000E+00 0. -1.
   -9000010    2    1    2    0  502 -0.16926262152E+03  0.15175928846E+03  0.84628943763E+03  0.13335190593E+04  0.10051798608E+04 0.  0.
         13    1    3    3    0    0 -0.55770690556E+03  0.12569728500E+03  0.25597969321E+03  0.62638838947E+03  0.10566000000E+00 0. -1.
         -4    1    3    3    0  502  0.38844428404E+03  0.26062003452E+02  0.59030974442E+03  0.70713066981E+03  0.00000000000E+00 0. -1.
        -13    1    1    2    0    0  0.16926262152E+03 -0.15175928846E+03  0.19106083378E+03  0.29695954278E+03  0.10566000000E+00 0.  1.
<mgrwt>
<rscale>  1 0.70627387E+03</rscale>
<asrwt>0</asrwt>
<pdfrwt beam="1">  1       21 0.20521760E+00 0.10305665E+04</pdfrwt>
<pdfrwt beam="2">  1       -4 0.45625257E-01 0.10305665E+04</pdfrwt>
<totfact> 0.19820319E+01</totfact>
</mgrwt>
</event>
<event>
 6    2  0.2321478E-005  0.1031665E+04  0.7818608E-02  0.9698640E-01
         21   -1    0    0  501  502  0.00000000000E+00  0.00000000000E+00  0.68472665293E+03  0.68472665293E+03  0.00000000000E+00 0. -1.
         -4   -1    0    0    0  501 -0.00000000000E+00 -0.00000000000E+00 -0.59570244749E+03  0.59570244749E+03  0.00000000000E+00 0. -1.
   -9000010    2    1    2    0  502 -0.20317785432E+03  0.11345095687E+03  0.14304473361E+03  0.10415345866E+04  0.10050771807E+04 0.  0.
         13    1    3    3    0    0  0.29682998246E+03  0.31875420497E+03 -0.10312470227E+03  0.44760138187E+03  0.10566000000E+00 0. -1.
         -4    1    3    3    0  502 -0.50000783678E+03 -0.20530324809E+03  0.24616943588E+03  0.59393320473E+03  0.00000000000E+00 0. -1.
        -13    1    1    2    0    0  0.20317785432E+03 -0.11345095687E+03 -0.54020528179E+02  0.23889451382E+03  0.10566000000E+00 0.  1.
<mgrwt>
<rscale>  1 0.71097803E+03</rscale>
<asrwt>0</asrwt>
<pdfrwt beam="1">  1       21 0.10534256E+00 0.10316649E+04</pdfrwt>
<pdfrwt beam="2">  1       -4 0.91646530E-01 0.10316649E+04</pdfrwt>
<totfact> 0.27408020E+01</totfact>
</mgrwt>
</event>
<event>
 6    2  0.2321478E-005  0.1115635E+04  0.7818608E-02  0.9422545E-01
         -4   -1    0    0    0  501 -0.00000000000E+00  0.00000000000E+00  0.27092064426E+03  0.27092064426E+03  0.00000000000E+00 0. -1.
         21   -1    0    0  501  502  0.00000000000E+00 -0.00000000000E+00 -0.24561436227E+04  0.24561436227E+04  0.00000000000E+00 0. -1.
   -9000010    2    1    2    0  502  0.23458343211E+03  0.41605627779E+03 -0.17798575341E+04  0.21006032805E+04  0.10082207534E+04 0.  0.
         13    1    3    3    0    0  0.54453552135E+03  0.18354606830E+03 -0.15428697181E+04  0.16464067150E+04  0.10566000000E+00 0. -1.
         -4    1    3    3    0  502 -0.30995208924E+03  0.23251020949E+03 -0.23698781602E+03  0.45419656547E+03  0.00000000000E+00 0. -1.
        -13    1    1    2    0    0 -0.23458343211E+03 -0.41605627779E+03 -0.40536544435E+03  0.62646098645E+03  0.10566000000E+00 0.  1.
<mgrwt>
<rscale>  1 0.90243287E+03</rscale>
<asrwt>0</asrwt>
<pdfrwt beam="2">  1       21 0.37786823E+00 0.11156349E+04</pdfrwt>
<pdfrwt beam="1">  1       -4 0.41680101E-01 0.11156349E+04</pdfrwt>
<totfact> 0.18774201E+00</totfact>
</mgrwt>
</event>
<event>
 6    2  0.2321478E-005  0.1085231E+04  0.7818608E-02  0.9486357E-01
         -4   -1    0    0    0  501 -0.00000000000E+00  0.00000000000E+00  0.20989134115E+03  0.20989134115E+03  0.00000000000E+00 0. -1.
         21   -1    0    0  501  502  0.00000000000E+00 -0.00000000000E+00 -0.38062436838E+04  0.38062436838E+04  0.00000000000E+00 0. -1.
   -9000010    2    1    2    0  502 -0.40393247284E+03 -0.91485020084E+02 -0.33777828080E+04  0.35478363978E+04  0.10030929448E+04 0.  0.
         13    1    3    3    0    0  0.17458064498E+03  0.26340113852E+03 -0.50300714760E+03  0.59403262795E+03  0.10566000000E+00 0. -1.
         -4    1    3    3    0  502 -0.57851311783E+03 -0.35488615860E+03 -0.28747756604E+04  0.29538037699E+04  0.00000000000E+00 0. -1.
        -13    1    1    2    0    0  0.40393247284E+03  0.91485020084E+02 -0.21856953458E+03  0.46829862708E+03  0.10566000000E+00 0.  1.
<mgrwt>
<rscale>  1 0.85297140E+03</rscale>
<asrwt>0</asrwt>
<pdfrwt beam="2">  1       21 0.58557595E+00 0.10852310E+04</pdfrwt>
<pdfrwt beam="1">  1       -4 0.32290976E-01 0.10852310E+04</pdfrwt>
<totfact> 0.10656391E-01</totfact>
</mgrwt>
</event>
<event>
 6    2  0.2321478E-005  0.1029873E+04  0.7818608E-02  0.9739864E-01
         -4   -1    0    0    0  501 -0.00000000000E+00  0.00000000000E+00  0.45805322045E+03  0.45805322045E+03  0.00000000000E+00 0. -1.
         21   -1    0    0  501  502  0.00000000000E+00 -0.00000000000E+00 -0.84258864292E+03  0.84258864292E+03  0.00000000000E+00 0. -1.
   -9000010    2    1    2    0  502 -0.15729814415E+03  0.12963613299E+03 -0.37687451694E+03  0.10966640857E+04  0.10094996198E+04 0.  0.
         13    1    3    3    0    0  0.11641047467E+03 -0.14467078671E+03  0.27883699228E+03  0.33500912610E+03  0.10566000000E+00 0. -1.
         -4    1    3    3    0  502 -0.27370861883E+03  0.27430691970E+03 -0.65571150922E+03  0.76165495964E+03  0.00000000000E+00 0. -1.
        -13    1    1    2    0    0  0.15729814415E+03 -0.12963613299E+03 -0.76609055272E+01  0.20397777764E+03  0.10566000000E+00 0.  1.
<mgrwt>
<rscale>  1 0.68692091E+03</rscale>
<asrwt>0</asrwt>
<pdfrwt beam="2">  1       21 0.12962902E+00 0.10298727E+04</pdfrwt>
<pdfrwt beam="1">  1       -4 0.70469728E-01 0.10298727E+04</pdfrwt>
<totfact> 0.29387770E+01</totfact>
</mgrwt>
</event>
<event>
 6    2  0.2321478E-005  0.1170045E+04  0.7818608E-02  0.9320834E-01
         21   -1    0    0  501  502  0.00000000000E+00  0.00000000000E+00  0.12218930455E+04  0.12218930455E+04  0.00000000000E+00 0. -1.
         -4   -1    0    0    0  501 -0.00000000000E+00 -0.00000000000E+00 -0.71772333334E+03  0.71772333334E+03  0.00000000000E+00 0. -1.
   -9000010    2    1    2    0  502  0.44650218510E+03  0.39624656743E+03  0.63095912708E+03  0.13293286512E+04  0.10062950360E+04 0.  0.
         13    1    3    3    0    0 -0.25481729430E+03 -0.13216673016E+03  0.10441470927E+03  0.30545431854E+03  0.10566000000E+00 0. -1.
         -4    1    3    3    0  502  0.70131947940E+03  0.52841329759E+03  0.52654441781E+03  0.10238743327E+04  0.00000000000E+00 0. -1.
        -13    1    1    2    0    0 -0.44650218510E+03 -0.39624656743E+03 -0.12678941496E+03  0.61028772755E+03  0.10566000000E+00 0.  1.
<mgrwt>
<rscale>  1 0.98887274E+03</rscale>
<asrwt>0</asrwt>
<pdfrwt beam="1">  1       21 0.18798354E+00 0.11700450E+04</pdfrwt>
<pdfrwt beam="2">  1       -4 0.11041897E+00 0.11700450E+04</pdfrwt>
<totfact> 0.34906810E+00</totfact>
</mgrwt>
</event>
<event>
 6    2  0.2321478E-005  0.1097849E+04  0.7818608E-02  0.9796571E-01
         21   -1    0    0  501  502  0.00000000000E+00  0.00000000000E+00  0.61787754002E+03  0.61787754002E+03  0.00000000000E+00 0. -1.
         -4   -1    0    0    0  501 -0.00000000000E+00 -0.00000000000E+00 -0.89163057117E+03  0.89163057117E+03  0.00000000000E+00 0. -1.
   -9000010    2    1    2    0  502  0.94044254962E+02  0.10303589412E+03  0.10791923237E+03  0.11031407340E+04  0.10889500452E+04 0.  0.
         13    1    3    3    0    0 -0.17740636942E+03 -0.36783939648E+03  0.32090585570E+03  0.51938369333E+03  0.10566000000E+00 0. -1.
         -4    1    3    3    0  502  0.27145062438E+03  0.47087529060E+03 -0.21298662333E+03  0.58375704063E+03  0.00000000000E+00 0. -1.
        -13    1    1    2    0    0 -0.94044254962E+02 -0.10303589412E+03 -0.38167226352E+03  0.40636737722E+03  0.10566000000E+00 0.  1.
<mgrwt>
<rscale>  1 0.65546863E+03</rscale>
<asrwt>0</asrwt>
<pdfrwt beam="1">  1       21 0.95058084E-01 0.10978492E+04</pdfrwt>
<pdfrwt beam="2">  1       -4 0.13717393E+00 0.10978492E+04</pdfrwt>
<totfact> 0.12926883E+01</totfact>
</mgrwt>
</event>
<event>
 6    2  0.2321478E-005  0.1021091E+04  0.7818608E-02  0.9772647E-01
         21   -1    0    0  501  502  0.00000000000E+00  0.00000000000E+00  0.66799361466E+03  0.66799361466E+03  0.00000000000E+00 0. -1.
         -4   -1    0    0    0  501 -0.00000000000E+00 -0.00000000000E+00 -0.64852781248E+03  0.64852781248E+03  0.00000000000E+00 0. -1.
   -9000010    2    1    2    0  502 -0.85783139888E+02  0.16684501344E+03  0.21721517577E+03  0.10439396385E+04  0.10037088874E+04 0.  0.
         13    1    3    3    0    0  0.12102079026E+03  0.28506854273E+03 -0.32669344303E+03  0.45015410984E+03  0.10566000000E+00 0. -1.
         -4    1    3    3    0  502 -0.20680393015E+03 -0.11822352929E+03  0.54390861880E+03  0.59378552862E+03  0.00000000000E+00 0. -1.
        -13    1    1    2    0    0  0.85783139888E+02 -0.16684501344E+03 -0.19774937359E+03  0.27258178868E+03  0.10566000000E+00 0.  1.
<mgrwt>
<rscale>  1 0.66851343E+03</rscale>
<asrwt>0</asrwt>
<pdfrwt beam="1">  1       21 0.10276825E+00 0.10210913E+04</pdfrwt>
<pdfrwt beam="2">  1       -4 0.99773509E-01 0.10210913E+04</pdfrwt>
<totfact> 0.23838355E+01</totfact>
</mgrwt>
</event>
<event>
 6    2  0.2321478E-005  0.1009330E+04  0.7818608E-02  0.9845141E-01
         21   -1    0    0  501  502  0.00000000000E+00  0.00000000000E+00  0.47195543482E+03  0.47195543482E+03  0.00000000000E+00 0. -1.
         -4   -1    0    0    0  501 -0.00000000000E+00 -0.00000000000E+00 -0.71598742388E+03  0.71598742388E+03  0.00000000000E+00 0. -1.
   -9000010    2    1    2    0  502  0.15002119934E+03  0.30827025591E+02 -0.21769290880E+03  0.10325387916E+04  0.99764196377E+03 0.  0.
         13    1    3    3    0    0  0.18801660157E+03  0.34973638423E+03 -0.47636863681E+03  0.62015552099E+03  0.10566000000E+00 0. -1.
         -4    1    3    3    0  502 -0.37995402228E+02 -0.31890935864E+03  0.25867572801E+03  0.41238327061E+03  0.00000000000E+00 0. -1.
        -13    1    1    2    0    0 -0.15002119934E+03 -0.30827025591E+02 -0.26339080265E+02  0.15540406710E+03  0.10566000000E+00 0.  1.
<mgrwt>
<rscale>  1 0.62995294E+03</rscale>
<asrwt>0</asrwt>
<pdfrwt beam="1">  1       21 0.72608529E-01 0.10093296E+04</pdfrwt>
<pdfrwt beam="2">  1       -4 0.11015191E+00 0.10093296E+04</pdfrwt>
<totfact> 0.43084405E+01</totfact>
</mgrwt>
</event>
<event>
 6    2  0.2321478E-005  0.1056501E+04  0.7818608E-02  0.9622239E-01
         -4   -1    0    0    0  501 -0.00000000000E+00  0.00000000000E+00  0.18237711013E+04  0.18237711013E+04  0.00000000000E+00 0. -1.
         21   -1    0    0  501  502  0.00000000000E+00 -0.00000000000E+00 -0.40848308906E+03  0.40848308906E+03  0.00000000000E+00 0. -1.
   -9000010    2    1    2    0  502  0.22776415896E+03 -0.16381460316E+03  0.32338776548E+03  0.11048865057E+04  0.10185689998E+04 0.  0.
         13    1    3    3    0    0 -0.39746811989E+03 -0.12596976922E+03  0.44803923651E+02  0.41935270575E+03  0.10566000000E+00 0. -1.
         -4    1    3    3    0  502  0.62523227885E+03 -0.37844833948E+02  0.27858384183E+03  0.68553379998E+03  0.00000000000E+00 0. -1.
        -13    1    1    2    0    0 -0.22776415896E+03  0.16381460316E+03  0.10919002468E+04  0.11273676847E+04  0.10566000000E+00 0.  1.
<mgrwt>
<rscale>  1 0.75841586E+03</rscale>
<asrwt>0</asrwt>
<pdfrwt beam="2">  1       21 0.62843553E-01 0.10565011E+04</pdfrwt>
<pdfrwt beam="1">  1       -4 0.28058016E+00 0.10565011E+04</pdfrwt>
<totfact> 0.36948593E+00</totfact>
</mgrwt>
</event>
<event>
 6    2  0.2321478E-005  0.1177636E+04  0.7818608E-02  0.9325204E-01
         21   -1    0    0  501  502  0.00000000000E+00  0.00000000000E+00  0.19804230234E+04  0.19804230234E+04  0.00000000000E+00 0.  1.
         -4   -1    0    0    0  501 -0.00000000000E+00 -0.00000000000E+00 -0.45419234725E+03  0.45419234725E+03  0.00000000000E+00 0. -1.
   -9000010    2    1    2    0  502 -0.50057597990E+03  0.28550820808E+03  0.14264739113E+04  0.18497712274E+04  0.10270026903E+04 0.  0.
         13    1    3    3    0    0  0.22333252578E+03  0.18512517637E+03  0.90931570774E+03  0.95446519868E+03  0.10566000000E+00 0. -1.
         -4    1    3    3    0  502 -0.72390850568E+03  0.10038303171E+03  0.51715820354E+03  0.89530602876E+03  0.00000000000E+00 0. -1.
        -13    1    1    2    0    0  0.50057597990E+03 -0.28550820808E+03  0.99756764874E+02  0.58484414320E+03  0.10566000000E+00 0.  1.
<mgrwt>
<rscale>  1 0.98495274E+03</rscale>
<asrwt>0</asrwt>
<pdfrwt beam="1">  1       21 0.30468046E+00 0.11776357E+04</pdfrwt>
<pdfrwt beam="2">  1       -4 0.69875747E-01 0.11776357E+04</pdfrwt>
<totfact> 0.17809390E+00</totfact>
</mgrwt>
</event>
<event>
 6    2  0.2321478E-005  0.9938450E+03  0.7818608E-02  0.1004858E+00
         -4   -1    0    0    0  501 -0.00000000000E+00  0.00000000000E+00  0.11906837219E+04  0.11906837219E+04  0.00000000000E+00 0. -1.
         21   -1    0    0  501  502  0.00000000000E+00 -0.00000000000E+00 -0.25427613381E+03  0.25427613381E+03  0.00000000000E+00 0. -1.
   -9000010    2    1    2    0  502  0.74655930987E+02 -0.38275515200E+02  0.76518110479E+03  0.12542846270E+04  0.99029757109E+03 0.  0.
         13    1    3    3    0    0 -0.13665993168E+03 -0.48273581022E+03  0.38562510366E+03  0.63278474312E+03  0.10566000000E+00 0. -1.
         -4    1    3    3    0  502  0.21131586267E+03  0.44446029502E+03  0.37955600113E+03  0.62149988387E+03  0.00000000000E+00 0. -1.
        -13    1    1    2    0    0 -0.74655930987E+02  0.38275515200E+02  0.17122648330E+03  0.19067522870E+03  0.10566000000E+00 0.  1.
<mgrwt>
<rscale>  1 0.53570322E+03</rscale>
<asrwt>0</asrwt>
<pdfrwt beam="2">  1       21 0.39119406E-01 0.99384496E+03</pdfrwt>
<pdfrwt beam="1">  1       -4 0.18318211E+00 0.99384496E+03</pdfrwt>
<totfact> 0.43288800E+01</totfact>
</mgrwt>
</event>
<event>
 6    2  0.2321478E-005  0.1046637E+04  0.7818608E-02  0.9605913E-01
         -4   -1    0    0    0  501 -0.00000000000E+00  0.00000000000E+00  0.12169462238E+04  0.12169462238E+04  0.00000000000E+00 0. -1.
         21   -1    0    0  501  502  0.00000000000E+00 -0.00000000000E+00 -0.37549927929E+03  0.37549927929E+03  0.00000000000E+00 0. -1.
   -9000010    2    1    2    0  502 -0.19454213074E+03 -0.23504172352E+03  0.63903618841E+03  0.12263015727E+04  0.10011778287E+04 0.  0.
         13    1    3    3    0    0  0.78430291995E+02 -0.32167975900E+03 -0.16704598521E+03  0.37085516094E+03  0.10566000000E+00 0. -1.
         -4    1    3    3    0  502 -0.27297242273E+03  0.86638035476E+02  0.80608217362E+03  0.85544641176E+03  0.00000000000E+00 0. -1.
        -13    1    1    2    0    0  0.19454213074E+03  0.23504172352E+03  0.20241075614E+03  0.36614393043E+03  0.10566000000E+00 0.  1.
<mgrwt>
<rscale>  1 0.76906062E+03</rscale>
<asrwt>0</asrwt>
<pdfrwt beam="2">  1       21 0.57769120E-01 0.10466367E+04</pdfrwt>
<pdfrwt beam="1">  1       -4 0.18722249E+00 0.10466367E+04</pdfrwt>
<totfact> 0.17489281E+01</totfact>
</mgrwt>
</event>
<event>
 6    2  0.2321478E-005  0.9812458E+03  0.7818608E-02  0.1009577E+00
         21   -1    0    0  501  502  0.00000000000E+00  0.00000000000E+00  0.13202228960E+04  0.13202228960E+04  0.00000000000E+00 0. -1.
         -4   -1    0    0    0  501 -0.00000000000E+00 -0.00000000000E+00 -0.54257764092E+03  0.54257764092E+03  0.00000000000E+00 0. -1.
   -9000010    2    1    2    0  502  0.44812996508E+02  0.60497634322E+02  0.11334118608E+04  0.14991550263E+04  0.97835329933E+03 0.  0.
         13    1    3    3    0    0  0.37336531046E+03  0.32982048422E+03  0.35287937336E+03  0.61049739571E+03  0.10566000000E+00 0. -1.
         -4    1    3    3    0  502 -0.32855231395E+03 -0.26932284990E+03  0.78053248744E+03  0.88865763060E+03  0.00000000000E+00 0. -1.
        -13    1    1    2    0    0 -0.44812996508E+02 -0.60497634322E+02 -0.35576660576E+03  0.36364551056E+03  0.10566000000E+00 0.  1.
<mgrwt>
<rscale>  1 0.51643279E+03</rscale>
<asrwt>0</asrwt>
<pdfrwt beam="1">  1       21 0.20311121E+00 0.98124581E+03</pdfrwt>
<pdfrwt beam="2">  1       -4 0.83473484E-01 0.98124581E+03</pdfrwt>
<totfact> 0.54865579E+00</totfact>
</mgrwt>
</event>
<event>
 6    2  0.2321478E-005  0.1064296E+04  0.7818608E-02  0.9518898E-01
         -4   -1    0    0    0  501 -0.00000000000E+00  0.00000000000E+00  0.91028224941E+03  0.91028224941E+03  0.00000000000E+00 0. -1.
         21   -1    0    0  501  502  0.00000000000E+00 -0.00000000000E+00 -0.61695577959E+03  0.61695577959E+03  0.00000000000E+00 0. -1.
   -9000010    2    1    2    0  502 -0.14064735943E+02  0.39160812376E+03  0.48949070420E+02  0.10654208965E+04  0.98953066438E+03 0.  0.
         13    1    3    3    0    0  0.43303354822E+03  0.22000454232E+03 -0.20047346616E+03  0.52546139185E+03  0.10566000000E+00 0. -1.
         -4    1    3    3    0  502 -0.44709828417E+03  0.17160358144E+03  0.24942253658E+03  0.53995950462E+03  0.00000000000E+00 0. -1.
        -13    1    1    2    0    0  0.14064735943E+02 -0.39160812376E+03  0.24437739940E+03  0.46181713253E+03  0.10566000000E+00 0.  1.
<mgrwt>
<rscale>  1 0.82904802E+03</rscale>
<asrwt>0</asrwt>
<pdfrwt beam="2">  1       21 0.94916273E-01 0.10642959E+04</pdfrwt>
<pdfrwt beam="1">  1       -4 0.14004342E+00 0.10642959E+04</pdfrwt>
<totfact> 0.12327909E+01</totfact>
</mgrwt>
</event>
<event>
 6    2  0.2321478E-005  0.9880653E+03  0.7818608E-02  0.1013717E+00
         21   -1    0    0  501  502  0.00000000000E+00  0.00000000000E+00  0.43825044103E+03  0.43825044103E+03  0.00000000000E+00 0. -1.
         -4   -1    0    0    0  501 -0.00000000000E+00 -0.00000000000E+00 -0.63814054541E+03  0.63814054541E+03  0.00000000000E+00 0. -1.
   -9000010    2    1    2    0  502 -0.61683836986E+02  0.20228603542E+02 -0.21149159718E+03  0.10104463282E+04  0.98593052210E+03 0.  0.
         13    1    3    3    0    0  0.12799839140E+03  0.35434881870E+03 -0.42738106709E+03  0.56973788815E+03  0.10566000000E+00 0. -1.
         -4    1    3    3    0  502 -0.18968222839E+03 -0.33412021516E+03  0.21588946991E+03  0.44070844009E+03  0.00000000000E+00 0. -1.
        -13    1    1    2    0    0  0.61683836986E+02 -0.20228603542E+02  0.11601492806E+02  0.65944658206E+02  0.10566000000E+00 0.  1.
<mgrwt>
<rscale>  1 0.50023888E+03</rscale>
<asrwt>0</asrwt>
<pdfrwt beam="1">  1       21 0.67423145E-01 0.98806533E+03</pdfrwt>
<pdfrwt beam="2">  1       -4 0.98175468E-01 0.98806533E+03</pdfrwt>
<totfact> 0.67684199E+01</totfact>
</mgrwt>
</event>
<event>
 6    2  0.2321478E-005  0.1095631E+04  0.7818608E-02  0.9443864E-01
         -4   -1    0    0    0  501 -0.00000000000E+00  0.00000000000E+00  0.44076124196E+03  0.44076124196E+03  0.00000000000E+00 0. -1.
         21   -1    0    0  501  502  0.00000000000E+00 -0.00000000000E+00 -0.21099362880E+04  0.21099362880E+04  0.00000000000E+00 0. -1.
   -9000010    2    1    2    0  502 -0.78725504787E+02  0.46084612432E+03 -0.34851496756E+03  0.11497264705E+04  0.99087406815E+03 0.  0.
         13    1    3    3    0    0 -0.38181706568E+03  0.94699992118E+02 -0.51325348356E+03  0.64666955217E+03  0.10566000000E+00 0. -1.
         -4    1    3    3    0  502  0.30309156090E+03  0.36614613220E+03  0.16473851600E+03  0.50305691832E+03  0.00000000000E+00 0. -1.
        -13    1    1    2    0    0  0.78725504787E+02 -0.46084612432E+03 -0.13206600785E+04  0.14009710595E+04  0.10566000000E+00 0.  1.
<mgrwt>
<rscale>  1 0.88552117E+03</rscale>
<asrwt>0</asrwt>
<pdfrwt beam="2">  1       21 0.32460558E+00 0.10956315E+04</pdfrwt>
<pdfrwt beam="1">  1       -4 0.67809422E-01 0.10956315E+04</pdfrwt>
<totfact> 0.14500582E+00</totfact>
</mgrwt>
</event>
<event>
 6    2  0.2321478E-005  0.1203562E+04  0.7818608E-02  0.9262082E-01
         21   -1    0    0  501  502  0.00000000000E+00  0.00000000000E+00  0.74373119492E+03  0.74373119492E+03  0.00000000000E+00 0. -1.
         -4   -1    0    0    0  501 -0.00000000000E+00 -0.00000000000E+00 -0.12012102528E+04  0.12012102528E+04  0.00000000000E+00 0. -1.
   -9000010    2    1    2    0  502 -0.64079005725E+02  0.67705866520E+03 -0.21309689725E+03  0.12222816337E+04  0.99299926963E+03 0.  0.
         13    1    3    3    0    0 -0.52480290772E+03  0.42391853167E+03 -0.75188517411E+02  0.67880655400E+03  0.10566000000E+00 0. -1.
         -4    1    3    3    0  502  0.46072390199E+03  0.25314013353E+03 -0.13790837984E+03  0.54347507974E+03  0.00000000000E+00 0. -1.
        -13    1    1    2    0    0  0.64079005725E+02 -0.67705866520E+03 -0.24438216060E+03  0.72265981393E+03  0.10566000000E+00 0.  1.
<mgrwt>
<rscale>  1 0.10434991E+04</rscale>
<asrwt>0</asrwt>
<pdfrwt beam="1">  1       21 0.11442019E+00 0.12035623E+04</pdfrwt>
<pdfrwt beam="2">  1       -4 0.18480157E+00 0.12035623E+04</pdfrwt>
<totfact> 0.35213036E+00</totfact>
</mgrwt>
</event>
<event>
 6    2  0.2321478E-005  0.9890460E+03  0.7818608E-02  0.1017171E+00
         21   -1    0    0  501  502  0.00000000000E+00  0.00000000000E+00  0.27038099709E+04  0.27038099709E+04  0.00000000000E+00 0. -1.
         -4   -1    0    0    0  501 -0.00000000000E+00 -0.00000000000E+00 -0.10442708627E+03  0.10442708627E+03  0.00000000000E+00 0. -1.
   -9000010    2    1    2    0  502 -0.39575791578E+02  0.42729591201E+02  0.23063847748E+04  0.25095064683E+04  0.98732969338E+03 0.  0.
         13    1    3    3    0    0  0.48061241251E+02 -0.40652368595E+03  0.50084476706E+03  0.64685151465E+03  0.10566000000E+00 0. -1.
         -4    1    3    3    0  502 -0.87637032829E+02  0.44925327715E+03  0.18055400078E+04  0.18626549536E+04  0.00000000000E+00 0. -1.
        -13    1    1    2    0    0  0.39575791578E+02 -0.42729591201E+02  0.29299810976E+03  0.29873058888E+03  0.10566000000E+00 0.  1.
<mgrwt>
<rscale>  1 0.48721490E+03</rscale>
<asrwt>0</asrwt>
<pdfrwt beam="1">  1       21 0.41597071E+00 0.98904600E+03</pdfrwt>
<pdfrwt beam="2">  1       -4 0.16065708E-01 0.98904600E+03</pdfrwt>
<totfact> 0.68007297E+00</totfact>
</mgrwt>
</event>
<event>
 6    2  0.2321478E-005  0.1070600E+04  0.7818608E-02  0.9505034E-01
         -4   -1    0    0    0  501 -0.00000000000E+00  0.00000000000E+00  0.51836252739E+03  0.51836252739E+03  0.00000000000E+00 0. -1.
         21   -1    0    0  501  502  0.00000000000E+00 -0.00000000000E+00 -0.10579643653E+04  0.10579643653E+04  0.00000000000E+00 0. -1.
   -9000010    2    1    2    0  502  0.34818063405E+03  0.20503201507E+03 -0.45620106674E+03  0.11637452875E+04  0.99142110114E+03 0.  0.
         13    1    3    3    0    0 -0.78097330936E+02 -0.27530690106E+03 -0.43561233746E+03  0.52120169089E+03  0.10566000000E+00 0. -1.
         -4    1    3    3    0  502  0.42627796499E+03  0.48033891614E+03 -0.20588729281E+02  0.64254359662E+03  0.00000000000E+00 0. -1.
        -13    1    1    2    0    0 -0.34818063405E+03 -0.20503201507E+03 -0.83400771170E+02  0.41258160518E+03  0.10566000000E+00 0.  1.
<mgrwt>
<rscale>  1 0.83913712E+03</rscale>
<asrwt>0</asrwt>
<pdfrwt beam="2">  1       21 0.16276375E+00 0.10705997E+04</pdfrwt>
<pdfrwt beam="1">  1       -4 0.79748081E-01 0.10705997E+04</pdfrwt>
<totfact> 0.11780856E+01</totfact>
</mgrwt>
</event>
<event>
 6    2  0.2321478E-005  0.1023533E+04  0.7818608E-02  0.9860225E-01
         -4   -1    0    0    0  501 -0.00000000000E+00  0.00000000000E+00  0.23642749889E+03  0.23642749889E+03  0.00000000000E+00 0. -1.
         21   -1    0    0  501  502  0.00000000000E+00 -0.00000000000E+00 -0.15145715424E+04  0.15145715424E+04  0.00000000000E+00 0. -1.
   -9000010    2    1    2    0  502 -0.48717061214E+02 -0.13108450862E+03 -0.12363376511E+04  0.16050391630E+04  0.10139346265E+04 0.  0.
         13    1    3    3    0    0  0.46298280037E+03  0.58959066605E+02 -0.68766840674E+03  0.83109391393E+03  0.10566000000E+00 0. -1.
         -4    1    3    3    0  502 -0.51169986158E+03 -0.19004357523E+03 -0.54866924439E+03  0.77394524908E+03  0.00000000000E+00 0. -1.
        -13    1    1    2    0    0  0.48717061214E+02  0.13108450862E+03 -0.41806392341E+02  0.14595987825E+03  0.10566000000E+00 0.  1.
<mgrwt>
<rscale>  1 0.62228285E+03</rscale>
<asrwt>0</asrwt>
<pdfrwt beam="2">  1       21 0.23301101E+00 0.10235331E+04</pdfrwt>
<pdfrwt beam="1">  1       -4 0.36373462E-01 0.10235331E+04</pdfrwt>
<totfact> 0.20631160E+01</totfact>
</mgrwt>
</event>
<event>
 6    2  0.2321478E-005  0.1004467E+04  0.7818608E-02  0.1012786E+00
         21   -1    0    0  501  502  0.00000000000E+00  0.00000000000E+00  0.14464727850E+04  0.14464727850E+04  0.00000000000E+00 0. -1.
         -4   -1    0    0    0  501 -0.00000000000E+00 -0.00000000000E+00 -0.19828663547E+03  0.19828663547E+03  0.00000000000E+00 0. -1.
   -9000010    2    1    2    0  502  0.16240797311E+02 -0.61467782796E+02  0.12004328283E+04  0.15652456313E+04  0.10024534200E+04 0.  0.
         13    1    3    3    0    0 -0.25344959842E+03 -0.41390107479E+03  0.32603949165E+03  0.58468158850E+03  0.10566000000E+00 0. -1.
         -4    1    3    3    0  502  0.26969039573E+03  0.35243329199E+03  0.87439333663E+03  0.98056404278E+03  0.00000000000E+00 0. -1.
        -13    1    1    2    0    0 -0.16240797311E+02  0.61467782796E+02  0.47753321293E+02  0.79513789230E+02  0.10566000000E+00 0.  1.
<mgrwt>
<rscale>  1 0.50382219E+03</rscale>
<asrwt>0</asrwt>
<pdfrwt beam="1">  1       21 0.22253427E+00 0.10044675E+04</pdfrwt>
<pdfrwt beam="2">  1       -4 0.30505637E-01 0.10044675E+04</pdfrwt>
<totfact> 0.34335058E+01</totfact>
</mgrwt>
</event>
<event>
 6    2  0.2321478E-005  0.9976685E+03  0.7818608E-02  0.1018150E+00
         21   -1    0    0  501  502  0.00000000000E+00  0.00000000000E+00  0.93304952454E+03  0.93304952454E+03  0.00000000000E+00 0. -1.
         -4   -1    0    0    0  501 -0.00000000000E+00 -0.00000000000E+00 -0.35785133790E+03  0.35785133790E+03  0.00000000000E+00 0. -1.
   -9000010    2    1    2    0  502  0.35493074446E+02  0.42118862174E+02  0.34722037293E+03  0.10563637618E+04  0.99614690329E+03 0.  0.
         13    1    3    3    0    0 -0.56689559728E+02 -0.38253584626E+03 -0.13278972011E+03  0.40887712187E+03  0.10566000000E+00 0. -1.
         -4    1    3    3    0  502  0.92182634175E+02  0.42465470843E+03  0.48001009304E+03  0.64748663990E+03  0.00000000000E+00 0. -1.
        -13    1    1    2    0    0 -0.35493074446E+02 -0.42118862174E+02  0.22797781371E+03  0.23453710067E+03  0.10566000000E+00 0.  1.
<mgrwt>
<rscale>  1 0.48360139E+03</rscale>
<asrwt>0</asrwt>
<pdfrwt beam="1">  1       21 0.14354608E+00 0.99766849E+03</pdfrwt>
<pdfrwt beam="2">  1       -4 0.55054052E-01 0.99766849E+03</pdfrwt>
<totfact> 0.38470218E+01</totfact>
</mgrwt>
</event>
<event>
 6    2  0.2321478E-005  0.9968778E+03  0.7818608E-02  0.9999586E-01
         -4   -1    0    0    0  501 -0.00000000000E+00  0.00000000000E+00  0.11924488337E+04  0.11924488337E+04  0.00000000000E+00 0. -1.
         21   -1    0    0  501  502  0.00000000000E+00 -0.00000000000E+00 -0.33611883170E+03  0.33611883170E+03  0.00000000000E+00 0. -1.
   -9000010    2    1    2    0  502 -0.80191754839E+02  0.54468994273E+02  0.42024385486E+03  0.10818365071E+04  0.99215308382E+03 0.  0.
         13    1    3    3    0    0 -0.10235254833E+03  0.50253755785E+03  0.36576630704E+03  0.62992463337E+03  0.10566000000E+00 0. -1.
         -4    1    3    3    0  502  0.22160793490E+02 -0.44806856358E+03  0.54477547825E+02  0.45191187376E+03  0.00000000000E+00 0. -1.
        -13    1    1    2    0    0  0.80191754839E+02 -0.54468994273E+02  0.43608614711E+03  0.44673115824E+03  0.10566000000E+00 0.  1.
<mgrwt>
<rscale>  1 0.55668377E+03</rscale>
<asrwt>0</asrwt>
<pdfrwt beam="2">  1       21 0.51710590E-01 0.99687779E+03</pdfrwt>
<pdfrwt beam="1">  1       -4 0.18345366E+00 0.99687779E+03</pdfrwt>
<totfact> 0.23787054E+01</totfact>
</mgrwt>
</event>
<event>
 6    2  0.2321478E-005  0.1003640E+04  0.7818608E-02  0.1009815E+00
         -4   -1    0    0    0  501 -0.00000000000E+00  0.00000000000E+00  0.70484086875E+03  0.70484086875E+03  0.00000000000E+00 0. -1.
         21   -1    0    0  501  502  0.00000000000E+00 -0.00000000000E+00 -0.41441626397E+03  0.41441626397E+03  0.00000000000E+00 0. -1.
   -9000010    2    1    2    0  502 -0.62103915193E+02  0.31952268185E+02  0.23678408054E+03  0.10311937423E+04  0.10012072661E+04 0.  0.
         13    1    3    3    0    0  0.25548411782E+03 -0.36696787047E+03  0.26630552761E+03  0.52043846670E+03  0.10566000000E+00 0. -1.
         -4    1    3    3    0  502 -0.31758803301E+03  0.39892013865E+03 -0.29521447076E+02  0.51075527562E+03  0.00000000000E+00 0. -1.
        -13    1    1    2    0    0  0.62103915193E+02 -0.31952268185E+02  0.53640524239E+02  0.88063390402E+02  0.10566000000E+00 0.  1.
<mgrwt>
<rscale>  1 0.51548042E+03</rscale>
<asrwt>0</asrwt>
<pdfrwt beam="2">  1       21 0.63756348E-01 0.10036403E+04</pdfrwt>
<pdfrwt beam="1">  1       -4 0.10843706E+00 0.10036403E+04</pdfrwt>
<totfact> 0.60257101E+01</totfact>
</mgrwt>
</event>
<event>
 6    2  0.2321478E-005  0.1007718E+04  0.7818608E-02  0.9806668E-01
         21   -1    0    0  501  502  0.00000000000E+00  0.00000000000E+00  0.69819348864E+03  0.69819348864E+03  0.00000000000E+00 0. -1.
         -4   -1    0    0    0  501 -0.00000000000E+00 -0.00000000000E+00 -0.71105635172E+03  0.71105635172E+03  0.00000000000E+00 0. -1.
   -9000010    2    1    2    0  502  0.13865133863E+03  0.10595206810E+03  0.29964431181E+03  0.10513241778E+04  0.99249472476E+03 0.  0.
         13    1    3    3    0    0  0.25030944240E+03  0.52085282268E+03  0.16209023141E+03  0.60017975152E+03  0.10566000000E+00 0. -1.
         -4    1    3    3    0  502 -0.11165810377E+03 -0.41490075458E+03  0.13755408040E+03  0.45114442623E+03  0.00000000000E+00 0. -1.
        -13    1    1    2    0    0 -0.13865133863E+03 -0.10595206810E+03 -0.31250717488E+03  0.35792566261E+03  0.10566000000E+00 0.  1.
<mgrwt>
<rscale>  1 0.65005903E+03</rscale>
<asrwt>0</asrwt>
<pdfrwt beam="1">  1       21 0.10741438E+00 0.10077181E+04</pdfrwt>
<pdfrwt beam="2">  1       -4 0.10939328E+00 0.10077181E+04</pdfrwt>
<totfact> 0.17063820E+01</totfact>
</mgrwt>
</event>
<event>
 6    2  0.2321478E-005  0.1166567E+04  0.7818608E-02  0.9323449E-01
         -4   -1    0    0    0  501 -0.00000000000E+00  0.00000000000E+00  0.11858638051E+04  0.11858638051E+04  0.00000000000E+00 0. -1.
         21   -1    0    0  501  502  0.00000000000E+00 -0.00000000000E+00 -0.84291678038E+03  0.84291678038E+03  0.00000000000E+00 0.  1.
   -9000010    2    1    2    0  502  0.21726873398E+02 -0.59623030507E+03  0.67317242685E+03  0.13468630970E+04  0.10024552120E+04 0.  0.
         13    1    3    3    0    0 -0.42576983092E+03 -0.14204641386E+03  0.52790512352E+03  0.69292204700E+03  0.10566000000E+00 0. -1.
         -4    1    3    3    0  502  0.44749670432E+03 -0.45418389121E+03  0.14526730333E+03  0.65394104997E+03  0.00000000000E+00 0. -1.
        -13    1    1    2    0    0 -0.21726873398E+02  0.59623030507E+03 -0.33022540215E+03  0.68191748849E+03  0.10566000000E+00 0.  1.
<mgrwt>
<rscale>  1 0.98652464E+03</rscale>
<asrwt>0</asrwt>
<pdfrwt beam="2">  1       21 0.12967950E+00 0.11665672E+04</pdfrwt>
<pdfrwt beam="1">  1       -4 0.18244059E+00 0.11665672E+04</pdfrwt>
<totfact> 0.26461695E+00</totfact>
</mgrwt>
</event>
<event>
 6    2  0.2321478E-005  0.1024826E+04  0.7818608E-02  0.9707872E-01
         -4   -1    0    0    0  501 -0.00000000000E+00  0.00000000000E+00  0.18031045978E+03  0.18031045978E+03  0.00000000000E+00 0. -1.
         21   -1    0    0  501  502  0.00000000000E+00 -0.00000000000E+00 -0.23558946614E+04  0.23558946614E+04  0.00000000000E+00 0. -1.
   -9000010    2    1    2    0  502  0.23013988759E+03 -0.33411767628E+01 -0.19979842635E+04  0.22454865623E+04  0.99864570937E+03 0.  0.
         13    1    3    3    0    0  0.25330487498E+03 -0.28563241127E+03 -0.19116242883E+04  0.19493734031E+04  0.10566000000E+00 0. -1.
         -4    1    3    3    0  502 -0.23164987393E+02  0.28229123450E+03 -0.86359975242E+02  0.29611315918E+03  0.00000000000E+00 0. -1.
        -13    1    1    2    0    0 -0.23013988759E+03  0.33411767628E+01 -0.17759993816E+03  0.29071855895E+03  0.10566000000E+00 0.  1.
<mgrwt>
<rscale>  1 0.70550013E+03</rscale>
<asrwt>0</asrwt>
<pdfrwt beam="2">  1       21 0.36244532E+00 0.10248262E+04</pdfrwt>
<pdfrwt beam="1">  1       -4 0.27740072E-01 0.10248262E+04</pdfrwt>
<totfact> 0.54021310E+00</totfact>
</mgrwt>
</event>
<event>
 6    2  0.2321478E-005  0.1013948E+04  0.7818608E-02  0.9791732E-01
         21   -1    0    0  501  502  0.00000000000E+00  0.00000000000E+00  0.11701411524E+04  0.11701411524E+04  0.00000000000E+00 0. -1.
         -4   -1    0    0    0  501 -0.00000000000E+00 -0.00000000000E+00 -0.33547079195E+03  0.33547079195E+03  0.00000000000E+00 0. -1.
   -9000010    2    1    2    0  502 -0.16006151040E+03  0.82160081679E+02  0.51132261619E+03  0.11355798633E+04  0.99785812716E+03 0.  0.
         13    1    3    3    0    0 -0.77145011802E+01 -0.17306614536E+03 -0.25803810772E+03  0.31079749097E+03  0.10566000000E+00 0. -1.
         -4    1    3    3    0  502 -0.15234700922E+03  0.25522622704E+03  0.76936072391E+03  0.82478237231E+03  0.00000000000E+00 0. -1.
        -13    1    1    2    0    0  0.16006151040E+03 -0.82160081679E+02  0.32334774422E+03  0.37003208103E+03  0.10566000000E+00 0.  1.
<mgrwt>
<rscale>  1 0.65808146E+03</rscale>
<asrwt>0</asrwt>
<pdfrwt beam="1">  1       21 0.18002171E+00 0.10139481E+04</pdfrwt>
<pdfrwt beam="2">  1       -4 0.51610892E-01 0.10139481E+04</pdfrwt>
<totfact> 0.23025932E+01</totfact>
</mgrwt>
</event>
<event>
 6    2  0.2321478E-005  0.1001103E+04  0.7818608E-02  0.9755874E-01
         -4   -1    0    0    0  501 -0.00000000000E+00  0.00000000000E+00  0.16533264327E+04  0.16533264327E+04  0.00000000000E+00 0. -1.
         21   -1    0    0  501  502  0.00000000000E+00 -0.00000000000E+00 -0.38549791615E+03  0.38549791615E+03  0.00000000000E+00 0. -1.
   -9000010    2    1    2    0  502  0.10123408464E+03 -0.18447825997E+03  0.29523864856E+03  0.10437305690E+04  0.97873748916E+03 0.  0.
         13    1    3    3    0    0  0.41925707782E+03 -0.24461441543E+03  0.47021056259E+03  0.67580373917E+03  0.10566000000E+00 0. -1.
         -4    1    3    3    0  502 -0.31802299317E+03  0.60136155459E+02 -0.17497191404E+03  0.36792682979E+03  0.00000000000E+00 0. -1.
        -13    1    1    2    0    0 -0.10123408464E+03  0.18447825997E+03  0.97258986795E+03  0.99509377985E+03  0.10566000000E+00 0.  1.
<mgrwt>
<rscale>  1 0.67785344E+03</rscale>
<asrwt>0</asrwt>
<pdfrwt beam="2">  1       21 0.59307372E-01 0.10011032E+04</pdfrwt>
<pdfrwt beam="1">  1       -4 0.25435791E+00 0.10011032E+04</pdfrwt>
<totfact> 0.61475871E+00</totfact>
</mgrwt>
</event>
<event>
 6    2  0.2321478E-005  0.1027961E+04  0.7818608E-02  0.9566344E-01
         21   -1    0    0  501  502  0.00000000000E+00  0.00000000000E+00  0.97387269141E+03  0.97387269141E+03  0.00000000000E+00 0. -1.
         -4   -1    0    0    0  501 -0.00000000000E+00 -0.00000000000E+00 -0.50212547061E+03  0.50212547061E+03  0.00000000000E+00 0. -1.
   -9000010    2    1    2    0  502 -0.29654054218E+03  0.21948520772E+03  0.37885653799E+03  0.10955527130E+04  0.95947559688E+03 0.  0.
         13    1    3    3    0    0 -0.71927513543E+02 -0.16416026088E+03 -0.26088195755E+03  0.31651471592E+03  0.10566000000E+00 0. -1.
         -4    1    3    3    0  502 -0.22461302864E+03  0.38364546860E+03  0.63973849554E+03  0.77903799707E+03  0.00000000000E+00 0. -1.
        -13    1    1    2    0    0  0.29654054218E+03 -0.21948520772E+03  0.92890682813E+02  0.38044544902E+03  0.10566000000E+00 0.  1.
<mgrwt>
<rscale>  1 0.79564384E+03</rscale>
<asrwt>0</asrwt>
<pdfrwt beam="1">  1       21 0.14982657E+00 0.10279608E+04</pdfrwt>
<pdfrwt beam="2">  1       -4 0.77250072E-01 0.10279608E+04</pdfrwt>
<totfact> 0.16102520E+01</totfact>
</mgrwt>
</event>
<event>
 6    2  0.2321478E-005  0.1095582E+04  0.7818608E-02  0.9466340E-01
         -4   -1    0    0    0  501 -0.00000000000E+00  0.00000000000E+00  0.12439081230E+04  0.12439081230E+04  0.00000000000E+00 0. -1.
         21   -1    0    0  501  502  0.00000000000E+00 -0.00000000000E+00 -0.49830193932E+03  0.49830193932E+03  0.00000000000E+00 0.  1.
   -9000010    2    1    2    0  502 -0.43163290133E+03 -0.14966862835E+02  0.71705125480E+03  0.13093748008E+04  0.10068609132E+04 0.  0.
         13    1    3    3    0    0 -0.20953810169E+03  0.11765234964E+03  0.93854785075E+03  0.96882422077E+03  0.10566000000E+00 0. -1.
         -4    1    3    3    0  502 -0.22209479964E+03 -0.13261921248E+03 -0.22149659596E+03  0.34055058004E+03  0.00000000000E+00 0. -1.
        -13    1    1    2    0    0  0.43163290133E+03  0.14966862835E+02  0.28554928891E+02  0.43283526152E+03  0.10566000000E+00 0.  1.
<mgrwt>
<rscale>  1 0.86811565E+03</rscale>
<asrwt>0</asrwt>
<pdfrwt beam="2">  1       21 0.76661838E-01 0.10955820E+04</pdfrwt>
<pdfrwt beam="1">  1       -4 0.19137048E+00 0.10955820E+04</pdfrwt>
<totfact> 0.85680112E+00</totfact>
</mgrwt>
</event>
<event>
 6    2  0.2321478E-005  0.1009419E+04  0.7818608E-02  0.1028118E+00
         -4   -1    0    0    0  501 -0.00000000000E+00  0.00000000000E+00  0.45205874248E+03  0.45205874248E+03  0.00000000000E+00 0. -1.
         21   -1    0    0  501  502  0.00000000000E+00 -0.00000000000E+00 -0.70152370652E+03  0.70152370652E+03  0.00000000000E+00 0. -1.
   -9000010    2    1    2    0  502  0.12839548026E+01  0.39380076088E+02 -0.33159636724E+03  0.10624889943E+04  0.10086497278E+04 0.  0.
         13    1    3    3    0    0 -0.26213788056E+02  0.13999940604E+03  0.34743266594E+03  0.37549495989E+03  0.10566000000E+00 0. -1.
         -4    1    3    3    0  502  0.27497742858E+02 -0.10061932995E+03 -0.67902903318E+03  0.68699403442E+03  0.00000000000E+00 0. -1.
        -13    1    1    2    0    0 -0.12839548026E+01 -0.39380076088E+02  0.82131403196E+02  0.91093454692E+02  0.10566000000E+00 0.  1.
<mgrwt>
<rscale>  1 0.44867390E+03</rscale>
<asrwt>0</asrwt>
<pdfrwt beam="2">  1       21 0.10792672E+00 0.10094190E+04</pdfrwt>
<pdfrwt beam="1">  1       -4 0.69547499E-01 0.10094190E+04</pdfrwt>
<totfact> 0.48707477E+01</totfact>
</mgrwt>
</event>
<event>
 6    2  0.2321478E-005  0.1014029E+04  0.7818608E-02  0.9734078E-01
         21   -1    0    0  501  502  0.00000000000E+00  0.00000000000E+00  0.12985560813E+04  0.12985560813E+04  0.00000000000E+00 0. -1.
         -4   -1    0    0    0  501 -0.00000000000E+00 -0.00000000000E+00 -0.32954604530E+03  0.32954604530E+03  0.00000000000E+00 0. -1.
   -9000010    2    1    2    0  502 -0.20428818919E+03 -0.75201209316E+02  0.97991687508E+03  0.14101391563E+04  0.99038703141E+03 0.  0.
         13    1    3    3    0    0  0.37643178650E+03  0.12961025614E+03  0.37376369971E+03  0.54607602288E+03  0.10566000000E+00 0. -1.
         -4    1    3    3    0  502 -0.58071997569E+03 -0.20481146546E+03  0.60615317538E+03  0.86406313344E+03  0.00000000000E+00 0. -1.
        -13    1    1    2    0    0  0.20428818919E+03  0.75201209316E+02 -0.10906839046E+02  0.21796297031E+03  0.10566000000E+00 0.  1.
<mgrwt>
<rscale>  1 0.69023574E+03</rscale>
<asrwt>0</asrwt>
<pdfrwt beam="1">  1       21 0.19977786E+00 0.10140293E+04</pdfrwt>
<pdfrwt beam="2">  1       -4 0.50699392E-01 0.10140293E+04</pdfrwt>
<totfact> 0.17342831E+01</totfact>
</mgrwt>
</event>
<event>
 6    2  0.2321478E-005  0.1099240E+04  0.7818608E-02  0.9456343E-01
         21   -1    0    0  501  502  0.00000000000E+00  0.00000000000E+00  0.75907729534E+03  0.75907729534E+03  0.00000000000E+00 0. -1.
         -4   -1    0    0    0  501 -0.00000000000E+00 -0.00000000000E+00 -0.98476857177E+03  0.98476857177E+03  0.00000000000E+00 0. -1.
   -9000010    2    1    2    0  502  0.30716309842E+03  0.31914331411E+03  0.21382708252E+03  0.11198442461E+04  0.10060454713E+04 0.  0.
         13    1    3    3    0    0 -0.20034631199E+03  0.51507966861E+03  0.14586583185E+03  0.57159650262E+03  0.10566000000E+00 0. -1.
         -4    1    3    3    0  502  0.50750941040E+03 -0.19593635450E+03  0.67961250679E+02  0.54824774350E+03  0.00000000000E+00 0. -1.
        -13    1    1    2    0    0 -0.30716309842E+03 -0.31914331411E+03 -0.43951835895E+03  0.62400162098E+03  0.10566000000E+00 0.  1.
<mgrwt>
<rscale>  1 0.87580474E+03</rscale>
<asrwt>0</asrwt>
<pdfrwt beam="1">  1       21 0.11678112E+00 0.10992402E+04</pdfrwt>
<pdfrwt beam="2">  1       -4 0.15150286E+00 0.10992402E+04</pdfrwt>
<totfact> 0.59144317E+00</totfact>
</mgrwt>
</event>
<event>
 6    2  0.2321478E-005  0.1058831E+04  0.7818608E-02  0.9559927E-01
         -4   -1    0    0    0  501 -0.00000000000E+00  0.00000000000E+00  0.11009841428E+04  0.11009841428E+04  0.00000000000E+00 0. -1.
         21   -1    0    0  501  502  0.00000000000E+00 -0.00000000000E+00 -0.71518293195E+03  0.71518293195E+03  0.00000000000E+00 0. -1.
   -9000010    2    1    2    0  502 -0.34354578457E+03 -0.33303702952E+02 -0.25429766652E+03  0.10889398567E+04  0.10009944383E+04 0.  0.
         13    1    3    3    0    0 -0.43414879852E+03 -0.37651174132E+03 -0.40527271840E+03  0.70320143490E+03  0.10566000000E+00 0. -1.
         -4    1    3    3    0  502  0.90603013949E+02  0.34320803837E+03  0.15097505188E+03  0.38573842177E+03  0.00000000000E+00 0. -1.
        -13    1    1    2    0    0  0.34354578457E+03  0.33303702952E+02  0.64009887738E+03  0.72722721808E+03  0.10566000000E+00 0.  1.
<mgrwt>
<rscale>  1 0.80006242E+03</rscale>
<asrwt>0</asrwt>
<pdfrwt beam="2">  1       21 0.11002814E+00 0.10588308E+04</pdfrwt>
<pdfrwt beam="1">  1       -4 0.16938217E+00 0.10588308E+04</pdfrwt>
<totfact> 0.50856907E+00</totfact>
</mgrwt>
</event>
<event>
 6    2  0.2321478E-005  0.1041661E+04  0.7818608E-02  0.9689798E-01
         -4   -1    0    0    0  501 -0.00000000000E+00  0.00000000000E+00  0.72406333799E+03  0.72406333799E+03  0.00000000000E+00 0. -1.
         21   -1    0    0  501  502  0.00000000000E+00 -0.00000000000E+00 -0.82509166650E+03  0.82509166650E+03  0.00000000000E+00 0. -1.
   -9000010    2    1    2    0  502 -0.87431332549E+02 -0.21584833883E+03 -0.44584264154E+03  0.11330640710E+04  0.10152949250E+04 0.  0.
         13    1    3    3    0    0 -0.45587819673E+03 -0.27264376403E+03 -0.53055153404E+03  0.75076260812E+03  0.10566000000E+00 0. -1.
         -4    1    3    3    0  502  0.36844686418E+03  0.56795425196E+02  0.84708892497E+02  0.38230146288E+03  0.00000000000E+00 0. -1.
        -13    1    1    2    0    0  0.87431332549E+02  0.21584833883E+03  0.34481431304E+03  0.41609093349E+03  0.10566000000E+00 0.  1.
<mgrwt>
<rscale>  1 0.71627476E+03</rscale>
<asrwt>0</asrwt>
<pdfrwt beam="2">  1       21 0.12693718E+00 0.10416614E+04</pdfrwt>
<pdfrwt beam="1">  1       -4 0.11139436E+00 0.10416614E+04</pdfrwt>
<totfact> 0.10572565E+01</totfact>
</mgrwt>
</event>
<event>
 6    2  0.2321478E-005  0.1127623E+04  0.7818608E-02  0.9296627E-01
         21   -1    0    0  501  502  0.00000000000E+00  0.00000000000E+00  0.16867801165E+04  0.16867801165E+04  0.00000000000E+00 0. -1.
         -4   -1    0    0    0  501 -0.00000000000E+00 -0.00000000000E+00 -0.51539627820E+03  0.51539627820E+03  0.00000000000E+00 0. -1.
   -9000010    2    1    2    0  502 -0.35344659794E+03  0.63697608533E+03  0.81425359915E+03  0.13908780219E+04  0.86073789111E+03 0.  0.
         13    1    3    3    0    0  0.24543085033E+03  0.41469264059E+03  0.27450013770E+03  0.55457788020E+03  0.10566000000E+00 0. -1.
         -4    1    3    3    0  502 -0.59887744826E+03  0.22228344474E+03  0.53975346145E+03  0.83630014169E+03  0.00000000000E+00 0. -1.
        -13    1    1    2    0    0  0.35344659794E+03 -0.63697608533E+03  0.35713023919E+03  0.81129837285E+03  0.10566000000E+00 0.  1.
<mgrwt>
<rscale>  1 0.10109395E+04</rscale>
<asrwt>0</asrwt>
<pdfrwt beam="1">  1       21 0.25950463E+00 0.11276226E+04</pdfrwt>
<pdfrwt beam="2">  1       -4 0.79291736E-01 0.11276226E+04</pdfrwt>
<totfact> 0.25876549E+00</totfact>
</mgrwt>
</event>
<event>
 6    2  0.2321478E-005  0.9853700E+03  0.7818608E-02  0.9800079E-01
         -4   -1    0    0    0  501 -0.00000000000E+00  0.00000000000E+00  0.31045584784E+03  0.31045584784E+03  0.00000000000E+00 0. -1.
         21   -1    0    0  501  502  0.00000000000E+00 -0.00000000000E+00 -0.20775556470E+04  0.20775556470E+04  0.00000000000E+00 0. -1.
   -9000010    2    1    2    0  502  0.42652433125E+02 -0.18589332340E+03 -0.19103317130E+04  0.21494932564E+04  0.96673597636E+03 0.  0.
         13    1    3    3    0    0 -0.85988119380E+02  0.24090028653E+03 -0.83510924128E+02  0.26907432122E+03  0.10566000000E+00 0. -1.
         -4    1    3    3    0  502  0.12864055250E+03 -0.42679360993E+03 -0.18268207888E+04  0.18804189352E+04  0.00000000000E+00 0. -1.
        -13    1    1    2    0    0 -0.42652433125E+02  0.18589332340E+03  0.14323191386E+03  0.23851823840E+03  0.10566000000E+00 0.  1.
<mgrwt>
<rscale>  1 0.65358296E+03</rscale>
<asrwt>0</asrwt>
<pdfrwt beam="2">  1       21 0.31962394E+00 0.98536998E+03</pdfrwt>
<pdfrwt beam="1">  1       -4 0.47762439E-01 0.98536998E+03</pdfrwt>
<totfact> 0.33913960E+00</totfact>
</mgrwt>
</event>
<event>
 6    2  0.2321478E-005  0.1022128E+04  0.7818608E-02  0.9732992E-01
         21   -1    0    0  501  502  0.00000000000E+00  0.00000000000E+00  0.55892027930E+03  0.55892027930E+03  0.00000000000E+00 0.  1.
         -4   -1    0    0    0  501 -0.00000000000E+00 -0.00000000000E+00 -0.11356039816E+04  0.11356039816E+04  0.00000000000E+00 0. -1.
   -9000010    2    1    2    0  502 -0.19953068720E+03  0.75469651948E+02  0.59170525442E+02  0.10238389594E+04  0.99961837731E+03 0.  0.
         13    1    3    3    0    0 -0.59014277877E+03 -0.90927614289E+02  0.49444356666E+02  0.59915030330E+03  0.10566000000E+00 0. -1.
         -4    1    3    3    0  502  0.39061209156E+03  0.16639726624E+03  0.97261687764E+01  0.42468865613E+03  0.00000000000E+00 0. -1.
        -13    1    1    2    0    0  0.19953068720E+03 -0.75469651948E+02 -0.63585422772E+03  0.67068530144E+03  0.10566000000E+00 0.  1.
<mgrwt>
<rscale>  1 0.69086000E+03</rscale>
<asrwt>0</asrwt>
<pdfrwt beam="1">  1       21 0.85987736E-01 0.10221277E+04</pdfrwt>
<pdfrwt beam="2">  1       -4 0.17470830E+00 0.10221277E+04</pdfrwt>
<totfact> 0.85902393E+00</totfact>
</mgrwt>
</event>
<event>
 6    2  0.2321478E-005  0.1016204E+04  0.7818608E-02  0.9998445E-01
         21   -1    0    0  501  502  0.00000000000E+00  0.00000000000E+00  0.79914174821E+03  0.79914174821E+03  0.00000000000E+00 0. -1.
         -4   -1    0    0    0  501 -0.00000000000E+00 -0.00000000000E+00 -0.52912094552E+03  0.52912094552E+03  0.00000000000E+00 0. -1.
   -9000010    2    1    2    0  502 -0.72158589823E+02  0.56820343282E+02  0.46135360390E+03  0.11160277638E+04  0.10120451612E+04 0.  0.
         13    1    3    3    0    0 -0.35547011667E+02  0.11880463603E+03 -0.31386434959E+03  0.33747440301E+03  0.10566000000E+00 0. -1.
         -4    1    3    3    0  502 -0.36611578156E+02 -0.61984292753E+02  0.77521795349E+03  0.77855336080E+03  0.00000000000E+00 0. -1.
        -13    1    1    2    0    0  0.72158589823E+02 -0.56820343282E+02 -0.19133280120E+03  0.21223492992E+03  0.10566000000E+00 0.  1.
<mgrwt>
<rscale>  1 0.55718457E+03</rscale>
<asrwt>0</asrwt>
<pdfrwt beam="1">  1       21 0.12294489E+00 0.10162041E+04</pdfrwt>
<pdfrwt beam="2">  1       -4 0.81403222E-01 0.10162041E+04</pdfrwt>
<totfact> 0.24375099E+01</totfact>
</mgrwt>
</event>
<event>
 6    2  0.2321478E-005  0.1043116E+04  0.7818608E-02  0.9621193E-01
         21   -1    0    0  501  502  0.00000000000E+00  0.00000000000E+00  0.37076929969E+03  0.37076929969E+03  0.00000000000E+00 0. -1.
         -4   -1    0    0    0  501 -0.00000000000E+00 -0.00000000000E+00 -0.13042329093E+04  0.13042329093E+04  0.00000000000E+00 0. -1.
   -9000010    2    1    2    0  502 -0.28177663607E+03 -0.78610247051E+02 -0.51208739142E+03  0.11620347909E+04  0.10012560688E+04 0.  0.
         13    1    3    3    0    0  0.12800819010E+03 -0.93531787721E+02  0.25034789872E+03  0.29632477724E+03  0.10566000000E+00 0. -1.
         -4    1    3    3    0  502 -0.40978482617E+03  0.14921540671E+02 -0.76243529014E+03  0.86571001368E+03  0.00000000000E+00 0. -1.
        -13    1    1    2    0    0  0.28177663607E+03  0.78610247051E+02 -0.42137621815E+03  0.51296741803E+03  0.10566000000E+00 0.  1.
<mgrwt>
<rscale>  1 0.75909225E+03</rscale>
<asrwt>0</asrwt>
<pdfrwt beam="1">  1       21 0.57041431E-01 0.10431162E+04</pdfrwt>
<pdfrwt beam="2">  1       -4 0.20065122E+00 0.10431162E+04</pdfrwt>
<totfact> 0.14615500E+01</totfact>
</mgrwt>
</event>
<event>
 6    2  0.2321478E-005  0.1051123E+04  0.7818608E-02  0.9627387E-01
         21   -1    0    0  501  502  0.00000000000E+00  0.00000000000E+00  0.11111747159E+04  0.11111747159E+04  0.00000000000E+00 0. -1.
         -4   -1    0    0    0  501 -0.00000000000E+00 -0.00000000000E+00 -0.42645150642E+03  0.42645150642E+03  0.00000000000E+00 0. -1.
   -9000010    2    1    2    0  502  0.27907103212E+03 -0.21930588430E+02  0.69049694559E+03  0.12576352602E+04  0.10131627826E+04 0.  0.
         13    1    3    3    0    0  0.50625235947E+03 -0.48562223072E+02  0.84171657098E+03  0.98343100317E+03  0.10566000000E+00 0. -1.
         -4    1    3    3    0  502 -0.22718132735E+03  0.26631634642E+02 -0.15121962539E+03  0.27420425701E+03  0.00000000000E+00 0. -1.
        -13    1    1    2    0    0 -0.27907103212E+03  0.21930588430E+02 -0.57737361165E+01  0.27999096212E+03  0.10566000000E+00 0.  1.
<mgrwt>
<rscale>  1 0.75509778E+03</rscale>
<asrwt>0</asrwt>
<pdfrwt beam="1">  1       21 0.17094995E+00 0.10511234E+04</pdfrwt>
<pdfrwt beam="2">  1       -4 0.65607925E-01 0.10511234E+04</pdfrwt>
<totfact> 0.15896160E+01</totfact>
</mgrwt>
</event>
<event>
 6    2  0.2321478E-005  0.1034104E+04  0.7818608E-02  0.9678958E-01
         21   -1    0    0  501  502  0.00000000000E+00  0.00000000000E+00  0.43476935348E+03  0.43476935348E+03  0.00000000000E+00 0. -1.
         -4   -1    0    0    0  501 -0.00000000000E+00 -0.00000000000E+00 -0.94641885856E+03  0.94641885856E+03  0.00000000000E+00 0. -1.
   -9000010    2    1    2    0  502 -0.23584984747E+03 -0.72931502683E+02 -0.44263811994E+03  0.11248549581E+04  0.10042041709E+04 0.  0.
         13    1    3    3    0    0 -0.20383945175E+02  0.33899173867E+03 -0.55125083718E+03  0.64746304973E+03  0.10566000000E+00 0. -1.
         -4    1    3    3    0  502 -0.21546590230E+03 -0.41192324136E+03  0.10861271724E+03  0.47739190836E+03  0.00000000000E+00 0. -1.
        -13    1    1    2    0    0  0.23584984747E+03  0.72931502683E+02 -0.69011385150E+02  0.25633325395E+03  0.10566000000E+00 0.  1.
<mgrwt>
<rscale>  1 0.72283570E+03</rscale>
<asrwt>0</asrwt>
<pdfrwt beam="1">  1       21 0.66887594E-01 0.10341036E+04</pdfrwt>
<pdfrwt beam="2">  1       -4 0.14560290E+00 0.10341036E+04</pdfrwt>
<totfact> 0.25433799E+01</totfact>
</mgrwt>
</event>
<event>
 6    2  0.2321478E-005  0.9969903E+03  0.7818608E-02  0.1016976E+00
         -4   -1    0    0    0  501 -0.00000000000E+00  0.00000000000E+00  0.25860756419E+03  0.25860756419E+03  0.00000000000E+00 0. -1.
         21   -1    0    0  501  502  0.00000000000E+00 -0.00000000000E+00 -0.14991326106E+04  0.14991326106E+04  0.00000000000E+00 0. -1.
   -9000010    2    1    2    0  502  0.19639469842E+02 -0.53720672315E+02 -0.13234771915E+04  0.16569796223E+04  0.99534816668E+03 0.  0.
         13    1    3    3    0    0 -0.42884793132E+03  0.18697450045E+03 -0.80059946627E+03  0.92726993296E+03  0.10566000000E+00 0. -1.
         -4    1    3    3    0  502  0.44848740116E+03 -0.24069517277E+03 -0.52287772523E+03  0.72970968935E+03  0.00000000000E+00 0. -1.
        -13    1    1    2    0    0 -0.19639469842E+02  0.53720672315E+02  0.82952145052E+02  0.10076055251E+03  0.10566000000E+00 0.  1.
<mgrwt>
<rscale>  1 0.48793697E+03</rscale>
<asrwt>0</asrwt>
<pdfrwt beam="2">  1       21 0.23063579E+00 0.99699027E+03</pdfrwt>
<pdfrwt beam="1">  1       -4 0.39785779E-01 0.99699027E+03</pdfrwt>
<totfact> 0.17894306E+01</totfact>
</mgrwt>
</event>
<event>
 6    2  0.2321478E-005  0.1233267E+04  0.7818608E-02  0.9270131E-01
         -4   -1    0    0    0  501 -0.00000000000E+00  0.00000000000E+00  0.35889664168E+04  0.35889664168E+04  0.00000000000E+00 0. -1.
         21   -1    0    0  501  502  0.00000000000E+00 -0.00000000000E+00 -0.23975642910E+03  0.23975642910E+03  0.00000000000E+00 0. -1.
   -9000010    2    1    2    0  502  0.22326362620E+03  0.57160409223E+03  0.24019965903E+04  0.27000992965E+04  0.10697526376E+04 0.  0.
         13    1    3    3    0    0  0.44357254971E+03  0.11809714458E+02  0.36020567455E+03  0.57152796551E+03  0.10566000000E+00 0. -1.
         -4    1    3    3    0  502 -0.22030892352E+03  0.55979437777E+03  0.20417909158E+04  0.21285713310E+04  0.00000000000E+00 0. -1.
        -13    1    1    2    0    0 -0.22326362620E+03 -0.57160409223E+03  0.94721339733E+03  0.11286235494E+04  0.10566000000E+00 0.  1.
<mgrwt>
<rscale>  1 0.10357975E+04</rscale>
<asrwt>0</asrwt>
<pdfrwt beam="2">  1       21 0.36885607E-01 0.12332674E+04</pdfrwt>
<pdfrwt beam="1">  1       -4 0.55214864E+00 0.12332674E+04</pdfrwt>
<totfact> 0.12664419E-01</totfact>
</mgrwt>
</event>
<event>
 6    2  0.2321478E-005  0.1024931E+04  0.7818608E-02  0.9746570E-01
         -4   -1    0    0    0  501 -0.00000000000E+00  0.00000000000E+00  0.10792436734E+04  0.10792436734E+04  0.00000000000E+00 0. -1.
         21   -1    0    0  501  502  0.00000000000E+00 -0.00000000000E+00 -0.45740339118E+03  0.45740339118E+03  0.00000000000E+00 0. -1.
   -9000010    2    1    2    0  502  0.17938472112E+03  0.93390376830E+02  0.16643623813E+03  0.10383564915E+04  0.10047798473E+04 0.  0.
         13    1    3    3    0    0  0.53377232875E+03  0.30225883268E+03  0.90623530539E+02  0.62006929961E+03  0.10566000000E+00 0. -1.
         -4    1    3    3    0  502 -0.35438760762E+03 -0.20886845585E+03  0.75812707592E+02  0.41828719191E+03  0.00000000000E+00 0. -1.
        -13    1    1    2    0    0 -0.17938472112E+03 -0.93390376830E+02  0.45540404405E+03  0.49829057302E+03  0.10566000000E+00 0.  1.
<mgrwt>
<rscale>  1 0.68310457E+03</rscale>
<asrwt>0</asrwt>
<pdfrwt beam="2">  1       21 0.70369753E-01 0.10249308E+04</pdfrwt>
<pdfrwt beam="1">  1       -4 0.16603749E+00 0.10249308E+04</pdfrwt>
<totfact> 0.15849822E+01</totfact>
</mgrwt>
</event>
<event>
 6    2  0.2321478E-005  0.1272296E+04  0.7818608E-02  0.9198424E-01
         21   -1    0    0  501  502  0.00000000000E+00  0.00000000000E+00  0.45691602988E+03  0.45691602988E+03  0.00000000000E+00 0. -1.
         -4   -1    0    0    0  501 -0.00000000000E+00 -0.00000000000E+00 -0.23926274796E+04  0.23926274796E+04  0.00000000000E+00 0. -1.
   -9000010    2    1    2    0  502  0.56320941547E+03  0.46299748655E+03 -0.80968634978E+03  0.15080875635E+04  0.10426718544E+04 0.  0.
         13    1    3    3    0    0 -0.23918327185E+03  0.75271521743E+02  0.65373847287E+02  0.25912967910E+03  0.10566000000E+00 0. -1.
         -4    1    3    3    0  502  0.80239268732E+03  0.38772596480E+03 -0.87506019707E+03  0.12489578844E+04  0.00000000000E+00 0. -1.
        -13    1    1    2    0    0 -0.56320941547E+03 -0.46299748655E+03 -0.11260250999E+04  0.13414559460E+04  0.10566000000E+00 0.  1.
<mgrwt>
<rscale>  1 0.11069710E+04</rscale>
<asrwt>0</asrwt>
<pdfrwt beam="1">  1       21 0.70294773E-01 0.12722956E+04</pdfrwt>
<pdfrwt beam="2">  1       -4 0.36809654E+00 0.12722956E+04</pdfrwt>
<totfact> 0.77180358E-01</totfact>
</mgrwt>
</event>
<event>
 6    2  0.2321478E-005  0.1007232E+04  0.7818608E-02  0.9947402E-01
         21   -1    0    0  501  502  0.00000000000E+00  0.00000000000E+00  0.92052341090E+03  0.92052341090E+03  0.00000000000E+00 0. -1.
         -4   -1    0    0    0  501 -0.00000000000E+00 -0.00000000000E+00 -0.33958169751E+03  0.33958169751E+03  0.00000000000E+00 0. -1.
   -9000010    2    1    2    0  502 -0.64228036612E+02  0.90385687427E+02  0.51862835688E+03  0.11329132111E+04  0.10011104625E+04 0.  0.
         13    1    3    3    0    0  0.24361094205E+03  0.20157124553E+03 -0.17826834418E+03  0.36298329412E+03  0.10566000000E+00 0. -1.
         -4    1    3    3    0  502 -0.30783897866E+03 -0.11118555810E+03  0.69689670106E+03  0.76992991698E+03  0.00000000000E+00 0. -1.
        -13    1    1    2    0    0  0.64228036612E+02 -0.90385687427E+02  0.62313356512E+02  0.12719189731E+03  0.10566000000E+00 0.  1.
<mgrwt>
<rscale>  1 0.58017978E+03</rscale>
<asrwt>0</asrwt>
<pdfrwt beam="1">  1       21 0.14161899E+00 0.10072323E+04</pdfrwt>
<pdfrwt beam="2">  1       -4 0.52243338E-01 0.10072323E+04</pdfrwt>
<totfact> 0.44610157E+01</totfact>
</mgrwt>
</event>
<event>
 6    2  0.2321478E-005  0.9997938E+03  0.7818608E-02  0.9932503E-01
         -4   -1    0    0    0  501 -0.00000000000E+00  0.00000000000E+00  0.24491441927E+03  0.24491441927E+03  0.00000000000E+00 0. -1.
         21   -1    0    0  501  502  0.00000000000E+00 -0.00000000000E+00 -0.12954429701E+04  0.12954429701E+04  0.00000000000E+00 0. -1.
   -9000010    2    1    2    0  502 -0.46525641663E+02 -0.10941408647E+03 -0.98970999718E+03  0.14068097002E+04  0.99269913690E+03 0.  0.
         13    1    3    3    0    0 -0.92786276290E+02  0.10207847288E+03 -0.11367593036E+04  0.11450987002E+04  0.10566000000E+00 0. -1.
         -4    1    3    3    0  502  0.46260634626E+02 -0.21149255935E+03  0.14704930646E+03  0.26171099997E+03  0.00000000000E+00 0. -1.
        -13    1    1    2    0    0  0.46525641663E+02  0.10941408647E+03 -0.60818553658E+02  0.13354768917E+03  0.10566000000E+00 0.  1.
<mgrwt>
<rscale>  1 0.58711610E+03</rscale>
<asrwt>0</asrwt>
<pdfrwt beam="2">  1       21 0.19929892E+00 0.99979381E+03</pdfrwt>
<pdfrwt beam="1">  1       -4 0.37679142E-01 0.99979381E+03</pdfrwt>
<totfact> 0.32332844E+01</totfact>
</mgrwt>
</event>
<event>
 6    2  0.2321478E-005  0.1011330E+04  0.7818608E-02  0.9956586E-01
         21   -1    0    0  501  502  0.00000000000E+00  0.00000000000E+00  0.17631954881E+04  0.17631954881E+04  0.00000000000E+00 0. -1.
         -4   -1    0    0    0  501 -0.00000000000E+00 -0.00000000000E+00 -0.57057363310E+03  0.57057363310E+03  0.00000000000E+00 0. -1.
   -9000010    2    1    2    0  502  0.88810171854E+02 -0.58569154115E+02  0.16109695109E+04  0.19021067939E+04  0.10057185977E+04 0.  0.
         13    1    3    3    0    0  0.50222765502E+03 -0.14269584282E+03  0.54044619098E+03  0.75144981039E+03  0.10566000000E+00 0. -1.
         -4    1    3    3    0  502 -0.41341748317E+03  0.84126688705E+02  0.10705233199E+04  0.11506569835E+04  0.00000000000E+00 0. -1.
        -13    1    1    2    0    0 -0.88810171854E+02  0.58569154115E+02 -0.41834765592E+03  0.43166232731E+03  0.10566000000E+00 0.  1.
<mgrwt>
<rscale>  1 0.57595538E+03</rscale>
<asrwt>0</asrwt>
<pdfrwt beam="1">  1       21 0.27126084E+00 0.10113296E+04</pdfrwt>
<pdfrwt beam="2">  1       -4 0.87780560E-01 0.10113296E+04</pdfrwt>
<totfact> 0.17576961E+00</totfact>
</mgrwt>
</event>
<event>
 6    2  0.2321478E-005  0.1026017E+04  0.7818608E-02  0.9644826E-01
         21   -1    0    0  501  502  0.00000000000E+00  0.00000000000E+00  0.20861444986E+03  0.20861444986E+03  0.00000000000E+00 0. -1.
         -4   -1    0    0    0  501 -0.00000000000E+00 -0.00000000000E+00 -0.22143201762E+04  0.22143201762E+04  0.00000000000E+00 0. -1.
   -9000010    2    1    2    0  502  0.28346120639E+03 -0.10742125037E+02 -0.12587774792E+04  0.16239556111E+04  0.98602506862E+03 0.  0.
         13    1    3    3    0    0 -0.32135561161E+03 -0.21417045288E+03 -0.52067951890E+03  0.64826351476E+03  0.10566000000E+00 0. -1.
         -4    1    3    3    0  502  0.60481681800E+03  0.20342832784E+03 -0.73809796026E+03  0.97569209633E+03  0.00000000000E+00 0. -1.
        -13    1    1    2    0    0 -0.28346120639E+03  0.10742125037E+02 -0.74692824712E+03  0.79897901493E+03  0.10566000000E+00 0.  1.
<mgrwt>
<rscale>  1 0.74399030E+03</rscale>
<asrwt>0</asrwt>
<pdfrwt beam="1">  1       21 0.32094529E-01 0.10260171E+04</pdfrwt>
<pdfrwt beam="2">  1       -4 0.34066466E+00 0.10260171E+04</pdfrwt>
<totfact> 0.65504810E+00</totfact>
</mgrwt>
</event>
<event>
 6    2  0.2321478E-005  0.1002810E+04  0.7818608E-02  0.1016924E+00
         -4   -1    0    0    0  501 -0.00000000000E+00  0.00000000000E+00  0.48529095319E+03  0.48529095319E+03  0.00000000000E+00 0. -1.
         21   -1    0    0  501  502  0.00000000000E+00 -0.00000000000E+00 -0.70861694950E+03  0.70861694950E+03  0.00000000000E+00 0. -1.
   -9000010    2    1    2    0  502 -0.56204080736E+02  0.32390537859E+01 -0.34446777490E+03  0.10603237276E+04  0.10012287297E+04 0.  0.
         13    1    3    3    0    0 -0.48890521927E+03  0.19764814455E+03 -0.15656950842E+03  0.55009737739E+03  0.10566000000E+00 0. -1.
         -4    1    3    3    0  502  0.43270113854E+03 -0.19440909077E+03 -0.18789826649E+03  0.51022635018E+03  0.00000000000E+00 0. -1.
        -13    1    1    2    0    0  0.56204080736E+02 -0.32390537859E+01  0.12114177859E+03  0.13358417513E+03  0.10566000000E+00 0.  1.
<mgrwt>
<rscale>  1 0.48813081E+03</rscale>
<asrwt>0</asrwt>
<pdfrwt beam="2">  1       21 0.10901799E+00 0.10028102E+04</pdfrwt>
<pdfrwt beam="1">  1       -4 0.74660147E-01 0.10028102E+04</pdfrwt>
<totfact> 0.40497182E+01</totfact>
</mgrwt>
</event>
<event>
 6    2  0.2321478E-005  0.1118494E+04  0.7818608E-02  0.9415579E-01
         21   -1    0    0  501  502  0.00000000000E+00  0.00000000000E+00  0.84976570090E+03  0.84976570090E+03  0.00000000000E+00 0. -1.
         -4   -1    0    0    0  501 -0.00000000000E+00 -0.00000000000E+00 -0.83281887290E+03  0.83281887290E+03  0.00000000000E+00 0. -1.
   -9000010    2    1    2    0  502 -0.39418169814E+03  0.28407936662E+03  0.24630038771E+03  0.11452919494E+04  0.10074470064E+04 0.  0.
         13    1    3    3    0    0  0.90256252087E+02  0.53993843217E+03  0.70504777870E+01  0.54747549897E+03  0.10566000000E+00 0. -1.
         -4    1    3    3    0  502 -0.48443795023E+03 -0.25585906555E+03  0.23924990993E+03  0.59781645046E+03  0.00000000000E+00 0. -1.
        -13    1    1    2    0    0  0.39418169814E+03 -0.28407936662E+03 -0.22935355972E+03  0.53729262437E+03  0.10566000000E+00 0.  1.
<mgrwt>
<rscale>  1 0.90804597E+03</rscale>
<asrwt>0</asrwt>
<pdfrwt beam="1">  1       21 0.13073318E+00 0.11184944E+04</pdfrwt>
<pdfrwt beam="2">  1       -4 0.12812598E+00 0.11184944E+04</pdfrwt>
<totfact> 0.68175049E+00</totfact>
</mgrwt>
</event>
<event>
 6    2  0.2321478E-005  0.9273937E+03  0.7818608E-02  0.9724627E-01
         21   -1    0    0  501  502  0.00000000000E+00  0.00000000000E+00  0.87066749887E+03  0.87066749887E+03  0.00000000000E+00 0. -1.
         -4   -1    0    0    0  501 -0.00000000000E+00 -0.00000000000E+00 -0.65325441237E+03  0.65325441237E+03  0.00000000000E+00 0. -1.
   -9000010    2    1    2    0  502 -0.22596262263E+03 -0.18758991212E+03  0.55159309306E+03  0.10790338692E+04  0.87966474790E+03 0.  0.
         13    1    3    3    0    0 -0.44555286354E+03  0.14553265053E+03  0.48508774151E+03  0.67454224086E+03  0.10566000000E+00 0. -1.
         -4    1    3    3    0  502  0.21959024090E+03 -0.33312256265E+03  0.66505351554E+02  0.40449162838E+03  0.00000000000E+00 0. -1.
        -13    1    1    2    0    0  0.22596262263E+03  0.18758991212E+03 -0.33418000656E+03  0.44488804199E+03  0.10566000000E+00 0.  1.
<mgrwt>
<rscale>  1 0.69569269E+03</rscale>
<asrwt>0</asrwt>
<pdfrwt beam="1">  1       21 0.13394885E+00 0.92739374E+03</pdfrwt>
<pdfrwt beam="2">  1       -4 0.10050068E+00 0.92739374E+03</pdfrwt>
<totfact> 0.11945487E+01</totfact>
</mgrwt>
</event>
<event>
 6    2  0.2321478E-005  0.1003263E+04  0.7818608E-02  0.9755481E-01
         21   -1    0    0  501  502  0.00000000000E+00  0.00000000000E+00  0.80268351409E+03  0.80268351409E+03  0.00000000000E+00 0. -1.
         -4   -1    0    0    0  501 -0.00000000000E+00 -0.00000000000E+00 -0.64135800950E+03  0.64135800950E+03  0.00000000000E+00 0. -1.
   -9000010    2    1    2    0  502 -0.14478959365E+03 -0.15120013274E+03  0.43998909092E+03  0.10955032731E+04  0.98117863542E+03 0.  0.
         13    1    3    3    0    0  0.22313254075E+03 -0.41589017571E+03  0.11993683925E+02  0.47211929490E+03  0.10566000000E+00 0. -1.
         -4    1    3    3    0  502 -0.36792213440E+03  0.26469004298E+03  0.42799540700E+03  0.62338397817E+03  0.00000000000E+00 0. -1.
        -13    1    1    2    0    0  0.14478959365E+03  0.15120013274E+03 -0.27866358633E+03  0.34853825052E+03  0.10566000000E+00 0.  1.
<mgrwt>
<rscale>  1 0.67807392E+03</rscale>
<asrwt>0</asrwt>
<pdfrwt beam="1">  1       21 0.12348977E+00 0.10032632E+04</pdfrwt>
<pdfrwt beam="2">  1       -4 0.98670463E-01 0.10032632E+04</pdfrwt>
<totfact> 0.15347108E+01</totfact>
</mgrwt>
</event>
<event>
 6    2  0.2321478E-005  0.1011204E+04  0.7818608E-02  0.9877338E-01
         -4   -1    0    0    0  501 -0.00000000000E+00  0.00000000000E+00  0.69932527508E+03  0.69932527508E+03  0.00000000000E+00 0. -1.
         21   -1    0    0  501  502  0.00000000000E+00 -0.00000000000E+00 -0.77436906831E+03  0.77436906831E+03  0.00000000000E+00 0. -1.
   -9000010    2    1    2    0  502 -0.50431162195E+02 -0.12760154542E+03 -0.42569503273E+03  0.10971551563E+04  0.10018521445E+04 0.  0.
         13    1    3    3    0    0 -0.42480437825E+03  0.60725016616E+02  0.84032482894E+02  0.43727309175E+03  0.10566000000E+00 0. -1.
         -4    1    3    3    0  502  0.37437321606E+03 -0.18832656203E+03 -0.50972751562E+03  0.65988206450E+03  0.00000000000E+00 0. -1.
        -13    1    1    2    0    0  0.50431162195E+02  0.12760154542E+03  0.35065123951E+03  0.37653918713E+03  0.10566000000E+00 0.  1.
<mgrwt>
<rscale>  1 0.61372279E+03</rscale>
<asrwt>0</asrwt>
<pdfrwt beam="2">  1       21 0.11913370E+00 0.10112038E+04</pdfrwt>
<pdfrwt beam="1">  1       -4 0.10758850E+00 0.10112038E+04</pdfrwt>
<totfact> 0.13646603E+01</totfact>
</mgrwt>
</event>
<event>
 6    2  0.2321478E-005  0.1101195E+04  0.7818608E-02  0.9448747E-01
         21   -1    0    0  501  502  0.00000000000E+00  0.00000000000E+00  0.49835160277E+03  0.49835160277E+03  0.00000000000E+00 0. -1.
         -4   -1    0    0    0  501 -0.00000000000E+00 -0.00000000000E+00 -0.12318324999E+04  0.12318324999E+04  0.00000000000E+00 0. -1.
   -9000010    2    1    2    0  502  0.44808571717E+03 -0.63637536078E+02 -0.41510132647E+03  0.11768342060E+04  0.10038919720E+04 0.  0.
         13    1    3    3    0    0  0.31268196109E+03 -0.10774015108E+02 -0.74951601512E+03  0.81219477730E+03  0.10566000000E+00 0. -1.
         -4    1    3    3    0  502  0.13540375607E+03 -0.52863520970E+02  0.33441468865E+03  0.36463942874E+03  0.00000000000E+00 0. -1.
        -13    1    1    2    0    0 -0.44808571717E+03  0.63637536078E+02 -0.31837957069E+03  0.55334989665E+03  0.10566000000E+00 0.  1.
<mgrwt>
<rscale>  1 0.88170319E+03</rscale>
<asrwt>0</asrwt>
<pdfrwt beam="1">  1       21 0.76669477E-01 0.11011946E+04</pdfrwt>
<pdfrwt beam="2">  1       -4 0.18951269E+00 0.11011946E+04</pdfrwt>
<totfact> 0.88128274E+00</totfact>
</mgrwt>
</event>
<event>
 6    2  0.2321478E-005  0.1061507E+04  0.7818608E-02  0.9607932E-01
         21   -1    0    0  501  502  0.00000000000E+00  0.00000000000E+00  0.28199940990E+03  0.28199940990E+03  0.00000000000E+00 0. -1.
         -4   -1    0    0    0  501 -0.00000000000E+00 -0.00000000000E+00 -0.25458369418E+04  0.25458369418E+04  0.00000000000E+00 0. -1.
   -9000010    2    1    2    0  502  0.28869001816E+03  0.31943552496E+02 -0.78368324271E+03  0.13194534268E+04  0.10209973572E+04 0.  0.
         13    1    3    3    0    0  0.44809832828E+03  0.43714656504E+03 -0.46939239604E+03  0.78244390454E+03  0.10566000000E+00 0. -1.
         -4    1    3    3    0  502 -0.15940831012E+03 -0.40520301255E+03 -0.31429084668E+03  0.53700952228E+03  0.00000000000E+00 0. -1.
        -13    1    1    2    0    0 -0.28869001816E+03 -0.31943552496E+02 -0.14801542892E+04  0.15083829249E+04  0.10566000000E+00 0.  1.
<mgrwt>
<rscale>  1 0.76773410E+03</rscale>
<asrwt>0</asrwt>
<pdfrwt beam="1">  1       21 0.43384526E-01 0.10615074E+04</pdfrwt>
<pdfrwt beam="2">  1       -4 0.39166721E+00 0.10615074E+04</pdfrwt>
<totfact> 0.16025331E+00</totfact>
</mgrwt>
</event>
<event>
 6    2  0.2321478E-005  0.1033061E+04  0.7818608E-02  0.9659578E-01
         -4   -1    0    0    0  501 -0.00000000000E+00  0.00000000000E+00  0.26360036882E+03  0.26360036882E+03  0.00000000000E+00 0. -1.
         21   -1    0    0  501  502  0.00000000000E+00 -0.00000000000E+00 -0.20157520705E+04  0.20157520705E+04  0.00000000000E+00 0. -1.
   -9000010    2    1    2    0  502 -0.21703637121E+03  0.15092743484E+03 -0.17288322054E+04  0.20139702864E+04  0.99866493040E+03 0.  0.
         13    1    3    3    0    0 -0.50394875609E+03  0.39953408678E+03 -0.94543594560E+03  0.11434338519E+04  0.10566000000E+00 0. -1.
         -4    1    3    3    0  502  0.28691238488E+03 -0.24860665195E+03 -0.78339625980E+03  0.87053643454E+03  0.00000000000E+00 0. -1.
        -13    1    1    2    0    0  0.21703637121E+03 -0.15092743484E+03 -0.23319496308E+02  0.26538215292E+03  0.10566000000E+00 0.  1.
<mgrwt>
<rscale>  1 0.73475353E+03</rscale>
<asrwt>0</asrwt>
<pdfrwt beam="2">  1       21 0.31011569E+00 0.10330612E+04</pdfrwt>
<pdfrwt beam="1">  1       -4 0.40553904E-01 0.10330612E+04</pdfrwt>
<totfact> 0.54040602E+00</totfact>
</mgrwt>
</event>
<event>
 6    2  0.2321478E-005  0.9497750E+03  0.7818608E-02  0.9953403E-01
         -4   -1    0    0    0  501 -0.00000000000E+00  0.00000000000E+00  0.91653112025E+03  0.91653112025E+03  0.00000000000E+00 0. -1.
         21   -1    0    0  501  502  0.00000000000E+00 -0.00000000000E+00 -0.34022993429E+03  0.34022993429E+03  0.00000000000E+00 0. -1.
   -9000010    2    1    2    0  502 -0.95475312670E+02  0.87853272307E+02  0.38329943139E+03  0.10242026292E+04  0.94087131887E+03 0.  0.
         13    1    3    3    0    0  0.21270609851E+03 -0.35139466909E+03  0.20269004320E+03  0.45804515343E+03  0.10566000000E+00 0. -1.
         -4    1    3    3    0  502 -0.30818141118E+03  0.43924794139E+03  0.18060938819E+03  0.56615747572E+03  0.00000000000E+00 0. -1.
        -13    1    1    2    0    0  0.95475312670E+02 -0.87853272307E+02  0.19300175457E+03  0.23255842538E+03  0.10566000000E+00 0.  1.
<mgrwt>
<rscale>  1 0.57741511E+03</rscale>
<asrwt>0</asrwt>
<pdfrwt beam="2">  1       21 0.52343067E-01 0.94977501E+03</pdfrwt>
<pdfrwt beam="1">  1       -4 0.14100479E+00 0.94977501E+03</pdfrwt>
<totfact> 0.48117476E+01</totfact>
</mgrwt>
</event>
<event>
 6    2  0.2321478E-005  0.1009510E+04  0.7818608E-02  0.9751748E-01
         21   -1    0    0  501  502  0.00000000000E+00  0.00000000000E+00  0.36948069282E+03  0.36948069282E+03  0.00000000000E+00 0. -1.
         -4   -1    0    0    0  501 -0.00000000000E+00 -0.00000000000E+00 -0.10931876850E+04  0.10931876850E+04  0.00000000000E+00 0. -1.
   -9000010    2    1    2    0  502  0.30245521782E+02  0.20583196558E+03 -0.41741697324E+03  0.10924047197E+04  0.98784085382E+03 0.  0.
         13    1    3    3    0    0 -0.25947010905E+03 -0.16879396058E+03 -0.52249726148E+03  0.60730514409E+03  0.10566000000E+00 0. -1.
         -4    1    3    3    0  502  0.28971563083E+03  0.37462592617E+03  0.10508028824E+03  0.48509957563E+03  0.00000000000E+00 0. -1.
        -13    1    1    2    0    0 -0.30245521782E+02 -0.20583196558E+03 -0.30629001898E+03  0.37026365813E+03  0.10566000000E+00 0.  1.
<mgrwt>
<rscale>  1 0.68017552E+03</rscale>
<asrwt>0</asrwt>
<pdfrwt beam="1">  1       21 0.56843184E-01 0.10095103E+04</pdfrwt>
<pdfrwt beam="2">  1       -4 0.16818272E+00 0.10095103E+04</pdfrwt>
<totfact> 0.24760672E+01</totfact>
</mgrwt>
</event>
<event>
 6    2  0.2321478E-005  0.1190846E+04  0.7818608E-02  0.9287995E-01
         21   -1    0    0  501  502  0.00000000000E+00  0.00000000000E+00  0.90950827516E+03  0.90950827516E+03  0.00000000000E+00 0. -1.
         -4   -1    0    0    0  501 -0.00000000000E+00 -0.00000000000E+00 -0.10508177909E+04  0.10508177909E+04  0.00000000000E+00 0. -1.
   -9000010    2    1    2    0  502  0.37150000261E+03 -0.51910825426E+03  0.24277186485E+03  0.12153400597E+04  0.10052997815E+04 0.  0.
         13    1    3    3    0    0  0.22506509471E+03 -0.37387881649E+03  0.63599342980E+03  0.77131531827E+03  0.10566000000E+00 0. -1.
         -4    1    3    3    0  502  0.14643490791E+03 -0.14522943777E+03 -0.39322156495E+03  0.44402474142E+03  0.00000000000E+00 0. -1.
        -13    1    1    2    0    0 -0.37150000261E+03  0.51910825426E+03 -0.38408138056E+03  0.74498600634E+03  0.10566000000E+00 0.  1.
<mgrwt>
<rscale>  1 0.10189565E+04</rscale>
<asrwt>0</asrwt>
<pdfrwt beam="1">  1       21 0.13992435E+00 0.11908456E+04</pdfrwt>
<pdfrwt beam="2">  1       -4 0.16166428E+00 0.11908456E+04</pdfrwt>
<totfact> 0.30310528E+00</totfact>
</mgrwt>
</event>
<event>
 6    2  0.2321478E-005  0.9113872E+03  0.7818608E-02  0.9820085E-01
         -4   -1    0    0    0  501 -0.00000000000E+00  0.00000000000E+00  0.41092882724E+03  0.41092882724E+03  0.00000000000E+00 0. -1.
         21   -1    0    0  501  502  0.00000000000E+00 -0.00000000000E+00 -0.83534265998E+03  0.83534265998E+03  0.00000000000E+00 0. -1.
   -9000010    2    1    2    0  502 -0.18973315432E+03  0.12232154755E+03 -0.45467428692E+03  0.10185063953E+04  0.88298660196E+03 0.  0.
         13    1    3    3    0    0 -0.54099523350E+03  0.71350381040E+01 -0.25075243784E+03  0.59632503526E+03  0.10566000000E+00 0. -1.
         -4    1    3    3    0  502  0.35126207918E+03  0.11518650945E+03 -0.20392184908E+03  0.42218136003E+03  0.00000000000E+00 0. -1.
        -13    1    1    2    0    0  0.18973315432E+03 -0.12232154755E+03  0.30260454175E+02  0.22776509192E+03  0.10566000000E+00 0.  1.
<mgrwt>
<rscale>  1 0.64295738E+03</rscale>
<asrwt>0</asrwt>
<pdfrwt beam="2">  1       21 0.12851425E+00 0.91138717E+03</pdfrwt>
<pdfrwt beam="1">  1       -4 0.63219820E-01 0.91138717E+03</pdfrwt>
<totfact> 0.38708768E+01</totfact>
</mgrwt>
</event>
<event>
 6    2  0.2321478E-005  0.1005126E+04  0.7818608E-02  0.9995370E-01
         -4   -1    0    0    0  501 -0.00000000000E+00  0.00000000000E+00  0.99463449066E+03  0.99463449066E+03  0.00000000000E+00 0. -1.
         21   -1    0    0  501  502  0.00000000000E+00 -0.00000000000E+00 -0.39619415647E+03  0.39619415647E+03  0.00000000000E+00 0. -1.
   -9000010    2    1    2    0  502  0.92917339258E+02  0.23487651443E+02  0.25877725521E+03  0.10379032725E+04  0.10005459677E+04 0.  0.
         13    1    3    3    0    0 -0.93719218301E+02 -0.25363995019E+02 -0.36878740811E+03  0.38135388770E+03  0.10566000000E+00 0. -1.
         -4    1    3    3    0  502  0.18663655756E+03  0.48851646462E+02  0.62756466332E+03  0.65654938476E+03  0.00000000000E+00 0. -1.
        -13    1    1    2    0    0 -0.92917339258E+02 -0.23487651443E+02  0.33966307898E+03  0.35292537468E+03  0.10566000000E+00 0.  1.
<mgrwt>
<rscale>  1 0.55853707E+03</rscale>
<asrwt>0</asrwt>
<pdfrwt beam="2">  1       21 0.60952947E-01 0.10051256E+04</pdfrwt>
<pdfrwt beam="1">  1       -4 0.15302069E+00 0.10051256E+04</pdfrwt>
<totfact> 0.27520998E+01</totfact>
</mgrwt>
</event>
<event>
 6    2  0.2321478E-005  0.1004575E+04  0.7818608E-02  0.9905997E-01
         21   -1    0    0  501  502  0.00000000000E+00  0.00000000000E+00  0.11815725249E+04  0.11815725249E+04  0.00000000000E+00 0. -1.
         -4   -1    0    0    0  501 -0.00000000000E+00 -0.00000000000E+00 -0.51843302529E+03  0.51843302529E+03  0.00000000000E+00 0. -1.
   -9000010    2    1    2    0  502  0.22024363755E+02  0.12567948427E+03  0.95213258418E+03  0.13840982545E+04  0.99643921786E+03 0.  0.
         13    1    3    3    0    0 -0.24956943896E+03 -0.16113565304E+03 -0.55141776218E+02  0.30214273149E+03  0.10566000000E+00 0. -1.
         -4    1    3    3    0  502  0.27159380271E+03  0.28681513731E+03  0.10072743604E+04  0.10819555230E+04  0.00000000000E+00 0. -1.
        -13    1    1    2    0    0 -0.22024363755E+02 -0.12567948427E+03 -0.28899308458E+03  0.31590729568E+03  0.10566000000E+00 0.  1.
<mgrwt>
<rscale>  1 0.59971520E+03</rscale>
<asrwt>0</asrwt>
<pdfrwt beam="1">  1       21 0.18178039E+00 0.10045753E+04</pdfrwt>
<pdfrwt beam="2">  1       -4 0.79758927E-01 0.10045753E+04</pdfrwt>
<totfact> 0.85700000E+00</totfact>
</mgrwt>
</event>
