<event>
 8    1  0.1439553E-005  0.1115062E+04  0.7818608E-02  0.8673423E-01
         -2   -1    0    0    0  501 -0.00000000000E+00  0.00000000000E+00  0.44340762589E+03  0.44340762589E+03  0.00000000000E+00 0. -1.
          2   -1    0    0  502    0  0.00000000000E+00 -0.00000000000E+00 -0.28451035149E+04  0.28451035149E+04  0.00000000000E+00 0.  1.
    9000010    2    1    2  502    0 -0.50418226200E+03  0.26657564290E+02 -0.10142898248E+04  0.15145817754E+04  0.10051187625E+04 0.  0.
   -9000010    2    1    2    0  501  0.50418226200E+03 -0.26657564290E+02 -0.13874060642E+04  0.17739293653E+04  0.98337145936E+03 0.  0.
        -13    1    3    3    0    0 -0.60150252065E+02 -0.20049679362E+03  0.14359501488E+03  0.25384356706E+03  0.10566000000E+00 0.  1.
          4    1    3    3  502    0 -0.44403200993E+03  0.22715435791E+03 -0.11578848397E+04  0.12607382084E+04  0.00000000000E+00 0.  1.
         13    1    4    4    0    0 -0.13886244275E+02  0.23009298578E+03 -0.11080628736E+04  0.11317857363E+04  0.10566000000E+00 0. -1.
         -4    1    4    4    0  501  0.51806850627E+03 -0.25675055007E+03 -0.27934319063E+03  0.64214362903E+03  0.00000000000E+00 0. -1.
<mgrwt>
<rscale>  2 0.11150623E+04</rscale>
<asrwt>0</asrwt>
<pdfrwt beam="2">  1        2 0.43770824E+00 0.11150623E+04</pdfrwt>
<pdfrwt beam="1">  1       -2 0.68216557E-01 0.11150623E+04</pdfrwt>
<totfact> 0.66458917E+00</totfact>
</mgrwt>
</event>
<event>
 8    1  0.1439553E-005  0.1549557E+04  0.7818608E-02  0.8381537E-01
          2   -1    0    0  502    0  0.00000000000E+00  0.00000000000E+00  0.22043870522E+04  0.22043870522E+04  0.00000000000E+00 0.  1.
         -2   -1    0    0    0  501 -0.00000000000E+00 -0.00000000000E+00 -0.11496582441E+04  0.11496582441E+04  0.00000000000E+00 0. -1.
    9000010    2    1    2  502    0  0.44752932326E+03 -0.10947187234E+04  0.91239269382E+03  0.17998550107E+04  0.10041543971E+04 0.  0.
   -9000010    2    1    2    0  501 -0.44752932326E+03  0.10947187234E+04  0.14233611423E+03  0.15541902856E+04  0.99827666303E+03 0.  0.
        -13    1    3    3    0    0 -0.29747462041E+03 -0.11196451917E+03  0.20332607640E+03  0.37731778098E+03  0.10566000000E+00 0.  1.
          4    1    3    3  502    0  0.74500394366E+03 -0.98275420421E+03  0.70906661742E+03  0.14225372297E+04  0.00000000000E+00 0.  1.
         13    1    4    4    0    0  0.28827224863E+03  0.21741919458E+03 -0.11816862676E+03  0.37991555774E+03  0.10566000000E+00 0. -1.
         -4    1    4    4    0  501 -0.73580157188E+03  0.87729952880E+03  0.26050474099E+03  0.11742747279E+04  0.00000000000E+00 0. -1.
<mgrwt>
<rscale>  2 0.15495566E+04</rscale>
<asrwt>0</asrwt>
<pdfrwt beam="1">  1        2 0.33913647E+00 0.15495566E+04</pdfrwt>
<pdfrwt beam="2">  1       -2 0.17687050E+00 0.15495566E+04</pdfrwt>
<totfact> 0.12286537E+00</totfact>
</mgrwt>
</event>
<event>
 8    1  0.1439553E-005  0.1522586E+04  0.7818608E-02  0.8396618E-01
         -2   -1    0    0    0  501 -0.00000000000E+00  0.00000000000E+00  0.20381593294E+04  0.20381593294E+04  0.00000000000E+00 0. -1.
          2   -1    0    0  502    0  0.00000000000E+00 -0.00000000000E+00 -0.12307149980E+04  0.12307149980E+04  0.00000000000E+00 0.  1.
    9000010    2    1    2  502    0  0.90182715813E+03  0.71366363030E+03  0.85394419050E+03  0.17465786458E+04  0.99935393391E+03 0.  0.
   -9000010    2    1    2    0  501 -0.90182715813E+03 -0.71366363030E+03 -0.46499859127E+02  0.15222956815E+04  0.99630010780E+03 0.  0.
        -13    1    3    3    0    0  0.28649808481E+03  0.14429505284E+03 -0.21643818577E+03  0.38697249811E+03  0.10566000000E+00 0.  1.
          4    1    3    3  502    0  0.61532907333E+03  0.56936857746E+03  0.10703823763E+04  0.13596061477E+04  0.00000000000E+00 0.  1.
         13    1    4    4    0    0 -0.36851752977E+03 -0.20090485204E+03  0.46229092011E+03  0.62440438444E+03  0.10566000000E+00 0. -1.
         -4    1    4    4    0  501 -0.53330962836E+03 -0.51275877826E+03 -0.50879077924E+03  0.89789129711E+03  0.00000000000E+00 0. -1.
<mgrwt>
<rscale>  2 0.15225857E+04</rscale>
<asrwt>0</asrwt>
<pdfrwt beam="2">  1        2 0.18934077E+00 0.15225857E+04</pdfrwt>
<pdfrwt beam="1">  1       -2 0.31356297E+00 0.15225857E+04</pdfrwt>
<totfact> 0.37400291E-01</totfact>
</mgrwt>
</event>
<event>
 8    1  0.1439553E-005  0.1408373E+04  0.7818608E-02  0.8464264E-01
         -2   -1    0    0    0  501 -0.00000000000E+00  0.00000000000E+00  0.12503538658E+04  0.12503538658E+04  0.00000000000E+00 0. -1.
          2   -1    0    0  502    0  0.00000000000E+00 -0.00000000000E+00 -0.20502353190E+04  0.20502353190E+04  0.00000000000E+00 0.  1.
    9000010    2    1    2  502    0 -0.94295807795E+03  0.34473175472E+03 -0.11849901408E+04  0.18408110338E+04  0.98811624267E+03 0.  0.
   -9000010    2    1    2    0  501  0.94295807795E+03 -0.34473175472E+03  0.38510868760E+03  0.14597781510E+04  0.98723534655E+03 0.  0.
        -13    1    3    3    0    0 -0.10898368126E+04  0.65035187349E+02 -0.88981235891E+03  0.14084530162E+04  0.10566000000E+00 0.  1.
          4    1    3    3  502    0  0.14687873463E+03  0.27969656737E+03 -0.29517778185E+03  0.43235801760E+03  0.00000000000E+00 0.  1.
         13    1    4    4    0    0  0.35093719369E+03  0.28211711827E+03  0.39279059686E+03  0.59752108455E+03  0.10566000000E+00 0. -1.
         -4    1    4    4    0  501  0.59202088426E+03 -0.62684887298E+03 -0.76819092591E+01  0.86225706648E+03  0.00000000000E+00 0. -1.
<mgrwt>
<rscale>  2 0.14083726E+04</rscale>
<asrwt>0</asrwt>
<pdfrwt beam="2">  1        2 0.31542082E+00 0.14083726E+04</pdfrwt>
<pdfrwt beam="1">  1       -2 0.19236213E+00 0.14083726E+04</pdfrwt>
<totfact> 0.11255370E+00</totfact>
</mgrwt>
</event>
<event>
 8    1  0.1439553E-005  0.1300433E+04  0.7818608E-02  0.8534543E-01
          2   -1    0    0  502    0  0.00000000000E+00  0.00000000000E+00  0.22160168934E+04  0.22160168934E+04  0.00000000000E+00 0. -1.
         -2   -1    0    0    0  501 -0.00000000000E+00 -0.00000000000E+00 -0.77201367112E+03  0.77201367112E+03  0.00000000000E+00 0.  1.
    9000010    2    1    2  502    0  0.29428655045E+02  0.84616454892E+03  0.55692435779E+03  0.14058979943E+04  0.97443519044E+03 0.  0.
   -9000010    2    1    2    0  501 -0.29428655045E+02 -0.84616454892E+03  0.88707886451E+03  0.15821325703E+04  0.99968698527E+03 0.  0.
        -13    1    3    3    0    0 -0.42011559196E+03  0.42796272206E+03  0.51498151293E+03  0.79047781240E+03  0.10566000000E+00 0.  1.
          4    1    3    3  502    0  0.44954424700E+03  0.41820182686E+03  0.41942844865E+02  0.61542018185E+03  0.00000000000E+00 0.  1.
         13    1    4    4    0    0 -0.46146456933E+03 -0.21731678496E+03  0.54355560723E+03  0.74540515365E+03  0.10566000000E+00 0. -1.
         -4    1    4    4    0  501  0.43203591428E+03 -0.62884776396E+03  0.34352325728E+03  0.83672741664E+03  0.00000000000E+00 0. -1.
<mgrwt>
<rscale>  2 0.13004329E+04</rscale>
<asrwt>0</asrwt>
<pdfrwt beam="1">  1        2 0.34092567E+00 0.13004329E+04</pdfrwt>
<pdfrwt beam="2">  1       -2 0.11877134E+00 0.13004329E+04</pdfrwt>
<totfact> 0.40967034E+00</totfact>
</mgrwt>
</event>
<event>
 8    1  0.1439553E-005  0.1405120E+04  0.7818608E-02  0.8466286E-01
          1   -1    0    0  502    0  0.00000000000E+00  0.00000000000E+00  0.15987296359E+04  0.15987296359E+04  0.00000000000E+00 0. -1.
         -1   -1    0    0    0  501 -0.00000000000E+00 -0.00000000000E+00 -0.12628757304E+04  0.12628757304E+04  0.00000000000E+00 0.  1.
    9000010    2    1    2  502    0  0.95955353067E+03  0.23206562488E+03  0.38193699404E+03  0.14722528334E+04  0.10232571063E+04 0.  0.
   -9000010    2    1    2    0  501 -0.95955353067E+03 -0.23206562488E+03 -0.46083088546E+02  0.13893525328E+04  0.97651388982E+03 0.  0.
        -13    1    3    3    0    0  0.49118236104E+03  0.37388058241E+03 -0.25597047014E+03  0.66825720680E+03  0.10566000000E+00 0.  1.
          4    1    3    3  502    0  0.46837116963E+03 -0.14181495754E+03  0.63790746419E+03  0.80399562660E+03  0.00000000000E+00 0.  1.
         13    1    4    4    0    0 -0.10476972148E+04  0.29099293688E+02  0.13908998300E+03  0.10572900535E+04  0.10566000000E+00 0. -1.
         -4    1    4    4    0  501  0.88143684124E+02 -0.26116491856E+03 -0.18517307155E+03  0.33206247931E+03  0.00000000000E+00 0. -1.
<mgrwt>
<rscale>  2 0.14051198E+04</rscale>
<asrwt>0</asrwt>
<pdfrwt beam="1">  1        1 0.24595840E+00 0.14051198E+04</pdfrwt>
<pdfrwt beam="2">  1       -1 0.19428857E+00 0.14051198E+04</pdfrwt>
<totfact> 0.10872169E+00</totfact>
</mgrwt>
</event>
<event>
 8    1  0.1439553E-005  0.1154051E+04  0.7818608E-02  0.8641990E-01
         -2   -1    0    0    0  501 -0.00000000000E+00  0.00000000000E+00  0.26218506816E+03  0.26218506816E+03  0.00000000000E+00 0.  1.
          2   -1    0    0  502    0  0.00000000000E+00 -0.00000000000E+00 -0.51296762999E+04  0.51296762999E+04  0.00000000000E+00 0. -1.
    9000010    2    1    2  502    0  0.59012821821E+03  0.18562330384E+03 -0.26532063301E+04  0.28853819102E+04  0.95037761564E+03 0.  0.
   -9000010    2    1    2    0  501 -0.59012821821E+03 -0.18562330384E+03 -0.22142849016E+04  0.25064794580E+04  0.99833577650E+03 0.  0.
        -13    1    3    3    0    0 -0.18701013486E+03  0.47113548990E+02 -0.10899316565E+03  0.22152200424E+03  0.10566000000E+00 0.  1.
          4    1    3    3  502    0  0.77713835307E+03  0.13850975485E+03 -0.25442131645E+04  0.26638599059E+04  0.00000000000E+00 0.  1.
         13    1    4    4    0    0 -0.33181037609E+03 -0.31226497951E+03 -0.24702363995E+03  0.51829357797E+03  0.10566000000E+00 0. -1.
         -4    1    4    4    0  501 -0.25831784212E+03  0.12664167568E+03 -0.19672612617E+04  0.19881858800E+04  0.00000000000E+00 0. -1.
<mgrwt>
<rscale>  2 0.11540510E+04</rscale>
<asrwt>0</asrwt>
<pdfrwt beam="2">  1        2 0.78918098E+00 0.11540510E+04</pdfrwt>
<pdfrwt beam="1">  1       -2 0.40336164E-01 0.11540510E+04</pdfrwt>
<totfact> 0.26980835E-01</totfact>
</mgrwt>
</event>
<event>
 8    1  0.1439553E-005  0.1249456E+04  0.7818608E-02  0.8570223E-01
         -4   -1    0    0    0  501 -0.00000000000E+00  0.00000000000E+00  0.23665959270E+04  0.23665959270E+04  0.00000000000E+00 0. -1.
          4   -1    0    0  502    0  0.00000000000E+00 -0.00000000000E+00 -0.94591094504E+03  0.94591094504E+03  0.00000000000E+00 0.  1.
    9000010    2    1    2  502    0 -0.71416336729E+03  0.27417424826E+03 -0.19727169598E+03  0.12735463928E+04  0.99890112574E+03 0.  0.
   -9000010    2    1    2    0  501  0.71416336729E+03 -0.27417424826E+03  0.16179566779E+04  0.20389604792E+04  0.97692128166E+03 0.  0.
        -13    1    3    3    0    0 -0.22638597763E+02 -0.29410521673E+03 -0.23581306152E+03  0.37764824343E+03  0.10566000000E+00 0.  1.
          4    1    3    3  502    0 -0.69152476953E+03  0.56827946500E+03  0.38541365534E+02  0.89589814938E+03  0.00000000000E+00 0.  1.
         13    1    4    4    0    0 -0.11684410205E+03 -0.12083678829E+03  0.94186688138E+03  0.95674829866E+03  0.10566000000E+00 0. -1.
         -4    1    4    4    0  501  0.83100746934E+03 -0.15333745998E+03  0.67608979654E+03  0.10822121805E+04  0.00000000000E+00 0. -1.
<mgrwt>
<rscale>  2 0.12494555E+04</rscale>
<asrwt>0</asrwt>
<pdfrwt beam="2">  1        4 0.14552476E+00 0.12494555E+04</pdfrwt>
<pdfrwt beam="1">  1       -4 0.36409168E+00 0.12494555E+04</pdfrwt>
<totfact> 0.10042705E-01</totfact>
</mgrwt>
</event>
<event>
 8    1  0.1439553E-005  0.1601516E+04  0.7818608E-02  0.8353358E-01
         -2   -1    0    0    0  501 -0.00000000000E+00  0.00000000000E+00  0.97689981215E+03  0.97689981215E+03  0.00000000000E+00 0. -1.
          2   -1    0    0  502    0  0.00000000000E+00 -0.00000000000E+00 -0.27034403335E+04  0.27034403335E+04  0.00000000000E+00 0.  1.
    9000010    2    1    2  502    0 -0.89655808510E+03  0.89820599559E+03 -0.55497335584E+03  0.17022222960E+04  0.98943160899E+03 0.  0.
   -9000010    2    1    2    0  501  0.89655808510E+03 -0.89820599559E+03 -0.11715671655E+04  0.19781178496E+04  0.96425629021E+03 0.  0.
        -13    1    3    3    0    0 -0.45938036348E+03 -0.20856565995E+02  0.12705647852E+03  0.47708350904E+03  0.10566000000E+00 0.  1.
          4    1    3    3  502    0 -0.43717772162E+03  0.91906256159E+03 -0.68202983437E+03  0.12251387870E+04  0.00000000000E+00 0.  1.
         13    1    4    4    0    0  0.10344853731E+04 -0.47151848895E+03 -0.74515701869E+03  0.13593191922E+04  0.10566000000E+00 0. -1.
         -4    1    4    4    0  501 -0.13792728803E+03 -0.42668750665E+03 -0.42641014679E+03  0.61879865740E+03  0.00000000000E+00 0. -1.
<mgrwt>
<rscale>  2 0.16015165E+04</rscale>
<asrwt>0</asrwt>
<pdfrwt beam="2">  1        2 0.41591389E+00 0.16015165E+04</pdfrwt>
<pdfrwt beam="1">  1       -2 0.15029228E+00 0.16015165E+04</pdfrwt>
<totfact> 0.10824594E+00</totfact>
</mgrwt>
</event>
<event>
 8    1  0.1439553E-005  0.1077097E+04  0.7818608E-02  0.8705345E-01
          1   -1    0    0  502    0  0.00000000000E+00  0.00000000000E+00  0.11700720981E+04  0.11700720981E+04  0.00000000000E+00 0. -1.
         -1   -1    0    0    0  501 -0.00000000000E+00 -0.00000000000E+00 -0.11273017523E+04  0.11273017523E+04  0.00000000000E+00 0.  1.
    9000010    2    1    2  502    0  0.35359400174E+03  0.21358349184E+03  0.42008759623E+03  0.11578474214E+04  0.99673990425E+03 0.  0.
   -9000010    2    1    2    0  501 -0.35359400174E+03 -0.21358349184E+03 -0.37731725038E+03  0.11395264290E+04  0.99272632121E+03 0.  0.
        -13    1    3    3    0    0  0.76512014392E+02  0.12049972778E+03 -0.32636016736E+03  0.35620954892E+03  0.10566000000E+00 0.  1.
          4    1    3    3  502    0  0.27708198735E+03  0.93083764069E+02  0.74644776359E+03  0.80163787249E+03  0.00000000000E+00 0.  1.
         13    1    4    4    0    0 -0.34018760175E+03 -0.20172073677E+03  0.27834063332E+03  0.48362421295E+03  0.10566000000E+00 0. -1.
         -4    1    4    4    0  501 -0.13406399991E+02 -0.11862755074E+02 -0.65565788370E+03  0.65590221602E+03  0.00000000000E+00 0. -1.
<mgrwt>
<rscale>  2 0.10770969E+04</rscale>
<asrwt>0</asrwt>
<pdfrwt beam="1">  1        1 0.18001109E+00 0.10770969E+04</pdfrwt>
<pdfrwt beam="2">  1       -1 0.17343104E+00 0.10770969E+04</pdfrwt>
<totfact> 0.36279941E+00</totfact>
</mgrwt>
</event>
<event>
 8    1  0.1439553E-005  0.1130892E+04  0.7818608E-02  0.8660502E-01
         -2   -1    0    0    0  501 -0.00000000000E+00  0.00000000000E+00  0.81368800418E+03  0.81368800418E+03  0.00000000000E+00 0.  1.
          2   -1    0    0  502    0  0.00000000000E+00 -0.00000000000E+00 -0.16445445792E+04  0.16445445792E+04  0.00000000000E+00 0. -1.
    9000010    2    1    2  502    0  0.26463426967E+03  0.24458065679E+03 -0.68646280239E+03  0.13722769884E+04  0.11322817492E+04 0.  0.
   -9000010    2    1    2    0  501 -0.26463426967E+03 -0.24458065679E+03 -0.14439377258E+03  0.10859555949E+04  0.10141986976E+04 0.  0.
        -13    1    3    3    0    0  0.22913207375E+03 -0.39629476662E+03 -0.55088231999E+03  0.71625581387E+03  0.10566000000E+00 0.  1.
          4    1    3    3  502    0  0.35502195927E+02  0.64087542341E+03 -0.13558048241E+03  0.65602117455E+03  0.00000000000E+00 0.  1.
         13    1    4    4    0    0  0.18507614148E+03 -0.49374319983E+03 -0.21019058220E+03  0.56764039456E+03  0.10566000000E+00 0. -1.
         -4    1    4    4    0  501 -0.44971041115E+03  0.24916254304E+03  0.65796809621E+02  0.51831520035E+03  0.00000000000E+00 0. -1.
<mgrwt>
<rscale>  2 0.11308924E+04</rscale>
<asrwt>0</asrwt>
<pdfrwt beam="2">  1        2 0.25300686E+00 0.11308924E+04</pdfrwt>
<pdfrwt beam="1">  1       -2 0.12518277E+00 0.11308924E+04</pdfrwt>
<totfact> 0.74312713E+00</totfact>
</mgrwt>
</event>
<event>
 8    1  0.1439553E-005  0.1331749E+04  0.7818608E-02  0.8513450E-01
         -2   -1    0    0    0  501 -0.00000000000E+00  0.00000000000E+00  0.16762828472E+04  0.16762828472E+04  0.00000000000E+00 0.  1.
          2   -1    0    0  502    0  0.00000000000E+00 -0.00000000000E+00 -0.10630094512E+04  0.10630094512E+04  0.00000000000E+00 0. -1.
    9000010    2    1    2  502    0 -0.32519077341E+02 -0.88596416792E+03  0.21314535274E+03  0.13497738639E+04  0.99522286202E+03 0.  0.
   -9000010    2    1    2    0  501  0.32519077341E+02  0.88596416792E+03  0.40012804330E+03  0.13895184345E+04  0.99230490851E+03 0.  0.
        -13    1    3    3    0    0  0.16360677506E+02 -0.37317990792E+03 -0.40112034184E+03  0.54811354230E+03  0.10566000000E+00 0.  1.
          4    1    3    3  502    0 -0.48879754847E+02 -0.51278426000E+03  0.61426569457E+03  0.80166032162E+03  0.00000000000E+00 0.  1.
         13    1    4    4    0    0  0.50690500624E+03  0.39434631666E+03  0.25557430903E+03  0.69121627687E+03  0.10566000000E+00 0. -1.
         -4    1    4    4    0  501 -0.47438592890E+03  0.49161785127E+03  0.14455373427E+03  0.69830215760E+03  0.00000000000E+00 0. -1.
<mgrwt>
<rscale>  2 0.13317494E+04</rscale>
<asrwt>0</asrwt>
<pdfrwt beam="2">  1        2 0.16353992E+00 0.13317494E+04</pdfrwt>
<pdfrwt beam="1">  1       -2 0.25788967E+00 0.13317494E+04</pdfrwt>
<totfact> 0.11964541E+00</totfact>
</mgrwt>
</event>
<event>
 8    1  0.1439553E-005  0.1073563E+04  0.7818608E-02  0.8708386E-01
         -2   -1    0    0    0  501 -0.00000000000E+00  0.00000000000E+00  0.54029080790E+03  0.54029080790E+03  0.00000000000E+00 0.  1.
          2   -1    0    0  502    0  0.00000000000E+00 -0.00000000000E+00 -0.30694236300E+04  0.30694236300E+04  0.00000000000E+00 0. -1.
    9000010    2    1    2  502    0 -0.17921294631E+03 -0.33888463073E+03 -0.27316822318E+03  0.11141243931E+04  0.10097981046E+04 0.  0.
   -9000010    2    1    2    0  501  0.17921294631E+03  0.33888463073E+03 -0.22559645989E+04  0.24955900448E+04  0.99580787661E+03 0.  0.
        -13    1    3    3    0    0  0.30530513988E+03 -0.23391416160E+03 -0.44615571853E+03  0.58905178022E+03  0.10566000000E+00 0.  1.
          4    1    3    3  502    0 -0.48451808619E+03 -0.10497046914E+03  0.17298749535E+03  0.52507261287E+03  0.00000000000E+00 0.  1.
         13    1    4    4    0    0  0.38493249324E+03 -0.26754695872E+02 -0.19192126454E+04  0.19576174365E+04  0.10566000000E+00 0. -1.
         -4    1    4    4    0  501 -0.20571954692E+03  0.36563932661E+03 -0.33675195354E+03  0.53797260837E+03  0.00000000000E+00 0. -1.
<mgrwt>
<rscale>  2 0.10735630E+04</rscale>
<asrwt>0</asrwt>
<pdfrwt beam="2">  1        2 0.47221902E+00 0.10735630E+04</pdfrwt>
<pdfrwt beam="1">  1       -2 0.83121662E-01 0.10735630E+04</pdfrwt>
<totfact> 0.31886455E+00</totfact>
</mgrwt>
</event>
<event>
 8    1  0.1439553E-005  0.1147064E+04  0.7818608E-02  0.8647527E-01
          2   -1    0    0  502    0  0.00000000000E+00  0.00000000000E+00  0.23668678878E+04  0.23668678878E+04  0.00000000000E+00 0. -1.
         -2   -1    0    0    0  501 -0.00000000000E+00 -0.00000000000E+00 -0.57721389835E+03  0.57721389835E+03  0.00000000000E+00 0.  1.
    9000010    2    1    2  502    0  0.20860642939E+02 -0.56858474839E+03  0.61099177085E+03  0.12984515057E+04  0.99445542188E+03 0.  0.
   -9000010    2    1    2    0  501 -0.20860642939E+02  0.56858474839E+03  0.11786622186E+04  0.16456302804E+04  0.99756233481E+03 0.  0.
        -13    1    3    3    0    0 -0.21428224801E+03 -0.65116829082E+03  0.74753832316E+03  0.10142734249E+04  0.10566000000E+00 0.  1.
          4    1    3    3  502    0  0.23514289095E+03  0.82583542431E+02 -0.13654655231E+03  0.28417808077E+03  0.00000000000E+00 0.  1.
         13    1    4    4    0    0 -0.24623062902E+03 -0.20818967685E+03  0.47184231195E+03  0.57149596912E+03  0.10566000000E+00 0. -1.
         -4    1    4    4    0  501  0.22536998608E+03  0.77677442523E+03  0.70681990664E+03  0.10741343113E+04  0.00000000000E+00 0. -1.
<mgrwt>
<rscale>  2 0.11470642E+04</rscale>
<asrwt>0</asrwt>
<pdfrwt beam="1">  1        2 0.36413352E+00 0.11470642E+04</pdfrwt>
<pdfrwt beam="2">  1       -2 0.88802139E-01 0.11470642E+04</pdfrwt>
<totfact> 0.70051643E+00</totfact>
</mgrwt>
</event>
<event>
 8    1  0.1439553E-005  0.1273575E+04  0.7818608E-02  0.8553126E-01
          1   -1    0    0  502    0  0.00000000000E+00  0.00000000000E+00  0.16070028772E+04  0.16070028772E+04  0.00000000000E+00 0.  1.
         -1   -1    0    0    0  501 -0.00000000000E+00 -0.00000000000E+00 -0.10120549021E+04  0.10120549021E+04  0.00000000000E+00 0. -1.
    9000010    2    1    2  502    0  0.18463263804E+03  0.75640722372E+03  0.22863419387E+03  0.12896120126E+04  0.10022896035E+04 0.  0.
   -9000010    2    1    2    0  501 -0.18463263804E+03 -0.75640722372E+03  0.36631378122E+03  0.13294457666E+04  0.10134096709E+04 0.  0.
        -13    1    3    3    0    0 -0.16955874669E+02  0.52640750239E+03 -0.35191319403E+03  0.63343134400E+03  0.10566000000E+00 0.  1.
          4    1    3    3  502    0  0.20158851271E+03  0.22999972132E+03  0.58054738791E+03  0.65618066862E+03  0.00000000000E+00 0.  1.
         13    1    4    4    0    0  0.31992467230E+03 -0.56620836351E+03  0.44002227165E+03  0.78521545932E+03  0.10566000000E+00 0. -1.
         -4    1    4    4    0  501 -0.50455731034E+03 -0.19019886021E+03 -0.73708490430E+02  0.54423030732E+03  0.00000000000E+00 0. -1.
<mgrwt>
<rscale>  2 0.12735754E+04</rscale>
<asrwt>0</asrwt>
<pdfrwt beam="1">  1        1 0.24723121E+00 0.12735754E+04</pdfrwt>
<pdfrwt beam="2">  1       -1 0.15570075E+00 0.12735754E+04</pdfrwt>
<totfact> 0.23676776E+00</totfact>
</mgrwt>
</event>
<event>
 8    1  0.1439553E-005  0.1361976E+04  0.7818608E-02  0.8493650E-01
         -1   -1    0    0    0  501 -0.00000000000E+00  0.00000000000E+00  0.13734730244E+04  0.13734730244E+04  0.00000000000E+00 0.  1.
          1   -1    0    0  502    0  0.00000000000E+00 -0.00000000000E+00 -0.13792985323E+04  0.13792985323E+04  0.00000000000E+00 0. -1.
    9000010    2    1    2  502    0  0.46244418717E+01  0.92098494223E+03  0.19565546697E+03  0.13800728448E+04  0.10090021535E+04 0.  0.
   -9000010    2    1    2    0  501 -0.46244418717E+01 -0.92098494223E+03 -0.20148097488E+03  0.13726987119E+04  0.99773369252E+03 0.  0.
        -13    1    3    3    0    0  0.18553327310E+03  0.12555013714E+03 -0.33783709120E+03  0.40536322442E+03  0.10566000000E+00 0.  1.
          4    1    3    3  502    0 -0.18090883123E+03  0.79543480509E+03  0.53349255817E+03  0.97470962034E+03  0.00000000000E+00 0.  1.
         13    1    4    4    0    0 -0.74049747701E+02 -0.77297200849E+03  0.30971411172E+03  0.83599756770E+03  0.10566000000E+00 0. -1.
         -4    1    4    4    0  501  0.69425305830E+02 -0.14801293374E+03 -0.51119508659E+03  0.53670114421E+03  0.00000000000E+00 0. -1.
<mgrwt>
<rscale>  2 0.13619762E+04</rscale>
<asrwt>0</asrwt>
<pdfrwt beam="2">  1        1 0.21219977E+00 0.13619762E+04</pdfrwt>
<pdfrwt beam="1">  1       -1 0.21130354E+00 0.13619762E+04</pdfrwt>
<totfact> 0.11192023E+00</totfact>
</mgrwt>
</event>
<event>
 8    1  0.1439553E-005  0.1252147E+04  0.7818608E-02  0.8568296E-01
         -1   -1    0    0    0  501 -0.00000000000E+00  0.00000000000E+00  0.12627118139E+04  0.12627118139E+04  0.00000000000E+00 0. -1.
          1   -1    0    0  502    0  0.00000000000E+00 -0.00000000000E+00 -0.13881687288E+04  0.13881687288E+04  0.00000000000E+00 0.  1.
    9000010    2    1    2  502    0  0.27737730539E+02 -0.77891281073E+03  0.36703406321E+03  0.13176093622E+04  0.99694828327E+03 0.  0.
   -9000010    2    1    2    0  501 -0.27737730539E+02  0.77891281073E+03 -0.49249097812E+03  0.13332711804E+04  0.96311480550E+03 0.  0.
        -13    1    3    3    0    0  0.43574604013E+03 -0.63606843058E+03  0.42671721627E+03  0.88121805116E+03  0.10566000000E+00 0.  1.
          4    1    3    3  502    0 -0.40800830959E+03 -0.14284438015E+03 -0.59683153059E+02  0.43639131109E+03  0.00000000000E+00 0.  1.
         13    1    4    4    0    0 -0.44266239509E+03  0.30396966525E+03 -0.63990195765E+01  0.53701816733E+03  0.10566000000E+00 0. -1.
         -4    1    4    4    0  501  0.41492466455E+03  0.47494314548E+03 -0.48609195854E+03  0.79625301309E+03  0.00000000000E+00 0. -1.
<mgrwt>
<rscale>  2 0.12521469E+04</rscale>
<asrwt>0</asrwt>
<pdfrwt beam="2">  1        1 0.21356442E+00 0.12521469E+04</pdfrwt>
<pdfrwt beam="1">  1       -1 0.19426336E+00 0.12521469E+04</pdfrwt>
<totfact> 0.15923488E+00</totfact>
</mgrwt>
</event>
<event>
 8    1  0.1439553E-005  0.1302337E+04  0.7818608E-02  0.8533243E-01
         -2   -1    0    0    0  501 -0.00000000000E+00  0.00000000000E+00  0.16731624059E+04  0.16731624059E+04  0.00000000000E+00 0. -1.
          2   -1    0    0  502    0  0.00000000000E+00 -0.00000000000E+00 -0.10352658105E+04  0.10352658105E+04  0.00000000000E+00 0.  1.
    9000010    2    1    2  502    0 -0.61002596555E+03  0.58954052038E+03  0.12160003700E+03  0.12993229799E+04  0.97660838276E+03 0.  0.
   -9000010    2    1    2    0  501  0.61002596555E+03 -0.58954052038E+03  0.51629655843E+03  0.14091052366E+04  0.99966280697E+03 0.  0.
        -13    1    3    3    0    0 -0.44441995542E+03  0.84754893442E+02 -0.36314880189E+03  0.58014614729E+03  0.10566000000E+00 0.  1.
          4    1    3    3  502    0 -0.16560601013E+03  0.50478562694E+03  0.48474883889E+03  0.71917683261E+03  0.00000000000E+00 0.  1.
         13    1    4    4    0    0  0.24935816052E+03 -0.20941365580E+03  0.76326257577E+03  0.82982127124E+03  0.10566000000E+00 0. -1.
         -4    1    4    4    0  501  0.36066780502E+03 -0.38012686458E+03 -0.24696601735E+03  0.57928396532E+03  0.00000000000E+00 0. -1.
<mgrwt>
<rscale>  2 0.13023370E+04</rscale>
<asrwt>0</asrwt>
<pdfrwt beam="2">  1        2 0.15927166E+00 0.13023370E+04</pdfrwt>
<pdfrwt beam="1">  1       -2 0.25740960E+00 0.13023370E+04</pdfrwt>
<totfact> 0.12572256E+00</totfact>
</mgrwt>
</event>
<event>
 8    1  0.1439553E-005  0.1239800E+04  0.7818608E-02  0.8577180E-01
         -1   -1    0    0    0  501 -0.00000000000E+00  0.00000000000E+00  0.44955694183E+04  0.44955694183E+04  0.00000000000E+00 0. -1.
          1   -1    0    0  502    0  0.00000000000E+00 -0.00000000000E+00 -0.34947618992E+03  0.34947618992E+03  0.00000000000E+00 0.  1.
    9000010    2    1    2  502    0 -0.60184954699E+03 -0.45939533921E+03  0.16911814192E+04  0.20873003979E+04  0.96096899197E+03 0.  0.
   -9000010    2    1    2    0  501  0.60184954699E+03  0.45939533921E+03  0.24549118092E+04  0.27577452103E+04  0.10026463481E+04 0.  0.
        -13    1    3    3    0    0  0.11329200188E+03 -0.16476336312E+03  0.10886254219E+04  0.11068366474E+04  0.10566000000E+00 0.  1.
          4    1    3    3  502    0 -0.71514154887E+03 -0.29463197609E+03  0.60255599727E+03  0.98046375053E+03  0.00000000000E+00 0.  1.
         13    1    4    4    0    0  0.72620770202E+03  0.27769738808E+00  0.18553863701E+04  0.19924448040E+04  0.10566000000E+00 0. -1.
         -4    1    4    4    0  501 -0.12435815503E+03  0.45911764182E+03  0.59952543907E+03  0.76530040628E+03  0.00000000000E+00 0. -1.
<mgrwt>
<rscale>  2 0.12397996E+04</rscale>
<asrwt>0</asrwt>
<pdfrwt beam="2">  1        1 0.53765571E-01 0.12397996E+04</pdfrwt>
<pdfrwt beam="1">  1       -1 0.69162602E+00 0.12397996E+04</pdfrwt>
<totfact> 0.10916395E-01</totfact>
</mgrwt>
</event>
<event>
 8    1  0.1439553E-005  0.1427783E+04  0.7818608E-02  0.8452312E-01
          2   -1    0    0  502    0  0.00000000000E+00  0.00000000000E+00  0.14398168332E+04  0.14398168332E+04  0.00000000000E+00 0.  1.
         -2   -1    0    0    0  501 -0.00000000000E+00 -0.00000000000E+00 -0.15172535077E+04  0.15172535077E+04  0.00000000000E+00 0. -1.
    9000010    2    1    2  502    0 -0.95364784493E+03 -0.28682078840E+03 -0.41899228280E+03  0.14600440738E+04  0.98207117233E+03 0.  0.
   -9000010    2    1    2    0  501  0.95364784493E+03  0.28682078840E+03  0.34155560829E+03  0.14970262671E+04  0.10642917993E+04 0.  0.
        -13    1    3    3    0    0 -0.87468079597E+03 -0.12721676727E+02  0.87101647255E+02  0.87909899558E+03  0.10566000000E+00 0.  1.
          4    1    3    3  502    0 -0.78967048958E+02 -0.27409911168E+03 -0.50609393006E+03  0.58094507820E+03  0.00000000000E+00 0.  1.
         13    1    4    4    0    0  0.97251188435E+03  0.42139252958E+02 -0.11349606521E+03  0.98001859667E+03  0.10566000000E+00 0. -1.
         -4    1    4    4    0  501 -0.18864039417E+02  0.24468153544E+03  0.45505167349E+03  0.51700767046E+03  0.00000000000E+00 0. -1.
<mgrwt>
<rscale>  2 0.14277835E+04</rscale>
<asrwt>0</asrwt>
<pdfrwt beam="1">  1        2 0.22151028E+00 0.14277835E+04</pdfrwt>
<pdfrwt beam="2">  1       -2 0.23342361E+00 0.14277835E+04</pdfrwt>
<totfact> 0.11196515E+00</totfact>
</mgrwt>
</event>
<event>
 8    1  0.1439553E-005  0.1353235E+04  0.7818608E-02  0.8499321E-01
         -1   -1    0    0    0  501 -0.00000000000E+00  0.00000000000E+00  0.12903389966E+04  0.12903389966E+04  0.00000000000E+00 0.  1.
          1   -1    0    0  502    0  0.00000000000E+00 -0.00000000000E+00 -0.15989363719E+04  0.15989363719E+04  0.00000000000E+00 0. -1.
    9000010    2    1    2  502    0  0.88226913979E+03  0.22428450280E+03  0.32931635257E+03  0.13993571025E+04  0.10104695281E+04 0.  0.
   -9000010    2    1    2    0  501 -0.88226913979E+03 -0.22428450280E+03 -0.63791372786E+03  0.14899182659E+04  0.99207869730E+03 0.  0.
        -13    1    3    3    0    0  0.92421978526E+03 -0.17096683627E+03  0.11253601801E+03  0.94661303450E+03  0.10566000000E+00 0.  1.
          4    1    3    3  502    0 -0.41950645471E+02  0.39525133907E+03  0.21678033456E+03  0.45274406804E+03  0.00000000000E+00 0.  1.
         13    1    4    4    0    0 -0.36583748254E+03  0.31688754197E+03  0.32946270208E+02  0.48511879552E+03  0.10566000000E+00 0. -1.
         -4    1    4    4    0  501 -0.51643165725E+03 -0.54117204478E+03 -0.67085999807E+03  0.10047994704E+04  0.00000000000E+00 0. -1.
<mgrwt>
<rscale>  2 0.13532347E+04</rscale>
<asrwt>0</asrwt>
<pdfrwt beam="2">  1        1 0.24599021E+00 0.13532347E+04</pdfrwt>
<pdfrwt beam="1">  1       -1 0.19851369E+00 0.13532347E+04</pdfrwt>
<totfact> 0.10028472E+00</totfact>
</mgrwt>
</event>
<event>
 8    1  0.1439553E-005  0.1184654E+04  0.7818608E-02  0.8618209E-01
          2   -1    0    0  502    0  0.00000000000E+00  0.00000000000E+00  0.13614537929E+04  0.13614537929E+04  0.00000000000E+00 0. -1.
         -2   -1    0    0    0  501 -0.00000000000E+00 -0.00000000000E+00 -0.10730286455E+04  0.10730286455E+04  0.00000000000E+00 0.  1.
    9000010    2    1    2  502    0  0.26612540993E+03  0.59099401781E+03 -0.94970158466E+02  0.12035615847E+04  0.10096754400E+04 0.  0.
   -9000010    2    1    2    0  501 -0.26612540993E+03 -0.59099401781E+03  0.38339530593E+03  0.12309208537E+04  0.97369272600E+03 0.  0.
        -13    1    3    3    0    0 -0.49329938798E+00 -0.19516599055E+03  0.23917210290E+03  0.30869615026E+03  0.10566000000E+00 0.  1.
          4    1    3    3  502    0  0.26661870932E+03  0.78616000836E+03 -0.33414226137E+03  0.89486543443E+03  0.00000000000E+00 0.  1.
         13    1    4    4    0    0 -0.43176239868E+03 -0.34134095944E+03 -0.19140521964E+03  0.58272496838E+03  0.10566000000E+00 0. -1.
         -4    1    4    4    0  501  0.16563698875E+03 -0.24965305837E+03  0.57480052557E+03  0.64819588535E+03  0.00000000000E+00 0. -1.
<mgrwt>
<rscale>  2 0.11846536E+04</rscale>
<asrwt>0</asrwt>
<pdfrwt beam="1">  1        2 0.20945443E+00 0.11846536E+04</pdfrwt>
<pdfrwt beam="2">  1       -2 0.16508133E+00 0.11846536E+04</pdfrwt>
<totfact> 0.46436885E+00</totfact>
</mgrwt>
</event>
<event>
 8    1  0.1439553E-005  0.1528830E+04  0.7818608E-02  0.8393098E-01
         -2   -1    0    0    0  501 -0.00000000000E+00  0.00000000000E+00  0.10879523812E+04  0.10879523812E+04  0.00000000000E+00 0. -1.
          2   -1    0    0  502    0  0.00000000000E+00 -0.00000000000E+00 -0.21883839510E+04  0.21883839510E+04  0.00000000000E+00 0.  1.
    9000010    2    1    2  502    0 -0.72319792283E+03 -0.86555370147E+03 -0.32143987412E+03  0.15378146119E+04  0.99466162188E+03 0.  0.
   -9000010    2    1    2    0  501  0.72319792283E+03  0.86555370147E+03 -0.77899169569E+03  0.17385217204E+04  0.10693134547E+04 0.  0.
        -13    1    3    3    0    0 -0.57251025176E+03 -0.32753788145E+03  0.28030994242E+03  0.71667477083E+03  0.10566000000E+00 0.  1.
          4    1    3    3  502    0 -0.15068767107E+03 -0.53801582002E+03 -0.60174981655E+03  0.82113984103E+03  0.00000000000E+00 0.  1.
         13    1    4    4    0    0 -0.65424930146E+02  0.41885036813E+02  0.21323392593E+03  0.22694381711E+03  0.10566000000E+00 0. -1.
         -4    1    4    4    0  501  0.78862285298E+03  0.82366866466E+03 -0.99222562162E+03  0.15115779032E+04  0.00000000000E+00 0. -1.
<mgrwt>
<rscale>  2 0.15288298E+04</rscale>
<asrwt>0</asrwt>
<pdfrwt beam="2">  1        2 0.33667445E+00 0.15288298E+04</pdfrwt>
<pdfrwt beam="1">  1       -2 0.16737729E+00 0.15288298E+04</pdfrwt>
<totfact> 0.15102840E+00</totfact>
</mgrwt>
</event>
<event>
 8    1  0.1439553E-005  0.1133262E+04  0.7818608E-02  0.8658587E-01
         -2   -1    0    0    0  501 -0.00000000000E+00  0.00000000000E+00  0.46783787362E+03  0.46783787362E+03  0.00000000000E+00 0. -1.
          2   -1    0    0  502    0  0.00000000000E+00 -0.00000000000E+00 -0.27494990770E+04  0.27494990770E+04  0.00000000000E+00 0.  1.
    9000010    2    1    2  502    0 -0.23569481842E+03 -0.48019896632E+03 -0.10854029205E+04  0.15747421353E+04  0.10077550289E+04 0.  0.
   -9000010    2    1    2    0  501  0.23569481842E+03  0.48019896632E+03 -0.11962582829E+04  0.16425948153E+04  0.99042453182E+03 0.  0.
        -13    1    3    3    0    0 -0.17695342535E+03 -0.70325438858E+03 -0.35232715395E+03  0.80623426147E+03  0.10566000000E+00 0.  1.
          4    1    3    3  502    0 -0.58741393065E+02  0.22305542225E+03 -0.73307576654E+03  0.76850787383E+03  0.00000000000E+00 0.  1.
         13    1    4    4    0    0  0.84256336874E+02  0.59601707748E+03 -0.12948756113E+04  0.14279490001E+04  0.10566000000E+00 0. -1.
         -4    1    4    4    0  501  0.15143848154E+03 -0.11581811116E+03  0.98617328348E+02  0.21464581528E+03  0.00000000000E+00 0. -1.
<mgrwt>
<rscale>  2 0.11332616E+04</rscale>
<asrwt>0</asrwt>
<pdfrwt beam="2">  1        2 0.42299985E+00 0.11332616E+04</pdfrwt>
<pdfrwt beam="1">  1       -2 0.71975058E-01 0.11332616E+04</pdfrwt>
<totfact> 0.67503040E+00</totfact>
</mgrwt>
</event>
<event>
 8    1  0.1439553E-005  0.1299515E+04  0.7818608E-02  0.8535170E-01
         -2   -1    0    0    0  501 -0.00000000000E+00  0.00000000000E+00  0.76072165045E+03  0.76072165045E+03  0.00000000000E+00 0. -1.
          2   -1    0    0  502    0  0.00000000000E+00 -0.00000000000E+00 -0.29127753999E+04  0.29127753999E+04  0.00000000000E+00 0.  1.
    9000010    2    1    2  502    0 -0.83542960944E+03 -0.28155383619E+02 -0.17369829154E+03  0.13007020997E+04  0.98128461603E+03 0.  0.
   -9000010    2    1    2    0  501  0.83542960944E+03  0.28155383619E+02 -0.19783554580E+04  0.23727949507E+04  0.10087270207E+04 0.  0.
        -13    1    3    3    0    0  0.10055441295E+03  0.21120770328E+03 -0.23638768909E+03  0.33256433153E+03  0.10566000000E+00 0.  1.
          4    1    3    3  502    0 -0.93598402238E+03 -0.23936308690E+03  0.62689397557E+02  0.96813776814E+03  0.00000000000E+00 0.  1.
         13    1    4    4    0    0 -0.18419301161E+03  0.12822240114E+03 -0.12965704197E+03  0.25918913823E+03  0.10566000000E+00 0. -1.
         -4    1    4    4    0  501  0.10196226210E+04 -0.10006701753E+03 -0.18486984160E+04  0.21136058125E+04  0.00000000000E+00 0. -1.
<mgrwt>
<rscale>  2 0.12995151E+04</rscale>
<asrwt>0</asrwt>
<pdfrwt beam="2">  1        2 0.44811928E+00 0.12995151E+04</pdfrwt>
<pdfrwt beam="1">  1       -2 0.11703410E+00 0.12995151E+04</pdfrwt>
<totfact> 0.17010428E+00</totfact>
</mgrwt>
</event>
<event>
 8    1  0.1439553E-005  0.1613721E+04  0.7818608E-02  0.8346900E-01
          2   -1    0    0  502    0  0.00000000000E+00  0.00000000000E+00  0.19955249948E+04  0.19955249948E+04  0.00000000000E+00 0.  1.
         -2   -1    0    0    0  501 -0.00000000000E+00 -0.00000000000E+00 -0.13455587145E+04  0.13455587145E+04  0.00000000000E+00 0. -1.
    9000010    2    1    2  502    0 -0.25070253064E+03 -0.12486769677E+04  0.35363508717E+02  0.16167682032E+04  0.99531046238E+03 0.  0.
   -9000010    2    1    2    0  501  0.25070253064E+03  0.12486769677E+04  0.61460277158E+03  0.17243155060E+04  0.98665164517E+03 0.  0.
        -13    1    3    3    0    0 -0.24284607770E+03 -0.13527704537E+04 -0.17150385715E+03  0.13850544040E+04  0.10566000000E+00 0.  1.
          4    1    3    3  502    0 -0.78564529401E+01  0.10409348598E+03  0.20686736587E+03  0.23171379919E+03  0.00000000000E+00 0.  1.
         13    1    4    4    0    0  0.40184801545E+03  0.11805289402E+04  0.79531173846E+03  0.14790710526E+04  0.10566000000E+00 0. -1.
         -4    1    4    4    0  501 -0.15114548481E+03  0.68148027559E+02 -0.18070896688E+03  0.24524445345E+03  0.00000000000E+00 0. -1.
<mgrwt>
<rscale>  2 0.16137205E+04</rscale>
<asrwt>0</asrwt>
<pdfrwt beam="1">  1        2 0.30700384E+00 0.16137205E+04</pdfrwt>
<pdfrwt beam="2">  1       -2 0.20700903E+00 0.16137205E+04</pdfrwt>
<totfact> 0.89285441E-01</totfact>
</mgrwt>
</event>
<event>
 8    1  0.1439553E-005  0.1296239E+04  0.7818608E-02  0.8537414E-01
          2   -1    0    0  502    0  0.00000000000E+00  0.00000000000E+00  0.83298969678E+03  0.83298969678E+03  0.00000000000E+00 0. -1.
         -2   -1    0    0    0  501 -0.00000000000E+00 -0.00000000000E+00 -0.21445643468E+04  0.21445643468E+04  0.00000000000E+00 0.  1.
    9000010    2    1    2  502    0 -0.13197992832E+03  0.83300873384E+03 -0.10037686186E+04  0.16173623541E+04  0.94709413091E+03 0.  0.
   -9000010    2    1    2    0  501  0.13197992832E+03 -0.83300873384E+03 -0.30780603146E+03  0.13601916894E+04  0.10217899133E+04 0.  0.
        -13    1    3    3    0    0  0.12222577056E+03 -0.97010778764E+02  0.72788314291E+02  0.17218704959E+03  0.10566000000E+00 0.  1.
          4    1    3    3  502    0 -0.25420569888E+03  0.93001951261E+03 -0.10765569329E+04  0.14451753045E+04  0.00000000000E+00 0.  1.
         13    1    4    4    0    0 -0.18429113277E+03 -0.26810282550E+03  0.32145281182E+03  0.45735573468E+03  0.10566000000E+00 0. -1.
         -4    1    4    4    0  501  0.31627106109E+03 -0.56490590835E+03 -0.62925884328E+03  0.90283595476E+03  0.00000000000E+00 0. -1.
<mgrwt>
<rscale>  2 0.12962388E+04</rscale>
<asrwt>0</asrwt>
<pdfrwt beam="1">  1        2 0.12815226E+00 0.12962388E+04</pdfrwt>
<pdfrwt beam="2">  1       -2 0.32993297E+00 0.12962388E+04</pdfrwt>
<totfact> 0.52652297E-01</totfact>
</mgrwt>
</event>
<event>
 8    1  0.1439553E-005  0.1523105E+04  0.7818608E-02  0.8396325E-01
         -1   -1    0    0    0  501 -0.00000000000E+00  0.00000000000E+00  0.31000619580E+04  0.31000619580E+04  0.00000000000E+00 0. -1.
          1   -1    0    0  502    0  0.00000000000E+00 -0.00000000000E+00 -0.10851122000E+04  0.10851122000E+04  0.00000000000E+00 0.  1.
    9000010    2    1    2  502    0  0.57442510261E+02  0.11041807264E+04  0.21580686095E+04  0.26234459305E+04  0.10013459483E+04 0.  0.
   -9000010    2    1    2    0  501 -0.57442510261E+02 -0.11041807264E+04 -0.14311885151E+03  0.15617282275E+04  0.10936166296E+04 0.  0.
        -13    1    3    3    0    0 -0.41225857648E+03  0.21478137661E+03  0.48860730701E+03  0.67440735854E+03  0.10566000000E+00 0.  1.
          4    1    3    3  502    0  0.46970108675E+03  0.88939934975E+03  0.16694613025E+04  0.19490385719E+04  0.00000000000E+00 0.  1.
         13    1    4    4    0    0  0.49793988228E+03 -0.40513977591E+03  0.64279194695E+02  0.64514664257E+03  0.10566000000E+00 0. -1.
         -4    1    4    4    0  501 -0.55538239254E+03 -0.69904095045E+03 -0.20739804620E+03  0.91658158497E+03  0.00000000000E+00 0. -1.
<mgrwt>
<rscale>  2 0.15231046E+04</rscale>
<asrwt>0</asrwt>
<pdfrwt beam="2">  1        1 0.16694034E+00 0.15231046E+04</pdfrwt>
<pdfrwt beam="1">  1       -1 0.47693260E+00 0.15231046E+04</pdfrwt>
<totfact> 0.17188110E-01</totfact>
</mgrwt>
</event>
<event>
 8    1  0.1439553E-005  0.1211339E+04  0.7818608E-02  0.8598073E-01
         -2   -1    0    0    0  501 -0.00000000000E+00  0.00000000000E+00  0.92646403011E+03  0.92646403011E+03  0.00000000000E+00 0. -1.
          2   -1    0    0  502    0  0.00000000000E+00 -0.00000000000E+00 -0.16620848362E+04  0.16620848362E+04  0.00000000000E+00 0.  1.
    9000010    2    1    2  502    0 -0.55559177433E+03  0.42986033610E+03 -0.85927842399E+02  0.12108336507E+04  0.98248277707E+03 0.  0.
   -9000010    2    1    2    0  501  0.55559177433E+03 -0.42986033610E+03 -0.64969296374E+03  0.13777152157E+04  0.99122961020E+03 0.  0.
        -13    1    3    3    0    0 -0.40572842650E+03  0.74078447229E+03 -0.15529861506E+03  0.85877521008E+03  0.10566000000E+00 0.  1.
          4    1    3    3  502    0 -0.14986334783E+03 -0.31092413619E+03  0.69370772659E+02  0.35205844058E+03  0.00000000000E+00 0.  1.
         13    1    4    4    0    0 -0.18218491823E+03  0.90579353976E+02 -0.38730173260E+03  0.43749126509E+03  0.10566000000E+00 0. -1.
         -4    1    4    4    0  501  0.73777669256E+03 -0.52043969007E+03 -0.26239123114E+03  0.94022395059E+03  0.00000000000E+00 0. -1.
<mgrwt>
<rscale>  2 0.12113385E+04</rscale>
<asrwt>0</asrwt>
<pdfrwt beam="2">  1        2 0.25570536E+00 0.12113385E+04</pdfrwt>
<pdfrwt beam="1">  1       -2 0.14253293E+00 0.12113385E+04</pdfrwt>
<totfact> 0.49957454E+00</totfact>
</mgrwt>
</event>
<event>
 8    1  0.1439553E-005  0.1575251E+04  0.7818608E-02  0.8367462E-01
          1   -1    0    0  502    0  0.00000000000E+00  0.00000000000E+00  0.22391364366E+04  0.22391364366E+04  0.00000000000E+00 0.  1.
         -1   -1    0    0    0  501 -0.00000000000E+00 -0.00000000000E+00 -0.11302647700E+04  0.11302647700E+04  0.00000000000E+00 0. -1.
    9000010    2    1    2  502    0 -0.11989489272E+04  0.18284280791E+03  0.78867887335E+03  0.17587836664E+04  0.10001977792E+04 0.  0.
   -9000010    2    1    2    0  501  0.11989489272E+04 -0.18284280791E+03  0.32019279325E+03  0.16106175402E+04  0.10102749197E+04 0.  0.
        -13    1    3    3    0    0 -0.81556193239E+03 -0.36425761810E+03  0.55212291072E+03  0.10500783769E+04  0.10566000000E+00 0.  1.
          4    1    3    3  502    0 -0.38338699478E+03  0.54710042601E+03  0.23655596263E+03  0.70870528950E+03  0.00000000000E+00 0.  1.
         13    1    4    4    0    0  0.13486224374E+04 -0.36378778418E+02  0.18594230642E+03  0.13618665305E+04  0.10566000000E+00 0. -1.
         -4    1    4    4    0  501 -0.14967351028E+03 -0.14646402949E+03  0.13425048682E+03  0.24875100970E+03  0.00000000000E+00 0. -1.
<mgrwt>
<rscale>  2 0.15752507E+04</rscale>
<asrwt>0</asrwt>
<pdfrwt beam="1">  1        1 0.34448253E+00 0.15752507E+04</pdfrwt>
<pdfrwt beam="2">  1       -1 0.17388689E+00 0.15752507E+04</pdfrwt>
<totfact> 0.51879071E-01</totfact>
</mgrwt>
</event>
<event>
 8    1  0.1439553E-005  0.1105417E+04  0.7818608E-02  0.8681406E-01
          2   -1    0    0  502    0  0.00000000000E+00  0.00000000000E+00  0.17270026615E+04  0.17270026615E+04  0.00000000000E+00 0.  1.
         -2   -1    0    0    0  501 -0.00000000000E+00 -0.00000000000E+00 -0.74508519259E+03  0.74508519259E+03  0.00000000000E+00 0. -1.
    9000010    2    1    2  502    0  0.47008048261E+03  0.17612139818E+03  0.21092280668E+03  0.11190597495E+04  0.97765632286E+03 0.  0.
   -9000010    2    1    2    0  501 -0.47008048261E+03 -0.17612139818E+03  0.77099466226E+03  0.13530281046E+04  0.99209771471E+03 0.  0.
        -13    1    3    3    0    0  0.58665657698E+03 -0.20206188489E+03 -0.83136962367E+02  0.62602452853E+03  0.10566000000E+00 0.  1.
          4    1    3    3  502    0 -0.11657609437E+03  0.37818328308E+03  0.29405976905E+03  0.49303522101E+03  0.00000000000E+00 0.  1.
         13    1    4    4    0    0 -0.21399442122E+03  0.36161620052E+03  0.60158551988E+03  0.73380177002E+03  0.10566000000E+00 0. -1.
         -4    1    4    4    0  501 -0.25608606139E+03 -0.53773759870E+03  0.16940914238E+03  0.61922633456E+03  0.00000000000E+00 0. -1.
<mgrwt>
<rscale>  2 0.11054169E+04</rscale>
<asrwt>0</asrwt>
<pdfrwt beam="1">  1        2 0.26569272E+00 0.11054169E+04</pdfrwt>
<pdfrwt beam="2">  1       -2 0.11462849E+00 0.11054169E+04</pdfrwt>
<totfact> 0.84719471E+00</totfact>
</mgrwt>
</event>
<event>
 8    1  0.1439553E-005  0.9738087E+03  0.7818608E-02  0.8799597E-01
         -2   -1    0    0    0  501 -0.00000000000E+00  0.00000000000E+00  0.29104349782E+03  0.29104349782E+03  0.00000000000E+00 0. -1.
          2   -1    0    0  502    0  0.00000000000E+00 -0.00000000000E+00 -0.46908951133E+04  0.46908951133E+04  0.00000000000E+00 0.  1.
    9000010    2    1    2  502    0  0.19895115462E+03  0.85404617919E+02 -0.92330115503E+03  0.13865492706E+04  0.10115128997E+04 0.  0.
   -9000010    2    1    2    0  501 -0.19895115462E+03 -0.85404617919E+02 -0.34765504605E+04  0.35953893405E+04  0.89081193021E+03 0.  0.
        -13    1    3    3    0    0  0.59214778858E+03 -0.16850849021E+02 -0.71960360686E+03  0.93206883694E+03  0.10566000000E+00 0.  1.
          4    1    3    3  502    0 -0.39319663396E+03  0.10225546694E+03 -0.20369754818E+03  0.45448043369E+03  0.00000000000E+00 0.  1.
         13    1    4    4    0    0 -0.40837357166E+03  0.16675082579E+03 -0.94703382094E+03  0.10447238301E+04  0.10566000000E+00 0. -1.
         -4    1    4    4    0  501  0.20942241704E+03 -0.25215544371E+03 -0.25295166396E+04  0.25506655105E+04  0.00000000000E+00 0. -1.
<mgrwt>
<rscale>  2 0.97380871E+03</rscale>
<asrwt>0</asrwt>
<pdfrwt beam="2">  1        2 0.72167609E+00 0.97380871E+03</pdfrwt>
<pdfrwt beam="1">  1       -2 0.44775928E-01 0.97380871E+03</pdfrwt>
<totfact> 0.54954768E-01</totfact>
</mgrwt>
</event>
<event>
 8    1  0.1439553E-005  0.1084958E+04  0.7818608E-02  0.8698624E-01
          2   -1    0    0  502    0  0.00000000000E+00  0.00000000000E+00  0.13952656625E+04  0.13952656625E+04  0.00000000000E+00 0. -1.
         -2   -1    0    0    0  501 -0.00000000000E+00 -0.00000000000E+00 -0.87843568060E+03  0.87843568060E+03  0.00000000000E+00 0.  1.
    9000010    2    1    2  502    0  0.38794923099E+03 -0.12226746903E+03  0.31731439454E+02  0.10832094282E+04  0.10034350210E+04 0.  0.
   -9000010    2    1    2    0  501 -0.38794923099E+03  0.12226746903E+03  0.48509854245E+03  0.11904919149E+04  0.10082144929E+04 0.  0.
        -13    1    3    3    0    0 -0.31205890368E+03 -0.14677840993E+03 -0.12254944210E+03  0.36598229180E+03  0.10566000000E+00 0.  1.
          4    1    3    3  502    0  0.70000813467E+03  0.24510940902E+02  0.15428088156E+03  0.71722713644E+03  0.00000000000E+00 0.  1.
         13    1    4    4    0    0 -0.61816345124E+03 -0.22775637196E+03  0.37195187821E+03  0.75653633639E+03  0.10566000000E+00 0. -1.
         -4    1    4    4    0  501  0.23021422024E+03  0.35002384099E+03  0.11314666424E+03  0.43395557848E+03  0.00000000000E+00 0. -1.
<mgrwt>
<rscale>  2 0.10849577E+04</rscale>
<asrwt>0</asrwt>
<pdfrwt beam="1">  1        2 0.21465626E+00 0.10849577E+04</pdfrwt>
<pdfrwt beam="2">  1       -2 0.13514395E+00 0.10849577E+04</pdfrwt>
<totfact> 0.82593054E+00</totfact>
</mgrwt>
</event>
<event>
 8    1  0.1439553E-005  0.1305308E+04  0.7818608E-02  0.8531219E-01
         -2   -1    0    0    0  501 -0.00000000000E+00  0.00000000000E+00  0.36851944250E+04  0.36851944250E+04  0.00000000000E+00 0. -1.
          2   -1    0    0  502    0  0.00000000000E+00 -0.00000000000E+00 -0.46638010719E+03  0.46638010719E+03  0.00000000000E+00 0.  1.
    9000010    2    1    2  502    0 -0.10638594523E+03  0.88948427384E+03  0.17470830753E+04  0.21588941553E+04  0.89778864941E+03 0.  0.
   -9000010    2    1    2    0  501  0.10638594523E+03 -0.88948427384E+03  0.14717312425E+04  0.19926803769E+04  0.10011403456E+04 0.  0.
        -13    1    3    3    0    0  0.36252827813E+03  0.41907232521E+03  0.50187466739E+03  0.74761391048E+03  0.10566000000E+00 0.  1.
          4    1    3    3  502    0 -0.46891422336E+03  0.47041194863E+03  0.12452084079E+04  0.14112802448E+04  0.00000000000E+00 0.  1.
         13    1    4    4    0    0  0.17119158469E+03 -0.65298503303E+03  0.15848514308E+04  0.17226288285E+04  0.10566000000E+00 0. -1.
         -4    1    4    4    0  501 -0.64805639463E+02 -0.23649924082E+03 -0.11312018824E+03  0.27005154841E+03  0.00000000000E+00 0. -1.
<mgrwt>
<rscale>  2 0.13053084E+04</rscale>
<asrwt>0</asrwt>
<pdfrwt beam="2">  1        2 0.71750788E-01 0.13053084E+04</pdfrwt>
<pdfrwt beam="1">  1       -2 0.56695297E+00 0.13053084E+04</pdfrwt>
<totfact> 0.42200685E-01</totfact>
</mgrwt>
</event>
<event>
 8    1  0.1439553E-005  0.1486261E+04  0.7818608E-02  0.8417450E-01
          2   -1    0    0  502    0  0.00000000000E+00  0.00000000000E+00  0.24300085293E+04  0.24300085293E+04  0.00000000000E+00 0.  1.
         -2   -1    0    0    0  501 -0.00000000000E+00 -0.00000000000E+00 -0.94115517694E+03  0.94115517694E+03  0.00000000000E+00 0. -1.
    9000010    2    1    2  502    0  0.83090875144E+03 -0.70840308544E+03  0.43747210319E+03  0.15577795091E+04  0.10212986210E+04 0.  0.
   -9000010    2    1    2    0  501 -0.83090875144E+03  0.70840308544E+03  0.10513812492E+04  0.18133841972E+04  0.99534688962E+03 0.  0.
        -13    1    3    3    0    0  0.12584969447E+03  0.13998984410E+03  0.41357289110E+03  0.45439833787E+03  0.10566000000E+00 0.  1.
          4    1    3    3  502    0  0.70505905697E+03 -0.84839292953E+03  0.23899212092E+02  0.11033811712E+04  0.00000000000E+00 0.  1.
         13    1    4    4    0    0 -0.33951388216E+03 -0.13054463905E+03 -0.22891165747E+02  0.36446617895E+03  0.10566000000E+00 0. -1.
         -4    1    4    4    0  501 -0.49139486928E+03  0.83894772449E+03  0.10742724150E+04  0.14489180182E+04  0.00000000000E+00 0. -1.
<mgrwt>
<rscale>  2 0.14862612E+04</rscale>
<asrwt>0</asrwt>
<pdfrwt beam="1">  1        2 0.37384746E+00 0.14862612E+04</pdfrwt>
<pdfrwt beam="2">  1       -2 0.14479311E+00 0.14862612E+04</pdfrwt>
<totfact> 0.17583495E+00</totfact>
</mgrwt>
</event>
<event>
 8    1  0.1439553E-005  0.1549543E+04  0.7818608E-02  0.8381544E-01
         -2   -1    0    0    0  501 -0.00000000000E+00  0.00000000000E+00  0.15141553314E+04  0.15141553314E+04  0.00000000000E+00 0.  1.
          2   -1    0    0  502    0  0.00000000000E+00 -0.00000000000E+00 -0.15857718474E+04  0.15857718474E+04  0.00000000000E+00 0. -1.
    9000010    2    1    2  502    0  0.86405316821E+03 -0.78870760227E+03 -0.39404575479E+02  0.15473850327E+04  0.10120277464E+04 0.  0.
   -9000010    2    1    2    0  501 -0.86405316821E+03  0.78870760227E+03 -0.32211940471E+02  0.15525421461E+04  0.10201480025E+04 0.  0.
        -13    1    3    3    0    0  0.86545802696E+03 -0.10062628290E+04 -0.61742286564E+02  0.13286815264E+04  0.10566000000E+00 0.  1.
          4    1    3    3  502    0 -0.14048587467E+01  0.21755522678E+03  0.22337711086E+02  0.21870350629E+03  0.00000000000E+00 0.  1.
         13    1    4    4    0    0 -0.62050775133E+03  0.78370408926E+02  0.34275720852E+03  0.71320004600E+03  0.10566000000E+00 0. -1.
         -4    1    4    4    0  501 -0.24354541688E+03  0.71033719335E+03 -0.37496914899E+03  0.83934210012E+03  0.00000000000E+00 0. -1.
<mgrwt>
<rscale>  2 0.15495433E+04</rscale>
<asrwt>0</asrwt>
<pdfrwt beam="2">  1        2 0.24396490E+00 0.15495433E+04</pdfrwt>
<pdfrwt beam="1">  1       -2 0.23294697E+00 0.15495433E+04</pdfrwt>
<totfact> 0.92750398E-01</totfact>
</mgrwt>
</event>
<event>
 8    1  0.1439553E-005  0.1060289E+04  0.7818608E-02  0.8719918E-01
         -1   -1    0    0    0  501 -0.00000000000E+00  0.00000000000E+00  0.19212336824E+04  0.19212336824E+04  0.00000000000E+00 0.  1.
          1   -1    0    0  502    0  0.00000000000E+00 -0.00000000000E+00 -0.62321897680E+03  0.62321897680E+03  0.00000000000E+00 0. -1.
    9000010    2    1    2  502    0  0.24248416906E+03 -0.27759656310E+03  0.33152302912E+03  0.11057391233E+04  0.98837900919E+03 0.  0.
   -9000010    2    1    2    0  501 -0.24248416906E+03  0.27759656310E+03  0.96649167645E+03  0.14387135359E+04  0.99996602623E+03 0.  0.
        -13    1    3    3    0    0  0.16789825328E+03 -0.63630532934E+03  0.83633217945E+02  0.66337683251E+03  0.10566000000E+00 0.  1.
          4    1    3    3  502    0  0.74585915777E+02  0.35870876624E+03  0.24788981118E+03  0.44236229077E+03  0.00000000000E+00 0.  1.
         13    1    4    4    0    0  0.85856165272E+02  0.30559732257E+03 -0.91692157603E+02  0.33040651871E+03  0.10566000000E+00 0. -1.
         -4    1    4    4    0  501 -0.32834033433E+03 -0.28000759467E+02  0.10581838341E+04  0.11083070172E+04  0.00000000000E+00 0. -1.
<mgrwt>
<rscale>  2 0.10602886E+04</rscale>
<asrwt>0</asrwt>
<pdfrwt beam="2">  1        1 0.95879844E-01 0.10602886E+04</pdfrwt>
<pdfrwt beam="1">  1       -1 0.29557441E+00 0.10602886E+04</pdfrwt>
<totfact> 0.78452033E-01</totfact>
</mgrwt>
</event>
<event>
 8    1  0.1439553E-005  0.1029339E+04  0.7818608E-02  0.8747503E-01
         -1   -1    0    0    0  501 -0.00000000000E+00  0.00000000000E+00  0.36014257027E+03  0.36014257027E+03  0.00000000000E+00 0.  1.
          1   -1    0    0  502    0  0.00000000000E+00 -0.00000000000E+00 -0.45735141827E+04  0.45735141827E+04  0.00000000000E+00 0. -1.
    9000010    2    1    2  502    0  0.29081280247E+03  0.13382855008E+02 -0.65874904070E+03  0.12381488209E+04  0.10071300895E+04 0.  0.
   -9000010    2    1    2    0  501 -0.29081280247E+03 -0.13382855008E+02 -0.35546225718E+04  0.36955079321E+04  0.96782542944E+03 0.  0.
        -13    1    3    3    0    0  0.62434016098E+03 -0.17049340565E+03 -0.29415870099E+03  0.71091349018E+03  0.10566000000E+00 0.  1.
          4    1    3    3  502    0 -0.33352735851E+03  0.18387626066E+03 -0.36459033971E+03  0.52723533068E+03  0.00000000000E+00 0.  1.
         13    1    4    4    0    0  0.62218154425E+02  0.13483813867E+03 -0.30894850061E+04  0.30930518968E+04  0.10566000000E+00 0. -1.
         -4    1    4    4    0  501 -0.35303095689E+03 -0.14822099368E+03 -0.46513756570E+03  0.60245603534E+03  0.00000000000E+00 0. -1.
<mgrwt>
<rscale>  2 0.10293391E+04</rscale>
<asrwt>0</asrwt>
<pdfrwt beam="2">  1        1 0.70361754E+00 0.10293391E+04</pdfrwt>
<pdfrwt beam="1">  1       -1 0.55406552E-01 0.10293391E+04</pdfrwt>
<totfact> 0.87855574E-02</totfact>
</mgrwt>
</event>
<event>
 8    1  0.1439553E-005  0.2353315E+04  0.7818608E-02  0.8038036E-01
          1   -1    0    0  502    0  0.00000000000E+00  0.00000000000E+00  0.26907018449E+04  0.26907018449E+04  0.00000000000E+00 0.  1.
         -1   -1    0    0    0  501 -0.00000000000E+00 -0.00000000000E+00 -0.21143818933E+04  0.21143818933E+04  0.00000000000E+00 0. -1.
    9000010    2    1    2  502    0  0.10159020532E+04  0.18637125424E+04 -0.10389882215E+03  0.23508143637E+04  0.10050133257E+04 0.  0.
   -9000010    2    1    2    0  501 -0.10159020532E+04 -0.18637125424E+04  0.68021877375E+03  0.24542693745E+04  0.10272580787E+04 0.  0.
        -13    1    3    3    0    0  0.34756434440E+02  0.10130243927E+04 -0.25012319980E+03  0.10440249308E+04  0.10566000000E+00 0.  1.
          4    1    3    3  502    0  0.98114561877E+03  0.85068814970E+03  0.14622437765E+03  0.13067894329E+04  0.00000000000E+00 0.  1.
         13    1    4    4    0    0 -0.86693504980E+01 -0.10633092874E+04  0.41010646289E+03  0.11396881681E+04  0.10566000000E+00 0. -1.
         -4    1    4    4    0  501 -0.10072327027E+04 -0.80040325496E+03  0.27011231086E+03  0.13145812065E+04  0.00000000000E+00 0. -1.
<mgrwt>
<rscale>  2 0.23533148E+04</rscale>
<asrwt>0</asrwt>
<pdfrwt beam="1">  1        1 0.41395413E+00 0.23533148E+04</pdfrwt>
<pdfrwt beam="2">  1       -1 0.32528952E+00 0.23533148E+04</pdfrwt>
<totfact> 0.88132626E-03</totfact>
</mgrwt>
</event>
<event>
 8    1  0.1439553E-005  0.1289746E+04  0.7818608E-02  0.8541882E-01
          2   -1    0    0  502    0  0.00000000000E+00  0.00000000000E+00  0.27491261730E+04  0.27491261730E+04  0.00000000000E+00 0. -1.
         -2   -1    0    0    0  501 -0.00000000000E+00 -0.00000000000E+00 -0.64385397067E+03  0.64385397067E+03  0.00000000000E+00 0.  1.
    9000010    2    1    2  502    0 -0.32940759694E+03 -0.72453935605E+03  0.64226663512E+03  0.14476391679E+04  0.10245418910E+04 0.  0.
   -9000010    2    1    2    0  501  0.32940759694E+03  0.72453935605E+03  0.14630055672E+04  0.19453409758E+04  0.10052360812E+04 0.  0.
        -13    1    3    3    0    0 -0.43061361343E+03  0.63402024897E+02  0.45860448617E+03  0.63227050123E+03  0.10566000000E+00 0.  1.
          4    1    3    3  502    0  0.10120601648E+03 -0.78794138095E+03  0.18366214896E+03  0.81536866665E+03  0.00000000000E+00 0.  1.
         13    1    4    4    0    0 -0.23519721398E+03  0.49599356957E+03  0.28343780089E+03  0.61778989038E+03  0.10566000000E+00 0. -1.
         -4    1    4    4    0  501  0.56460481093E+03  0.22854578648E+03  0.11795677663E+04  0.13275510854E+04  0.00000000000E+00 0. -1.
<mgrwt>
<rscale>  2 0.12897457E+04</rscale>
<asrwt>0</asrwt>
<pdfrwt beam="1">  1        2 0.42294248E+00 0.12897457E+04</pdfrwt>
<pdfrwt beam="2">  1       -2 0.99054458E-01 0.12897457E+04</pdfrwt>
<totfact> 0.32365124E+00</totfact>
</mgrwt>
</event>
<event>
 8    1  0.1439553E-005  0.1822328E+04  0.7818608E-02  0.8244836E-01
         -2   -1    0    0    0  501 -0.00000000000E+00  0.00000000000E+00  0.10834977046E+04  0.10834977046E+04  0.00000000000E+00 0.  1.
          2   -1    0    0  502    0  0.00000000000E+00 -0.00000000000E+00 -0.31600620207E+04  0.31600620207E+04  0.00000000000E+00 0. -1.
    9000010    2    1    2  502    0  0.15265265236E+04  0.53079498495E+02 -0.14098016717E+04  0.23090383360E+04  0.10054932238E+04 0.  0.
   -9000010    2    1    2    0  501 -0.15265265236E+04 -0.53079498495E+02 -0.66676264450E+03  0.19345213893E+04  0.98219138728E+03 0.  0.
        -13    1    3    3    0    0  0.53532907720E+02 -0.13306148688E+03  0.11273339468E+03  0.18242796096E+03  0.10566000000E+00 0.  1.
          4    1    3    3  502    0  0.14729936159E+04  0.18614098538E+03 -0.15225350663E+04  0.21266103750E+04  0.00000000000E+00 0.  1.
         13    1    4    4    0    0 -0.14014752151E+04 -0.31329371919E+03 -0.76806616936E+03  0.16285611393E+04  0.10566000000E+00 0. -1.
         -4    1    4    4    0  501 -0.12505130855E+03  0.26021422069E+03  0.10130352486E+03  0.30596024998E+03  0.00000000000E+00 0. -1.
<mgrwt>
<rscale>  2 0.18223277E+04</rscale>
<asrwt>0</asrwt>
<pdfrwt beam="2">  1        2 0.48616339E+00 0.18223277E+04</pdfrwt>
<pdfrwt beam="1">  1       -2 0.16669195E+00 0.18223277E+04</pdfrwt>
<totfact> 0.39842328E-01</totfact>
</mgrwt>
</event>
<event>
 8    1  0.1439553E-005  0.1265918E+04  0.7818608E-02  0.8558511E-01
         -2   -1    0    0    0  501 -0.00000000000E+00  0.00000000000E+00  0.45057216173E+03  0.45057216173E+03  0.00000000000E+00 0.  1.
          2   -1    0    0  502    0  0.00000000000E+00 -0.00000000000E+00 -0.35593412572E+04  0.35593412572E+04  0.00000000000E+00 0. -1.
    9000010    2    1    2  502    0  0.50629691171E+03 -0.57050022371E+03 -0.16088037827E+04  0.20470284566E+04  0.10100835723E+04 0.  0.
   -9000010    2    1    2    0  501 -0.50629691171E+03  0.57050022371E+03 -0.14999653128E+04  0.19628849623E+04  0.10105515166E+04 0.  0.
        -13    1    3    3    0    0 -0.61191164915E+01 -0.26575301805E+03  0.62072160249E+02  0.27297449410E+03  0.10566000000E+00 0.  1.
          4    1    3    3  502    0  0.51241602820E+03 -0.30474720567E+03 -0.16708759429E+04  0.17740539625E+04  0.00000000000E+00 0.  1.
         13    1    4    4    0    0 -0.54283205574E+03  0.62581308677E+03 -0.51451998281E+03  0.97521253282E+03  0.10566000000E+00 0. -1.
         -4    1    4    4    0  501  0.36535144028E+02 -0.55312863052E+02 -0.98544533000E+03  0.98767242949E+03  0.00000000000E+00 0. -1.
<mgrwt>
<rscale>  2 0.12659181E+04</rscale>
<asrwt>0</asrwt>
<pdfrwt beam="2">  1        2 0.54759099E+00 0.12659181E+04</pdfrwt>
<pdfrwt beam="1">  1       -2 0.69318791E-01 0.12659181E+04</pdfrwt>
<totfact> 0.21290199E+00</totfact>
</mgrwt>
</event>
<event>
 8    1  0.1439553E-005  0.1513601E+04  0.7818608E-02  0.8401714E-01
         -2   -1    0    0    0  501 -0.00000000000E+00  0.00000000000E+00  0.13860738170E+04  0.13860738170E+04  0.00000000000E+00 0. -1.
          2   -1    0    0  502    0  0.00000000000E+00 -0.00000000000E+00 -0.16534322216E+04  0.16534322216E+04  0.00000000000E+00 0.  1.
    9000010    2    1    2  502    0  0.35599221860E+03 -0.10871213858E+04 -0.15966112815E+03  0.15130972662E+04  0.97744989338E+03 0.  0.
   -9000010    2    1    2    0  501 -0.35599221860E+03  0.10871213858E+04 -0.10769727646E+03  0.15264087725E+04  0.10048689817E+04 0.  0.
        -13    1    3    3    0    0  0.32458755008E+03 -0.12415034416E+04  0.76910239481E+01  0.12832564187E+04  0.10566000000E+00 0.  1.
          4    1    3    3  502    0  0.31404668523E+02  0.15438205583E+03 -0.16735215210E+03  0.22984084750E+03  0.00000000000E+00 0.  1.
         13    1    4    4    0    0  0.93705903645E+02  0.10678965232E+04 -0.93614006356E+02  0.10760796318E+04  0.10566000000E+00 0. -1.
         -4    1    4    4    0  501 -0.44969812225E+03  0.19224862595E+02 -0.14083270102E+02  0.45032914073E+03  0.00000000000E+00 0. -1.
<mgrwt>
<rscale>  2 0.15136007E+04</rscale>
<asrwt>0</asrwt>
<pdfrwt beam="2">  1        2 0.25437419E+00 0.15136007E+04</pdfrwt>
<pdfrwt beam="1">  1       -2 0.21324213E+00 0.15136007E+04</pdfrwt>
<totfact> 0.12336982E+00</totfact>
</mgrwt>
</event>
<event>
 8    1  0.1439553E-005  0.1085998E+04  0.7818608E-02  0.8697738E-01
          2   -1    0    0  502    0  0.00000000000E+00  0.00000000000E+00  0.19296792588E+04  0.19296792588E+04  0.00000000000E+00 0. -1.
         -2   -1    0    0    0  501 -0.00000000000E+00 -0.00000000000E+00 -0.62977695813E+03  0.62977695813E+03  0.00000000000E+00 0.  1.
    9000010    2    1    2  502    0 -0.40208978580E+03  0.96678417535E+02  0.86574841636E+03  0.13835792864E+04  0.99686930387E+03 0.  0.
   -9000010    2    1    2    0  501  0.40208978580E+03 -0.96678417535E+02  0.43415388431E+03  0.11758769306E+04  0.10115206613E+04 0.  0.
        -13    1    3    3    0    0  0.14165371661E+03  0.41685772001E+03  0.43952646857E+03  0.62210904342E+03  0.10566000000E+00 0.  1.
          4    1    3    3  502    0 -0.54374350241E+03 -0.32017930248E+03  0.42622194779E+03  0.76147024296E+03  0.00000000000E+00 0.  1.
         13    1    4    4    0    0  0.86556238214E+02 -0.96109459673E+02 -0.32714151047E+03  0.35178202008E+03  0.10566000000E+00 0. -1.
         -4    1    4    4    0  501  0.31553354758E+03 -0.56895786215E+00  0.76129539478E+03  0.82409491048E+03  0.00000000000E+00 0. -1.
<mgrwt>
<rscale>  2 0.10859983E+04</rscale>
<asrwt>0</asrwt>
<pdfrwt beam="1">  1        2 0.29687373E+00 0.10859983E+04</pdfrwt>
<pdfrwt beam="2">  1       -2 0.96888764E-01 0.10859983E+04</pdfrwt>
<totfact> 0.99733398E+00</totfact>
</mgrwt>
</event>
<event>
 8    1  0.1439553E-005  0.1092981E+04  0.7818608E-02  0.8691825E-01
          2   -1    0    0  502    0  0.00000000000E+00  0.00000000000E+00  0.10458849260E+04  0.10458849260E+04  0.00000000000E+00 0.  1.
         -2   -1    0    0    0  501 -0.00000000000E+00 -0.00000000000E+00 -0.11880784441E+04  0.11880784441E+04  0.00000000000E+00 0. -1.
    9000010    2    1    2  502    0 -0.28104692202E+03  0.36522290245E+03  0.14850062959E+03  0.11014076571E+04  0.98927814553E+03 0.  0.
   -9000010    2    1    2    0  501  0.28104692202E+03 -0.36522290245E+03 -0.29069414767E+03  0.11325557130E+04  0.99287673686E+03 0.  0.
        -13    1    3    3    0    0  0.25004763064E+03  0.47910068960E+03  0.85205753302E+01  0.54049412553E+03  0.10566000000E+00 0.  1.
          4    1    3    3  502    0 -0.53109455267E+03 -0.11387778715E+03  0.13998005426E+03  0.56091353155E+03  0.00000000000E+00 0.  1.
         13    1    4    4    0    0  0.14929732068E+03  0.20767414623E+03  0.23246112914E+03  0.34562469342E+03  0.10566000000E+00 0. -1.
         -4    1    4    4    0  501  0.13174960134E+03 -0.57289704868E+03 -0.52315527682E+03  0.78693101953E+03  0.00000000000E+00 0. -1.
<mgrwt>
<rscale>  2 0.10929810E+04</rscale>
<asrwt>0</asrwt>
<pdfrwt beam="1">  1        2 0.16090537E+00 0.10929810E+04</pdfrwt>
<pdfrwt beam="2">  1       -2 0.18278130E+00 0.10929810E+04</pdfrwt>
<totfact> 0.50514729E+00</totfact>
</mgrwt>
</event>
<event>
 8    1  0.1439553E-005  0.1035491E+04  0.7818608E-02  0.8741941E-01
          1   -1    0    0  502    0  0.00000000000E+00  0.00000000000E+00  0.14725170012E+04  0.14725170012E+04  0.00000000000E+00 0. -1.
         -1   -1    0    0    0  501 -0.00000000000E+00 -0.00000000000E+00 -0.73922495066E+03  0.73922495066E+03  0.00000000000E+00 0.  1.
    9000010    2    1    2  502    0 -0.15899853500E+03  0.16440012235E+03  0.23294690973E+03  0.10654862675E+04  0.10142429636E+04 0.  0.
   -9000010    2    1    2    0  501  0.15899853500E+03 -0.16440012235E+03  0.50034514085E+03  0.11462556844E+04  0.10056087209E+04 0.  0.
        -13    1    3    3    0    0 -0.35938520984E+03  0.10497708769E+03  0.56222038086E+03  0.67547737624E+03  0.10566000000E+00 0.  1.
          4    1    3    3  502    0  0.20038667484E+03  0.59423034663E+02 -0.32927347113E+03  0.39000889130E+03  0.00000000000E+00 0.  1.
         13    1    4    4    0    0 -0.89247845739E+02  0.26578022928E+03 -0.15780897687E+03  0.32172658049E+03  0.10566000000E+00 0. -1.
         -4    1    4    4    0  501  0.24824638074E+03 -0.43018035163E+03  0.65815411772E+03  0.82452910389E+03  0.00000000000E+00 0. -1.
<mgrwt>
<rscale>  2 0.10354909E+04</rscale>
<asrwt>0</asrwt>
<pdfrwt beam="1">  1        1 0.22654108E+00 0.10354909E+04</pdfrwt>
<pdfrwt beam="2">  1       -1 0.11372692E+00 0.10354909E+04</pdfrwt>
<totfact> 0.71543415E+00</totfact>
</mgrwt>
</event>
<event>
 8    1  0.1439553E-005  0.1457139E+04  0.7818608E-02  0.8434602E-01
          4   -1    0    0  502    0  0.00000000000E+00  0.00000000000E+00  0.27517626482E+04  0.27517626482E+04  0.00000000000E+00 0.  1.
         -4   -1    0    0    0  501 -0.00000000000E+00 -0.00000000000E+00 -0.88638491290E+03  0.88638491290E+03  0.00000000000E+00 0. -1.
    9000010    2    1    2  502    0 -0.16992688539E+03  0.10525566625E+04  0.15848157114E+04  0.21498945787E+04  0.98673967512E+03 0.  0.
   -9000010    2    1    2    0  501  0.16992688539E+03 -0.10525566625E+04  0.28056202394E+03  0.14882529824E+04  0.99971556762E+03 0.  0.
        -13    1    3    3    0    0  0.21324442379E+03  0.53605485053E+03  0.17913603013E+03  0.60408419571E+03  0.10566000000E+00 0.  1.
          4    1    3    3  502    0 -0.38317130918E+03  0.51650181198E+03  0.14056796813E+04  0.15458103830E+04  0.00000000000E+00 0.  1.
         13    1    4    4    0    0 -0.50640857704E+02 -0.58501117595E+03  0.63235616079E+03  0.86294663665E+03  0.10566000000E+00 0. -1.
         -4    1    4    4    0  501  0.22056774309E+03 -0.46754548656E+03 -0.35179413685E+03  0.62530634574E+03  0.00000000000E+00 0. -1.
<mgrwt>
<rscale>  2 0.14571392E+04</rscale>
<asrwt>0</asrwt>
<pdfrwt beam="1">  1        4 0.42334810E+00 0.14571392E+04</pdfrwt>
<pdfrwt beam="2">  1       -4 0.13636691E+00 0.14571392E+04</pdfrwt>
<totfact> 0.63855234E-02</totfact>
</mgrwt>
</event>
<event>
 8    1  0.1439553E-005  0.2180204E+04  0.7818608E-02  0.8098728E-01
          2   -1    0    0  502    0  0.00000000000E+00  0.00000000000E+00  0.25272565968E+04  0.25272565968E+04  0.00000000000E+00 0. -1.
         -2   -1    0    0    0  501 -0.00000000000E+00 -0.00000000000E+00 -0.27254784891E+04  0.27254784891E+04  0.00000000000E+00 0.  1.
    9000010    2    1    2  502    0 -0.40533551939E+02  0.19377950045E+04  0.13629270292E+04  0.25728086633E+04  0.10025377212E+04 0.  0.
   -9000010    2    1    2    0  501  0.40533551939E+02 -0.19377950045E+04 -0.15611489215E+04  0.26799264226E+04  0.99404588773E+03 0.  0.
        -13    1    3    3    0    0 -0.20432486376E+03  0.12723317850E+04  0.13788838424E+04  0.18872989914E+04  0.10566000000E+00 0.  1.
          4    1    3    3  502    0  0.16379131182E+03  0.66546321955E+03 -0.15956813116E+02  0.68550967191E+03  0.00000000000E+00 0.  1.
         13    1    4    4    0    0 -0.46858411293E+02 -0.93024862074E+03 -0.13606453376E+04  0.16489129610E+04  0.10566000000E+00 0. -1.
         -4    1    4    4    0  501  0.87391963232E+02 -0.10075463838E+04 -0.20050358387E+03  0.10310134616E+04  0.00000000000E+00 0. -1.
<mgrwt>
<rscale>  2 0.21802040E+04</rscale>
<asrwt>0</asrwt>
<pdfrwt beam="1">  1        2 0.38880871E+00 0.21802040E+04</pdfrwt>
<pdfrwt beam="2">  1       -2 0.41930438E+00 0.21802040E+04</pdfrwt>
<totfact> 0.15920658E-02</totfact>
</mgrwt>
</event>
<event>
 8    1  0.1439553E-005  0.1161459E+04  0.7818608E-02  0.8636164E-01
         -2   -1    0    0    0  501 -0.00000000000E+00  0.00000000000E+00  0.10548439950E+04  0.10548439950E+04  0.00000000000E+00 0. -1.
          2   -1    0    0  502    0  0.00000000000E+00 -0.00000000000E+00 -0.23695971606E+04  0.23695971606E+04  0.00000000000E+00 0.  1.
    9000010    2    1    2  502    0  0.23957518900E+03 -0.51535839834E+03  0.50673323826E+03  0.12597651331E+04  0.10036130061E+04 0.  0.
   -9000010    2    1    2    0  501 -0.23957518900E+03  0.51535839834E+03 -0.18214864038E+04  0.21646760224E+04  0.10222617145E+04 0.  0.
        -13    1    3    3    0    0  0.10341700803E+03 -0.58211935040E+03 -0.12988657869E+03  0.60533342064E+03  0.10566000000E+00 0.  1.
          4    1    3    3  502    0  0.13615818097E+03  0.66760952063E+02  0.63661981695E+03  0.65443171248E+03  0.00000000000E+00 0.  1.
         13    1    4    4    0    0  0.37904128794E+03  0.10188103414E+03 -0.40105857397E+03  0.56115954416E+03  0.10566000000E+00 0. -1.
         -4    1    4    4    0  501 -0.61861647695E+03  0.41347736420E+03 -0.14204278299E+04  0.16035164783E+04  0.00000000000E+00 0. -1.
<mgrwt>
<rscale>  2 0.11614591E+04</rscale>
<asrwt>0</asrwt>
<pdfrwt beam="2">  1        2 0.36455341E+00 0.11614591E+04</pdfrwt>
<pdfrwt beam="1">  1       -2 0.16228369E+00 0.11614591E+04</pdfrwt>
<totfact> 0.13842429E+00</totfact>
</mgrwt>
</event>
<event>
 8    1  0.1439553E-005  0.1374025E+04  0.7818608E-02  0.8485904E-01
         -1   -1    0    0    0  501 -0.00000000000E+00  0.00000000000E+00  0.49736987803E+04  0.49736987803E+04  0.00000000000E+00 0.  1.
          1   -1    0    0  502    0  0.00000000000E+00 -0.00000000000E+00 -0.38425508070E+03  0.38425508070E+03  0.00000000000E+00 0. -1.
    9000010    2    1    2  502    0 -0.53603926442E+03 -0.54552133633E+03  0.22681570239E+04  0.25933087261E+04  0.99788889268E+03 0.  0.
   -9000010    2    1    2    0  501  0.53603926442E+03  0.54552133633E+03  0.23212866757E+04  0.27646451350E+04  0.12922690394E+04 0.  0.
        -13    1    3    3    0    0 -0.35428455311E+03 -0.46844545843E+03  0.39049803364E+03  0.70529952328E+03  0.10566000000E+00 0.  1.
          4    1    3    3  502    0 -0.18175471131E+03 -0.77075877902E+02  0.18776589903E+04  0.18880092028E+04  0.00000000000E+00 0.  1.
         13    1    4    4    0    0  0.56722836298E+03  0.50998025224E+03  0.24822895166E+04  0.25968421455E+04  0.10566000000E+00 0. -1.
         -4    1    4    4    0  501 -0.31189098560E+02  0.35541084096E+02 -0.16100284083E+03  0.16780298949E+03  0.00000000000E+00 0. -1.
<mgrwt>
<rscale>  2 0.13740252E+04</rscale>
<asrwt>0</asrwt>
<pdfrwt beam="2">  1        1 0.59116170E-01 0.13740252E+04</pdfrwt>
<pdfrwt beam="1">  1       -1 0.76518438E+00 0.13740252E+04</pdfrwt>
<totfact> 0.39640475E-02</totfact>
</mgrwt>
</event>
<event>
 8    1  0.1439553E-005  0.1124692E+04  0.7818608E-02  0.8665536E-01
         -1   -1    0    0    0  501 -0.00000000000E+00  0.00000000000E+00  0.48372496672E+03  0.48372496672E+03  0.00000000000E+00 0.  1.
          1   -1    0    0  502    0  0.00000000000E+00 -0.00000000000E+00 -0.31067915322E+04  0.31067915322E+04  0.00000000000E+00 0. -1.
    9000010    2    1    2  502    0  0.43370525429E+03 -0.37301017971E+03 -0.60089576101E+03  0.12784096003E+04  0.97263484860E+03 0.  0.
   -9000010    2    1    2    0  501 -0.43370525429E+03  0.37301017971E+03 -0.20221708045E+04  0.23121068987E+04  0.96406779150E+03 0.  0.
        -13    1    3    3    0    0  0.73553371239E+03 -0.37222449452E+03 -0.40393055065E+03  0.91799826650E+03  0.10566000000E+00 0.  1.
          4    1    3    3  502    0 -0.30182845810E+03 -0.78568518913E+00 -0.19696521036E+03  0.36041133377E+03  0.00000000000E+00 0.  1.
         13    1    4    4    0    0 -0.52501858473E+03 -0.58378949441E+02 -0.50001854990E+03  0.72737279125E+03  0.10566000000E+00 0. -1.
         -4    1    4    4    0  501  0.91313330437E+02  0.43138912915E+03 -0.15221522546E+04  0.15847341074E+04  0.00000000000E+00 0. -1.
<mgrwt>
<rscale>  2 0.11246921E+04</rscale>
<asrwt>0</asrwt>
<pdfrwt beam="2">  1        1 0.47796791E+00 0.11246921E+04</pdfrwt>
<pdfrwt beam="1">  1       -1 0.74419228E-01 0.11246921E+04</pdfrwt>
<totfact> 0.65706679E-01</totfact>
</mgrwt>
</event>
<event>
 8    1  0.1439553E-005  0.1045036E+04  0.7818608E-02  0.8733390E-01
          2   -1    0    0  502    0  0.00000000000E+00  0.00000000000E+00  0.24500625832E+04  0.24500625832E+04  0.00000000000E+00 0.  1.
         -2   -1    0    0    0  501 -0.00000000000E+00 -0.00000000000E+00 -0.52843813403E+03  0.52843813403E+03  0.00000000000E+00 0. -1.
    9000010    2    1    2  502    0 -0.23249862415E+03  0.16322534983E+03  0.36965730450E+03  0.11060121103E+04  0.10029547050E+04 0.  0.
   -9000010    2    1    2    0  501  0.23249862415E+03 -0.16322534983E+03  0.15519671446E+04  0.18724886069E+04  0.10084212611E+04 0.  0.
        -13    1    3    3    0    0 -0.37221765238E+03 -0.34952129067E+03  0.16644105461E+03  0.53704166430E+03  0.10566000000E+00 0.  1.
          4    1    3    3  502    0  0.13971902823E+03  0.51274664050E+03  0.20321624989E+03  0.56897044599E+03  0.00000000000E+00 0.  1.
         13    1    4    4    0    0  0.86547011234E+02  0.37240078333E+02 -0.13652786263E+03  0.16588272070E+03  0.10566000000E+00 0. -1.
         -4    1    4    4    0  501  0.14595161291E+03 -0.20046542817E+03  0.16884950073E+04  0.17066058862E+04  0.00000000000E+00 0. -1.
<mgrwt>
<rscale>  2 0.10450359E+04</rscale>
<asrwt>0</asrwt>
<pdfrwt beam="1">  1        2 0.37693270E+00 0.10450359E+04</pdfrwt>
<pdfrwt beam="2">  1       -2 0.81298176E-01 0.10450359E+04</pdfrwt>
<totfact> 0.77824046E+00</totfact>
</mgrwt>
</event>
<event>
 8    1  0.1544531E-005  0.9526058E+03  0.7818608E-02  0.8820443E-01
         -2   -1    0    0    0  501 -0.00000000000E+00  0.00000000000E+00  0.76867242527E+03  0.76867242527E+03  0.00000000000E+00 0. -1.
          2   -1    0    0  502    0  0.00000000000E+00 -0.00000000000E+00 -0.11959229935E+04  0.11959229935E+04  0.00000000000E+00 0.  1.
    9000010    2    1    2  502    0  0.20959951287E+03 -0.23672681190E+03 -0.32234773409E+03  0.99640168748E+03  0.88822109966E+03 0.  0.
   -9000010    2    1    2    0  501 -0.20959951287E+03  0.23672681190E+03 -0.10490283410E+03  0.96819373126E+03  0.90907808101E+03 0.  0.
        -13    1    3    3    0    0 -0.81147024531E+02  0.26843943915E+03  0.75842194845E+02  0.29051096668E+03  0.10566000000E+00 0.  1.
          4    1    3    3  502    0  0.29074653740E+03 -0.50516625104E+03 -0.39818992893E+03  0.70589072080E+03  0.00000000000E+00 0.  1.
         13    1    4    4    0    0 -0.45833367988E+03  0.30704824000E+03 -0.31484105025E+03  0.63519546746E+03  0.10566000000E+00 0. -1.
         -4    1    4    4    0  501  0.24873416701E+03 -0.70321428108E+02  0.20993821615E+03  0.33299826379E+03  0.00000000000E+00 0. -1.
<mgrwt>
<rscale>  2 0.95260581E+03</rscale>
<asrwt>0</asrwt>
<pdfrwt beam="2">  1        2 0.18398815E+00 0.95260581E+03</pdfrwt>
<pdfrwt beam="1">  1       -2 0.11825730E+00 0.95260581E+03</pdfrwt>
<totfact> 0.15566875E+01</totfact>
</mgrwt>
</event>
<event>
 8    1  0.1439553E-005  0.1103443E+04  0.7818608E-02  0.8683050E-01
          1   -1    0    0  502    0  0.00000000000E+00  0.00000000000E+00  0.97717146483E+03  0.97717146483E+03  0.00000000000E+00 0. -1.
         -1   -1    0    0    0  501 -0.00000000000E+00 -0.00000000000E+00 -0.12523860958E+04  0.12523860958E+04  0.00000000000E+00 0.  1.
    9000010    2    1    2  502    0 -0.39993342688E+03 -0.21588637556E+03 -0.58603225160E+02  0.11078514846E+04  0.10086361588E+04 0.  0.
   -9000010    2    1    2    0  501  0.39993342688E+03  0.21588637556E+03 -0.21661140585E+03  0.11217060761E+04  0.10023723594E+04 0.  0.
        -13    1    3    3    0    0  0.10346517665E+03 -0.48901594337E+03 -0.16288799697E+03  0.52571298859E+03  0.10566000000E+00 0.  1.
          4    1    3    3  502    0 -0.50339860353E+03  0.27312956781E+03  0.10428477181E+03  0.58213849596E+03  0.00000000000E+00 0.  1.
         13    1    4    4    0    0  0.18910027026E+03  0.50149387820E+03 -0.44750853912E+03  0.69822555513E+03  0.10566000000E+00 0. -1.
         -4    1    4    4    0  501  0.21083315662E+03 -0.28560750264E+03  0.23089713328E+03  0.42348052098E+03  0.00000000000E+00 0. -1.
<mgrwt>
<rscale>  2 0.11034428E+04</rscale>
<asrwt>0</asrwt>
<pdfrwt beam="1">  1        1 0.15033407E+00 0.11034428E+04</pdfrwt>
<pdfrwt beam="2">  1       -1 0.19267478E+00 0.11034428E+04</pdfrwt>
<totfact> 0.34945511E+00</totfact>
</mgrwt>
</event>
<event>
 8    1  0.1439553E-005  0.1226631E+04  0.7818608E-02  0.8586774E-01
         -2   -1    0    0    0  501 -0.00000000000E+00  0.00000000000E+00  0.46497278408E+03  0.46497278408E+03  0.00000000000E+00 0. -1.
          2   -1    0    0  502    0  0.00000000000E+00 -0.00000000000E+00 -0.33011598649E+04  0.33011598649E+04  0.00000000000E+00 0.  1.
    9000010    2    1    2  502    0  0.70733856659E+03 -0.55505123421E+02 -0.16615980160E+04  0.20550550598E+04  0.97925209490E+03 0.  0.
   -9000010    2    1    2    0  501 -0.70733856659E+03  0.55505123421E+02 -0.11745890648E+04  0.17110775892E+04  0.10221146602E+04 0.  0.
        -13    1    3    3    0    0 -0.10983973647E+03  0.13950739946E+03  0.16580273849E+02  0.17833114943E+03  0.10566000000E+00 0.  1.
          4    1    3    3  502    0  0.81717830306E+03 -0.19501252288E+03 -0.16781782899E+04  0.18767239104E+04  0.00000000000E+00 0.  1.
         13    1    4    4    0    0 -0.82550669694E+02 -0.23362619519E+03  0.96189474519E+02  0.26579736326E+03  0.10566000000E+00 0. -1.
         -4    1    4    4    0  501 -0.62478789689E+03  0.28913131861E+03 -0.12707785393E+04  0.14452802260E+04  0.00000000000E+00 0. -1.
<mgrwt>
<rscale>  2 0.12266311E+04</rscale>
<asrwt>0</asrwt>
<pdfrwt beam="2">  1        2 0.50787074E+00 0.12266311E+04</pdfrwt>
<pdfrwt beam="1">  1       -2 0.71534275E-01 0.12266311E+04</pdfrwt>
<totfact> 0.30605448E+00</totfact>
</mgrwt>
</event>
<event>
 8    1  0.1439553E-005  0.1479053E+04  0.7818608E-02  0.8421657E-01
         -1   -1    0    0    0  501 -0.00000000000E+00  0.00000000000E+00  0.10824128280E+04  0.10824128280E+04  0.00000000000E+00 0.  1.
          1   -1    0    0  502    0  0.00000000000E+00 -0.00000000000E+00 -0.21183629305E+04  0.21183629305E+04  0.00000000000E+00 0. -1.
    9000010    2    1    2  502    0  0.69765855815E+03  0.85334410361E+03 -0.86294502957E+03  0.17175579599E+04  0.99519224197E+03 0.  0.
   -9000010    2    1    2    0  501 -0.69765855815E+03 -0.85334410361E+03 -0.17300507298E+03  0.14832177986E+04  0.97728228264E+03 0.  0.
        -13    1    3    3    0    0  0.14605052331E+02 -0.22768474068E+02 -0.56734085286E+03  0.56798535672E+03  0.10566000000E+00 0.  1.
          4    1    3    3  502    0  0.68305350582E+03  0.87611257768E+03 -0.29560417671E+03  0.11495726031E+04  0.00000000000E+00 0.  1.
         13    1    4    4    0    0 -0.93069544634E+03 -0.72412449128E+03 -0.27331610853E+02  0.11795326705E+04  0.10566000000E+00 0. -1.
         -4    1    4    4    0  501  0.23303688819E+03 -0.12921961233E+03 -0.14567346213E+03  0.30368512811E+03  0.00000000000E+00 0. -1.
<mgrwt>
<rscale>  2 0.14790525E+04</rscale>
<asrwt>0</asrwt>
<pdfrwt beam="2">  1        1 0.32590199E+00 0.14790525E+04</pdfrwt>
<pdfrwt beam="1">  1       -1 0.16652505E+00 0.14790525E+04</pdfrwt>
<totfact> 0.76243547E-01</totfact>
</mgrwt>
</event>
<event>
 8    1  0.1439553E-005  0.1038218E+04  0.7818608E-02  0.8739489E-01
         -2   -1    0    0    0  501 -0.00000000000E+00  0.00000000000E+00  0.18723362892E+04  0.18723362892E+04  0.00000000000E+00 0.  1.
          2   -1    0    0  502    0  0.00000000000E+00 -0.00000000000E+00 -0.70433680940E+03  0.70433680940E+03  0.00000000000E+00 0. -1.
    9000010    2    1    2  502    0  0.11770260559E+03  0.26720283820E+03  0.30926536222E+02  0.10332078005E+04  0.99061124977E+03 0.  0.
   -9000010    2    1    2    0  501 -0.11770260559E+03 -0.26720283820E+03  0.11370729436E+04  0.15434652981E+04  0.10020473978E+04 0.  0.
        -13    1    3    3    0    0 -0.32443667989E+03  0.30129136072E+03 -0.24980246675E+03  0.50836692149E+03  0.10566000000E+00 0.  1.
          4    1    3    3  502    0  0.44213928547E+03 -0.34088522518E+02  0.28072900298E+03  0.52484087897E+03  0.00000000000E+00 0.  1.
         13    1    4    4    0    0 -0.23261855403E+03 -0.59312917969E+03  0.96769824525E+03  0.11585998103E+04  0.10566000000E+00 0. -1.
         -4    1    4    4    0  501  0.11491594844E+03  0.32592634148E+03  0.16937469833E+03  0.38486548782E+03  0.00000000000E+00 0. -1.
<mgrwt>
<rscale>  2 0.10382176E+04</rscale>
<asrwt>0</asrwt>
<pdfrwt beam="2">  1        2 0.10835951E+00 0.10382176E+04</pdfrwt>
<pdfrwt beam="1">  1       -2 0.28805173E+00 0.10382176E+04</pdfrwt>
<totfact> 0.12557426E+00</totfact>
</mgrwt>
</event>
<event>
 8    1  0.1439553E-005  0.1066456E+04  0.7818608E-02  0.8714538E-01
         -1   -1    0    0    0  501 -0.00000000000E+00  0.00000000000E+00  0.32162697872E+04  0.32162697872E+04  0.00000000000E+00 0.  1.
          1   -1    0    0  502    0  0.00000000000E+00 -0.00000000000E+00 -0.35634823816E+03  0.35634823816E+03  0.00000000000E+00 0. -1.
    9000010    2    1    2  502    0  0.31458034224E+03 -0.18228119307E+03  0.12729590729E+04  0.16603454705E+04  0.10020653947E+04 0.  0.
   -9000010    2    1    2    0  501 -0.31458034224E+03  0.18228119307E+03  0.15869624761E+04  0.19122725548E+04  0.10030698869E+04 0.  0.
        -13    1    3    3    0    0 -0.28567496754E+03 -0.33715027265E+03  0.45831095035E+03  0.63665487652E+03  0.10566000000E+00 0.  1.
          4    1    3    3  502    0  0.60025530978E+03  0.15486907959E+03  0.81464812255E+03  0.10236905940E+04  0.00000000000E+00 0.  1.
         13    1    4    4    0    0 -0.57928268677E+02  0.56445105367E+03  0.61481147111E+03  0.83663243570E+03  0.10566000000E+00 0. -1.
         -4    1    4    4    0  501 -0.25665207356E+03 -0.38216986061E+03  0.97215100499E+03  0.10756401191E+04  0.00000000000E+00 0. -1.
<mgrwt>
<rscale>  2 0.10664562E+04</rscale>
<asrwt>0</asrwt>
<pdfrwt beam="2">  1        1 0.54822808E-01 0.10664562E+04</pdfrwt>
<pdfrwt beam="1">  1       -1 0.49481072E+00 0.10664562E+04</pdfrwt>
<totfact> 0.95866297E-01</totfact>
</mgrwt>
</event>
<event>
 8    1  0.1439553E-005  0.1136410E+04  0.7818608E-02  0.8656050E-01
         -2   -1    0    0    0  501 -0.00000000000E+00  0.00000000000E+00  0.26578550670E+03  0.26578550670E+03  0.00000000000E+00 0. -1.
          2   -1    0    0  502    0  0.00000000000E+00 -0.00000000000E+00 -0.50114652012E+04  0.50114652012E+04  0.00000000000E+00 0.  1.
    9000010    2    1    2  502    0 -0.53352025916E+03  0.10083507881E+03 -0.19086442832E+04  0.22203691567E+04  0.99614487515E+03 0.  0.
   -9000010    2    1    2    0  501  0.53352025916E+03 -0.10083507881E+03 -0.28370354114E+04  0.30568815512E+04  0.10004715453E+04 0.  0.
        -13    1    3    3    0    0 -0.44719136163E+02  0.44250856431E+03 -0.40019099430E+03  0.59830299491E+03  0.10566000000E+00 0.  1.
          4    1    3    3  502    0 -0.48880112299E+03 -0.34167348550E+03 -0.15084532889E+04  0.16220661618E+04  0.00000000000E+00 0.  1.
         13    1    4    4    0    0 -0.24880145456E+03  0.17432903436E+03 -0.89625647355E+03  0.94634478578E+03  0.10566000000E+00 0. -1.
         -4    1    4    4    0  501  0.78232171372E+03 -0.27516411318E+03 -0.19407789378E+04  0.21105367655E+04  0.00000000000E+00 0. -1.
<mgrwt>
<rscale>  2 0.11364103E+04</rscale>
<asrwt>0</asrwt>
<pdfrwt beam="2">  1        2 0.77099462E+00 0.11364103E+04</pdfrwt>
<pdfrwt beam="1">  1       -2 0.40890079E-01 0.11364103E+04</pdfrwt>
<totfact> 0.33312094E-01</totfact>
</mgrwt>
</event>
<event>
 8    1  0.1439553E-005  0.1175132E+04  0.7818608E-02  0.8625527E-01
          2   -1    0    0  502    0  0.00000000000E+00  0.00000000000E+00  0.17757376407E+04  0.17757376407E+04  0.00000000000E+00 0. -1.
         -2   -1    0    0    0  501 -0.00000000000E+00 -0.00000000000E+00 -0.86098035661E+03  0.86098035661E+03  0.00000000000E+00 0.  1.
    9000010    2    1    2  502    0  0.64620032345E+03 -0.57139017624E+02  0.86841087416E+03  0.14633521680E+04  0.98306784905E+03 0.  0.
   -9000010    2    1    2    0  501 -0.64620032345E+03  0.57139017624E+02  0.46346409945E+02  0.11733658293E+04  0.97662667092E+03 0.  0.
        -13    1    3    3    0    0  0.57376289624E+03  0.40987384133E+03  0.52922997901E+03  0.88163757222E+03  0.10566000000E+00 0.  1.
          4    1    3    3  502    0  0.72437427214E+02 -0.46701285895E+03  0.33918089515E+03  0.58171459577E+03  0.00000000000E+00 0.  1.
         13    1    4    4    0    0  0.18483962490E+03  0.24445940027E+03 -0.67739800388E+02  0.31387063742E+03  0.10566000000E+00 0. -1.
         -4    1    4    4    0  501 -0.83103994836E+03 -0.18732038265E+03  0.11408621033E+03  0.85949519190E+03  0.00000000000E+00 0. -1.
<mgrwt>
<rscale>  2 0.11751325E+04</rscale>
<asrwt>0</asrwt>
<pdfrwt beam="1">  1        2 0.27319041E+00 0.11751325E+04</pdfrwt>
<pdfrwt beam="2">  1       -2 0.13245852E+00 0.11751325E+04</pdfrwt>
<totfact> 0.53663457E+00</totfact>
</mgrwt>
</event>
<event>
 8    1  0.1439553E-005  0.1515089E+04  0.7818608E-02  0.8400868E-01
          2   -1    0    0  502    0  0.00000000000E+00  0.00000000000E+00  0.19159897598E+04  0.19159897598E+04  0.00000000000E+00 0. -1.
         -2   -1    0    0    0  501 -0.00000000000E+00 -0.00000000000E+00 -0.12540505584E+04  0.12540505584E+04  0.00000000000E+00 0.  1.
    9000010    2    1    2  502    0 -0.81947323560E+02  0.11129093920E+04 -0.69870239247E+01  0.14981763454E+04  0.99960035255E+03 0.  0.
   -9000010    2    1    2    0  501  0.81947323560E+02 -0.11129093920E+04  0.66892622531E+03  0.16718639728E+04  0.10499448415E+04 0.  0.
        -13    1    3    3    0    0  0.18704209980E+03  0.11951816716E+04 -0.62981698904E+02  0.12113672774E+04  0.10566000000E+00 0.  1.
          4    1    3    3  502    0 -0.26898942336E+03 -0.82272279594E+02  0.55994674979E+02  0.28680906801E+03  0.00000000000E+00 0.  1.
         13    1    4    4    0    0  0.55474732915E+03 -0.74703773717E+03  0.34878782539E+03  0.99371169776E+03  0.10566000000E+00 0. -1.
         -4    1    4    4    0  501 -0.47280000559E+03 -0.36587165481E+03  0.32013839992E+03  0.67815227507E+03  0.00000000000E+00 0. -1.
<mgrwt>
<rscale>  2 0.15150893E+04</rscale>
<asrwt>0</asrwt>
<pdfrwt beam="1">  1        2 0.29476766E+00 0.15150893E+04</pdfrwt>
<pdfrwt beam="2">  1       -2 0.19293086E+00 0.15150893E+04</pdfrwt>
<totfact> 0.13041557E+00</totfact>
</mgrwt>
</event>
<event>
 8    1  0.1439553E-005  0.1408399E+04  0.7818608E-02  0.8464247E-01
         -2   -1    0    0    0  501 -0.00000000000E+00  0.00000000000E+00  0.90373005733E+03  0.90373005733E+03  0.00000000000E+00 0. -1.
          2   -1    0    0  502    0  0.00000000000E+00 -0.00000000000E+00 -0.21956852603E+04  0.21956852603E+04  0.00000000000E+00 0.  1.
    9000010    2    1    2  502    0  0.59115164427E+02 -0.99348838573E+03 -0.61620678132E+03  0.15367411940E+04  0.99566506659E+03 0.  0.
   -9000010    2    1    2    0  501 -0.59115164427E+02  0.99348838573E+03 -0.67574842164E+03  0.15626741236E+04  0.99739696807E+03 0.  0.
        -13    1    3    3    0    0  0.19468821118E+03 -0.10853422660E+04 -0.74300134710E+03  0.13296324104E+04  0.10566000000E+00 0.  1.
          4    1    3    3  502    0 -0.13557304676E+03  0.91853880266E+02  0.12679456578E+03  0.20710878359E+03  0.00000000000E+00 0.  1.
         13    1    4    4    0    0 -0.29878437104E+03  0.10585133236E+04 -0.71415443668E+03  0.13113882443E+04  0.10566000000E+00 0. -1.
         -4    1    4    4    0  501  0.23966920661E+03 -0.65024937886E+02  0.38406015037E+02  0.25128587930E+03  0.00000000000E+00 0. -1.
<mgrwt>
<rscale>  2 0.14083990E+04</rscale>
<asrwt>0</asrwt>
<pdfrwt beam="2">  1        2 0.33779773E+00 0.14083990E+04</pdfrwt>
<pdfrwt beam="1">  1       -2 0.13903539E+00 0.14083990E+04</pdfrwt>
<totfact> 0.26891084E+00</totfact>
</mgrwt>
</event>
<event>
 8    1  0.1439553E-005  0.1082953E+04  0.7818608E-02  0.8700332E-01
          2   -1    0    0  502    0  0.00000000000E+00  0.00000000000E+00  0.21662984436E+04  0.21662984436E+04  0.00000000000E+00 0.  1.
         -2   -1    0    0    0  501 -0.00000000000E+00 -0.00000000000E+00 -0.54182328689E+03  0.54182328689E+03  0.00000000000E+00 0. -1.
    9000010    2    1    2  502    0 -0.15680591915E+03 -0.38009454361E+03  0.85353759840E+03  0.13818173178E+04  0.10058989559E+04 0.  0.
   -9000010    2    1    2    0  501  0.15680591915E+03  0.38009454361E+03  0.77093755833E+03  0.13263044127E+04  0.99783701975E+03 0.  0.
        -13    1    3    3    0    0  0.47461264019E+02  0.26757615479E+03  0.59685459736E+03  0.65580865483E+03  0.10566000000E+00 0.  1.
          4    1    3    3  502    0 -0.20426718317E+03 -0.64767069840E+03  0.25668300104E+03  0.72600866297E+03  0.00000000000E+00 0.  1.
         13    1    4    4    0    0  0.51613146223E+03  0.30826071841E+03  0.74730967230E+03  0.95910797843E+03  0.10566000000E+00 0. -1.
         -4    1    4    4    0  501 -0.35932554308E+03  0.71833825191E+02  0.23627886037E+02  0.36719643428E+03  0.00000000000E+00 0. -1.
<mgrwt>
<rscale>  2 0.10829533E+04</rscale>
<asrwt>0</asrwt>
<pdfrwt beam="1">  1        2 0.33327668E+00 0.10829533E+04</pdfrwt>
<pdfrwt beam="2">  1       -2 0.83357430E-01 0.10829533E+04</pdfrwt>
<totfact> 0.10482911E+01</totfact>
</mgrwt>
</event>
<event>
 8    1  0.1439553E-005  0.1937976E+04  0.7818608E-02  0.8194123E-01
          2   -1    0    0  502    0  0.00000000000E+00  0.00000000000E+00  0.23893177314E+04  0.23893177314E+04  0.00000000000E+00 0.  1.
         -2   -1    0    0    0  501 -0.00000000000E+00 -0.00000000000E+00 -0.16325382977E+04  0.16325382977E+04  0.00000000000E+00 0. -1.
    9000010    2    1    2  502    0 -0.88523441864E+03  0.13959656189E+04 -0.12051813527E+02  0.19206388235E+04  0.97793060021E+03 0.  0.
   -9000010    2    1    2    0  501  0.88523441864E+03 -0.13959656189E+04  0.76883124723E+03  0.21012172057E+04  0.10448216468E+04 0.  0.
        -13    1    3    3    0    0 -0.35439752188E+03  0.95748175840E+03 -0.43807113166E+03  0.11109794097E+04  0.10566000000E+00 0.  1.
          4    1    3    3  502    0 -0.53083689676E+03  0.43848386050E+03  0.42601931813E+03  0.80965941377E+03  0.00000000000E+00 0.  1.
         13    1    4    4    0    0  0.93658336804E+03 -0.77518951091E+03  0.83487439688E+03  0.14748296352E+04  0.10566000000E+00 0. -1.
         -4    1    4    4    0  501 -0.51348949403E+02 -0.62077610799E+03 -0.66043149649E+02  0.62638757050E+03  0.00000000000E+00 0. -1.
<mgrwt>
<rscale>  2 0.19379760E+04</rscale>
<asrwt>0</asrwt>
<pdfrwt beam="1">  1        2 0.36758734E+00 0.19379760E+04</pdfrwt>
<pdfrwt beam="2">  1       -2 0.25115974E+00 0.19379760E+04</pdfrwt>
<totfact> 0.23220928E-01</totfact>
</mgrwt>
</event>
<event>
 8    1  0.1439553E-005  0.1125217E+04  0.7818608E-02  0.8665109E-01
          2   -1    0    0  502    0  0.00000000000E+00  0.00000000000E+00  0.21533925003E+04  0.21533925003E+04  0.00000000000E+00 0.  1.
         -2   -1    0    0    0  501 -0.00000000000E+00 -0.00000000000E+00 -0.63429274980E+03  0.63429274980E+03  0.00000000000E+00 0. -1.
    9000010    2    1    2  502    0 -0.93736057741E+02  0.46021649445E+03  0.11518410377E+04  0.16296750662E+04  0.10528615175E+04 0.  0.
   -9000010    2    1    2    0  501  0.93736057741E+02 -0.46021649445E+03  0.36725871283E+03  0.11580101839E+04  0.99273508728E+03 0.  0.
        -13    1    3    3    0    0 -0.54239081362E+03  0.27806011914E+03  0.37921307054E+03  0.71784941916E+03  0.10566000000E+00 0.  1.
          4    1    3    3  502    0  0.44865475588E+03  0.18215637531E+03  0.77262796715E+03  0.91182564708E+03  0.00000000000E+00 0.  1.
         13    1    4    4    0    0 -0.41430242536E+03 -0.19673989921E+03  0.36427819409E+03  0.58570615624E+03  0.10566000000E+00 0. -1.
         -4    1    4    4    0  501  0.50803848310E+03 -0.26347659524E+03  0.29805187312E+01  0.57230402763E+03  0.00000000000E+00 0. -1.
<mgrwt>
<rscale>  2 0.11252170E+04</rscale>
<asrwt>0</asrwt>
<pdfrwt beam="1">  1        2 0.33129115E+00 0.11252170E+04</pdfrwt>
<pdfrwt beam="2">  1       -2 0.97583501E-01 0.11252170E+04</pdfrwt>
<totfact> 0.73737912E+00</totfact>
</mgrwt>
</event>
<event>
 8    1  0.1439553E-005  0.1350383E+04  0.7818608E-02  0.8501181E-01
         -2   -1    0    0    0  501 -0.00000000000E+00  0.00000000000E+00  0.14407018420E+04  0.14407018420E+04  0.00000000000E+00 0. -1.
          2   -1    0    0  502    0  0.00000000000E+00 -0.00000000000E+00 -0.12659829256E+04  0.12659829256E+04  0.00000000000E+00 0.  1.
    9000010    2    1    2  502    0  0.63648986765E+03 -0.66631857785E+03  0.10612832746E+03  0.13601296617E+04  0.99478122012E+03 0.  0.
   -9000010    2    1    2    0  501 -0.63648986765E+03  0.66631857785E+03  0.68590588941E+02  0.13465551059E+04  0.97949282051E+03 0.  0.
        -13    1    3    3    0    0  0.18384086396E+03 -0.81043176157E+03 -0.10994025439E+03  0.83826247329E+03  0.10566000000E+00 0.  1.
          4    1    3    3  502    0  0.45264900369E+03  0.14411318372E+03  0.21606858184E+03  0.52186718840E+03  0.00000000000E+00 0.  1.
         13    1    4    4    0    0 -0.86292930678E+03  0.29895074812E+03  0.49297901014E+02  0.91457576641E+03  0.10566000000E+00 0. -1.
         -4    1    4    4    0  501  0.22643943912E+03  0.36736782973E+03  0.19292687926E+02  0.43197933946E+03  0.00000000000E+00 0. -1.
<mgrwt>
<rscale>  2 0.13503834E+04</rscale>
<asrwt>0</asrwt>
<pdfrwt beam="2">  1        2 0.19476660E+00 0.13503834E+04</pdfrwt>
<pdfrwt beam="1">  1       -2 0.22164644E+00 0.13503834E+04</pdfrwt>
<totfact> 0.17535891E+00</totfact>
</mgrwt>
</event>
<event>
 8    1  0.1439553E-005  0.1033606E+04  0.7818608E-02  0.8743641E-01
         -2   -1    0    0    0  501 -0.00000000000E+00  0.00000000000E+00  0.14543797601E+04  0.14543797601E+04  0.00000000000E+00 0.  1.
          2   -1    0    0  502    0  0.00000000000E+00 -0.00000000000E+00 -0.11874326367E+04  0.11874326367E+04  0.00000000000E+00 0. -1.
    9000010    2    1    2  502    0  0.18569035765E+03  0.41485994606E+03  0.94437521503E+03  0.13701063475E+04  0.88247219392E+03 0.  0.
   -9000010    2    1    2    0  501 -0.18569035765E+03 -0.41485994606E+03 -0.67742809163E+03  0.12717060493E+04  0.97557048579E+03 0.  0.
        -13    1    3    3    0    0  0.24464246228E+03 -0.54219523954E+01  0.91224589566E+03  0.94449558878E+03  0.10566000000E+00 0.  1.
          4    1    3    3  502    0 -0.58952104629E+02  0.42028189845E+03  0.32129319371E+02  0.42561075876E+03  0.00000000000E+00 0.  1.
         13    1    4    4    0    0  0.39977124331E+03 -0.18996868394E+03 -0.34959296379E+03  0.56402163022E+03  0.10566000000E+00 0. -1.
         -4    1    4    4    0  501 -0.58546160096E+03 -0.22489126212E+03 -0.32783512784E+03  0.70768441909E+03  0.00000000000E+00 0. -1.
<mgrwt>
<rscale>  2 0.10336062E+04</rscale>
<asrwt>0</asrwt>
<pdfrwt beam="2">  1        2 0.18268194E+00 0.10336062E+04</pdfrwt>
<pdfrwt beam="1">  1       -2 0.22375073E+00 0.10336062E+04</pdfrwt>
<totfact> 0.19363792E+00</totfact>
</mgrwt>
</event>
<event>
 8    1  0.1439553E-005  0.1590804E+04  0.7818608E-02  0.8359077E-01
          2   -1    0    0  502    0  0.00000000000E+00  0.00000000000E+00  0.17636662587E+04  0.17636662587E+04  0.00000000000E+00 0.  1.
         -2   -1    0    0    0  501 -0.00000000000E+00 -0.00000000000E+00 -0.14350161245E+04  0.14350161245E+04  0.00000000000E+00 0. -1.
    9000010    2    1    2  502    0  0.12273508837E+04  0.25155138416E+03  0.15726794712E+03  0.16113187060E+04  0.10009727642E+04 0.  0.
   -9000010    2    1    2    0  501 -0.12273508837E+04 -0.25155138416E+03  0.17138218712E+03  0.15873636772E+04  0.95952243279E+03 0.  0.
        -13    1    3    3    0    0  0.57105602946E+03 -0.30991563186E+02  0.55214129815E+03  0.79493741267E+03  0.10566000000E+00 0.  1.
          4    1    3    3  502    0  0.65629485422E+03  0.28254294735E+03 -0.39487335103E+03  0.81638129334E+03  0.00000000000E+00 0.  1.
         13    1    4    4    0    0 -0.95353139560E+03 -0.54466197038E+03  0.34391380497E+03  0.11507195578E+04  0.10566000000E+00 0. -1.
         -4    1    4    4    0  501 -0.27381948808E+03  0.29311058622E+03 -0.17253161785E+03  0.43664411935E+03  0.00000000000E+00 0. -1.
<mgrwt>
<rscale>  2 0.15908039E+04</rscale>
<asrwt>0</asrwt>
<pdfrwt beam="1">  1        2 0.27133327E+00 0.15908039E+04</pdfrwt>
<pdfrwt beam="2">  1       -2 0.22077171E+00 0.15908039E+04</pdfrwt>
<totfact> 0.92395568E-01</totfact>
</mgrwt>
</event>
<event>
 8    1  0.1439553E-005  0.1134186E+04  0.7818608E-02  0.8657841E-01
          2   -1    0    0  502    0  0.00000000000E+00  0.00000000000E+00  0.42149079063E+03  0.42149079063E+03  0.00000000000E+00 0. -1.
         -2   -1    0    0    0  501 -0.00000000000E+00 -0.00000000000E+00 -0.30523062639E+04  0.30523062639E+04  0.00000000000E+00 0.  1.
    9000010    2    1    2  502    0 -0.32898254949E+02 -0.56288267983E+03 -0.13102066917E+04  0.17379082603E+04  0.99285665628E+03 0.  0.
   -9000010    2    1    2    0  501  0.32898254949E+02  0.56288267983E+03 -0.13206087816E+04  0.17358887942E+04  0.97538871507E+03 0.  0.
        -13    1    3    3    0    0  0.74822887409E+02 -0.10330923958E+03 -0.12563585509E+04  0.12628175177E+04  0.10566000000E+00 0.  1.
          4    1    3    3  502    0 -0.10772114236E+03 -0.45957344025E+03 -0.53848140859E+02  0.47509074267E+03  0.00000000000E+00 0.  1.
         13    1    4    4    0    0 -0.13870629720E+03  0.29065984497E+03 -0.13726367681E+04  0.14099128664E+04  0.10566000000E+00 0. -1.
         -4    1    4    4    0  501  0.17160455215E+03  0.27222283486E+03  0.52027986571E+02  0.32597592783E+03  0.00000000000E+00 0. -1.
<mgrwt>
<rscale>  2 0.11341861E+04</rscale>
<asrwt>0</asrwt>
<pdfrwt beam="1">  1        2 0.64844739E-01 0.11341861E+04</pdfrwt>
<pdfrwt beam="2">  1       -2 0.46958556E+00 0.11341861E+04</pdfrwt>
<totfact> 0.31253357E-01</totfact>
</mgrwt>
</event>
<event>
 8    1  0.1439553E-005  0.2049093E+04  0.7818608E-02  0.8148692E-01
         -4   -1    0    0    0  501 -0.00000000000E+00  0.00000000000E+00  0.15384472090E+04  0.15384472090E+04  0.00000000000E+00 0. -1.
          4   -1    0    0  502    0  0.00000000000E+00 -0.00000000000E+00 -0.33948336222E+04  0.33948336222E+04  0.00000000000E+00 0.  1.
    9000010    2    1    2  502    0  0.15425535325E+04  0.86880506750E+03 -0.20287095511E+04  0.29005527884E+04  0.10785408613E+04 0.  0.
   -9000010    2    1    2    0  501 -0.15425535325E+04 -0.86880506750E+03  0.17232313788E+03  0.20327280429E+04  0.98386705728E+03 0.  0.
        -13    1    3    3    0    0  0.60654620972E+03  0.62308572730E+03 -0.16427565351E+04  0.18587047030E+04  0.10566000000E+00 0.  1.
          4    1    3    3  502    0  0.93600732282E+03  0.24571934019E+03 -0.38595301600E+03  0.10418480854E+04  0.00000000000E+00 0.  1.
         13    1    4    4    0    0 -0.70757775944E+03 -0.86157884924E+03 -0.17467201637E+03  0.11284922346E+04  0.10566000000E+00 0. -1.
         -4    1    4    4    0  501 -0.83497577310E+03 -0.72262182608E+01  0.34699515424E+03  0.90423580827E+03  0.00000000000E+00 0. -1.
<mgrwt>
<rscale>  2 0.20490928E+04</rscale>
<asrwt>0</asrwt>
<pdfrwt beam="2">  1        4 0.52228209E+00 0.20490928E+04</pdfrwt>
<pdfrwt beam="1">  1       -4 0.23668419E+00 0.20490928E+04</pdfrwt>
<totfact> 0.96876686E-03</totfact>
</mgrwt>
</event>
<event>
 8    1  0.1439553E-005  0.1316142E+04  0.7818608E-02  0.8523886E-01
         -1   -1    0    0    0  501 -0.00000000000E+00  0.00000000000E+00  0.14250891756E+04  0.14250891756E+04  0.00000000000E+00 0.  1.
          1   -1    0    0  502    0  0.00000000000E+00 -0.00000000000E+00 -0.13784742304E+04  0.13784742304E+04  0.00000000000E+00 0. -1.
    9000010    2    1    2  502    0  0.87070463419E+03 -0.15635439413E+03 -0.45800900782E+03  0.14104022996E+04  0.99844335794E+03 0.  0.
   -9000010    2    1    2    0  501 -0.87070463419E+03  0.15635439413E+03  0.50462395296E+03  0.13931611064E+04  0.95062046993E+03 0.  0.
        -13    1    3    3    0    0  0.10408200018E+04 -0.29814909789E+03 -0.26030903703E+03  0.11135348970E+04  0.10566000000E+00 0.  1.
          4    1    3    3  502    0 -0.17011536765E+03  0.14179470376E+03 -0.19769997080E+03  0.29686740269E+03  0.00000000000E+00 0.  1.
         13    1    4    4    0    0 -0.31089386429E+03 -0.38447812634E+03  0.63614522824E+02  0.49852306182E+03  0.10566000000E+00 0. -1.
         -4    1    4    4    0  501 -0.55981076990E+03  0.54083252047E+03  0.44100943014E+03  0.89463804456E+03  0.00000000000E+00 0. -1.
<mgrwt>
<rscale>  2 0.13161423E+04</rscale>
<asrwt>0</asrwt>
<pdfrwt beam="2">  1        1 0.21207296E+00 0.13161423E+04</pdfrwt>
<pdfrwt beam="1">  1       -1 0.21924449E+00 0.13161423E+04</pdfrwt>
<totfact> 0.95268573E-01</totfact>
</mgrwt>
</event>
<event>
 8    1  0.1439553E-005  0.1419925E+04  0.7818608E-02  0.8457127E-01
          1   -1    0    0  502    0  0.00000000000E+00  0.00000000000E+00  0.29451144037E+04  0.29451144037E+04  0.00000000000E+00 0. -1.
         -1   -1    0    0    0  501 -0.00000000000E+00 -0.00000000000E+00 -0.68479812317E+03  0.68479812317E+03  0.00000000000E+00 0.  1.
    9000010    2    1    2  502    0  0.54175294620E+02  0.10024324115E+04  0.11602755385E+04  0.18321033579E+04  0.10012780266E+04 0.  0.
   -9000010    2    1    2    0  501 -0.54175294620E+02 -0.10024324115E+04  0.11000407420E+04  0.17978091689E+04  0.10070861292E+04 0.  0.
        -13    1    3    3    0    0  0.51359054994E+03  0.56879900455E+03  0.78619763815E+03  0.10979136113E+04  0.10566000000E+00 0.  1.
          4    1    3    3  502    0 -0.45941525531E+03  0.43363340696E+03  0.37407790039E+03  0.73418974660E+03  0.00000000000E+00 0.  1.
         13    1    4    4    0    0  0.31064548279E+03 -0.25763448729E+03 -0.20078654850E+02  0.40407834459E+03  0.10566000000E+00 0. -1.
         -4    1    4    4    0  501 -0.36482077741E+03 -0.74479792422E+03  0.11201193968E+04  0.13937308243E+04  0.00000000000E+00 0. -1.
<mgrwt>
<rscale>  2 0.14199251E+04</rscale>
<asrwt>0</asrwt>
<pdfrwt beam="1">  1        1 0.45309452E+00 0.14199251E+04</pdfrwt>
<pdfrwt beam="2">  1       -1 0.10535356E+00 0.14199251E+04</pdfrwt>
<totfact> 0.46583683E-01</totfact>
</mgrwt>
</event>
<event>
 8    1  0.1439553E-005  0.1310604E+04  0.7818608E-02  0.8527626E-01
          2   -1    0    0  502    0  0.00000000000E+00  0.00000000000E+00  0.18585871718E+04  0.18585871718E+04  0.00000000000E+00 0. -1.
         -2   -1    0    0    0  501 -0.00000000000E+00 -0.00000000000E+00 -0.14810088998E+04  0.14810088998E+04  0.00000000000E+00 0.  1.
    9000010    2    1    2  502    0 -0.14354358805E+03  0.79730927135E+03  0.12135198171E+04  0.17938508816E+04  0.10435342846E+04 0.  0.
   -9000010    2    1    2    0  501  0.14354358805E+03 -0.79730927135E+03 -0.83594154510E+03  0.15457451900E+04  0.10169675952E+04 0.  0.
        -13    1    3    3    0    0 -0.23106310287E+03  0.11450640326E+02 -0.10684391933E+03  0.25482721388E+03  0.10566000000E+00 0.  1.
          4    1    3    3  502    0  0.87519514811E+02  0.78585863102E+03  0.13203637364E+04  0.15390236677E+04  0.00000000000E+00 0.  1.
         13    1    4    4    0    0  0.81512942301E+01 -0.35159370673E+03  0.20376547455E+03  0.40645412778E+03  0.10566000000E+00 0. -1.
         -4    1    4    4    0  501  0.13539229382E+03 -0.44571556462E+03 -0.10397070196E+04  0.11392910622E+04  0.00000000000E+00 0. -1.
<mgrwt>
<rscale>  2 0.13106038E+04</rscale>
<asrwt>0</asrwt>
<pdfrwt beam="1">  1        2 0.28593649E+00 0.13106038E+04</pdfrwt>
<pdfrwt beam="2">  1       -2 0.22784752E+00 0.13106038E+04</pdfrwt>
<totfact> 0.74104668E-01</totfact>
</mgrwt>
</event>
<event>
 8    1  0.1439553E-005  0.1072754E+04  0.7818608E-02  0.8709083E-01
         -2   -1    0    0    0  501 -0.00000000000E+00  0.00000000000E+00  0.53454607406E+03  0.53454607406E+03  0.00000000000E+00 0. -1.
          2   -1    0    0  502    0  0.00000000000E+00 -0.00000000000E+00 -0.23072059379E+04  0.23072059379E+04  0.00000000000E+00 0.  1.
    9000010    2    1    2  502    0  0.25979828903E+03  0.19559759311E+03 -0.12386182363E+04  0.16265393137E+04  0.10028466655E+04 0.  0.
   -9000010    2    1    2    0  501 -0.25979828903E+03 -0.19559759311E+03 -0.53404162760E+03  0.12152126983E+04  0.10420114551E+04 0.  0.
        -13    1    3    3    0    0  0.64524474209E+03  0.16082201158E+03 -0.83357929982E+03  0.10663296661E+04  0.10566000000E+00 0.  1.
          4    1    3    3  502    0 -0.38544645306E+03  0.34775581524E+02 -0.40503893644E+03  0.56020964761E+03  0.00000000000E+00 0.  1.
         13    1    4    4    0    0  0.16068761277E+02  0.37903002971E+03 -0.42299453729E+03  0.56819570418E+03  0.10566000000E+00 0. -1.
         -4    1    4    4    0  501 -0.27586705030E+03 -0.57462762282E+03 -0.11104709031E+03  0.64701699407E+03  0.00000000000E+00 0. -1.
<mgrwt>
<rscale>  2 0.10727543E+04</rscale>
<asrwt>0</asrwt>
<pdfrwt beam="2">  1        2 0.35495475E+00 0.10727543E+04</pdfrwt>
<pdfrwt beam="1">  1       -2 0.82237859E-01 0.10727543E+04</pdfrwt>
<totfact> 0.90550773E+00</totfact>
</mgrwt>
</event>
<event>
 8    1  0.1439553E-005  0.1117703E+04  0.7818608E-02  0.8671252E-01
         -2   -1    0    0    0  501 -0.00000000000E+00  0.00000000000E+00  0.38825228940E+03  0.38825228940E+03  0.00000000000E+00 0.  1.
          2   -1    0    0  502    0  0.00000000000E+00 -0.00000000000E+00 -0.43011400376E+04  0.43011400376E+04  0.00000000000E+00 0. -1.
    9000010    2    1    2  502    0  0.18291473830E+02 -0.44630208874E+03 -0.84773599327E+03  0.14428509688E+04  0.10787226109E+04 0.  0.
   -9000010    2    1    2    0  501 -0.18291473830E+02  0.44630208874E+03 -0.30651517550E+04  0.32465413583E+04  0.97229387411E+03 0.  0.
        -13    1    3    3    0    0  0.28065866865E+03 -0.66714577421E+03 -0.82742210516E+03  0.10993089300E+04  0.10566000000E+00 0.  1.
          4    1    3    3  502    0 -0.26236719482E+03  0.22084368547E+03 -0.20313888106E+02  0.34354203874E+03  0.00000000000E+00 0.  1.
         13    1    4    4    0    0 -0.20894163041E+03  0.51179439595E+03 -0.79986889056E+03  0.97230672213E+03  0.10566000000E+00 0. -1.
         -4    1    4    4    0  501  0.19065015658E+03 -0.65492307215E+02 -0.22652828644E+04  0.22742346361E+04  0.00000000000E+00 0. -1.
<mgrwt>
<rscale>  2 0.11177032E+04</rscale>
<asrwt>0</asrwt>
<pdfrwt beam="2">  1        2 0.66171384E+00 0.11177032E+04</pdfrwt>
<pdfrwt beam="1">  1       -2 0.59731123E-01 0.11177032E+04</pdfrwt>
<totfact> 0.68227730E-01</totfact>
</mgrwt>
</event>
<event>
 8    1  0.1439553E-005  0.1289077E+04  0.7818608E-02  0.8542344E-01
         -1   -1    0    0    0  501 -0.00000000000E+00  0.00000000000E+00  0.15124622632E+04  0.15124622632E+04  0.00000000000E+00 0. -1.
          1   -1    0    0  502    0  0.00000000000E+00 -0.00000000000E+00 -0.11032441431E+04  0.11032441431E+04  0.00000000000E+00 0.  1.
    9000010    2    1    2  502    0  0.37483187432E+03  0.72739915482E+03  0.28843270883E+03  0.13194535592E+04  0.99406026123E+03 0.  0.
   -9000010    2    1    2    0  501 -0.37483187432E+03 -0.72739915482E+03  0.12078541128E+03  0.12962528472E+04  0.99803500127E+03 0.  0.
        -13    1    3    3    0    0 -0.29058673436E+02 -0.23045012438E+03  0.13503820702E+03  0.26867637568E+03  0.10566000000E+00 0.  1.
          4    1    3    3  502    0  0.40389054776E+03  0.95784927921E+03  0.15339450182E+03  0.10507771835E+04  0.00000000000E+00 0.  1.
         13    1    4    4    0    0  0.41200489825E+01 -0.82287038179E+03  0.28712009778E+03  0.87153347712E+03  0.10566000000E+00 0. -1.
         -4    1    4    4    0  501 -0.37895192330E+03  0.95471226968E+02 -0.16633468650E+03  0.42471937004E+03  0.00000000000E+00 0. -1.
<mgrwt>
<rscale>  2 0.12890766E+04</rscale>
<asrwt>0</asrwt>
<pdfrwt beam="2">  1        1 0.16972987E+00 0.12890766E+04</pdfrwt>
<pdfrwt beam="1">  1       -1 0.23268650E+00 0.12890766E+04</pdfrwt>
<totfact> 0.11639162E+00</totfact>
</mgrwt>
</event>
<event>
 8    1  0.1439553E-005  0.1147195E+04  0.7818608E-02  0.8647423E-01
         -2   -1    0    0    0  501 -0.00000000000E+00  0.00000000000E+00  0.11704370361E+04  0.11704370361E+04  0.00000000000E+00 0. -1.
          2   -1    0    0  502    0  0.00000000000E+00 -0.00000000000E+00 -0.12133238627E+04  0.12133238627E+04  0.00000000000E+00 0.  1.
    9000010    2    1    2  502    0  0.45945358622E+03 -0.31295515651E+03 -0.34376259288E+03  0.11884463661E+04  0.99256914968E+03 0.  0.
   -9000010    2    1    2    0  501 -0.45945358622E+03  0.31295515651E+03  0.30087576631E+03  0.11953145328E+04  0.10145009008E+04 0.  0.
        -13    1    3    3    0    0  0.56419025268E+02  0.33095751598E+03 -0.25912466641E+03  0.42410091688E+03  0.10566000000E+00 0.  1.
          4    1    3    3  502    0  0.40303456095E+03 -0.64391267248E+03 -0.84637926476E+02  0.76434544919E+03  0.00000000000E+00 0.  1.
         13    1    4    4    0    0 -0.48859562481E+03 -0.98936802198E+02 -0.20784373961E+03  0.54010481082E+03  0.10566000000E+00 0. -1.
         -4    1    4    4    0  501  0.29142038596E+02  0.41189195871E+03  0.50871950591E+03  0.65520972196E+03  0.00000000000E+00 0. -1.
<mgrwt>
<rscale>  2 0.11471954E+04</rscale>
<asrwt>0</asrwt>
<pdfrwt beam="2">  1        2 0.18666521E+00 0.11471954E+04</pdfrwt>
<pdfrwt beam="1">  1       -2 0.18006724E+00 0.11471954E+04</pdfrwt>
<totfact> 0.42289756E+00</totfact>
</mgrwt>
</event>
<event>
 8    1  0.1439553E-005  0.1097189E+04  0.7818608E-02  0.8688283E-01
          2   -1    0    0  502    0  0.00000000000E+00  0.00000000000E+00  0.12345114574E+04  0.12345114574E+04  0.00000000000E+00 0. -1.
         -2   -1    0    0    0  501 -0.00000000000E+00 -0.00000000000E+00 -0.10402247966E+04  0.10402247966E+04  0.00000000000E+00 0.  1.
    9000010    2    1    2  502    0 -0.31675154356E+03 -0.34736824202E+03  0.38039143530E+03  0.11501447175E+04  0.97833480528E+03 0.  0.
   -9000010    2    1    2    0  501  0.31675154356E+03  0.34736824202E+03 -0.18610477454E+03  0.11245915365E+04  0.10045272027E+04 0.  0.
        -13    1    3    3    0    0 -0.11419558525E+03 -0.29126470705E+03 -0.30277823565E+03  0.43537389955E+03  0.10566000000E+00 0.  1.
          4    1    3    3  502    0 -0.20255595831E+03 -0.56103534971E+02  0.68316967094E+03  0.71477081794E+03  0.00000000000E+00 0.  1.
         13    1    4    4    0    0  0.55014341102E+03 -0.47307130300E+02 -0.33092559928E+03  0.64374490342E+03  0.10566000000E+00 0. -1.
         -4    1    4    4    0  501 -0.23339186746E+03  0.39467537232E+03  0.14482082474E+03  0.48084663312E+03  0.00000000000E+00 0. -1.
<mgrwt>
<rscale>  2 0.10971887E+04</rscale>
<asrwt>0</asrwt>
<pdfrwt beam="1">  1        2 0.18992484E+00 0.10971887E+04</pdfrwt>
<pdfrwt beam="2">  1       -2 0.16003459E+00 0.10971887E+04</pdfrwt>
<totfact> 0.60975334E+00</totfact>
</mgrwt>
</event>
<event>
 8    1  0.1439553E-005  0.1173822E+04  0.7818608E-02  0.8626540E-01
         -1   -1    0    0    0  501 -0.00000000000E+00  0.00000000000E+00  0.67918548682E+03  0.67918548682E+03  0.00000000000E+00 0.  1.
          1   -1    0    0  502    0  0.00000000000E+00 -0.00000000000E+00 -0.22658809621E+04  0.22658809621E+04  0.00000000000E+00 0. -1.
    9000010    2    1    2  502    0  0.59151500905E+03 -0.61225817640E+02 -0.12723821720E+04  0.17340994118E+04  0.10171065684E+04 0.  0.
   -9000010    2    1    2    0  501 -0.59151500905E+03  0.61225817640E+02 -0.31431330324E+03  0.12109670371E+04  0.10069804893E+04 0.  0.
        -13    1    3    3    0    0  0.32918159987E+03  0.36577171574E+03 -0.16569855178E+03  0.51923549084E+03  0.10566000000E+00 0.  1.
          4    1    3    3  502    0  0.26233340918E+03 -0.42699753338E+03 -0.11066836202E+04  0.12148639209E+04  0.00000000000E+00 0.  1.
         13    1    4    4    0    0 -0.81246551144E+03  0.20261113283E+03 -0.40924262474E+03  0.93200376367E+03  0.10566000000E+00 0. -1.
         -4    1    4    4    0  501  0.22095050239E+03 -0.14138531519E+03  0.94929321501E+02  0.27896327346E+03  0.00000000000E+00 0. -1.
<mgrwt>
<rscale>  2 0.11738221E+04</rscale>
<asrwt>0</asrwt>
<pdfrwt beam="2">  1        1 0.34859707E+00 0.11738221E+04</pdfrwt>
<pdfrwt beam="1">  1       -1 0.10449008E+00 0.11738221E+04</pdfrwt>
<totfact> 0.21252282E+00</totfact>
</mgrwt>
</event>
<event>
 8    1  0.1439553E-005  0.1211999E+04  0.7818608E-02  0.8597581E-01
          2   -1    0    0  502    0  0.00000000000E+00  0.00000000000E+00  0.15307196568E+04  0.15307196568E+04  0.00000000000E+00 0. -1.
         -2   -1    0    0    0  501 -0.00000000000E+00 -0.00000000000E+00 -0.11415092876E+04  0.11415092876E+04  0.00000000000E+00 0.  1.
    9000010    2    1    2  502    0  0.45179644341E+03  0.57196411272E+03 -0.34110193803E+03  0.12385339333E+04  0.94146311624E+03 0.  0.
   -9000010    2    1    2    0  501 -0.45179644341E+03 -0.57196411272E+03  0.73031230724E+03  0.14336950111E+04  0.99542068806E+03 0.  0.
        -13    1    3    3    0    0 -0.14123125935E+03  0.29800143994E+02  0.21671293560E+03  0.26038207469E+03  0.10566000000E+00 0.  1.
          4    1    3    3  502    0  0.59302770276E+03  0.54216396872E+03 -0.55781487362E+03  0.97815185859E+03  0.00000000000E+00 0.  1.
         13    1    4    4    0    0 -0.72695050803E+03 -0.59926692363E+03  0.46552129882E+03  0.10508510730E+04  0.10566000000E+00 0. -1.
         -4    1    4    4    0  501  0.27515406462E+03  0.27302810915E+02  0.26479100842E+03  0.38284393805E+03  0.00000000000E+00 0. -1.
<mgrwt>
<rscale>  2 0.12119989E+04</rscale>
<asrwt>0</asrwt>
<pdfrwt beam="1">  1        2 0.23549533E+00 0.12119989E+04</pdfrwt>
<pdfrwt beam="2">  1       -2 0.17561681E+00 0.12119989E+04</pdfrwt>
<totfact> 0.30466986E+00</totfact>
</mgrwt>
</event>
<event>
 8    1  0.1439553E-005  0.1070919E+04  0.7818608E-02  0.8710669E-01
          1   -1    0    0  502    0  0.00000000000E+00  0.00000000000E+00  0.98739338846E+03  0.98739338846E+03  0.00000000000E+00 0. -1.
         -1   -1    0    0    0  501 -0.00000000000E+00 -0.00000000000E+00 -0.11969743328E+04  0.11969743328E+04  0.00000000000E+00 0.  1.
    9000010    2    1    2  502    0  0.30090741655E+03  0.21746083546E+03 -0.29266241497E+03  0.11089568086E+04  0.10031447682E+04 0.  0.
   -9000010    2    1    2    0  501 -0.30090741655E+03 -0.21746083546E+03  0.83081470608E+02  0.10754109127E+04  0.10058685859E+04 0.  0.
        -13    1    3    3    0    0  0.36691223358E+03  0.10919914637E+03  0.31031472714E+03  0.49279233127E+03  0.10566000000E+00 0.  1.
          4    1    3    3  502    0 -0.66004817028E+02  0.10826168909E+03 -0.60297714211E+03  0.61616447732E+03  0.00000000000E+00 0.  1.
         13    1    4    4    0    0 -0.36423879790E+03  0.33813277447E+03 -0.53253483350E+02  0.49983959399E+03  0.10566000000E+00 0. -1.
         -4    1    4    4    0  501  0.63331381347E+02 -0.55559360993E+03  0.13633495396E+03  0.57557131872E+03  0.00000000000E+00 0. -1.
<mgrwt>
<rscale>  2 0.10709186E+04</rscale>
<asrwt>0</asrwt>
<pdfrwt beam="1">  1        1 0.15190667E+00 0.10709186E+04</pdfrwt>
<pdfrwt beam="2">  1       -1 0.18414990E+00 0.10709186E+04</pdfrwt>
<totfact> 0.40885507E+00</totfact>
</mgrwt>
</event>
<event>
 8    1  0.1439553E-005  0.1440459E+04  0.7818608E-02  0.8444612E-01
         -4   -1    0    0    0  501 -0.00000000000E+00  0.00000000000E+00  0.23548375439E+04  0.23548375439E+04  0.00000000000E+00 0.  1.
          4   -1    0    0  502    0  0.00000000000E+00 -0.00000000000E+00 -0.94615401758E+03  0.94615401758E+03  0.00000000000E+00 0. -1.
    9000010    2    1    2  502    0  0.82358696307E+03 -0.57615940583E+03  0.27878696389E+03  0.14818996562E+04  0.10526391942E+04 0.  0.
   -9000010    2    1    2    0  501 -0.82358696307E+03  0.57615940583E+03  0.11298965625E+04  0.18190919053E+04  0.10110261972E+04 0.  0.
        -13    1    3    3    0    0  0.51801006574E+02 -0.61844443214E+03  0.33801521486E+03  0.70669028334E+03  0.10566000000E+00 0.  1.
          4    1    3    3  502    0  0.77178595650E+03  0.42285026308E+02 -0.59228250975E+02  0.77520937289E+03  0.00000000000E+00 0.  1.
         13    1    4    4    0    0 -0.12975908132E+03 -0.23271618188E+03  0.72658614899E+00  0.26644845578E+03  0.10566000000E+00 0. -1.
         -4    1    4    4    0  501 -0.69382788175E+03  0.80887558772E+03  0.11291699763E+04  0.15526434495E+04  0.00000000000E+00 0. -1.
<mgrwt>
<rscale>  2 0.14404591E+04</rscale>
<asrwt>0</asrwt>
<pdfrwt beam="2">  1        4 0.14556216E+00 0.14404591E+04</pdfrwt>
<pdfrwt beam="1">  1       -4 0.36228270E+00 0.14404591E+04</pdfrwt>
<totfact> 0.10062571E-01</totfact>
</mgrwt>
</event>
<event>
 8    1  0.1439553E-005  0.1168402E+04  0.7818608E-02  0.8630744E-01
          2   -1    0    0  502    0  0.00000000000E+00  0.00000000000E+00  0.11922104949E+04  0.11922104949E+04  0.00000000000E+00 0. -1.
         -2   -1    0    0    0  501 -0.00000000000E+00 -0.00000000000E+00 -0.11858767334E+04  0.11858767334E+04  0.00000000000E+00 0.  1.
    9000010    2    1    2  502    0 -0.58363721510E+03  0.27483639257E+03 -0.21368382388E+03  0.11489035103E+04  0.92636443037E+03 0.  0.
   -9000010    2    1    2    0  501  0.58363721510E+03 -0.27483639257E+03  0.22001758541E+03  0.12291837180E+04  0.10228965897E+04 0.  0.
        -13    1    3    3    0    0 -0.19732945196E+03  0.53291980584E+03 -0.34664949059E+03  0.66566381347E+03  0.10566000000E+00 0.  1.
          4    1    3    3  502    0 -0.38630776315E+03 -0.25808341327E+03  0.13296566671E+03  0.48323969684E+03  0.00000000000E+00 0.  1.
         13    1    4    4    0    0  0.71869736412E+03  0.13083403900E+03  0.30779315770E+03  0.79270428663E+03  0.10566000000E+00 0. -1.
         -4    1    4    4    0  501 -0.13506014901E+03 -0.40567043156E+03 -0.87775572297E+02  0.43647943135E+03  0.00000000000E+00 0. -1.
<mgrwt>
<rscale>  2 0.11684021E+04</rscale>
<asrwt>0</asrwt>
<pdfrwt beam="1">  1        2 0.18341700E+00 0.11684021E+04</pdfrwt>
<pdfrwt beam="2">  1       -2 0.18244257E+00 0.11684021E+04</pdfrwt>
<totfact> 0.41456318E+00</totfact>
</mgrwt>
</event>
<event>
 8    1  0.1439553E-005  0.1200644E+04  0.7818608E-02  0.8606078E-01
         -1   -1    0    0    0  501 -0.00000000000E+00  0.00000000000E+00  0.14861010374E+04  0.14861010374E+04  0.00000000000E+00 0.  1.
          1   -1    0    0  502    0  0.00000000000E+00 -0.00000000000E+00 -0.11404547150E+04  0.11404547150E+04  0.00000000000E+00 0. -1.
    9000010    2    1    2  502    0  0.52305076597E+03  0.43144064894E+03  0.68115372676E+03  0.13852196681E+04  0.99756703643E+03 0.  0.
   -9000010    2    1    2    0  501 -0.52305076597E+03 -0.43144064894E+03 -0.33550740431E+03  0.12413360843E+04  0.98418845678E+03 0.  0.
        -13    1    3    3    0    0  0.74564817878E+03  0.28931370110E+02  0.41899972347E+03  0.85579729500E+03  0.10566000000E+00 0.  1.
          4    1    3    3  502    0 -0.22259741282E+03  0.40250927883E+03  0.26215400329E+03  0.52942237313E+03  0.00000000000E+00 0.  1.
         13    1    4    4    0    0 -0.23169434400E+02  0.30015955487E+03 -0.23619318183E+02  0.30197758928E+03  0.10566000000E+00 0. -1.
         -4    1    4    4    0  501 -0.49988133157E+03 -0.73160020381E+03 -0.31188808613E+03  0.93935849500E+03  0.00000000000E+00 0. -1.
<mgrwt>
<rscale>  2 0.12006438E+04</rscale>
<asrwt>0</asrwt>
<pdfrwt beam="2">  1        1 0.17545457E+00 0.12006438E+04</pdfrwt>
<pdfrwt beam="1">  1       -1 0.22863093E+00 0.12006438E+04</pdfrwt>
<totfact> 0.12015539E+00</totfact>
</mgrwt>
</event>
<event>
 8    1  0.1439553E-005  0.1651935E+04  0.7818608E-02  0.8327053E-01
          2   -1    0    0  502    0  0.00000000000E+00  0.00000000000E+00  0.20099677136E+04  0.20099677136E+04  0.00000000000E+00 0.  1.
         -2   -1    0    0    0  501 -0.00000000000E+00 -0.00000000000E+00 -0.14740063745E+04  0.14740063745E+04  0.00000000000E+00 0. -1.
    9000010    2    1    2  502    0  0.12356990422E+04  0.47490665659E+03  0.75746649737E+03  0.18180302893E+04  0.98943932746E+03 0.  0.
   -9000010    2    1    2    0  501 -0.12356990422E+04 -0.47490665659E+03 -0.22150515822E+03  0.16659437988E+04  0.98682103260E+03 0.  0.
        -13    1    3    3    0    0  0.11893248390E+04  0.14204705183E+02  0.53016324616E+03  0.13022167350E+04  0.10566000000E+00 0.  1.
          4    1    3    3  502    0  0.46374203255E+02  0.46070195140E+03  0.22730325121E+03  0.51581355427E+03  0.00000000000E+00 0.  1.
         13    1    4    4    0    0  0.16925501121E+03 -0.83471238727E+02 -0.62688463090E+02  0.19885814311E+03  0.10566000000E+00 0. -1.
         -4    1    4    4    0  501 -0.14049540534E+04 -0.39143541786E+03 -0.15881669513E+03  0.14670856557E+04  0.00000000000E+00 0. -1.
<mgrwt>
<rscale>  2 0.16519353E+04</rscale>
<asrwt>0</asrwt>
<pdfrwt beam="1">  1        2 0.30922580E+00 0.16519353E+04</pdfrwt>
<pdfrwt beam="2">  1       -2 0.22677021E+00 0.16519353E+04</pdfrwt>
<totfact> 0.60212181E-01</totfact>
</mgrwt>
</event>
<event>
 8    1  0.1439553E-005  0.1300875E+04  0.7818608E-02  0.8534241E-01
         -2   -1    0    0    0  501 -0.00000000000E+00  0.00000000000E+00  0.11271071893E+04  0.11271071893E+04  0.00000000000E+00 0.  1.
          2   -1    0    0  502    0  0.00000000000E+00 -0.00000000000E+00 -0.26338748158E+04  0.26338748158E+04  0.00000000000E+00 0. -1.
    9000010    2    1    2  502    0  0.76045146153E+03  0.39968504855E+03 -0.19790590853E+04  0.23567383576E+04  0.94842303836E+03 0.  0.
   -9000010    2    1    2    0  501 -0.76045146153E+03 -0.39968504855E+03  0.47229145886E+03  0.14042436475E+04  0.10053886989E+04 0.  0.
        -13    1    3    3    0    0  0.15285239684E+02  0.22375884962E+03 -0.13422898194E+04  0.13608980975E+04  0.10566000000E+00 0.  1.
          4    1    3    3  502    0  0.74516622185E+03  0.17592619893E+03 -0.63676926592E+03  0.99584026012E+03  0.00000000000E+00 0.  1.
         13    1    4    4    0    0  0.83531904112E+02 -0.33764982638E+03  0.43526752946E+03  0.55717395634E+03  0.10566000000E+00 0. -1.
         -4    1    4    4    0  501 -0.84398336564E+03 -0.62035222170E+02  0.37023929405E+02  0.84706969112E+03  0.00000000000E+00 0. -1.
<mgrwt>
<rscale>  2 0.13008751E+04</rscale>
<asrwt>0</asrwt>
<pdfrwt beam="2">  1        2 0.40521150E+00 0.13008751E+04</pdfrwt>
<pdfrwt beam="1">  1       -2 0.17340111E+00 0.13008751E+04</pdfrwt>
<totfact> 0.77716873E-01</totfact>
</mgrwt>
</event>
<event>
 8    1  0.1439553E-005  0.1318206E+04  0.7818608E-02  0.8522498E-01
          2   -1    0    0  502    0  0.00000000000E+00  0.00000000000E+00  0.19974879142E+04  0.19974879142E+04  0.00000000000E+00 0.  1.
         -2   -1    0    0    0  501 -0.00000000000E+00 -0.00000000000E+00 -0.96131429846E+03  0.96131429846E+03  0.00000000000E+00 0. -1.
    9000010    2    1    2  502    0 -0.58751415019E+03  0.63459726773E+03  0.97544632195E+03  0.16426629799E+04  0.99947964944E+03 0.  0.
   -9000010    2    1    2    0  501  0.58751415019E+03 -0.63459726773E+03  0.60727293809E+02  0.13161392328E+04  0.99027678301E+03 0.  0.
        -13    1    3    3    0    0  0.10263385549E+03 -0.88395339861E+02  0.53239771137E+03  0.54935851558E+03  0.10566000000E+00 0.  1.
          4    1    3    3  502    0 -0.69014800568E+03  0.72299260759E+03  0.44304861058E+03  0.10933044643E+04  0.00000000000E+00 0.  1.
         13    1    4    4    0    0  0.40007051667E+03  0.12301418598E+03 -0.23679627659E+03  0.48089645043E+03  0.10566000000E+00 0. -1.
         -4    1    4    4    0  501  0.18744363352E+03 -0.75761145371E+03  0.29752357040E+03  0.83524278236E+03  0.00000000000E+00 0. -1.
<mgrwt>
<rscale>  2 0.13182057E+04</rscale>
<asrwt>0</asrwt>
<pdfrwt beam="1">  1        2 0.30730583E+00 0.13182057E+04</pdfrwt>
<pdfrwt beam="2">  1       -2 0.14789451E+00 0.13182057E+04</pdfrwt>
<totfact> 0.29045624E+00</totfact>
</mgrwt>
</event>
<event>
 8    1  0.1439553E-005  0.1186724E+04  0.7818608E-02  0.8616627E-01
         -2   -1    0    0    0  501 -0.00000000000E+00  0.00000000000E+00  0.42433891924E+04  0.42433891924E+04  0.00000000000E+00 0. -1.
          2   -1    0    0  502    0  0.00000000000E+00 -0.00000000000E+00 -0.34145776246E+03  0.34145776246E+03  0.00000000000E+00 0.  1.
    9000010    2    1    2  502    0 -0.57876825852E+03  0.22050955437E+03  0.23514114443E+04  0.26387798927E+04  0.10249031081E+04 0.  0.
   -9000010    2    1    2    0  501  0.57876825852E+03 -0.22050955437E+03  0.15505199856E+04  0.19460670622E+04  0.99973377654E+03 0.  0.
        -13    1    3    3    0    0 -0.45144035618E+03  0.49370365107E+03  0.73236852025E+03  0.99192003251E+03  0.10566000000E+00 0.  1.
          4    1    3    3  502    0 -0.12732790235E+03 -0.27319409671E+03  0.16190429241E+04  0.16468598602E+04  0.00000000000E+00 0.  1.
         13    1    4    4    0    0 -0.11622073260E+03 -0.16610205128E+03 -0.42555058347E+02  0.20714269063E+03  0.10566000000E+00 0. -1.
         -4    1    4    4    0  501  0.69498899112E+03 -0.54407503084E+02  0.15930750440E+04  0.17389243715E+04  0.00000000000E+00 0. -1.
<mgrwt>
<rscale>  2 0.11867239E+04</rscale>
<asrwt>0</asrwt>
<pdfrwt beam="2">  1        2 0.52531966E-01 0.11867239E+04</pdfrwt>
<pdfrwt beam="1">  1       -2 0.65282907E+00 0.11867239E+04</pdfrwt>
<totfact> 0.45585467E-01</totfact>
</mgrwt>
</event>
<event>
 8    1  0.1439553E-005  0.1203687E+04  0.7818608E-02  0.8603791E-01
          2   -1    0    0  502    0  0.00000000000E+00  0.00000000000E+00  0.23908853157E+04  0.23908853157E+04  0.00000000000E+00 0.  1.
         -2   -1    0    0    0  501 -0.00000000000E+00 -0.00000000000E+00 -0.60886957443E+03  0.60886957443E+03  0.00000000000E+00 0. -1.
    9000010    2    1    2  502    0 -0.45648250779E+03 -0.44850758991E+03  0.79354596682E+03  0.14476824182E+04  0.10278783218E+04 0.  0.
   -9000010    2    1    2    0  501  0.45648250779E+03  0.44850758991E+03  0.98846977440E+03  0.15520724719E+04  0.10110989689E+04 0.  0.
        -13    1    3    3    0    0 -0.26543511605E+03 -0.60575843936E+02  0.94967906122E+03  0.98793499998E+03  0.10566000000E+00 0.  1.
          4    1    3    3  502    0 -0.19104739174E+03 -0.38793174598E+03 -0.15613309440E+03  0.45974741826E+03  0.00000000000E+00 0.  1.
         13    1    4    4    0    0  0.27180219480E+03 -0.18434985869E+03  0.80248112571E+03  0.86708550431E+03  0.10566000000E+00 0. -1.
         -4    1    4    4    0  501  0.18468031300E+03  0.63285744860E+03  0.18598864869E+03  0.68498696754E+03  0.00000000000E+00 0. -1.
<mgrwt>
<rscale>  2 0.12036868E+04</rscale>
<asrwt>0</asrwt>
<pdfrwt beam="1">  1        2 0.36782851E+00 0.12036868E+04</pdfrwt>
<pdfrwt beam="2">  1       -2 0.93672243E-01 0.12036868E+04</pdfrwt>
<totfact> 0.59661968E+00</totfact>
</mgrwt>
</event>
<event>
 8    1  0.1439553E-005  0.1102134E+04  0.7818608E-02  0.8684143E-01
         -2   -1    0    0    0  501 -0.00000000000E+00  0.00000000000E+00  0.86055166555E+03  0.86055166555E+03  0.00000000000E+00 0. -1.
          2   -1    0    0  502    0  0.00000000000E+00 -0.00000000000E+00 -0.14912855199E+04  0.14912855199E+04  0.00000000000E+00 0.  1.
    9000010    2    1    2  502    0  0.42882332487E+03 -0.18895082674E+03 -0.46833756299E+02  0.11147074659E+04  0.10103402768E+04 0.  0.
   -9000010    2    1    2    0  501 -0.42882332487E+03  0.18895082674E+03 -0.58390009808E+03  0.12371297196E+04  0.98486484332E+03 0.  0.
        -13    1    3    3    0    0  0.74193812904E+03 -0.57030403288E+02 -0.15107160918E+03  0.75930711605E+03  0.10566000000E+00 0.  1.
          4    1    3    3  502    0 -0.31311480416E+03 -0.13192042346E+03  0.10423785289E+03  0.35540034987E+03  0.00000000000E+00 0.  1.
         13    1    4    4    0    0  0.11293582013E+03  0.33411137251E+03 -0.57696184853E+03  0.67621734268E+03  0.10566000000E+00 0. -1.
         -4    1    4    4    0  501 -0.54175914500E+03 -0.14516054577E+03 -0.69382495443E+01  0.56091237689E+03  0.00000000000E+00 0. -1.
<mgrwt>
<rscale>  2 0.11021339E+04</rscale>
<asrwt>0</asrwt>
<pdfrwt beam="2">  1        2 0.22942854E+00 0.11021339E+04</pdfrwt>
<pdfrwt beam="1">  1       -2 0.13239257E+00 0.11021339E+04</pdfrwt>
<totfact> 0.77389084E+00</totfact>
</mgrwt>
</event>
<event>
 8    1  0.1439553E-005  0.1164009E+04  0.7818608E-02  0.8634169E-01
         -4   -1    0    0    0  501 -0.00000000000E+00  0.00000000000E+00  0.18033184625E+04  0.18033184625E+04  0.00000000000E+00 0. -1.
          4   -1    0    0  502    0  0.00000000000E+00 -0.00000000000E+00 -0.17476339460E+04  0.17476339460E+04  0.00000000000E+00 0.  1.
    9000010    2    1    2  502    0  0.57045637184E+03 -0.20374718728E+03 -0.13126147986E+04  0.17586447572E+04  0.10014691128E+04 0.  0.
   -9000010    2    1    2    0  501 -0.57045637184E+03  0.20374718728E+03  0.13682993152E+04  0.17923076512E+04  0.98650408632E+03 0.  0.
        -13    1    3    3    0    0 -0.29213902467E+02  0.39006686217E+02  0.15086921778E+03  0.15854496430E+03  0.10566000000E+00 0.  1.
          4    1    3    3  502    0  0.59967027431E+03 -0.24275387349E+03 -0.14634840164E+04  0.16000997929E+04  0.00000000000E+00 0.  1.
         13    1    4    4    0    0 -0.27961872710E+03  0.39698346760E+03  0.13588470176E+04  0.14429995615E+04  0.10566000000E+00 0. -1.
         -4    1    4    4    0  501 -0.29083764474E+03 -0.19323628033E+03  0.94522975682E+01  0.34930808974E+03  0.00000000000E+00 0. -1.
<mgrwt>
<rscale>  2 0.11640091E+04</rscale>
<asrwt>0</asrwt>
<pdfrwt beam="2">  1        4 0.26886676E+00 0.11640091E+04</pdfrwt>
<pdfrwt beam="1">  1       -4 0.27743361E+00 0.11640091E+04</pdfrwt>
<totfact> 0.78837636E-02</totfact>
</mgrwt>
</event>
<event>
 8    1  0.1439553E-005  0.1390892E+04  0.7818608E-02  0.8475197E-01
         -4   -1    0    0    0  501 -0.00000000000E+00  0.00000000000E+00  0.13010710366E+04  0.13010710366E+04  0.00000000000E+00 0. -1.
          4   -1    0    0  502    0  0.00000000000E+00 -0.00000000000E+00 -0.19267283913E+04  0.19267283913E+04  0.00000000000E+00 0.  1.
    9000010    2    1    2  502    0  0.69828865597E+03 -0.66659367309E+03 -0.10844564955E+04  0.17662193324E+04  0.10057488094E+04 0.  0.
   -9000010    2    1    2    0  501 -0.69828865597E+03  0.66659367309E+03  0.45879914084E+03  0.14615800955E+04  0.99687790212E+03 0.  0.
        -13    1    3    3    0    0 -0.18714645053E+03 -0.40240579055E+03 -0.19873496179E+03  0.48626105171E+03  0.10566000000E+00 0.  1.
          4    1    3    3  502    0  0.88543510651E+03 -0.26418788255E+03 -0.88572153370E+03  0.12799582807E+04  0.00000000000E+00 0.  1.
         13    1    4    4    0    0 -0.18120090947E+03 -0.32118962325E+02 -0.27033376195E+03  0.32702561267E+03  0.10566000000E+00 0. -1.
         -4    1    4    4    0  501 -0.51708774651E+03  0.69871263542E+03  0.72913290278E+03  0.11345544828E+04  0.00000000000E+00 0. -1.
<mgrwt>
<rscale>  2 0.13908925E+04</rscale>
<asrwt>0</asrwt>
<pdfrwt beam="2">  1        4 0.29641975E+00 0.13908925E+04</pdfrwt>
<pdfrwt beam="1">  1       -4 0.20016478E+00 0.13908925E+04</pdfrwt>
<totfact> 0.10236148E-01</totfact>
</mgrwt>
</event>
<event>
 8    1  0.1439553E-005  0.1177028E+04  0.7818608E-02  0.8624064E-01
         -1   -1    0    0    0  501 -0.00000000000E+00  0.00000000000E+00  0.10071718707E+04  0.10071718707E+04  0.00000000000E+00 0.  1.
          1   -1    0    0  502    0  0.00000000000E+00 -0.00000000000E+00 -0.21403608575E+04  0.21403608575E+04  0.00000000000E+00 0. -1.
    9000010    2    1    2  502    0 -0.58967962194E+03 -0.34988733582E+03  0.38436634425E+03  0.12040650897E+04  0.91208116382E+03 0.  0.
   -9000010    2    1    2    0  501  0.58967962194E+03  0.34988733582E+03 -0.15175553310E+04  0.19434676385E+04  0.10019725919E+04 0.  0.
        -13    1    3    3    0    0 -0.52590637481E+03 -0.62316335492E+03  0.42662566417E+03  0.92028232107E+03  0.10566000000E+00 0.  1.
          4    1    3    3  502    0 -0.63773247136E+02  0.27327601910E+03 -0.42259319912E+02  0.28378276865E+03  0.00000000000E+00 0.  1.
         13    1    4    4    0    0  0.84121079375E+03  0.42294263623E+03 -0.12861941867E+04  0.15939923369E+04  0.10566000000E+00 0. -1.
         -4    1    4    4    0  501 -0.25153117181E+03 -0.73055300406E+02 -0.23136114433E+03  0.34947530158E+03  0.00000000000E+00 0. -1.
<mgrwt>
<rscale>  2 0.11770282E+04</rscale>
<asrwt>0</asrwt>
<pdfrwt beam="2">  1        1 0.32928629E+00 0.11770282E+04</pdfrwt>
<pdfrwt beam="1">  1       -1 0.15494952E+00 0.11770282E+04</pdfrwt>
<totfact> 0.96227481E-01</totfact>
</mgrwt>
</event>
<event>
 8    1  0.1439553E-005  0.1111961E+04  0.7818608E-02  0.8675980E-01
          2   -1    0    0  502    0  0.00000000000E+00  0.00000000000E+00  0.26349332375E+04  0.26349332375E+04  0.00000000000E+00 0. -1.
         -2   -1    0    0    0  501 -0.00000000000E+00 -0.00000000000E+00 -0.50266947654E+03  0.50266947654E+03  0.00000000000E+00 0.  1.
    9000010    2    1    2  502    0 -0.47661932646E+03 -0.10641873995E+03  0.14679836815E+04  0.18398351246E+04  0.99575411927E+03 0.  0.
   -9000010    2    1    2    0  501  0.47661932646E+03  0.10641873995E+03  0.66428007942E+03  0.12977675894E+04  0.10022184201E+04 0.  0.
        -13    1    3    3    0    0 -0.18877654264E+03 -0.49825034399E+03  0.39955224573E+03  0.66598197917E+03  0.10566000000E+00 0.  1.
          4    1    3    3  502    0 -0.28784278381E+03  0.39183160405E+03  0.10684314358E+04  0.11738531455E+04  0.00000000000E+00 0.  1.
         13    1    4    4    0    0  0.55901611198E+03 -0.34111533276E+03  0.33137718420E+03  0.73394109646E+03  0.10566000000E+00 0. -1.
         -4    1    4    4    0  501 -0.82396785525E+02  0.44753407270E+03  0.33290289522E+03  0.56382649294E+03  0.00000000000E+00 0. -1.
<mgrwt>
<rscale>  2 0.11119614E+04</rscale>
<asrwt>0</asrwt>
<pdfrwt beam="1">  1        2 0.40537433E+00 0.11119614E+04</pdfrwt>
<pdfrwt beam="2">  1       -2 0.77333768E-01 0.11119614E+04</pdfrwt>
<totfact> 0.67652995E+00</totfact>
</mgrwt>
</event>
<event>
 8    1  0.1439553E-005  0.1132494E+04  0.7818608E-02  0.8659207E-01
          1   -1    0    0  502    0  0.00000000000E+00  0.00000000000E+00  0.20534729046E+04  0.20534729046E+04  0.00000000000E+00 0. -1.
         -1   -1    0    0    0  501 -0.00000000000E+00 -0.00000000000E+00 -0.62788534270E+03  0.62788534270E+03  0.00000000000E+00 0.  1.
    9000010    2    1    2  502    0 -0.16611567143E+03 -0.48338704549E+03  0.61563073735E+03  0.12893232375E+04  0.10109875142E+04 0.  0.
   -9000010    2    1    2    0  501  0.16611567143E+03  0.48338704549E+03  0.80995682459E+03  0.13920350098E+04  0.10101851112E+04 0.  0.
        -13    1    3    3    0    0  0.28671405656E+03 -0.18956760263E+03  0.66366455529E+03  0.74738977736E+03  0.10566000000E+00 0.  1.
          4    1    3    3  502    0 -0.45282972800E+03 -0.29381944286E+03 -0.48033817933E+02  0.54193346015E+03  0.00000000000E+00 0.  1.
         13    1    4    4    0    0  0.47257484443E+02 -0.17764211556E+03  0.68454547904E+03  0.70879652588E+03  0.10566000000E+00 0. -1.
         -4    1    4    4    0  501  0.11885818699E+03  0.66102916104E+03  0.12541134555E+03  0.68323848395E+03  0.00000000000E+00 0. -1.
<mgrwt>
<rscale>  2 0.11324937E+04</rscale>
<asrwt>0</asrwt>
<pdfrwt beam="1">  1        1 0.31591891E+00 0.11324937E+04</pdfrwt>
<pdfrwt beam="2">  1       -1 0.96597746E-01 0.11324937E+04</pdfrwt>
<totfact> 0.37375471E+00</totfact>
</mgrwt>
</event>
<event>
 8    1  0.1439553E-005  0.1452452E+04  0.7818608E-02  0.8437401E-01
         -2   -1    0    0    0  501 -0.00000000000E+00  0.00000000000E+00  0.15769249604E+04  0.15769249604E+04  0.00000000000E+00 0.  1.
          2   -1    0    0  502    0  0.00000000000E+00 -0.00000000000E+00 -0.20059916841E+04  0.20059916841E+04  0.00000000000E+00 0. -1.
    9000010    2    1    2  502    0  0.90385724436E+03 -0.52877050411E+03  0.81934448003E+03  0.16680825376E+04  0.10072823889E+04 0.  0.
   -9000010    2    1    2    0  501 -0.90385724436E+03  0.52877050411E+03 -0.12484112037E+04  0.19148341069E+04  0.10057350344E+04 0.  0.
        -13    1    3    3    0    0 -0.21072370026E+03 -0.18293081040E+03  0.22493743381E+03  0.35842017178E+03  0.10566000000E+00 0.  1.
          4    1    3    3  502    0  0.11145809446E+04 -0.34583969371E+03  0.59440704622E+03  0.13096623658E+04  0.00000000000E+00 0.  1.
         13    1    4    4    0    0 -0.55817104555E+03  0.70638798366E+03 -0.40704292980E+03  0.98803990679E+03  0.10566000000E+00 0. -1.
         -4    1    4    4    0  501 -0.34568619881E+03 -0.17761747955E+03 -0.84136827390E+03  0.92679420014E+03  0.00000000000E+00 0. -1.
<mgrwt>
<rscale>  2 0.14524517E+04</rscale>
<asrwt>0</asrwt>
<pdfrwt beam="2">  1        2 0.30861410E+00 0.14524517E+04</pdfrwt>
<pdfrwt beam="1">  1       -2 0.24260384E+00 0.14524517E+04</pdfrwt>
<totfact> 0.46210000E-01</totfact>
</mgrwt>
</event>
<event>
 8    1  0.1439553E-005  0.1491796E+04  0.7818608E-02  0.8414236E-01
          2   -1    0    0  502    0  0.00000000000E+00  0.00000000000E+00  0.33639528905E+04  0.33639528905E+04  0.00000000000E+00 0. -1.
         -2   -1    0    0    0  501 -0.00000000000E+00 -0.00000000000E+00 -0.66160881912E+03  0.66160881912E+03  0.00000000000E+00 0.  1.
    9000010    2    1    2  502    0 -0.10521021066E+04  0.41530861246E+03  0.13700979518E+04  0.20337043092E+04  0.98963868838E+03 0.  0.
   -9000010    2    1    2    0  501  0.10521021066E+04 -0.41530861246E+03  0.13322461195E+04  0.19918574004E+04  0.95562340606E+03 0.  0.
        -13    1    3    3    0    0 -0.88420425659E+03 -0.61419774302E+01  0.41590302755E+03  0.97715414892E+03  0.10566000000E+00 0.  1.
          4    1    3    3  502    0 -0.16789784998E+03  0.42145058989E+03  0.95419492427E+03  0.10565501603E+04  0.00000000000E+00 0.  1.
         13    1    4    4    0    0  0.61993570918E+03 -0.53241905190E+03  0.30672742817E+03  0.87285282648E+03  0.10566000000E+00 0. -1.
         -4    1    4    4    0  501  0.43216639739E+03  0.11711043944E+03  0.10255186914E+04  0.11190045739E+04  0.00000000000E+00 0. -1.
<mgrwt>
<rscale>  2 0.14917958E+04</rscale>
<asrwt>0</asrwt>
<pdfrwt beam="1">  1        2 0.51753120E+00 0.14917958E+04</pdfrwt>
<pdfrwt beam="2">  1       -2 0.10178597E+00 0.14917958E+04</pdfrwt>
<totfact> 0.12088477E+00</totfact>
</mgrwt>
</event>
<event>
 8    1  0.1439553E-005  0.1490873E+04  0.7818608E-02  0.8414771E-01
         -2   -1    0    0    0  501 -0.00000000000E+00  0.00000000000E+00  0.84144035767E+03  0.84144035767E+03  0.00000000000E+00 0. -1.
          2   -1    0    0  502    0  0.00000000000E+00 -0.00000000000E+00 -0.44179979417E+04  0.44179979417E+04  0.00000000000E+00 0.  1.
    9000010    2    1    2  502    0  0.46959330263E+03 -0.10011059326E+04 -0.10769130615E+03  0.14763386868E+04  0.97223841858E+03 0.  0.
   -9000010    2    1    2    0  501 -0.46959330263E+03  0.10011059326E+04 -0.34688662779E+04  0.37830996126E+04  0.10276567844E+04 0.  0.
        -13    1    3    3    0    0  0.53950203501E+03 -0.11175744902E+04 -0.26451989183E+03  0.12688601071E+04  0.10566000000E+00 0.  1.
          4    1    3    3  502    0 -0.69908732376E+02  0.11646855759E+03  0.15682858569E+03  0.20747857976E+03  0.00000000000E+00 0.  1.
         13    1    4    4    0    0 -0.51353957815E+03  0.29458670188E+03 -0.66097143984E+03  0.88734856662E+03  0.10566000000E+00 0. -1.
         -4    1    4    4    0  501  0.43946275513E+02  0.70651923073E+03 -0.28078948381E+04  0.28957510460E+04  0.00000000000E+00 0. -1.
<mgrwt>
<rscale>  2 0.14908733E+04</rscale>
<asrwt>0</asrwt>
<pdfrwt beam="2">  1        2 0.67969200E+00 0.14908733E+04</pdfrwt>
<pdfrwt beam="1">  1       -2 0.12945236E+00 0.14908733E+04</pdfrwt>
<totfact> 0.83607611E-02</totfact>
</mgrwt>
</event>
<event>
 8    1  0.1439553E-005  0.1074024E+04  0.7818608E-02  0.8707988E-01
         -2   -1    0    0    0  501 -0.00000000000E+00  0.00000000000E+00  0.71724619951E+03  0.71724619951E+03  0.00000000000E+00 0.  1.
          2   -1    0    0  502    0  0.00000000000E+00 -0.00000000000E+00 -0.16102510877E+04  0.16102510877E+04  0.00000000000E+00 0. -1.
    9000010    2    1    2  502    0  0.39684065007E+03 -0.27198430646E+03 -0.48730405819E+03  0.12026188894E+04  0.98861973652E+03 0.  0.
   -9000010    2    1    2    0  501 -0.39684065007E+03  0.27198430646E+03 -0.40570082997E+03  0.11248783978E+04  0.93236274159E+03 0.  0.
        -13    1    3    3    0    0  0.12949426796E+03  0.37437659181E+03 -0.22504540755E+03  0.45560075126E+03  0.10566000000E+00 0.  1.
          4    1    3    3  502    0  0.26734638210E+03 -0.64636089826E+03 -0.26225865064E+03  0.74701813811E+03  0.00000000000E+00 0.  1.
         13    1    4    4    0    0 -0.50870424553E+03  0.14552347588E+03  0.14521218718E+03  0.54867447719E+03  0.10566000000E+00 0. -1.
         -4    1    4    4    0  501  0.11186359546E+03  0.12646083058E+03 -0.55091301715E+03  0.57620392061E+03  0.00000000000E+00 0. -1.
<mgrwt>
<rscale>  2 0.10740241E+04</rscale>
<asrwt>0</asrwt>
<pdfrwt beam="2">  1        2 0.24773093E+00 0.10740241E+04</pdfrwt>
<pdfrwt beam="1">  1       -2 0.11034557E+00 0.10740241E+04</pdfrwt>
<totfact> 0.10837838E+01</totfact>
</mgrwt>
</event>
<event>
 8    1  0.1439553E-005  0.1427250E+04  0.7818608E-02  0.8452638E-01
         -1   -1    0    0    0  501 -0.00000000000E+00  0.00000000000E+00  0.36580648579E+04  0.36580648579E+04  0.00000000000E+00 0. -1.
          1   -1    0    0  502    0  0.00000000000E+00 -0.00000000000E+00 -0.56407677863E+03  0.56407677863E+03  0.00000000000E+00 0.  1.
    9000010    2    1    2  502    0  0.24610176963E+03  0.99146290165E+03  0.13210964938E+04  0.19532618279E+04  0.10130997265E+04 0.  0.
   -9000010    2    1    2    0  501 -0.24610176963E+03 -0.99146290165E+03  0.17728915854E+04  0.22688798086E+04  0.98036026336E+03 0.  0.
        -13    1    3    3    0    0  0.19133475496E+03  0.87943153582E+03  0.33658485479E+03  0.96088406704E+03  0.10566000000E+00 0.  1.
          4    1    3    3  502    0  0.54767014673E+02  0.11203136583E+03  0.98451163900E+03  0.99237776082E+03  0.00000000000E+00 0.  1.
         13    1    4    4    0    0 -0.63452879702E+02 -0.26411614678E+02 -0.11888940077E+03  0.13732640719E+03  0.10566000000E+00 0. -1.
         -4    1    4    4    0  501 -0.18264888993E+03 -0.96505128698E+03  0.18917809862E+04  0.21315534015E+04  0.00000000000E+00 0. -1.
<mgrwt>
<rscale>  2 0.14272498E+04</rscale>
<asrwt>0</asrwt>
<pdfrwt beam="2">  1        1 0.86781045E-01 0.14272498E+04</pdfrwt>
<pdfrwt beam="1">  1       -1 0.56277919E+00 0.14272498E+04</pdfrwt>
<totfact> 0.23867428E-01</totfact>
</mgrwt>
</event>
<event>
 8    1  0.1439553E-005  0.1104660E+04  0.7818608E-02  0.8682036E-01
          2   -1    0    0  502    0  0.00000000000E+00  0.00000000000E+00  0.34765959633E+04  0.34765959633E+04  0.00000000000E+00 0.  1.
         -2   -1    0    0    0  501 -0.00000000000E+00 -0.00000000000E+00 -0.36367067928E+03  0.36367067928E+03  0.00000000000E+00 0. -1.
    9000010    2    1    2  502    0  0.31477716076E+03 -0.36097348606E+03  0.11880111594E+04  0.16171363276E+04  0.98710327137E+03 0.  0.
   -9000010    2    1    2    0  501 -0.31477716076E+03  0.36097348606E+03  0.19249141246E+04  0.22231303150E+04  0.10038065013E+04 0.  0.
        -13    1    3    3    0    0  0.25047238676E+03  0.33012299310E+02  0.11914315816E+04  0.12179225974E+04  0.10566000000E+00 0.  1.
          4    1    3    3  502    0  0.64304774005E+02 -0.39398578537E+03 -0.34204221954E+01  0.39921373013E+03  0.00000000000E+00 0.  1.
         13    1    4    4    0    0 -0.15183577893E+03  0.61448178286E+03  0.62791959421E+03  0.89158566228E+03  0.10566000000E+00 0. -1.
         -4    1    4    4    0  501 -0.16294138183E+03 -0.25350829680E+03  0.12969945304E+04  0.13315446527E+04  0.00000000000E+00 0. -1.
<mgrwt>
<rscale>  2 0.11046599E+04</rscale>
<asrwt>0</asrwt>
<pdfrwt beam="1">  1        2 0.53486090E+00 0.11046599E+04</pdfrwt>
<pdfrwt beam="2">  1       -2 0.55949338E-01 0.11046599E+04</pdfrwt>
<totfact> 0.38806649E+00</totfact>
</mgrwt>
</event>
<event>
 8    1  0.1439553E-005  0.1236206E+04  0.7818608E-02  0.8579786E-01
          1   -1    0    0  502    0  0.00000000000E+00  0.00000000000E+00  0.18599772310E+04  0.18599772310E+04  0.00000000000E+00 0. -1.
         -1   -1    0    0    0  501 -0.00000000000E+00 -0.00000000000E+00 -0.84710308352E+03  0.84710308352E+03  0.00000000000E+00 0.  1.
    9000010    2    1    2  502    0 -0.71284364464E+03 -0.12209295382E+03  0.27102665369E+03  0.12638928197E+04  0.10004583257E+04 0.  0.
   -9000010    2    1    2    0  501  0.71284364464E+03  0.12209295382E+03  0.74184749379E+03  0.14431874949E+04  0.10046888524E+04 0.  0.
        -13    1    3    3    0    0 -0.65819489269E+03 -0.28678605067E+03 -0.21366251707E+03  0.74907839242E+03  0.10566000000E+00 0.  1.
          4    1    3    3  502    0 -0.54648751948E+02  0.16469309685E+03  0.48468917076E+03  0.51481442724E+03  0.00000000000E+00 0.  1.
         13    1    4    4    0    0  0.18989055440E+03  0.53058632542E+03  0.43597951514E+03  0.71250152292E+03  0.10566000000E+00 0. -1.
         -4    1    4    4    0  501  0.52295309024E+03 -0.40849337160E+03  0.30586797866E+03  0.73068597195E+03  0.00000000000E+00 0. -1.
<mgrwt>
<rscale>  2 0.12362059E+04</rscale>
<asrwt>0</asrwt>
<pdfrwt beam="1">  1        1 0.28615034E+00 0.12362059E+04</pdfrwt>
<pdfrwt beam="2">  1       -1 0.13032355E+00 0.12362059E+04</pdfrwt>
<totfact> 0.25592046E+00</totfact>
</mgrwt>
</event>
<event>
 8    1  0.1439553E-005  0.1125435E+04  0.7818608E-02  0.8664932E-01
          2   -1    0    0  502    0  0.00000000000E+00  0.00000000000E+00  0.85860824557E+03  0.85860824557E+03  0.00000000000E+00 0.  1.
         -2   -1    0    0    0  501 -0.00000000000E+00 -0.00000000000E+00 -0.15208634482E+04  0.15208634482E+04  0.00000000000E+00 0. -1.
    9000010    2    1    2  502    0  0.45790371987E+03 -0.24369774230E+03 -0.53476540794E+03  0.12385581049E+04  0.98943808872E+03 0.  0.
   -9000010    2    1    2    0  501 -0.45790371987E+03  0.24369774230E+03 -0.12748979467E+03  0.11409135889E+04  0.10081496730E+04 0.  0.
        -13    1    3    3    0    0  0.38013320201E+03 -0.27601836777E+03 -0.81787364960E+03  0.94318858586E+03  0.10566000000E+00 0.  1.
          4    1    3    3  502    0  0.77770517868E+02  0.32320625472E+02  0.28310824166E+03  0.29536951904E+03  0.00000000000E+00 0.  1.
         13    1    4    4    0    0  0.31246282146E+03 -0.60431958093E+01 -0.10861352539E+03  0.33085713544E+03  0.10566000000E+00 0. -1.
         -4    1    4    4    0  501 -0.77036654134E+03  0.24974093811E+03 -0.18876269282E+02  0.81005645341E+03  0.00000000000E+00 0. -1.
<mgrwt>
<rscale>  2 0.11254347E+04</rscale>
<asrwt>0</asrwt>
<pdfrwt beam="1">  1        2 0.13209358E+00 0.11254347E+04</pdfrwt>
<pdfrwt beam="2">  1       -2 0.23397899E+00 0.11254347E+04</pdfrwt>
<totfact> 0.25099790E+00</totfact>
</mgrwt>
</event>
<event>
 8    1  0.1439553E-005  0.1549822E+04  0.7818608E-02  0.8381390E-01
          4   -1    0    0  502    0  0.00000000000E+00  0.00000000000E+00  0.14028695875E+04  0.14028695875E+04  0.00000000000E+00 0.  1.
         -4   -1    0    0    0  501 -0.00000000000E+00 -0.00000000000E+00 -0.23058046656E+04  0.23058046656E+04  0.00000000000E+00 0. -1.
    9000010    2    1    2  502    0  0.10302696554E+04  0.62240501197E+03  0.48984071082E+03  0.16235276790E+04  0.97316732404E+03 0.  0.
   -9000010    2    1    2    0  501 -0.10302696554E+04 -0.62240501197E+03 -0.13927757888E+04  0.20851465741E+04  0.97937136769E+03 0.  0.
        -13    1    3    3    0    0  0.11587280492E+04  0.37779183512E+03  0.22218005464E+03  0.12388467825E+04  0.10566000000E+00 0.  1.
          4    1    3    3  502    0 -0.12845839379E+03  0.24461317684E+03  0.26766065617E+03  0.38468089644E+03  0.00000000000E+00 0.  1.
         13    1    4    4    0    0  0.16231540818E+03 -0.25687165058E+03 -0.29562552116E+03  0.42393843484E+03  0.10566000000E+00 0. -1.
         -4    1    4    4    0  501 -0.11925850636E+04 -0.36553336139E+03 -0.10971502677E+04  0.16612081393E+04  0.00000000000E+00 0. -1.
<mgrwt>
<rscale>  2 0.15498217E+04</rscale>
<asrwt>0</asrwt>
<pdfrwt beam="1">  1        4 0.21582609E+00 0.15498217E+04</pdfrwt>
<pdfrwt beam="2">  1       -4 0.35473918E+00 0.15498217E+04</pdfrwt>
<totfact> 0.61517793E-02</totfact>
</mgrwt>
</event>
<event>
 8    1  0.1439553E-005  0.1260628E+04  0.7818608E-02  0.8562255E-01
          1   -1    0    0  502    0  0.00000000000E+00  0.00000000000E+00  0.84400939675E+03  0.84400939675E+03  0.00000000000E+00 0. -1.
         -1   -1    0    0    0  501 -0.00000000000E+00 -0.00000000000E+00 -0.18859655175E+04  0.18859655175E+04  0.00000000000E+00 0.  1.
    9000010    2    1    2  502    0  0.73435003269E+03 -0.13244911409E+03 -0.47179341603E+03  0.13564012995E+04  0.10297682844E+04 0.  0.
   -9000010    2    1    2    0  501 -0.73435003269E+03  0.13244911409E+03 -0.57016270473E+03  0.13735736148E+04  0.10024002329E+04 0.  0.
        -13    1    3    3    0    0  0.83493732966E+03 -0.35490030677E+03 -0.59298641959E+03  0.10838392303E+04  0.10566000000E+00 0.  1.
          4    1    3    3  502    0 -0.10058729697E+03  0.22245119269E+03  0.12119300356E+03  0.27256206917E+03  0.00000000000E+00 0.  1.
         13    1    4    4    0    0 -0.40691295436E+03  0.70390231366E+02  0.25383529993E+03  0.48473220210E+03  0.10566000000E+00 0. -1.
         -4    1    4    4    0  501 -0.32743707833E+03  0.62058882720E+02 -0.82399800466E+03  0.88884141267E+03  0.00000000000E+00 0. -1.
<mgrwt>
<rscale>  2 0.12606284E+04</rscale>
<asrwt>0</asrwt>
<pdfrwt beam="1">  1        1 0.12984760E+00 0.12606284E+04</pdfrwt>
<pdfrwt beam="2">  1       -1 0.29014854E+00 0.12606284E+04</pdfrwt>
<totfact> 0.53222491E-01</totfact>
</mgrwt>
</event>
<event>
 8    1  0.1439553E-005  0.1460000E+04  0.7818608E-02  0.8432898E-01
         -1   -1    0    0    0  501 -0.00000000000E+00  0.00000000000E+00  0.12642843551E+04  0.12642843551E+04  0.00000000000E+00 0. -1.
          1   -1    0    0  502    0  0.00000000000E+00 -0.00000000000E+00 -0.19071927428E+04  0.19071927428E+04  0.00000000000E+00 0.  1.
    9000010    2    1    2  502    0  0.58029065697E+03  0.88315941505E+03 -0.85942993720E+03  0.16856458479E+04  0.99301274353E+03 0.  0.
   -9000010    2    1    2    0  501 -0.58029065697E+03 -0.88315941505E+03  0.21652154953E+03  0.14858312500E+04  0.10218146227E+04 0.  0.
        -13    1    3    3    0    0  0.89211919698E+02  0.28026367574E+03  0.21144413165E+03  0.36223628549E+03  0.10566000000E+00 0.  1.
          4    1    3    3  502    0  0.49107873727E+03  0.60289573931E+03 -0.10708740688E+04  0.13234095625E+04  0.00000000000E+00 0.  1.
         13    1    4    4    0    0 -0.43735219369E+03 -0.10888761198E+04  0.30514323691E+02  0.11738225082E+04  0.10566000000E+00 0. -1.
         -4    1    4    4    0  501 -0.14293846328E+03  0.20571670477E+03  0.18600722584E+03  0.31200874181E+03  0.00000000000E+00 0. -1.
<mgrwt>
<rscale>  2 0.14600000E+04</rscale>
<asrwt>0</asrwt>
<pdfrwt beam="2">  1        1 0.29341427E+00 0.14600000E+04</pdfrwt>
<pdfrwt beam="1">  1       -1 0.19450529E+00 0.14600000E+04</pdfrwt>
<totfact> 0.63077769E-01</totfact>
</mgrwt>
</event>
<event>
 8    1  0.1439553E-005  0.9529969E+03  0.7818608E-02  0.8820053E-01
          1   -1    0    0  502    0  0.00000000000E+00  0.00000000000E+00  0.10168111539E+04  0.10168111539E+04  0.00000000000E+00 0.  1.
         -1   -1    0    0    0  501 -0.00000000000E+00 -0.00000000000E+00 -0.10450630382E+04  0.10450630382E+04  0.00000000000E+00 0. -1.
    9000010    2    1    2  502    0  0.14890068272E+03  0.34430420865E+03 -0.38878981932E+03  0.93628054764E+03  0.76468747791E+03 0.  0.
   -9000010    2    1    2    0  501 -0.14890068272E+03 -0.34430420865E+03  0.36053793496E+03  0.11255936445E+04  0.99812656941E+03 0.  0.
        -13    1    3    3    0    0 -0.43328231807E+02  0.49603902395E+03 -0.26048475424E+02  0.49860864733E+03  0.10566000000E+00 0.  1.
          4    1    3    3  502    0  0.19222891453E+03 -0.15173481530E+03 -0.36274134390E+03  0.43767190031E+03  0.00000000000E+00 0.  1.
         13    1    4    4    0    0  0.67079018199E+01 -0.66412390975E+03  0.72850641294E+02  0.66814129535E+03  0.10566000000E+00 0. -1.
         -4    1    4    4    0  501 -0.15560858454E+03  0.31981970110E+03  0.28768729367E+03  0.45745234914E+03  0.00000000000E+00 0. -1.
<mgrwt>
<rscale>  2 0.95299695E+03</rscale>
<asrwt>0</asrwt>
<pdfrwt beam="1">  1        1 0.15643248E+00 0.95299695E+03</pdfrwt>
<pdfrwt beam="2">  1       -1 0.16077893E+00 0.95299695E+03</pdfrwt>
<totfact> 0.62731857E+00</totfact>
</mgrwt>
</event>
<event>
 8    1  0.1439553E-005  0.1139956E+04  0.7818608E-02  0.8653202E-01
         -2   -1    0    0    0  501 -0.00000000000E+00  0.00000000000E+00  0.18655235777E+04  0.18655235777E+04  0.00000000000E+00 0.  1.
          2   -1    0    0  502    0  0.00000000000E+00 -0.00000000000E+00 -0.86619033393E+03  0.86619033393E+03  0.00000000000E+00 0. -1.
    9000010    2    1    2  502    0  0.50874131216E+03 -0.19375188569E+03  0.11031375498E+04  0.15844709655E+04  0.99863820821E+03 0.  0.
   -9000010    2    1    2    0  501 -0.50874131216E+03  0.19375188569E+03 -0.10380430601E+03  0.11472429461E+04  0.10045066090E+04 0.  0.
        -13    1    3    3    0    0  0.45120053809E+03  0.35102263642E+03  0.42293722735E+03  0.71110809747E+03  0.10566000000E+00 0.  1.
          4    1    3    3  502    0  0.57540774068E+02 -0.54477452211E+03  0.68020032242E+03  0.87336286802E+03  0.00000000000E+00 0.  1.
         13    1    4    4    0    0 -0.12188441614E+03 -0.35743197614E+03 -0.25680274309E+03  0.45668488971E+03  0.10566000000E+00 0. -1.
         -4    1    4    4    0  501 -0.38685689602E+03  0.55118386183E+03  0.15299843709E+03  0.69055805642E+03  0.00000000000E+00 0. -1.
<mgrwt>
<rscale>  2 0.11399562E+04</rscale>
<asrwt>0</asrwt>
<pdfrwt beam="2">  1        2 0.13326005E+00 0.11399562E+04</pdfrwt>
<pdfrwt beam="1">  1       -2 0.28700363E+00 0.11399562E+04</pdfrwt>
<totfact> 0.97315059E-01</totfact>
</mgrwt>
</event>
<event>
 8    1  0.1439553E-005  0.1707415E+04  0.7818608E-02  0.8299203E-01
         -4   -1    0    0    0  501 -0.00000000000E+00  0.00000000000E+00  0.10647805602E+04  0.10647805602E+04  0.00000000000E+00 0. -1.
          4   -1    0    0  502    0  0.00000000000E+00 -0.00000000000E+00 -0.28448462301E+04  0.28448462301E+04  0.00000000000E+00 0.  1.
    9000010    2    1    2  502    0 -0.13242476051E+04 -0.37150731742E+03 -0.12732249567E+04  0.21367857628E+04  0.10262076783E+04 0.  0.
   -9000010    2    1    2    0  501  0.13242476051E+04  0.37150731742E+03 -0.50684071317E+03  0.17728410275E+04  0.99721030559E+03 0.  0.
        -13    1    3    3    0    0 -0.65484313934E+03 -0.60992742462E+03 -0.32550515660E+03  0.95225239227E+03  0.10566000000E+00 0.  1.
          4    1    3    3  502    0 -0.66940446578E+03  0.23842010720E+03 -0.94771980014E+03  0.11845333705E+04  0.00000000000E+00 0.  1.
         13    1    4    4    0    0  0.10894260385E+04 -0.17514804439E+03 -0.34922381397E+03  0.11573604513E+04  0.10566000000E+00 0. -1.
         -4    1    4    4    0  501  0.23482156666E+03  0.54665536182E+03 -0.15761689920E+03  0.61548057620E+03  0.00000000000E+00 0. -1.
<mgrwt>
<rscale>  2 0.17074153E+04</rscale>
<asrwt>0</asrwt>
<pdfrwt beam="2">  1        4 0.43766865E+00 0.17074153E+04</pdfrwt>
<pdfrwt beam="1">  1       -4 0.16381239E+00 0.17074153E+04</pdfrwt>
<totfact> 0.41302112E-02</totfact>
</mgrwt>
</event>
<event>
 8    1  0.1439553E-005  0.1186529E+04  0.7818608E-02  0.8616776E-01
         -2   -1    0    0    0  501 -0.00000000000E+00  0.00000000000E+00  0.54050778110E+03  0.54050778110E+03  0.00000000000E+00 0.  1.
          2   -1    0    0  502    0  0.00000000000E+00 -0.00000000000E+00 -0.27293563378E+04  0.27293563378E+04  0.00000000000E+00 0. -1.
    9000010    2    1    2  502    0  0.55768054912E+03  0.33932442089E+03 -0.14372586900E+04  0.18591112632E+04  0.98205574666E+03 0.  0.
   -9000010    2    1    2    0  501 -0.55768054912E+03 -0.33932442089E+03 -0.75158986667E+03  0.14107528557E+04  0.99959373478E+03 0.  0.
        -13    1    3    3    0    0 -0.19326873442E+02  0.37526615295E+03 -0.80463972852E+02  0.38428202622E+03  0.10566000000E+00 0.  1.
          4    1    3    3  502    0  0.57700742256E+03 -0.35941732060E+02 -0.13567947172E+04  0.14748292370E+04  0.00000000000E+00 0.  1.
         13    1    4    4    0    0 -0.22971133573E+03  0.26836253285E+03 -0.61141781074E+03  0.70612852744E+03  0.10566000000E+00 0. -1.
         -4    1    4    4    0  501 -0.32796921339E+03 -0.60768695374E+03 -0.14017205592E+03  0.70462432823E+03  0.00000000000E+00 0. -1.
<mgrwt>
<rscale>  2 0.11865294E+04</rscale>
<asrwt>0</asrwt>
<pdfrwt beam="2">  1        2 0.41990098E+00 0.11865294E+04</pdfrwt>
<pdfrwt beam="1">  1       -2 0.83155043E-01 0.11865294E+04</pdfrwt>
<totfact> 0.50447499E+00</totfact>
</mgrwt>
</event>
<event>
 8    1  0.1439553E-005  0.1514314E+04  0.7818608E-02  0.8401308E-01
         -2   -1    0    0    0  501 -0.00000000000E+00  0.00000000000E+00  0.98929968259E+03  0.98929968259E+03  0.00000000000E+00 0.  1.
          2   -1    0    0  502    0  0.00000000000E+00 -0.00000000000E+00 -0.23615145949E+04  0.23615145949E+04  0.00000000000E+00 0. -1.
    9000010    2    1    2  502    0  0.10540751042E+04 -0.40746493794E+03 -0.90822527897E+03  0.17560281100E+04  0.99078734597E+03 0.  0.
   -9000010    2    1    2    0  501 -0.10540751042E+04  0.40746493794E+03 -0.46398963333E+03  0.15947861675E+04  0.10251607382E+04 0.  0.
        -13    1    3    3    0    0  0.10462991567E+03 -0.18642344658E+03  0.19109599220E+03  0.28673822572E+03  0.10566000000E+00 0.  1.
          4    1    3    3  502    0  0.94944518849E+03 -0.22104149136E+03 -0.10993212712E+04  0.14692898843E+04  0.00000000000E+00 0.  1.
         13    1    4    4    0    0 -0.47978620599E+03 -0.31607848458E+03 -0.33149622921E+02  0.57549919247E+03  0.10566000000E+00 0. -1.
         -4    1    4    4    0  501 -0.57428889818E+03  0.72354342251E+03 -0.43084001041E+03  0.10192869750E+04  0.00000000000E+00 0. -1.
<mgrwt>
<rscale>  2 0.15143141E+04</rscale>
<asrwt>0</asrwt>
<pdfrwt beam="2">  1        2 0.36330994E+00 0.15143141E+04</pdfrwt>
<pdfrwt beam="1">  1       -2 0.15219995E+00 0.15143141E+04</pdfrwt>
<totfact> 0.16440357E+00</totfact>
</mgrwt>
</event>
<event>
 8    1  0.1439553E-005  0.1354913E+04  0.7818608E-02  0.8498229E-01
          1   -1    0    0  502    0  0.00000000000E+00  0.00000000000E+00  0.15711998505E+04  0.15711998505E+04  0.00000000000E+00 0.  1.
         -1   -1    0    0    0  501 -0.00000000000E+00 -0.00000000000E+00 -0.11701809886E+04  0.11701809886E+04  0.00000000000E+00 0. -1.
    9000010    2    1    2  502    0  0.71938562424E+03 -0.54146939856E+03  0.25040033636E+03  0.13650972376E+04  0.99503032799E+03 0.  0.
   -9000010    2    1    2    0  501 -0.71938562424E+03  0.54146939856E+03  0.15061852562E+03  0.13762836016E+04  0.10299348648E+04 0.  0.
        -13    1    3    3    0    0  0.76195931700E+03  0.63775088361E+01  0.18208292154E+01  0.76198818886E+03  0.10566000000E+00 0.  1.
          4    1    3    3  502    0 -0.42573692757E+02 -0.54784690740E+03  0.24857950714E+03  0.60310904871E+03  0.00000000000E+00 0.  1.
         13    1    4    4    0    0 -0.46389388648E+03  0.84802978344E+03  0.69970894570E+02  0.96914807370E+03  0.10566000000E+00 0. -1.
         -4    1    4    4    0  501 -0.25549173776E+03 -0.30656038488E+03  0.80647631046E+02  0.40713552785E+03  0.00000000000E+00 0. -1.
<mgrwt>
<rscale>  2 0.13549134E+04</rscale>
<asrwt>0</asrwt>
<pdfrwt beam="1">  1        1 0.24172305E+00 0.13549134E+04</pdfrwt>
<pdfrwt beam="2">  1       -1 0.18002784E+00 0.13549134E+04</pdfrwt>
<totfact> 0.15306439E+00</totfact>
</mgrwt>
</event>
<event>
 8    1  0.1439553E-005  0.1199007E+04  0.7818608E-02  0.8607310E-01
         -1   -1    0    0    0  501 -0.00000000000E+00  0.00000000000E+00  0.79779328465E+03  0.79779328465E+03  0.00000000000E+00 0. -1.
          1   -1    0    0  502    0  0.00000000000E+00 -0.00000000000E+00 -0.19724915571E+04  0.19724915571E+04  0.00000000000E+00 0.  1.
    9000010    2    1    2  502    0 -0.10289824898E+03  0.66515472529E+03 -0.99563229026E+03  0.15603104598E+04  0.99512120642E+03 0.  0.
   -9000010    2    1    2    0  501  0.10289824898E+03 -0.66515472529E+03 -0.17906598222E+03  0.12099743819E+04  0.98942130598E+03 0.  0.
        -13    1    3    3    0    0 -0.14606683479E+03  0.65539498339E+01  0.16788490104E+03  0.22262934587E+03  0.10566000000E+00 0.  1.
          4    1    3    3  502    0  0.43168585813E+02  0.65860077546E+03 -0.11635171913E+04  0.13376811140E+04  0.00000000000E+00 0.  1.
         13    1    4    4    0    0  0.43621177595E+03 -0.63673964178E+03  0.94823865036E+02  0.77763080021E+03  0.10566000000E+00 0. -1.
         -4    1    4    4    0  501 -0.33331352697E+03 -0.28415083512E+02 -0.27388984725E+03  0.43234358173E+03  0.00000000000E+00 0. -1.
<mgrwt>
<rscale>  2 0.11990071E+04</rscale>
<asrwt>0</asrwt>
<pdfrwt beam="2">  1        1 0.30346024E+00 0.11990071E+04</pdfrwt>
<pdfrwt beam="1">  1       -1 0.12273743E+00 0.11990071E+04</pdfrwt>
<totfact> 0.24681112E+00</totfact>
</mgrwt>
</event>
<event>
 8    1  0.1439553E-005  0.1301660E+04  0.7818608E-02  0.8533705E-01
         -4   -1    0    0    0  501 -0.00000000000E+00  0.00000000000E+00  0.31333428405E+04  0.31333428405E+04  0.00000000000E+00 0. -1.
          4   -1    0    0  502    0  0.00000000000E+00 -0.00000000000E+00 -0.10666113362E+04  0.10666113362E+04  0.00000000000E+00 0.  1.
    9000010    2    1    2  502    0 -0.53534413250E+03  0.65129340570E+03 -0.43772005869E+03  0.13813016297E+04  0.10028055155E+04 0.  0.
   -9000010    2    1    2    0  501  0.53534413250E+03 -0.65129340570E+03  0.25044515629E+04  0.28186525470E+04  0.98068756956E+03 0.  0.
        -13    1    3    3    0    0 -0.33735449823E+02  0.57983996826E+03 -0.61366647867E+03  0.84494912721E+03  0.10566000000E+00 0.  1.
          4    1    3    3  502    0 -0.50160868268E+03  0.71453437438E+02  0.17594641998E+03  0.53635250252E+03  0.00000000000E+00 0.  1.
         13    1    4    4    0    0  0.50522332084E+03 -0.51311334215E+03  0.68548366667E+03  0.99419503833E+03  0.10566000000E+00 0. -1.
         -4    1    4    4    0  501  0.30120811656E+02 -0.13818006355E+03  0.18189678963E+04  0.18244575087E+04  0.00000000000E+00 0. -1.
<mgrwt>
<rscale>  2 0.13016597E+04</rscale>
<asrwt>0</asrwt>
<pdfrwt beam="2">  1        4 0.16409405E+00 0.13016597E+04</pdfrwt>
<pdfrwt beam="1">  1       -4 0.48205274E+00 0.13016597E+04</pdfrwt>
<totfact> 0.26292418E-02</totfact>
</mgrwt>
</event>
<event>
 8    1  0.1439553E-005  0.1309940E+04  0.7818608E-02  0.8528076E-01
         -2   -1    0    0    0  501 -0.00000000000E+00  0.00000000000E+00  0.10348778571E+04  0.10348778571E+04  0.00000000000E+00 0. -1.
          2   -1    0    0  502    0  0.00000000000E+00 -0.00000000000E+00 -0.18941176509E+04  0.18941176509E+04  0.00000000000E+00 0.  1.
    9000010    2    1    2  502    0  0.16771966265E+03 -0.83993591135E+03 -0.94832402350E+03  0.16222760838E+04  0.99941934053E+03 0.  0.
   -9000010    2    1    2    0  501 -0.16771966265E+03  0.83993591135E+03  0.89084229703E+02  0.13067194242E+04  0.98283133501E+03 0.  0.
        -13    1    3    3    0    0  0.45887772310E+03 -0.90462517804E+03 -0.68099807475E+03  0.12217503290E+04  0.10566000000E+00 0.  1.
          4    1    3    3  502    0 -0.29115806045E+03  0.64689266688E+02 -0.26732594875E+03  0.40052575481E+03  0.00000000000E+00 0.  1.
         13    1    4    4    0    0 -0.91605374768E+02 -0.15509703163E+03  0.23720488953E+03  0.29784694843E+03  0.10566000000E+00 0. -1.
         -4    1    4    4    0  501 -0.76114287884E+02  0.99503294298E+03 -0.14812065983E+03  0.10088724757E+04  0.00000000000E+00 0. -1.
<mgrwt>
<rscale>  2 0.13099396E+04</rscale>
<asrwt>0</asrwt>
<pdfrwt beam="2">  1        2 0.29140271E+00 0.13099396E+04</pdfrwt>
<pdfrwt beam="1">  1       -2 0.15921198E+00 0.13099396E+04</pdfrwt>
<totfact> 0.26312031E+00</totfact>
</mgrwt>
</event>
<event>
 8    1  0.1439553E-005  0.1178154E+04  0.7818608E-02  0.8623197E-01
         -2   -1    0    0    0  501 -0.00000000000E+00  0.00000000000E+00  0.55318307863E+03  0.55318307863E+03  0.00000000000E+00 0.  1.
          2   -1    0    0  502    0  0.00000000000E+00 -0.00000000000E+00 -0.33064301794E+04  0.33064301794E+04  0.00000000000E+00 0. -1.
    9000010    2    1    2  502    0 -0.59891405243E+03 -0.90983368958E+02 -0.43972876753E+03  0.12687168458E+04  0.10243559099E+04 0.  0.
   -9000010    2    1    2    0  501  0.59891405243E+03  0.90983368958E+02 -0.23135183332E+04  0.25908964123E+04  0.99669510147E+03 0.  0.
        -13    1    3    3    0    0 -0.86387779559E+03 -0.18721718175E+03 -0.21892964558E+03  0.91064006047E+03  0.10566000000E+00 0.  1.
          4    1    3    3  502    0  0.26496374316E+03  0.96233812792E+02 -0.22079912195E+03  0.35807678529E+03  0.00000000000E+00 0.  1.
         13    1    4    4    0    0 -0.13743971635E+03  0.35768806332E+03 -0.75785856078E+03  0.84922319539E+03  0.10566000000E+00 0. -1.
         -4    1    4    4    0  501  0.73635376878E+03 -0.26670469436E+03 -0.15556597725E+04  0.17416732169E+04  0.00000000000E+00 0. -1.
<mgrwt>
<rscale>  2 0.11781544E+04</rscale>
<asrwt>0</asrwt>
<pdfrwt beam="2">  1        2 0.50868156E+00 0.11781544E+04</pdfrwt>
<pdfrwt beam="1">  1       -2 0.85105090E-01 0.11781544E+04</pdfrwt>
<totfact> 0.20954224E+00</totfact>
</mgrwt>
</event>
<event>
 8    1  0.1439553E-005  0.1970241E+04  0.7818608E-02  0.8180617E-01
         -1   -1    0    0    0  501 -0.00000000000E+00  0.00000000000E+00  0.14344838790E+04  0.14344838790E+04  0.00000000000E+00 0. -1.
          1   -1    0    0  502    0  0.00000000000E+00 -0.00000000000E+00 -0.27766924399E+04  0.27766924399E+04  0.00000000000E+00 0.  1.
    9000010    2    1    2  502    0  0.99685987708E+03  0.13744755316E+04 -0.10063776516E+04  0.22111392755E+04  0.99670874207E+03 0.  0.
   -9000010    2    1    2    0  501 -0.99685987708E+03 -0.13744755316E+04 -0.33583090923E+03  0.20000370434E+04  0.10022241137E+04 0.  0.
        -13    1    3    3    0    0 -0.15092133311E+03  0.39443717495E+02  0.42638922285E+02  0.16171315499E+03  0.10566000000E+00 0.  1.
          4    1    3    3  502    0  0.11477812102E+04  0.13350318141E+04 -0.10490165739E+04  0.20494261205E+04  0.00000000000E+00 0.  1.
         13    1    4    4    0    0 -0.79772413615E+02  0.13176129463E+03  0.99838719723E+02  0.18355505402E+03  0.10566000000E+00 0. -1.
         -4    1    4    4    0  501 -0.91708746346E+03 -0.15062368262E+04 -0.43566962896E+03  0.18164819894E+04  0.00000000000E+00 0. -1.
<mgrwt>
<rscale>  2 0.19702410E+04</rscale>
<asrwt>0</asrwt>
<pdfrwt beam="2">  1        1 0.42718345E+00 0.19702410E+04</pdfrwt>
<pdfrwt beam="1">  1       -1 0.22068983E+00 0.19702410E+04</pdfrwt>
<totfact> 0.60843413E-02</totfact>
</mgrwt>
</event>
<event>
 8    1  0.1439553E-005  0.1445803E+04  0.7818608E-02  0.8441390E-01
          2   -1    0    0  502    0  0.00000000000E+00  0.00000000000E+00  0.22033966951E+04  0.22033966951E+04  0.00000000000E+00 0. -1.
         -2   -1    0    0    0  501 -0.00000000000E+00 -0.00000000000E+00 -0.95458185396E+03  0.95458185396E+03  0.00000000000E+00 0.  1.
    9000010    2    1    2  502    0 -0.10475842600E+04 -0.71044284186E+01  0.50754905190E+03  0.15459437208E+04  0.10172770975E+04 0.  0.
   -9000010    2    1    2    0  501  0.10475842600E+04  0.71044284186E+01  0.74126578922E+03  0.16120348282E+04  0.97555013323E+03 0.  0.
        -13    1    3    3    0    0  0.12856488438E+03 -0.15802985462E+03  0.26725739746E+03  0.33604894303E+03  0.10566000000E+00 0.  1.
          4    1    3    3  502    0 -0.11761491444E+04  0.15092542620E+03  0.24029165444E+03  0.12098947778E+04  0.00000000000E+00 0.  1.
         13    1    4    4    0    0  0.10476856450E+04  0.78007712205E+01  0.19492443190E+03  0.10656930177E+04  0.10566000000E+00 0. -1.
         -4    1    4    4    0  501 -0.10138497634E+00 -0.69634280192E+00  0.54634135732E+03  0.54634181050E+03  0.00000000000E+00 0. -1.
<mgrwt>
<rscale>  2 0.14458026E+04</rscale>
<asrwt>0</asrwt>
<pdfrwt beam="1">  1        2 0.33898411E+00 0.14458026E+04</pdfrwt>
<pdfrwt beam="2">  1       -2 0.14685875E+00 0.14458026E+04</pdfrwt>
<totfact> 0.22574120E+00</totfact>
</mgrwt>
</event>
<event>
 8    1  0.1439553E-005  0.1323832E+04  0.7818608E-02  0.8518726E-01
          1   -1    0    0  502    0  0.00000000000E+00  0.00000000000E+00  0.16707982814E+04  0.16707982814E+04  0.00000000000E+00 0.  1.
         -1   -1    0    0    0  501 -0.00000000000E+00 -0.00000000000E+00 -0.11452537566E+04  0.11452537566E+04  0.00000000000E+00 0. -1.
    9000010    2    1    2  502    0  0.28961307463E+03 -0.78177746689E+03 -0.14871161055E+03  0.13122051532E+04  0.10023549672E+04 0.  0.
   -9000010    2    1    2    0  501 -0.28961307463E+03  0.78177746689E+03  0.67425613536E+03  0.15038468848E+04  0.10544583330E+04 0.  0.
        -13    1    3    3    0    0 -0.17753444917E+03 -0.14440061166E+03 -0.41866709977E+03  0.47712909038E+03  0.10566000000E+00 0.  1.
          4    1    3    3  502    0  0.46714752380E+03 -0.63737685523E+03  0.26995548922E+03  0.83507606284E+03  0.00000000000E+00 0.  1.
         13    1    4    4    0    0 -0.63696420582E+03  0.58993898610E+03  0.68656124297E+03  0.11068503776E+04  0.10566000000E+00 0. -1.
         -4    1    4    4    0  501  0.34735113119E+03  0.19183848079E+03 -0.12305107605E+02  0.39699650720E+03  0.00000000000E+00 0. -1.
<mgrwt>
<rscale>  2 0.13238322E+04</rscale>
<asrwt>0</asrwt>
<pdfrwt beam="1">  1        1 0.25704589E+00 0.13238322E+04</pdfrwt>
<pdfrwt beam="2">  1       -1 0.17619288E+00 0.13238322E+04</pdfrwt>
<totfact> 0.13992096E+00</totfact>
</mgrwt>
</event>
<event>
 8    1  0.1439553E-005  0.2432718E+04  0.7818608E-02  0.8011966E-01
         -1   -1    0    0    0  501 -0.00000000000E+00  0.00000000000E+00  0.31912709315E+04  0.31912709315E+04  0.00000000000E+00 0. -1.
          1   -1    0    0  502    0  0.00000000000E+00 -0.00000000000E+00 -0.18630509978E+04  0.18630509978E+04  0.00000000000E+00 0.  1.
    9000010    2    1    2  502    0  0.17768251220E+04 -0.12754307878E+04  0.50304607636E+03  0.25125413527E+04  0.11295917340E+04 0.  0.
   -9000010    2    1    2    0  501 -0.17768251220E+04  0.12754307878E+04  0.82517385733E+03  0.25417805766E+04  0.99795059805E+03 0.  0.
        -13    1    3    3    0    0  0.50112394673E+03 -0.93916839745E+03  0.53815269881E+03  0.11927995754E+04  0.10566000000E+00 0.  1.
          4    1    3    3  502    0  0.12757011753E+04 -0.33626239034E+03 -0.35106622455E+02  0.13197417773E+04  0.00000000000E+00 0.  1.
         13    1    4    4    0    0 -0.33792721562E+03  0.24915327413E+03 -0.23465922886E+03  0.48097517807E+03  0.10566000000E+00 0. -1.
         -4    1    4    4    0  501 -0.14388979064E+04  0.10262775137E+04  0.10598330862E+04  0.20608053985E+04  0.00000000000E+00 0. -1.
<mgrwt>
<rscale>  2 0.24327178E+04</rscale>
<asrwt>0</asrwt>
<pdfrwt beam="2">  1        1 0.28662323E+00 0.24327178E+04</pdfrwt>
<pdfrwt beam="1">  1       -1 0.49096476E+00 0.24327178E+04</pdfrwt>
<totfact> 0.38438102E-02</totfact>
</mgrwt>
</event>
<event>
 8    1  0.1439553E-005  0.1165822E+04  0.7818608E-02  0.8632753E-01
          2   -1    0    0  502    0  0.00000000000E+00  0.00000000000E+00  0.29668279417E+04  0.29668279417E+04  0.00000000000E+00 0. -1.
         -2   -1    0    0    0  501 -0.00000000000E+00 -0.00000000000E+00 -0.45843977032E+03  0.45843977032E+03  0.00000000000E+00 0.  1.
    9000010    2    1    2  502    0 -0.39512818609E+03  0.42394995759E+03  0.12111353045E+04  0.16827330599E+04  0.10143381957E+04 0.  0.
   -9000010    2    1    2    0  501  0.39512818609E+03 -0.42394995759E+03  0.12972528668E+04  0.17425346521E+04  0.10088122537E+04 0.  0.
        -13    1    3    3    0    0  0.22336461830E+03  0.32956729753E+03  0.89970021997E+03  0.98385306488E+03  0.10566000000E+00 0.  1.
          4    1    3    3  502    0 -0.61849280439E+03  0.94382660067E+02  0.31143508456E+03  0.69887999506E+03  0.00000000000E+00 0.  1.
         13    1    4    4    0    0  0.16435933577E+03 -0.55078196436E+03  0.19147623542E+03  0.60583654843E+03  0.10566000000E+00 0. -1.
         -4    1    4    4    0  501  0.23076885032E+03  0.12683200677E+03  0.11057766314E+04  0.11366981036E+04  0.00000000000E+00 0. -1.
<mgrwt>
<rscale>  2 0.11658218E+04</rscale>
<asrwt>0</asrwt>
<pdfrwt beam="1">  1        2 0.45643506E+00 0.11658218E+04</pdfrwt>
<pdfrwt beam="2">  1       -2 0.70529197E-01 0.11658218E+04</pdfrwt>
<totfact> 0.51934897E+00</totfact>
</mgrwt>
</event>
<event>
 8    1  0.1439553E-005  0.1182498E+04  0.7818608E-02  0.8619859E-01
         -2   -1    0    0    0  501 -0.00000000000E+00  0.00000000000E+00  0.16513028514E+04  0.16513028514E+04  0.00000000000E+00 0. -1.
          2   -1    0    0  502    0  0.00000000000E+00 -0.00000000000E+00 -0.10096769797E+04  0.10096769797E+04  0.00000000000E+00 0.  1.
    9000010    2    1    2  502    0  0.54564404949E+03 -0.35190747502E+03 -0.21222120321E+03  0.12071468344E+04  0.99528857172E+03 0.  0.
   -9000010    2    1    2    0  501 -0.54564404949E+03  0.35190747502E+03  0.85384707490E+03  0.14538329967E+04  0.98133034972E+03 0.  0.
        -13    1    3    3    0    0 -0.58228877251E+02 -0.30560677109E+03  0.28624245479E+03  0.42275389386E+03  0.10566000000E+00 0.  1.
          4    1    3    3  502    0  0.60387292674E+03 -0.46300703927E+02 -0.49846365800E+03  0.78439294055E+03  0.00000000000E+00 0.  1.
         13    1    4    4    0    0 -0.52636013676E+03  0.31131019906E+03  0.12879932066E+02  0.61166570725E+03  0.10566000000E+00 0. -1.
         -4    1    4    4    0  501 -0.19283912729E+02  0.40597275963E+02  0.84096714284E+03  0.84216728946E+03  0.00000000000E+00 0. -1.
<mgrwt>
<rscale>  2 0.11824984E+04</rscale>
<asrwt>0</asrwt>
<pdfrwt beam="2">  1        2 0.15533492E+00 0.11824984E+04</pdfrwt>
<pdfrwt beam="1">  1       -2 0.25404659E+00 0.11824984E+04</pdfrwt>
<totfact> 0.13986705E+00</totfact>
</mgrwt>
</event>
<event>
 8    1  0.1439553E-005  0.1142311E+04  0.7818608E-02  0.8651317E-01
         -2   -1    0    0    0  501 -0.00000000000E+00  0.00000000000E+00  0.53054294332E+03  0.53054294332E+03  0.00000000000E+00 0. -1.
          2   -1    0    0  502    0  0.00000000000E+00 -0.00000000000E+00 -0.25621909980E+04  0.25621909980E+04  0.00000000000E+00 0.  1.
    9000010    2    1    2  502    0 -0.35843510798E+03 -0.44902621451E+03 -0.72557573819E+03  0.13712792320E+04  0.10118529104E+04 0.  0.
   -9000010    2    1    2    0  501  0.35843510798E+03  0.44902621451E+03 -0.13060723165E+04  0.17214547093E+04  0.96305822897E+03 0.  0.
        -13    1    3    3    0    0 -0.10873608446E+03 -0.73781283485E+03 -0.63359143499E+03  0.97858542447E+03  0.10566000000E+00 0.  1.
          4    1    3    3  502    0 -0.24969902352E+03  0.28878662033E+03 -0.91984303205E+02  0.39269380752E+03  0.00000000000E+00 0.  1.
         13    1    4    4    0    0  0.28406765173E+03 -0.27304431556E+03 -0.50275209038E+03  0.63875449475E+03  0.10566000000E+00 0. -1.
         -4    1    4    4    0  501  0.74367456255E+02  0.72207053007E+03 -0.80332022607E+03  0.10827002145E+04  0.00000000000E+00 0. -1.
<mgrwt>
<rscale>  2 0.11423111E+04</rscale>
<asrwt>0</asrwt>
<pdfrwt beam="2">  1        2 0.39418324E+00 0.11423111E+04</pdfrwt>
<pdfrwt beam="1">  1       -2 0.81621990E-01 0.11423111E+04</pdfrwt>
<totfact> 0.65950388E+00</totfact>
</mgrwt>
</event>
<event>
 8    1  0.1439553E-005  0.1315372E+04  0.7818608E-02  0.8524405E-01
         -2   -1    0    0    0  501 -0.00000000000E+00  0.00000000000E+00  0.93257115487E+03  0.93257115487E+03  0.00000000000E+00 0. -1.
          2   -1    0    0  502    0  0.00000000000E+00 -0.00000000000E+00 -0.19718718251E+04  0.19718718251E+04  0.00000000000E+00 0.  1.
    9000010    2    1    2  502    0 -0.27925990334E+03  0.77782272178E+03 -0.16262630853E+03  0.13143478909E+04  0.10089939455E+04 0.  0.
   -9000010    2    1    2    0  501  0.27925990334E+03 -0.77782272178E+03 -0.87667436172E+03  0.15900950891E+04  0.10377139180E+04 0.  0.
        -13    1    3    3    0    0 -0.13705073039E+03 -0.22379763790E+03  0.79320233579E+02  0.27415323461E+03  0.10566000000E+00 0.  1.
          4    1    3    3  502    0 -0.14220917295E+03  0.10016203597E+04 -0.24194654211E+03  0.10401946563E+04  0.00000000000E+00 0.  1.
         13    1    4    4    0    0 -0.10427401063E+03 -0.21536884215E+03  0.20294714483E+03  0.31375844566E+03  0.10566000000E+00 0. -1.
         -4    1    4    4    0  501  0.38353391397E+03 -0.56245387962E+03 -0.10796215066E+04  0.12763366434E+04  0.00000000000E+00 0. -1.
<mgrwt>
<rscale>  2 0.13153722E+04</rscale>
<asrwt>0</asrwt>
<pdfrwt beam="2">  1        2 0.30336490E+00 0.13153722E+04</pdfrwt>
<pdfrwt beam="1">  1       -2 0.14347249E+00 0.13153722E+04</pdfrwt>
<totfact> 0.32852501E+00</totfact>
</mgrwt>
</event>
<event>
 8    1  0.1439553E-005  0.1848073E+04  0.7818608E-02  0.8233219E-01
          2   -1    0    0  502    0  0.00000000000E+00  0.00000000000E+00  0.23265593442E+04  0.23265593442E+04  0.00000000000E+00 0.  1.
         -2   -1    0    0    0  501 -0.00000000000E+00 -0.00000000000E+00 -0.20727732784E+04  0.20727732784E+04  0.00000000000E+00 0. -1.
    9000010    2    1    2  502    0  0.67763646225E+03 -0.13792577019E+04 -0.10604865431E+04  0.21429971040E+04  0.10517898537E+04 0.  0.
   -9000010    2    1    2    0  501 -0.67763646225E+03  0.13792577019E+04  0.13142726089E+04  0.22563355186E+04  0.10010966482E+04 0.  0.
        -13    1    3    3    0    0  0.13200630718E+03 -0.12839023183E+04 -0.60294003463E+03  0.14245587122E+04  0.10566000000E+00 0.  1.
          4    1    3    3  502    0  0.54563015507E+03 -0.95355383585E+02 -0.45754650850E+03  0.71843839175E+03  0.00000000000E+00 0.  1.
         13    1    4    4    0    0 -0.51757138633E+03  0.14673175419E+04  0.13616474294E+04  0.20676035988E+04  0.10566000000E+00 0. -1.
         -4    1    4    4    0  501 -0.16006507591E+03 -0.88059840017E+02 -0.47374820480E+02  0.18873191984E+03  0.00000000000E+00 0. -1.
<mgrwt>
<rscale>  2 0.18480733E+04</rscale>
<asrwt>0</asrwt>
<pdfrwt beam="1">  1        2 0.35793221E+00 0.18480733E+04</pdfrwt>
<pdfrwt beam="2">  1       -2 0.31888820E+00 0.18480733E+04</pdfrwt>
<totfact> 0.82606254E-02</totfact>
</mgrwt>
</event>
<event>
 8    1  0.1439553E-005  0.1292607E+04  0.7818608E-02  0.8539910E-01
          1   -1    0    0  502    0  0.00000000000E+00  0.00000000000E+00  0.17064194801E+04  0.17064194801E+04  0.00000000000E+00 0.  1.
         -1   -1    0    0    0  501 -0.00000000000E+00 -0.00000000000E+00 -0.99131179520E+03  0.99131179520E+03  0.00000000000E+00 0. -1.
    9000010    2    1    2  502    0  0.72357627105E+03 -0.42406074673E+03  0.49553918631E+03  0.13568127088E+04  0.94445301872E+03 0.  0.
   -9000010    2    1    2    0  501 -0.72357627105E+03  0.42406074673E+03  0.21956849856E+03  0.13409185665E+04  0.10229673208E+04 0.  0.
        -13    1    3    3    0    0  0.79747022019E+03 -0.39813894256E+03  0.37492746567E+02  0.89212055625E+03  0.10566000000E+00 0.  1.
          4    1    3    3  502    0 -0.73893949145E+02 -0.25921804165E+02  0.45804643974E+03  0.46469215252E+03  0.00000000000E+00 0.  1.
         13    1    4    4    0    0 -0.26855849571E+03  0.44407162548E+03 -0.33924357604E+03  0.62000765255E+03  0.10566000000E+00 0. -1.
         -4    1    4    4    0  501 -0.45501777534E+03 -0.20010878747E+02  0.55881207460E+03  0.72091091396E+03  0.00000000000E+00 0. -1.
<mgrwt>
<rscale>  2 0.12926070E+04</rscale>
<asrwt>0</asrwt>
<pdfrwt beam="1">  1        1 0.26252607E+00 0.12926070E+04</pdfrwt>
<pdfrwt beam="2">  1       -1 0.15250951E+00 0.12926070E+04</pdfrwt>
<totfact> 0.21224312E+00</totfact>
</mgrwt>
</event>
<event>
 8    1  0.1439553E-005  0.1431886E+04  0.7818608E-02  0.8449811E-01
         -1   -1    0    0    0  501 -0.00000000000E+00  0.00000000000E+00  0.36319090061E+04  0.36319090061E+04  0.00000000000E+00 0. -1.
          1   -1    0    0  502    0  0.00000000000E+00 -0.00000000000E+00 -0.66208677504E+03  0.66208677504E+03  0.00000000000E+00 0.  1.
    9000010    2    1    2  502    0  0.31444539800E+03 -0.97152456339E+03  0.66545878643E+03  0.15837785397E+04  0.10113274350E+04 0.  0.
   -9000010    2    1    2    0  501 -0.31444539800E+03  0.97152456339E+03  0.23043634446E+04  0.27102172415E+04  0.99621821174E+03 0.  0.
        -13    1    3    3    0    0  0.29344510775E+02 -0.40347970489E+03 -0.24535211140E+03  0.47313279563E+03  0.10566000000E+00 0.  1.
          4    1    3    3  502    0  0.28510088722E+03 -0.56804485851E+03  0.91081089783E+03  0.11106457440E+04  0.00000000000E+00 0.  1.
         13    1    4    4    0    0 -0.57856291696E+03  0.48176350297E+03  0.76485605128E+03  0.10732361865E+04  0.10566000000E+00 0. -1.
         -4    1    4    4    0  501  0.26411751896E+03  0.48976106042E+03  0.15395073934E+04  0.16369810550E+04  0.00000000000E+00 0. -1.
<mgrwt>
<rscale>  2 0.14318857E+04</rscale>
<asrwt>0</asrwt>
<pdfrwt beam="2">  1        1 0.10185951E+00 0.14318857E+04</pdfrwt>
<pdfrwt beam="1">  1       -1 0.55875522E+00 0.14318857E+04</pdfrwt>
<totfact> 0.20091287E-01</totfact>
</mgrwt>
</event>
<event>
 8    1  0.1439553E-005  0.1381837E+04  0.7818608E-02  0.8480926E-01
         -1   -1    0    0    0  501 -0.00000000000E+00  0.00000000000E+00  0.13729571774E+04  0.13729571774E+04  0.00000000000E+00 0. -1.
          1   -1    0    0  502    0  0.00000000000E+00 -0.00000000000E+00 -0.14012094387E+04  0.14012094387E+04  0.00000000000E+00 0.  1.
    9000010    2    1    2  502    0  0.11837124772E+03  0.95267342166E+03 -0.13383331017E+03  0.13888850869E+04  0.99473213943E+03 0.  0.
   -9000010    2    1    2    0  501 -0.11837124772E+03 -0.95267342166E+03  0.10558104886E+03  0.13852815292E+04  0.99310581338E+03 0.  0.
        -13    1    3    3    0    0 -0.37297868395E+02 -0.44427288334E+02  0.28895648280E+03  0.29472152119E+03  0.10566000000E+00 0.  1.
          4    1    3    3  502    0  0.15566911612E+03  0.99710071000E+03 -0.42278979297E+03  0.10941635658E+04  0.00000000000E+00 0.  1.
         13    1    4    4    0    0  0.58343611133E+02 -0.94566356306E+03  0.41067402416E+03  0.10326358103E+04  0.10566000000E+00 0. -1.
         -4    1    4    4    0  501 -0.17671485886E+03 -0.70098586058E+01 -0.30509297530E+03  0.35264571887E+03  0.00000000000E+00 0. -1.
<mgrwt>
<rscale>  2 0.13818369E+04</rscale>
<asrwt>0</asrwt>
<pdfrwt beam="2">  1        1 0.21557068E+00 0.13818369E+04</pdfrwt>
<pdfrwt beam="1">  1       -1 0.21122418E+00 0.13818369E+04</pdfrwt>
<totfact> 0.10768125E+00</totfact>
</mgrwt>
</event>
<event>
 8    1  0.1439553E-005  0.1167395E+04  0.7818608E-02  0.8631528E-01
         -2   -1    0    0    0  501 -0.00000000000E+00  0.00000000000E+00  0.72906464406E+03  0.72906464406E+03  0.00000000000E+00 0. -1.
          2   -1    0    0  502    0  0.00000000000E+00 -0.00000000000E+00 -0.19331947751E+04  0.19331947751E+04  0.00000000000E+00 0.  1.
    9000010    2    1    2  502    0 -0.10680459971E+03 -0.59482425022E+03 -0.36027670552E+03  0.12222745855E+04  0.99946623087E+03 0.  0.
   -9000010    2    1    2    0  501  0.10680459971E+03  0.59482425022E+03 -0.84385342554E+03  0.14399848337E+04  0.99812053693E+03 0.  0.
        -13    1    3    3    0    0 -0.14039880893E+03 -0.67705530716E+03 -0.63177198753E+03  0.93661708819E+03  0.10566000000E+00 0.  1.
          4    1    3    3  502    0  0.33594209216E+02  0.82231056934E+02  0.27149528201E+03  0.28565749731E+03  0.00000000000E+00 0.  1.
         13    1    4    4    0    0  0.45230609339E+03  0.32024234310E+03 -0.82967146671E+02  0.56037444536E+03  0.10566000000E+00 0. -1.
         -4    1    4    4    0  501 -0.34550149368E+03  0.27458190712E+03 -0.76088627887E+03  0.87961038831E+03  0.00000000000E+00 0. -1.
<mgrwt>
<rscale>  2 0.11673950E+04</rscale>
<asrwt>0</asrwt>
<pdfrwt beam="2">  1        2 0.29741458E+00 0.11673950E+04</pdfrwt>
<pdfrwt beam="1">  1       -2 0.11216379E+00 0.11673950E+04</pdfrwt>
<totfact> 0.68756649E+00</totfact>
</mgrwt>
</event>
<event>
 8    1  0.1439553E-005  0.2518929E+04  0.7818608E-02  0.7984789E-01
         -2   -1    0    0    0  501 -0.00000000000E+00  0.00000000000E+00  0.34057982200E+04  0.34057982200E+04  0.00000000000E+00 0. -1.
          2   -1    0    0  502    0  0.00000000000E+00 -0.00000000000E+00 -0.22639400305E+04  0.22639400305E+04  0.00000000000E+00 0.  1.
    9000010    2    1    2  502    0 -0.20258368616E+04  0.11198899178E+04 -0.62176302724E+03  0.25961265136E+04  0.99755460740E+03 0.  0.
   -9000010    2    1    2    0  501  0.20258368616E+04 -0.11198899178E+04  0.17636212167E+04  0.30736117369E+04  0.98922236920E+03 0.  0.
        -13    1    3    3    0    0 -0.46472430153E+03  0.77953621471E+03 -0.36333919108E+03  0.97757903282E+03  0.10566000000E+00 0.  1.
          4    1    3    3  502    0 -0.15611125601E+04  0.34035370307E+03 -0.25842383616E+03  0.16185474807E+04  0.00000000000E+00 0.  1.
         13    1    4    4    0    0  0.81320454122E+03  0.72299000918E+02  0.59604068407E+03  0.10108379097E+04  0.10566000000E+00 0. -1.
         -4    1    4    4    0  501  0.12126323204E+04 -0.11921889187E+04  0.11675805327E+04  0.20627738273E+04  0.00000000000E+00 0. -1.
<mgrwt>
<rscale>  2 0.25189286E+04</rscale>
<asrwt>0</asrwt>
<pdfrwt beam="2">  1        2 0.34829847E+00 0.25189286E+04</pdfrwt>
<pdfrwt beam="1">  1       -2 0.52396896E+00 0.25189286E+04</pdfrwt>
<totfact> 0.20591312E-02</totfact>
</mgrwt>
</event>
<event>
 8    1  0.1439553E-005  0.1419105E+04  0.7818608E-02  0.8457631E-01
          2   -1    0    0  502    0  0.00000000000E+00  0.00000000000E+00  0.28043818712E+04  0.28043818712E+04  0.00000000000E+00 0.  1.
         -2   -1    0    0    0  501 -0.00000000000E+00 -0.00000000000E+00 -0.83185790181E+03  0.83185790181E+03  0.00000000000E+00 0. -1.
    9000010    2    1    2  502    0 -0.26527936047E+03 -0.89862819304E+03  0.33964818212E+03  0.14983269795E+04  0.11188016274E+04 0.  0.
   -9000010    2    1    2    0  501  0.26527936047E+03  0.89862819304E+03  0.16328757873E+04  0.21379127936E+04  0.10131544836E+04 0.  0.
        -13    1    3    3    0    0  0.27906300221E+03 -0.29125578720E+03 -0.26535793872E+03  0.48282599307E+03  0.10566000000E+00 0.  1.
          4    1    3    3  502    0 -0.54434236268E+03 -0.60737240584E+03  0.60500612084E+03  0.10155009864E+04  0.00000000000E+00 0.  1.
         13    1    4    4    0    0  0.22837253992E+03 -0.12310362016E+03  0.67230731016E+02  0.26800839658E+03  0.10566000000E+00 0. -1.
         -4    1    4    4    0  501  0.36906820558E+02  0.10217318132E+04  0.15656450563E+04  0.18699043970E+04  0.00000000000E+00 0. -1.
<mgrwt>
<rscale>  2 0.14191050E+04</rscale>
<asrwt>0</asrwt>
<pdfrwt beam="1">  1        2 0.43144336E+00 0.14191050E+04</pdfrwt>
<pdfrwt beam="2">  1       -2 0.12797814E+00 0.14191050E+04</pdfrwt>
<totfact> 0.15351036E+00</totfact>
</mgrwt>
</event>
<event>
 8    1  0.1439553E-005  0.1324952E+04  0.7818608E-02  0.8517977E-01
         -1   -1    0    0    0  501 -0.00000000000E+00  0.00000000000E+00  0.38170965499E+03  0.38170965499E+03  0.00000000000E+00 0. -1.
          1   -1    0    0  502    0  0.00000000000E+00 -0.00000000000E+00 -0.46842082803E+04  0.46842082803E+04  0.00000000000E+00 0.  1.
    9000010    2    1    2  502    0  0.75428458507E+03  0.43412862258E+03 -0.25028568048E+04  0.28349541745E+04  0.10076011562E+04 0.  0.
   -9000010    2    1    2    0  501 -0.75428458507E+03 -0.43412862258E+03 -0.17996418205E+04  0.22309637607E+04  0.99049266707E+03 0.  0.
        -13    1    3    3    0    0 -0.73987806648E+02 -0.51141920851E+02  0.53255614036E+02  0.10452685392E+03  0.10566000000E+00 0.  1.
          4    1    3    3  502    0  0.82827239172E+03  0.48527054344E+03 -0.25561124189E+04  0.27304273206E+04  0.00000000000E+00 0.  1.
         13    1    4    4    0    0  0.16946521503E+03  0.14386255260E+03 -0.39445603303E+03  0.45278081486E+03  0.10566000000E+00 0. -1.
         -4    1    4    4    0  501 -0.92374980011E+03 -0.57799117519E+03 -0.14051857874E+04  0.17781829459E+04  0.00000000000E+00 0. -1.
<mgrwt>
<rscale>  2 0.13249519E+04</rscale>
<asrwt>0</asrwt>
<pdfrwt beam="2">  1        1 0.72064738E+00 0.13249519E+04</pdfrwt>
<pdfrwt beam="1">  1       -1 0.58724567E-01 0.13249519E+04</pdfrwt>
<totfact> 0.61601269E-02</totfact>
</mgrwt>
</event>
<event>
 8    1  0.1439553E-005  0.1276767E+04  0.7818608E-02  0.8550893E-01
          4   -1    0    0  502    0  0.00000000000E+00  0.00000000000E+00  0.63949306333E+03  0.63949306333E+03  0.00000000000E+00 0.  1.
         -4   -1    0    0    0  501 -0.00000000000E+00 -0.00000000000E+00 -0.25878803837E+04  0.25878803837E+04  0.00000000000E+00 0. -1.
    9000010    2    1    2  502    0  0.41010362018E+03 -0.64624228870E+03 -0.76490906117E+03  0.14736917019E+04  0.10004335487E+04 0.  0.
   -9000010    2    1    2    0  501 -0.41010362018E+03  0.64624228870E+03 -0.11834782592E+04  0.17536817452E+04  0.10435347614E+04 0.  0.
        -13    1    3    3    0    0 -0.19469342623E+03 -0.79921042296E+02  0.13531966652E+03  0.25020856606E+03  0.10566000000E+00 0.  1.
          4    1    3    3  502    0  0.60479704642E+03 -0.56632124641E+03 -0.90022872769E+03  0.12234831358E+04  0.00000000000E+00 0.  1.
         13    1    4    4    0    0 -0.91251175947E+02  0.62398602895E+03 -0.11835382439E+03  0.64163305740E+03  0.10566000000E+00 0. -1.
         -4    1    4    4    0  501 -0.31885244424E+03  0.22256259753E+02 -0.10651244348E+04  0.11120486878E+04  0.00000000000E+00 0. -1.
<mgrwt>
<rscale>  2 0.12767674E+04</rscale>
<asrwt>0</asrwt>
<pdfrwt beam="1">  1        4 0.98383550E-01 0.12767674E+04</pdfrwt>
<pdfrwt beam="2">  1       -4 0.39813544E+00 0.12767674E+04</pdfrwt>
<totfact> 0.14503652E-01</totfact>
</mgrwt>
</event>
<event>
 8    1  0.1439553E-005  0.1546847E+04  0.7818608E-02  0.8383038E-01
          1   -1    0    0  502    0  0.00000000000E+00  0.00000000000E+00  0.14051610646E+04  0.14051610646E+04  0.00000000000E+00 0.  1.
         -1   -1    0    0    0  501 -0.00000000000E+00 -0.00000000000E+00 -0.21210168396E+04  0.21210168396E+04  0.00000000000E+00 0. -1.
    9000010    2    1    2  502    0 -0.10397672073E+04  0.52929384249E+03  0.42744784048E+03  0.15910693350E+04  0.99374149317E+03 0.  0.
   -9000010    2    1    2    0  501  0.10397672073E+04 -0.52929384249E+03 -0.11433036154E+04  0.19351085692E+04  0.10374170812E+04 0.  0.
        -13    1    3    3    0    0 -0.11200492598E+04  0.70637953247E+03  0.44220599524E+03  0.13960761231E+04  0.10566000000E+00 0.  1.
          4    1    3    3  502    0  0.80282052427E+02 -0.17708568998E+03 -0.14758154763E+02  0.19499321185E+03  0.00000000000E+00 0.  1.
         13    1    4    4    0    0  0.12144405902E+04 -0.26514330030E+03 -0.94489833396E+03  0.15614095522E+04  0.10566000000E+00 0. -1.
         -4    1    4    4    0  501 -0.17467338289E+03 -0.26415054219E+03 -0.19840528145E+03  0.37369901704E+03  0.00000000000E+00 0. -1.
<mgrwt>
<rscale>  2 0.15468468E+04</rscale>
<asrwt>0</asrwt>
<pdfrwt beam="1">  1        1 0.21617863E+00 0.15468468E+04</pdfrwt>
<pdfrwt beam="2">  1       -1 0.32631028E+00 0.15468468E+04</pdfrwt>
<totfact> 0.10119740E-01</totfact>
</mgrwt>
</event>
<event>
 8    1  0.1439553E-005  0.1143703E+04  0.7818608E-02  0.8650205E-01
         -1   -1    0    0    0  501 -0.00000000000E+00  0.00000000000E+00  0.13462435105E+04  0.13462435105E+04  0.00000000000E+00 0. -1.
          1   -1    0    0  502    0  0.00000000000E+00 -0.00000000000E+00 -0.97169188562E+03  0.97169188562E+03  0.00000000000E+00 0.  1.
    9000010    2    1    2  502    0  0.42521366974E+03  0.34861429834E+03  0.18355453020E+03  0.11499900152E+04  0.99319996760E+03 0.  0.
   -9000010    2    1    2    0  501 -0.42521366974E+03 -0.34861429834E+03  0.19099709467E+03  0.11679453809E+04  0.10125600864E+04 0.  0.
        -13    1    3    3    0    0 -0.10094084076E+03  0.20111630750E+02 -0.32938592626E+03  0.34509220594E+03  0.10566000000E+00 0.  1.
          4    1    3    3  502    0  0.52615451050E+03  0.32850266759E+03  0.51294045645E+03  0.80489780929E+03  0.00000000000E+00 0.  1.
         13    1    4    4    0    0  0.10699272563E+03 -0.52655218825E+03 -0.82621512319E+02  0.54362760761E+03  0.10566000000E+00 0. -1.
         -4    1    4    4    0  501 -0.53220639537E+03  0.17793788991E+03  0.27361860699E+03  0.62431777328E+03  0.00000000000E+00 0. -1.
<mgrwt>
<rscale>  2 0.11437030E+04</rscale>
<asrwt>0</asrwt>
<pdfrwt beam="2">  1        1 0.14949106E+00 0.11437030E+04</pdfrwt>
<pdfrwt beam="1">  1       -1 0.20711439E+00 0.11437030E+04</pdfrwt>
<totfact> 0.26075622E+00</totfact>
</mgrwt>
</event>
<event>
 8    1  0.1439553E-005  0.1322517E+04  0.7818608E-02  0.8519606E-01
         -2   -1    0    0    0  501 -0.00000000000E+00  0.00000000000E+00  0.90136649893E+03  0.90136649893E+03  0.00000000000E+00 0.  1.
          2   -1    0    0  502    0  0.00000000000E+00 -0.00000000000E+00 -0.19649265048E+04  0.19649265048E+04  0.00000000000E+00 0. -1.
    9000010    2    1    2  502    0 -0.32665749153E+03 -0.83281568763E+03 -0.68043463951E+03  0.14667009750E+04  0.94230216235E+03 0.  0.
   -9000010    2    1    2    0  501  0.32665749153E+03  0.83281568763E+03 -0.38312536633E+03  0.13995920287E+04  0.10058755957E+04 0.  0.
        -13    1    3    3    0    0 -0.32526594721E+03  0.10863975947E+03 -0.28368749525E+03  0.44506082716E+03  0.10566000000E+00 0.  1.
          4    1    3    3  502    0 -0.13915443208E+01 -0.94145544709E+03 -0.39674714426E+03  0.10216401479E+04  0.00000000000E+00 0.  1.
         13    1    4    4    0    0  0.12448725594E+03  0.27938011274E+03 -0.67573170028E+03  0.74173018424E+03  0.10566000000E+00 0. -1.
         -4    1    4    4    0  501  0.20217023559E+03  0.55343557489E+03  0.29260633394E+03  0.65786184444E+03  0.00000000000E+00 0. -1.
<mgrwt>
<rscale>  2 0.13225168E+04</rscale>
<asrwt>0</asrwt>
<pdfrwt beam="2">  1        2 0.30229638E+00 0.13225168E+04</pdfrwt>
<pdfrwt beam="1">  1       -2 0.13867177E+00 0.13225168E+04</pdfrwt>
<totfact> 0.36575766E+00</totfact>
</mgrwt>
</event>
<event>
 8    1  0.1439553E-005  0.1241119E+04  0.7818608E-02  0.8576226E-01
         -2   -1    0    0    0  501 -0.00000000000E+00  0.00000000000E+00  0.26206023979E+04  0.26206023979E+04  0.00000000000E+00 0.  1.
          2   -1    0    0  502    0  0.00000000000E+00 -0.00000000000E+00 -0.63684687089E+03  0.63684687089E+03  0.00000000000E+00 0. -1.
    9000010    2    1    2  502    0 -0.69490757799E+03  0.21882554859E+03  0.14489393335E+04  0.19123700967E+04  0.10133869113E+04 0.  0.
   -9000010    2    1    2    0  501  0.69490757799E+03 -0.21882554859E+03  0.53481619359E+03  0.13450791721E+04  0.99620703458E+03 0.  0.
        -13    1    3    3    0    0 -0.10053252303E+03  0.20735094416E+03  0.12711501630E+04  0.12918683951E+04  0.10566000000E+00 0.  1.
          4    1    3    3  502    0 -0.59437505496E+03  0.11474604434E+02  0.17778917044E+03  0.62050170155E+03  0.00000000000E+00 0.  1.
         13    1    4    4    0    0  0.76852877211E+03 -0.50293602399E+03  0.29082412618E+03  0.96341050509E+03  0.10566000000E+00 0. -1.
         -4    1    4    4    0  501 -0.73621194120E+02  0.28411047539E+03  0.24399206741E+03  0.38166866705E+03  0.00000000000E+00 0. -1.
<mgrwt>
<rscale>  2 0.12411185E+04</rscale>
<asrwt>0</asrwt>
<pdfrwt beam="2">  1        2 0.97976443E-01 0.12411185E+04</pdfrwt>
<pdfrwt beam="1">  1       -2 0.40316959E+00 0.12411185E+04</pdfrwt>
<totfact> 0.23997538E-01</totfact>
</mgrwt>
</event>
<event>
 8    1  0.1439553E-005  0.1217885E+04  0.7818608E-02  0.8593215E-01
          2   -1    0    0  502    0  0.00000000000E+00  0.00000000000E+00  0.25233326863E+04  0.25233326863E+04  0.00000000000E+00 0.  1.
         -2   -1    0    0    0  501 -0.00000000000E+00 -0.00000000000E+00 -0.59067563949E+03  0.59067563949E+03  0.00000000000E+00 0. -1.
    9000010    2    1    2  502    0  0.64882981912E+03  0.25339059760E+03  0.10769279694E+04  0.16278552750E+04  0.10024729502E+04 0.  0.
   -9000010    2    1    2    0  501 -0.64882981912E+03 -0.25339059760E+03  0.85572907737E+03  0.14861530508E+04  0.99558611245E+03 0.  0.
        -13    1    3    3    0    0  0.81394612509E+03  0.21690831084E+03  0.40440428925E+03  0.93439838944E+03  0.10566000000E+00 0.  1.
          4    1    3    3  502    0 -0.16511630597E+03  0.36482286761E+02  0.67252368016E+03  0.69345688555E+03  0.00000000000E+00 0.  1.
         13    1    4    4    0    0 -0.49084635402E+03 -0.62119093030E+03  0.69947033391E+03  0.10564407576E+04  0.10566000000E+00 0. -1.
         -4    1    4    4    0  501 -0.15798346510E+03  0.36780033271E+03  0.15625874346E+03  0.42971229316E+03  0.00000000000E+00 0. -1.
<mgrwt>
<rscale>  2 0.12178846E+04</rscale>
<asrwt>0</asrwt>
<pdfrwt beam="1">  1        2 0.38820502E+00 0.12178846E+04</pdfrwt>
<pdfrwt beam="2">  1       -2 0.90873177E-01 0.12178846E+04</pdfrwt>
<totfact> 0.53929946E+00</totfact>
</mgrwt>
</event>
<event>
 8    1  0.1439553E-005  0.1394173E+04  0.7818608E-02  0.8473132E-01
         -2   -1    0    0    0  501 -0.00000000000E+00  0.00000000000E+00  0.11471964593E+04  0.11471964593E+04  0.00000000000E+00 0. -1.
          2   -1    0    0  502    0  0.00000000000E+00 -0.00000000000E+00 -0.17756757770E+04  0.17756757770E+04  0.00000000000E+00 0.  1.
    9000010    2    1    2  502    0 -0.97602623081E+03  0.12987436226E+03 -0.62383270255E+03  0.15151282354E+04  0.96796269329E+03 0.  0.
   -9000010    2    1    2    0  501  0.97602623081E+03 -0.12987436226E+03 -0.46466151402E+01  0.14077440009E+04  0.10060949398E+04 0.  0.
        -13    1    3    3    0    0 -0.87148046973E+03  0.48765429598E+03 -0.53083667485E+03  0.11309608782E+04  0.10566000000E+00 0.  1.
          4    1    3    3  502    0 -0.10454576108E+03 -0.35777993372E+03 -0.92996027704E+02  0.38416735715E+03  0.00000000000E+00 0.  1.
         13    1    4    4    0    0 -0.42257930304E+02 -0.19547288949E+03 -0.28626212822E+03  0.34920108879E+03  0.10566000000E+00 0. -1.
         -4    1    4    4    0  501  0.10182841611E+04  0.65598527225E+02  0.28161551308E+03  0.10585429121E+04  0.00000000000E+00 0. -1.
<mgrwt>
<rscale>  2 0.13941734E+04</rscale>
<asrwt>0</asrwt>
<pdfrwt beam="2">  1        2 0.27318089E+00 0.13941734E+04</pdfrwt>
<pdfrwt beam="1">  1       -2 0.17649176E+00 0.13941734E+04</pdfrwt>
<totfact> 0.21591907E+00</totfact>
</mgrwt>
</event>
<event>
 8    1  0.1439553E-005  0.1106782E+04  0.7818608E-02  0.8680271E-01
         -1   -1    0    0    0  501 -0.00000000000E+00  0.00000000000E+00  0.83100826684E+03  0.83100826684E+03  0.00000000000E+00 0.  1.
          1   -1    0    0  502    0  0.00000000000E+00 -0.00000000000E+00 -0.14828549116E+04  0.14828549116E+04  0.00000000000E+00 0. -1.
    9000010    2    1    2  502    0 -0.44124404422E+03  0.98581581186E+02 -0.41662087510E+03  0.11887687271E+04  0.10174396779E+04 0.  0.
   -9000010    2    1    2    0  501  0.44124404422E+03 -0.98581581186E+02 -0.23522576969E+03  0.11250944514E+04  0.10030412390E+04 0.  0.
        -13    1    3    3    0    0 -0.77442078289E+03  0.56605829051E+02 -0.26669911591E+03  0.82101169203E+03  0.10566000000E+00 0.  1.
          4    1    3    3  502    0  0.33317673867E+03  0.41975752135E+02 -0.14992175919E+03  0.36775703506E+03  0.00000000000E+00 0.  1.
         13    1    4    4    0    0 -0.23031930575E+03 -0.19826113076E+03 -0.31951855638E+03  0.44096097061E+03  0.10566000000E+00 0. -1.
         -4    1    4    4    0  501  0.67156334997E+03  0.99679549570E+02  0.84292786694E+02  0.68413348077E+03  0.00000000000E+00 0. -1.
<mgrwt>
<rscale>  2 0.11067818E+04</rscale>
<asrwt>0</asrwt>
<pdfrwt beam="2">  1        1 0.22813152E+00 0.11067818E+04</pdfrwt>
<pdfrwt beam="1">  1       -1 0.12784743E+00 0.11067818E+04</pdfrwt>
<totfact> 0.52238926E+00</totfact>
</mgrwt>
</event>
<event>
 8    1  0.1439553E-005  0.1176973E+04  0.7818608E-02  0.8624107E-01
          1   -1    0    0  502    0  0.00000000000E+00  0.00000000000E+00  0.41085890258E+04  0.41085890258E+04  0.00000000000E+00 0. -1.
         -1   -1    0    0    0  501 -0.00000000000E+00 -0.00000000000E+00 -0.33736587912E+03  0.33736587912E+03  0.00000000000E+00 0.  1.
    9000010    2    1    2  502    0  0.45131968382E+03 -0.32120061250E+03  0.19530881473E+04  0.22933765767E+04  0.10668474685E+04 0.  0.
   -9000010    2    1    2    0  501 -0.45131968382E+03  0.32120061250E+03  0.18181349994E+04  0.21525783282E+04  0.10105044743E+04 0.  0.
        -13    1    3    3    0    0  0.60239468729E+03 -0.59223155704E+02  0.43483447843E+03  0.74529710602E+03  0.10566000000E+00 0.  1.
          4    1    3    3  502    0 -0.15107500347E+03 -0.26197745680E+03  0.15182536688E+04  0.15480794707E+04  0.00000000000E+00 0.  1.
         13    1    4    4    0    0 -0.14189200404E+03 -0.36193268642E+03  0.78454997812E+03  0.87558397064E+03  0.10566000000E+00 0. -1.
         -4    1    4    4    0  501 -0.30942767978E+03  0.68313329893E+03  0.10335850213E+04  0.12769943576E+04  0.00000000000E+00 0. -1.
<mgrwt>
<rscale>  2 0.11769728E+04</rscale>
<asrwt>0</asrwt>
<pdfrwt beam="1">  1        1 0.63209059E+00 0.11769728E+04</pdfrwt>
<pdfrwt beam="2">  1       -1 0.51902446E-01 0.11769728E+04</pdfrwt>
<totfact> 0.18734354E-01</totfact>
</mgrwt>
</event>
<event>
 8    1  0.1439553E-005  0.1409752E+04  0.7818608E-02  0.8463408E-01
          2   -1    0    0  502    0  0.00000000000E+00  0.00000000000E+00  0.18019072689E+04  0.18019072689E+04  0.00000000000E+00 0. -1.
         -2   -1    0    0    0  501 -0.00000000000E+00 -0.00000000000E+00 -0.11705061827E+04  0.11705061827E+04  0.00000000000E+00 0.  1.
    9000010    2    1    2  502    0 -0.35455328608E+03 -0.94548310719E+03  0.67399668136E+03  0.15681073461E+04  0.99249321603E+03 0.  0.
   -9000010    2    1    2    0  501  0.35455328608E+03  0.94548310719E+03 -0.42595595180E+02  0.14043061054E+04  0.97499482785E+03 0.  0.
        -13    1    3    3    0    0 -0.45706310450E+03 -0.65223086650E+03  0.88650551063E+03  0.11917230451E+04  0.10566000000E+00 0.  1.
          4    1    3    3  502    0  0.10250981841E+03 -0.29325224069E+03 -0.21250882927E+03  0.37638430102E+03  0.00000000000E+00 0.  1.
         13    1    4    4    0    0  0.34227551638E+03  0.65298391484E+03  0.42622099769E+03  0.85158961489E+03  0.10566000000E+00 0. -1.
         -4    1    4    4    0  501  0.12277769703E+02  0.29249919235E+03 -0.46881659287E+03  0.55271649053E+03  0.00000000000E+00 0. -1.
<mgrwt>
<rscale>  2 0.14097520E+04</rscale>
<asrwt>0</asrwt>
<pdfrwt beam="1">  1        2 0.27721650E+00 0.14097520E+04</pdfrwt>
<pdfrwt beam="2">  1       -2 0.18007787E+00 0.14097520E+04</pdfrwt>
<totfact> 0.19474475E+00</totfact>
</mgrwt>
</event>
<event>
 8    1  0.1439553E-005  0.1225186E+04  0.7818608E-02  0.8587835E-01
          2   -1    0    0  502    0  0.00000000000E+00  0.00000000000E+00  0.27693286674E+04  0.27693286674E+04  0.00000000000E+00 0.  1.
         -2   -1    0    0    0  501 -0.00000000000E+00 -0.00000000000E+00 -0.70473384947E+03  0.70473384947E+03  0.00000000000E+00 0. -1.
    9000010    2    1    2  502    0 -0.57221693486E+03  0.38488324837E+03  0.18812759738E+04  0.22578693005E+04  0.10407723831E+04 0.  0.
   -9000010    2    1    2    0  501  0.57221693486E+03 -0.38488324837E+03  0.18331884413E+03  0.12161932163E+04  0.98486182046E+03 0.  0.
        -13    1    3    3    0    0 -0.27561819450E+03  0.10859290710E+02  0.17376100178E+04  0.17593669027E+04  0.10566000000E+00 0.  1.
          4    1    3    3  502    0 -0.29659874036E+03  0.37402395766E+03  0.14366595597E+03  0.49850239778E+03  0.00000000000E+00 0.  1.
         13    1    4    4    0    0  0.77882479314E+03 -0.10826944330E+03  0.31447017375E+03  0.84686588791E+03  0.10566000000E+00 0. -1.
         -4    1    4    4    0  501 -0.20660785828E+03 -0.27661380507E+03 -0.13115132962E+03  0.36932732842E+03  0.00000000000E+00 0. -1.
<mgrwt>
<rscale>  2 0.12251855E+04</rscale>
<asrwt>0</asrwt>
<pdfrwt beam="1">  1        2 0.42605056E+00 0.12251855E+04</pdfrwt>
<pdfrwt beam="2">  1       -2 0.10842059E+00 0.12251855E+04</pdfrwt>
<totfact> 0.25442623E+00</totfact>
</mgrwt>
</event>
<event>
 8    1  0.1439553E-005  0.1697786E+04  0.7818608E-02  0.8303958E-01
         -2   -1    0    0    0  501 -0.00000000000E+00  0.00000000000E+00  0.12555754319E+04  0.12555754319E+04  0.00000000000E+00 0.  1.
          2   -1    0    0  502    0  0.00000000000E+00 -0.00000000000E+00 -0.24152645983E+04  0.24152645983E+04  0.00000000000E+00 0. -1.
    9000010    2    1    2  502    0  0.88391089015E+03  0.10417375065E+04 -0.16848655408E+03  0.16963452032E+04  0.99130410843E+03 0.  0.
   -9000010    2    1    2    0  501 -0.88391089015E+03 -0.10417375065E+04 -0.99120261235E+03  0.19744948269E+04  0.10245153530E+04 0.  0.
        -13    1    3    3    0    0  0.18413068076E+03  0.93187785218E+03  0.60720483556E+02  0.95183371828E+03  0.10566000000E+00 0.  1.
          4    1    3    3  502    0  0.69978020939E+03  0.10985965434E+03 -0.22920703764E+03  0.74451148494E+03  0.00000000000E+00 0.  1.
         13    1    4    4    0    0 -0.59154804936E+03 -0.27534623035E+02 -0.11622868380E+03  0.60348684184E+03  0.10566000000E+00 0. -1.
         -4    1    4    4    0  501 -0.29236284079E+03 -0.10142028835E+04 -0.87497392856E+03  0.13710079851E+04  0.00000000000E+00 0. -1.
<mgrwt>
<rscale>  2 0.16977865E+04</rscale>
<asrwt>0</asrwt>
<pdfrwt beam="2">  1        2 0.37157917E+00 0.16977865E+04</pdfrwt>
<pdfrwt beam="1">  1       -2 0.19316545E+00 0.16977865E+04</pdfrwt>
<totfact> 0.67642825E-01</totfact>
</mgrwt>
</event>
<event>
 8    1  0.1439553E-005  0.1140745E+04  0.7818608E-02  0.8652570E-01
          2   -1    0    0  502    0  0.00000000000E+00  0.00000000000E+00  0.25621148110E+04  0.25621148110E+04  0.00000000000E+00 0.  1.
         -2   -1    0    0    0  501 -0.00000000000E+00 -0.00000000000E+00 -0.50952212571E+03  0.50952212571E+03  0.00000000000E+00 0. -1.
    9000010    2    1    2  502    0 -0.50852205982E+03 -0.45355131614E+03  0.10758697821E+04  0.16166877598E+04  0.99593174618E+03 0.  0.
   -9000010    2    1    2    0  501  0.50852205982E+03  0.45355131614E+03  0.97672290317E+03  0.14549491769E+04  0.83581457033E+03 0.  0.
        -13    1    3    3    0    0  0.54340747256E+02 -0.43297108403E+03  0.40768466309E+02  0.43826813189E+03  0.10566000000E+00 0.  1.
          4    1    3    3  502    0 -0.56286280708E+03 -0.20580232103E+02  0.10351013158E+04  0.11784196280E+04  0.00000000000E+00 0.  1.
         13    1    4    4    0    0  0.39083838577E+01  0.49518324215E+03  0.75336707112E+03  0.90154515904E+03  0.10566000000E+00 0. -1.
         -4    1    4    4    0  501  0.50461367596E+03 -0.41631926017E+02  0.22335583205E+03  0.55340401782E+03  0.00000000000E+00 0. -1.
<mgrwt>
<rscale>  2 0.11407452E+04</rscale>
<asrwt>0</asrwt>
<pdfrwt beam="1">  1        2 0.39417150E+00 0.11407452E+04</pdfrwt>
<pdfrwt beam="2">  1       -2 0.78388021E-01 0.11407452E+04</pdfrwt>
<totfact> 0.72059917E+00</totfact>
</mgrwt>
</event>
<event>
 8    1  0.1439553E-005  0.1372831E+04  0.7818608E-02  0.8486668E-01
          1   -1    0    0  502    0  0.00000000000E+00  0.00000000000E+00  0.19377007948E+04  0.19377007948E+04  0.00000000000E+00 0.  1.
         -1   -1    0    0    0  501 -0.00000000000E+00 -0.00000000000E+00 -0.10033998143E+04  0.10033998143E+04  0.00000000000E+00 0. -1.
    9000010    2    1    2  502    0 -0.66768271900E+03  0.65351428786E+03  0.73285770148E+03  0.15844480254E+04  0.10490538580E+04 0.  0.
   -9000010    2    1    2    0  501  0.66768271900E+03 -0.65351428786E+03  0.20144327900E+03  0.13566525836E+04  0.96283212467E+03 0.  0.
        -13    1    3    3    0    0 -0.29278036324E+03 -0.19489133507E+03  0.52820935329E+03  0.63459286606E+03  0.10566000000E+00 0.  1.
          4    1    3    3  502    0 -0.37490235576E+03  0.84840562293E+03  0.20464834819E+03  0.94985515938E+03  0.00000000000E+00 0.  1.
         13    1    4    4    0    0  0.51833381258E+03 -0.86592034166E+03  0.33669136210E+03  0.10638839522E+04  0.10566000000E+00 0. -1.
         -4    1    4    4    0  501  0.14934890641E+03  0.21240605380E+03 -0.13524808309E+03  0.29276863137E+03  0.00000000000E+00 0. -1.
<mgrwt>
<rscale>  2 0.13728315E+04</rscale>
<asrwt>0</asrwt>
<pdfrwt beam="1">  1        1 0.29810781E+00 0.13728315E+04</pdfrwt>
<pdfrwt beam="2">  1       -1 0.15436920E+00 0.13728315E+04</pdfrwt>
<totfact> 0.13568429E+00</totfact>
</mgrwt>
</event>
<event>
 8    1  0.1439553E-005  0.1023667E+04  0.7818608E-02  0.8752667E-01
          2   -1    0    0  502    0  0.00000000000E+00  0.00000000000E+00  0.12955589969E+04  0.12955589969E+04  0.00000000000E+00 0. -1.
         -2   -1    0    0    0  501 -0.00000000000E+00 -0.00000000000E+00 -0.81366924628E+03  0.81366924628E+03  0.00000000000E+00 0.  1.
    9000010    2    1    2  502    0  0.23242178673E+03 -0.92351754340E+02  0.17709592896E+03  0.97874745872E+03  0.92953476880E+03 0.  0.
   -9000010    2    1    2    0  501 -0.23242178673E+03  0.92351754340E+02  0.30479382169E+03  0.11304807845E+04  0.10594993143E+04 0.  0.
        -13    1    3    3    0    0 -0.25693818175E+03 -0.31214752005E+03 -0.26014784154E+02  0.40512971216E+03  0.10566000000E+00 0.  1.
          4    1    3    3  502    0  0.48935996848E+03  0.21979576571E+03  0.20311071312E+03  0.57361774655E+03  0.00000000000E+00 0.  1.
         13    1    4    4    0    0  0.22232343570E+03 -0.21605816253E+03  0.46434302203E+03  0.55832185425E+03  0.10566000000E+00 0. -1.
         -4    1    4    4    0  501 -0.45474522243E+03  0.30840991687E+03 -0.15954920034E+03  0.57215893026E+03  0.00000000000E+00 0. -1.
<mgrwt>
<rscale>  2 0.10236671E+04</rscale>
<asrwt>0</asrwt>
<pdfrwt beam="1">  1        2 0.19931677E+00 0.10236671E+04</pdfrwt>
<pdfrwt beam="2">  1       -2 0.12517988E+00 0.10236671E+04</pdfrwt>
<totfact> 0.11678568E+01</totfact>
</mgrwt>
</event>
<event>
 8    1  0.1439553E-005  0.1222913E+04  0.7818608E-02  0.8589505E-01
         -2   -1    0    0    0  501 -0.00000000000E+00  0.00000000000E+00  0.90375107821E+03  0.90375107821E+03  0.00000000000E+00 0.  1.
          2   -1    0    0  502    0  0.00000000000E+00 -0.00000000000E+00 -0.21150644746E+04  0.21150644746E+04  0.00000000000E+00 0. -1.
    9000010    2    1    2  502    0 -0.20886257701E+02  0.71939763299E+03 -0.13057552998E+04  0.17821117542E+04  0.97619476100E+03 0.  0.
   -9000010    2    1    2    0  501  0.20886257701E+02 -0.71939763299E+03  0.94441903383E+02  0.12367037986E+04  0.10012731008E+04 0.  0.
        -13    1    3    3    0    0  0.67564263556E+02  0.66770635725E+03 -0.14542902162E+04  0.16016731106E+04  0.10566000000E+00 0.  1.
          4    1    3    3  502    0 -0.88450521257E+02  0.51691275734E+02  0.14853491641E+03  0.18043864356E+03  0.00000000000E+00 0.  1.
         13    1    4    4    0    0  0.43799618353E+03 -0.44172923491E+03  0.30544595345E+03  0.69300982345E+03  0.10566000000E+00 0. -1.
         -4    1    4    4    0  501 -0.41710992583E+03 -0.27766839807E+03 -0.21100405006E+03  0.54369397519E+03  0.00000000000E+00 0. -1.
<mgrwt>
<rscale>  2 0.12229128E+04</rscale>
<asrwt>0</asrwt>
<pdfrwt beam="2">  1        2 0.32539453E+00 0.12229128E+04</pdfrwt>
<pdfrwt beam="1">  1       -2 0.13903863E+00 0.12229128E+04</pdfrwt>
<totfact> 0.30375917E+00</totfact>
</mgrwt>
</event>
<event>
 8    1  0.1439553E-005  0.1243602E+04  0.7818608E-02  0.8574433E-01
          4   -1    0    0  502    0  0.00000000000E+00  0.00000000000E+00  0.12945832489E+04  0.12945832489E+04  0.00000000000E+00 0.  1.
         -4   -1    0    0    0  501 -0.00000000000E+00 -0.00000000000E+00 -0.13339947125E+04  0.13339947125E+04  0.00000000000E+00 0. -1.
    9000010    2    1    2  502    0  0.72071221183E+03 -0.22530318597E+03  0.40503807190E+03  0.12942926261E+04  0.97002574415E+03 0.  0.
   -9000010    2    1    2    0  501 -0.72071221183E+03  0.22530318597E+03 -0.44444953550E+03  0.13342853352E+04  0.10062774709E+04 0.  0.
        -13    1    3    3    0    0  0.30814952999E+03  0.38454771776E+03  0.17413993490E+03  0.52264501161E+03  0.10566000000E+00 0.  1.
          4    1    3    3  502    0  0.41256268184E+03 -0.60985090373E+03  0.23089813700E+03  0.77164761446E+03  0.00000000000E+00 0.  1.
         13    1    4    4    0    0 -0.43571822731E+03 -0.11529757276E+03 -0.69200542766E+03  0.82584225308E+03  0.10566000000E+00 0. -1.
         -4    1    4    4    0  501 -0.28499398452E+03  0.34060075873E+03  0.24755589216E+03  0.50844308216E+03  0.00000000000E+00 0. -1.
<mgrwt>
<rscale>  2 0.12436016E+04</rscale>
<asrwt>0</asrwt>
<pdfrwt beam="1">  1        4 0.19916665E+00 0.12436016E+04</pdfrwt>
<pdfrwt beam="2">  1       -4 0.20522995E+00 0.12436016E+04</pdfrwt>
<totfact> 0.17589594E-01</totfact>
</mgrwt>
</event>
<event>
 8    1  0.1439553E-005  0.1357739E+04  0.7818608E-02  0.8496394E-01
         -2   -1    0    0    0  501 -0.00000000000E+00  0.00000000000E+00  0.12130432945E+04  0.12130432945E+04  0.00000000000E+00 0.  1.
          2   -1    0    0  502    0  0.00000000000E+00 -0.00000000000E+00 -0.15269833121E+04  0.15269833121E+04  0.00000000000E+00 0. -1.
    9000010    2    1    2  502    0  0.63127387616E+03 -0.78817426465E+03 -0.89222911115E+02  0.14197877121E+04  0.99403774639E+03 0.  0.
   -9000010    2    1    2    0  501 -0.63127387616E+03  0.78817426465E+03 -0.22471710649E+03  0.13202388946E+04  0.82024848842E+03 0.  0.
        -13    1    3    3    0    0  0.31011671951E+03 -0.88726596607E+02 -0.46291276387E+03  0.56421009100E+03  0.10566000000E+00 0.  1.
          4    1    3    3  502    0  0.32115715665E+03 -0.69944766804E+03  0.37368985276E+03  0.85557762105E+03  0.00000000000E+00 0.  1.
         13    1    4    4    0    0  0.37033624543E+02  0.35860925349E+03  0.20735021814E+03  0.41589206551E+03  0.10566000000E+00 0. -1.
         -4    1    4    4    0  501 -0.66830750070E+03  0.42956501116E+03 -0.43206732463E+03  0.90434682911E+03  0.00000000000E+00 0. -1.
<mgrwt>
<rscale>  2 0.13577392E+04</rscale>
<asrwt>0</asrwt>
<pdfrwt beam="2">  1        2 0.23492051E+00 0.13577392E+04</pdfrwt>
<pdfrwt beam="1">  1       -2 0.18662205E+00 0.13577392E+04</pdfrwt>
<totfact> 0.24415100E+00</totfact>
</mgrwt>
</event>
<event>
 8    1  0.1439553E-005  0.1361482E+04  0.7818608E-02  0.8493970E-01
          2   -1    0    0  502    0  0.00000000000E+00  0.00000000000E+00  0.22889814212E+04  0.22889814212E+04  0.00000000000E+00 0.  1.
         -2   -1    0    0    0  501 -0.00000000000E+00 -0.00000000000E+00 -0.10619103047E+04  0.10619103047E+04  0.00000000000E+00 0. -1.
    9000010    2    1    2  502    0 -0.36561284583E+03  0.84486207603E+03  0.14263274733E+04  0.19648831321E+04  0.98938919603E+03 0.  0.
   -9000010    2    1    2    0  501  0.36561284583E+03 -0.84486207603E+03 -0.19925635669E+03  0.13860085938E+04  0.10167851523E+04 0.  0.
        -13    1    3    3    0    0 -0.11528584958E+03 -0.95188301976E+02  0.78635731375E+03  0.80044329968E+03  0.10566000000E+00 0.  1.
          4    1    3    3  502    0 -0.25032699624E+03  0.94005037800E+03  0.63997015952E+03  0.11644398324E+04  0.00000000000E+00 0.  1.
         13    1    4    4    0    0  0.60934267298E+03 -0.39215758140E+03  0.18056058133E+03  0.74678524119E+03  0.10566000000E+00 0. -1.
         -4    1    4    4    0  501 -0.24372982715E+03 -0.45270449463E+03 -0.37981693803E+03  0.63922335260E+03  0.00000000000E+00 0. -1.
<mgrwt>
<rscale>  2 0.13614817E+04</rscale>
<asrwt>0</asrwt>
<pdfrwt beam="1">  1        2 0.35215099E+00 0.13614817E+04</pdfrwt>
<pdfrwt beam="2">  1       -2 0.16337082E+00 0.13614817E+04</pdfrwt>
<totfact> 0.14631829E+00</totfact>
</mgrwt>
</event>
<event>
 8    1  0.1439553E-005  0.1096948E+04  0.7818608E-02  0.8688486E-01
          2   -1    0    0  502    0  0.00000000000E+00  0.00000000000E+00  0.18249990601E+04  0.18249990601E+04  0.00000000000E+00 0.  1.
         -2   -1    0    0    0  501 -0.00000000000E+00 -0.00000000000E+00 -0.15450478863E+04  0.15450478863E+04  0.00000000000E+00 0. -1.
    9000010    2    1    2  502    0  0.13550695519E+03  0.42877988274E+03  0.14152063543E+04  0.17848804249E+04  0.99034074091E+03 0.  0.
   -9000010    2    1    2    0  501 -0.13550695519E+03 -0.42877988274E+03 -0.11352551805E+04  0.15851665215E+04  0.10108087124E+04 0.  0.
        -13    1    3    3    0    0 -0.27485793127E+03 -0.20083209132E+02  0.10270771518E+04  0.10634085314E+04  0.10566000000E+00 0.  1.
          4    1    3    3  502    0  0.41036488646E+03  0.44886309188E+03  0.38812920250E+03  0.72147189351E+03  0.00000000000E+00 0.  1.
         13    1    4    4    0    0 -0.22999496759E+03  0.15602693223E+03 -0.90983340150E+03  0.95133533433E+03  0.10566000000E+00 0. -1.
         -4    1    4    4    0  501  0.94488012400E+02 -0.58480681497E+03 -0.22542177904E+03  0.63383118714E+03  0.00000000000E+00 0. -1.
<mgrwt>
<rscale>  2 0.10969478E+04</rscale>
<asrwt>0</asrwt>
<pdfrwt beam="1">  1        2 0.28076908E+00 0.10969478E+04</pdfrwt>
<pdfrwt beam="2">  1       -2 0.23769968E+00 0.10969478E+04</pdfrwt>
<totfact> 0.66348913E-01</totfact>
</mgrwt>
</event>
<event>
 8    1  0.1439553E-005  0.1102605E+04  0.7818608E-02  0.8683749E-01
         -1   -1    0    0    0  501 -0.00000000000E+00  0.00000000000E+00  0.73172998924E+03  0.73172998924E+03  0.00000000000E+00 0. -1.
          1   -1    0    0  502    0  0.00000000000E+00 -0.00000000000E+00 -0.18420174318E+04  0.18420174318E+04  0.00000000000E+00 0.  1.
    9000010    2    1    2  502    0  0.35984822922E+03 -0.29460219124E+03 -0.15594842086E+03  0.11214604639E+04  0.10085001056E+04 0.  0.
   -9000010    2    1    2    0  501 -0.35984822922E+03  0.29460219124E+03 -0.95433902168E+03  0.14522869571E+04  0.99100617472E+03 0.  0.
        -13    1    3    3    0    0 -0.26459631450E+03 -0.15054254527E+03  0.22262977458E+03  0.37714492609E+03  0.10566000000E+00 0.  1.
          4    1    3    3  502    0  0.62444454372E+03 -0.14405964597E+03 -0.37857819544E+03  0.74431553782E+03  0.00000000000E+00 0.  1.
         13    1    4    4    0    0 -0.52560111864E+03  0.99710400080E+02 -0.10505731426E+04  0.11789413213E+04  0.10566000000E+00 0. -1.
         -4    1    4    4    0  501  0.16575288942E+03  0.19489179116E+03  0.96234120936E+02  0.27334563586E+03  0.00000000000E+00 0. -1.
<mgrwt>
<rscale>  2 0.11026052E+04</rscale>
<asrwt>0</asrwt>
<pdfrwt beam="2">  1        1 0.28338730E+00 0.11026052E+04</pdfrwt>
<pdfrwt beam="1">  1       -1 0.11257384E+00 0.11026052E+04</pdfrwt>
<totfact> 0.38598697E+00</totfact>
</mgrwt>
</event>
<event>
 8    1  0.1439553E-005  0.1080434E+04  0.7818608E-02  0.8702484E-01
         -1   -1    0    0    0  501 -0.00000000000E+00  0.00000000000E+00  0.33594416588E+04  0.33594416588E+04  0.00000000000E+00 0.  1.
          1   -1    0    0  502    0  0.00000000000E+00 -0.00000000000E+00 -0.39453100504E+03  0.39453100504E+03  0.00000000000E+00 0. -1.
    9000010    2    1    2  502    0  0.19410163944E+03 -0.43053880055E+03  0.86284626450E+03  0.14006696119E+04  0.99716226384E+03 0.  0.
   -9000010    2    1    2    0  501 -0.19410163944E+03  0.43053880055E+03  0.21020643893E+04  0.23533030519E+04  0.94674254805E+03 0.  0.
        -13    1    3    3    0    0 -0.61665388975E+02  0.16154374920E+03  0.71947613365E+03  0.73996278363E+03  0.10566000000E+00 0.  1.
          4    1    3    3  502    0  0.25576702842E+03 -0.59208254976E+03  0.14337013085E+03  0.66070682831E+03  0.00000000000E+00 0.  1.
         13    1    4    4    0    0  0.56759639432E+02 -0.25312230967E+03  0.99450022039E+03  0.10277758802E+04  0.10566000000E+00 0. -1.
         -4    1    4    4    0  501 -0.25086127888E+03  0.68366111022E+03  0.11075641689E+04  0.13255271718E+04  0.00000000000E+00 0. -1.
<mgrwt>
<rscale>  2 0.10804341E+04</rscale>
<asrwt>0</asrwt>
<pdfrwt beam="2">  1        1 0.60697080E-01 0.10804341E+04</pdfrwt>
<pdfrwt beam="1">  1       -1 0.51683716E+00 0.10804341E+04</pdfrwt>
<totfact> 0.71838574E-01</totfact>
</mgrwt>
</event>
<event>
 8    1  0.1439553E-005  0.1180384E+04  0.7818608E-02  0.8621482E-01
         -2   -1    0    0    0  501 -0.00000000000E+00  0.00000000000E+00  0.40902114608E+03  0.40902114608E+03  0.00000000000E+00 0. -1.
          2   -1    0    0  502    0  0.00000000000E+00 -0.00000000000E+00 -0.37505679348E+04  0.37505679348E+04  0.00000000000E+00 0.  1.
    9000010    2    1    2  502    0 -0.48658157284E+03  0.36781608072E+03 -0.10492622547E+04  0.15842091215E+04  0.10181929902E+04 0.  0.
   -9000010    2    1    2    0  501  0.48658157284E+03 -0.36781608072E+03 -0.22922845340E+04  0.25753799594E+04  0.10029771951E+04 0.  0.
        -13    1    3    3    0    0 -0.24017752183E+03  0.58812878327E+03 -0.10792241554E+04  0.12523200455E+04  0.10566000000E+00 0.  1.
          4    1    3    3  502    0 -0.24640405100E+03 -0.22031270255E+03  0.29961900684E+02  0.33188907597E+03  0.00000000000E+00 0.  1.
         13    1    4    4    0    0 -0.24033446013E+03 -0.33931114299E+03 -0.11314295318E+04  0.12054150742E+04  0.10566000000E+00 0. -1.
         -4    1    4    4    0  501  0.72691603297E+03 -0.28504937731E+02 -0.11608550023E+04  0.13699648852E+04  0.00000000000E+00 0. -1.
<mgrwt>
<rscale>  2 0.11803836E+04</rscale>
<asrwt>0</asrwt>
<pdfrwt beam="2">  1        2 0.57701046E+00 0.11803836E+04</pdfrwt>
<pdfrwt beam="1">  1       -2 0.62926330E-01 0.11803836E+04</pdfrwt>
<totfact> 0.18454046E+00</totfact>
</mgrwt>
</event>
<event>
 8    1  0.1439553E-005  0.1402319E+04  0.7818608E-02  0.8468031E-01
          2   -1    0    0  502    0  0.00000000000E+00  0.00000000000E+00  0.35199275628E+04  0.35199275628E+04  0.00000000000E+00 0.  1.
         -2   -1    0    0    0  501 -0.00000000000E+00 -0.00000000000E+00 -0.58138200942E+03  0.58138200942E+03  0.00000000000E+00 0. -1.
    9000010    2    1    2  502    0 -0.81092617338E+03 -0.58779682921E+03  0.18579229776E+04  0.23182881565E+04  0.95889301529E+03 0.  0.
   -9000010    2    1    2    0  501  0.81092617338E+03  0.58779682921E+03  0.10806225758E+04  0.17830214157E+04  0.10041483190E+04 0.  0.
        -13    1    3    3    0    0 -0.65622607823E+03 -0.66858737056E+03  0.75931127745E+03  0.12059002301E+04  0.10566000000E+00 0.  1.
          4    1    3    3  502    0 -0.15470009515E+03  0.80790541354E+02  0.10986117001E+04  0.11123879263E+04  0.00000000000E+00 0.  1.
         13    1    4    4    0    0  0.67630441707E+03  0.25047027153E+03  0.12005679256E+04  0.14005307482E+04  0.10566000000E+00 0. -1.
         -4    1    4    4    0  501  0.13462175631E+03  0.33732655768E+03 -0.11994534983E+03  0.38249066752E+03  0.00000000000E+00 0. -1.
<mgrwt>
<rscale>  2 0.14023194E+04</rscale>
<asrwt>0</asrwt>
<pdfrwt beam="1">  1        2 0.54152730E+00 0.14023194E+04</pdfrwt>
<pdfrwt beam="2">  1       -2 0.89443388E-01 0.14023194E+04</pdfrwt>
<totfact> 0.12830724E+00</totfact>
</mgrwt>
</event>
<event>
 8    1  0.1439553E-005  0.1177305E+04  0.7818608E-02  0.8623851E-01
         -2   -1    0    0    0  501 -0.00000000000E+00  0.00000000000E+00  0.11200118304E+04  0.11200118304E+04  0.00000000000E+00 0. -1.
          2   -1    0    0  502    0  0.00000000000E+00 -0.00000000000E+00 -0.12783463305E+04  0.12783463305E+04  0.00000000000E+00 0.  1.
    9000010    2    1    2  502    0  0.40771278442E+03  0.46701690693E+03  0.13519080147E+03  0.11838032457E+04  0.99938934639E+03 0.  0.
   -9000010    2    1    2    0  501 -0.40771278442E+03 -0.46701690693E+03 -0.29352530154E+03  0.12145549152E+04  0.10023233178E+04 0.  0.
        -13    1    3    3    0    0  0.13442973620E+03  0.76208338126E+03  0.84912480773E+02  0.77849378580E+03  0.10566000000E+00 0.  1.
          4    1    3    3  502    0  0.27328304822E+03 -0.29506647433E+03  0.50278320693E+02  0.40530945986E+03  0.00000000000E+00 0.  1.
         13    1    4    4    0    0 -0.71328913535E+03 -0.13718201499E+03 -0.14225590901E+03  0.74016015203E+03  0.10566000000E+00 0. -1.
         -4    1    4    4    0  501  0.30557635092E+03 -0.32983489195E+03 -0.15126939253E+03  0.47439476315E+03  0.00000000000E+00 0. -1.
<mgrwt>
<rscale>  2 0.11773049E+04</rscale>
<asrwt>0</asrwt>
<pdfrwt beam="2">  1        2 0.19666867E+00 0.11773049E+04</pdfrwt>
<pdfrwt beam="1">  1       -2 0.17230951E+00 0.11773049E+04</pdfrwt>
<totfact> 0.44953287E+00</totfact>
</mgrwt>
</event>
<event>
 8    1  0.1439553E-005  0.9972121E+03  0.7818608E-02  0.8777215E-01
         -1   -1    0    0    0  501 -0.00000000000E+00  0.00000000000E+00  0.48001564150E+03  0.48001564150E+03  0.00000000000E+00 0.  1.
          1   -1    0    0  502    0  0.00000000000E+00 -0.00000000000E+00 -0.20945500183E+04  0.20945500183E+04  0.00000000000E+00 0. -1.
    9000010    2    1    2  502    0 -0.51287851992E+02 -0.74784199520E+02 -0.67498861850E+03  0.12064851158E+04  0.99587829537E+03 0.  0.
   -9000010    2    1    2    0  501  0.51287851992E+02  0.74784199520E+02 -0.93954575833E+03  0.13680805441E+04  0.99029037297E+03 0.  0.
        -13    1    3    3    0    0  0.25083115309E+02  0.25494109117E+03  0.16238164460E+03  0.30330171827E+03  0.10566000000E+00 0.  1.
          4    1    3    3  502    0 -0.76370967301E+02 -0.32972529069E+03 -0.83737026310E+03  0.90318339748E+03  0.00000000000E+00 0.  1.
         13    1    4    4    0    0  0.44230576645E+03 -0.98200889542E+02 -0.16281696553E+03  0.48144281194E+03  0.10566000000E+00 0. -1.
         -4    1    4    4    0  501 -0.39101791446E+03  0.17298508906E+03 -0.77672879280E+03  0.88663773213E+03  0.00000000000E+00 0. -1.
<mgrwt>
<rscale>  2 0.99721208E+03</rscale>
<asrwt>0</asrwt>
<pdfrwt beam="2">  1        1 0.32223847E+00 0.99721208E+03</pdfrwt>
<pdfrwt beam="1">  1       -1 0.73848558E-01 0.99721208E+03</pdfrwt>
<totfact> 0.60502643E+00</totfact>
</mgrwt>
</event>
<event>
 8    1  0.1439553E-005  0.1330818E+04  0.7818608E-02  0.8514069E-01
          2   -1    0    0  502    0  0.00000000000E+00  0.00000000000E+00  0.29208625736E+04  0.29208625736E+04  0.00000000000E+00 0. -1.
         -2   -1    0    0    0  501 -0.00000000000E+00 -0.00000000000E+00 -0.60761991998E+03  0.60761991998E+03  0.00000000000E+00 0.  1.
    9000010    2    1    2  502    0 -0.41765703097E+03 -0.77593121916E+03  0.12260961537E+04  0.18013614423E+04  0.98238720229E+03 0.  0.
   -9000010    2    1    2    0  501  0.41765703097E+03  0.77593121916E+03  0.10871464999E+04  0.17271210513E+04  0.10122020357E+04 0.  0.
        -13    1    3    3    0    0 -0.56824555288E+03 -0.28410114905E+03  0.11023508740E+04  0.12723183296E+04  0.10566000000E+00 0.  1.
          4    1    3    3  502    0  0.15058852191E+03 -0.49183007011E+03  0.12374527965E+03  0.52904311264E+03  0.00000000000E+00 0.  1.
         13    1    4    4    0    0  0.15079851485E+03  0.86507028504E+03  0.36290788068E+03  0.95015205686E+03  0.10566000000E+00 0. -1.
         -4    1    4    4    0  501  0.26685851612E+03 -0.89139065871E+02  0.72423861926E+03  0.77696899444E+03  0.00000000000E+00 0. -1.
<mgrwt>
<rscale>  2 0.13308177E+04</rscale>
<asrwt>0</asrwt>
<pdfrwt beam="1">  1        2 0.44936347E+00 0.13308177E+04</pdfrwt>
<pdfrwt beam="2">  1       -2 0.93479989E-01 0.13308177E+04</pdfrwt>
<totfact> 0.29143754E+00</totfact>
</mgrwt>
</event>
<event>
 8    1  0.1439553E-005  0.1379443E+04  0.7818608E-02  0.8482448E-01
          2   -1    0    0  502    0  0.00000000000E+00  0.00000000000E+00  0.20630261518E+04  0.20630261518E+04  0.00000000000E+00 0. -1.
         -2   -1    0    0    0  501 -0.00000000000E+00 -0.00000000000E+00 -0.93472253546E+03  0.93472253546E+03  0.00000000000E+00 0.  1.
    9000010    2    1    2  502    0 -0.70492626752E+03  0.66568770815E+03  0.38731399806E+03  0.14208379140E+04  0.96369449375E+03 0.  0.
   -9000010    2    1    2    0  501  0.70492626752E+03 -0.66568770815E+03  0.74098961832E+03  0.15769107733E+04  0.99875963330E+03 0.  0.
        -13    1    3    3    0    0 -0.35824884306E+03  0.33311321697E+01 -0.25130089845E+03  0.43761339413E+03  0.10566000000E+00 0.  1.
          4    1    3    3  502    0 -0.34667742446E+03  0.66235657598E+03  0.63861489651E+03  0.98322451985E+03  0.00000000000E+00 0.  1.
         13    1    4    4    0    0  0.76955820343E+03 -0.77029468119E+03  0.87366457350E+03  0.13960170208E+04  0.10566000000E+00 0. -1.
         -4    1    4    4    0  501 -0.64631935910E+02  0.10460697304E+03 -0.13267495519E+03  0.18089375247E+03  0.00000000000E+00 0. -1.
<mgrwt>
<rscale>  2 0.13794434E+04</rscale>
<asrwt>0</asrwt>
<pdfrwt beam="1">  1        2 0.31738864E+00 0.13794434E+04</pdfrwt>
<pdfrwt beam="2">  1       -2 0.14380347E+00 0.13794434E+04</pdfrwt>
<totfact> 0.28901108E+00</totfact>
</mgrwt>
</event>
<event>
 8    1  0.1439553E-005  0.1454149E+04  0.7818608E-02  0.8436386E-01
          1   -1    0    0  502    0  0.00000000000E+00  0.00000000000E+00  0.18220728222E+04  0.18220728222E+04  0.00000000000E+00 0.  1.
         -1   -1    0    0    0  501 -0.00000000000E+00 -0.00000000000E+00 -0.14001023364E+04  0.14001023364E+04  0.00000000000E+00 0. -1.
    9000010    2    1    2  502    0 -0.61661010339E+03 -0.65919371467E+03 -0.45762554209E+03  0.14211586967E+04  0.99776075862E+03 0.  0.
   -9000010    2    1    2    0  501  0.61661010339E+03  0.65919371467E+03  0.87959602793E+03  0.18010164619E+04  0.12865561591E+04 0.  0.
        -13    1    3    3    0    0 -0.26798340607E+03 -0.60635835403E+02 -0.64711031484E+03  0.70302459502E+03  0.10566000000E+00 0.  1.
          4    1    3    3  502    0 -0.34862669732E+03 -0.59855787927E+03  0.18948477276E+03  0.71813410170E+03  0.00000000000E+00 0.  1.
         13    1    4    4    0    0  0.94323362862E+03  0.64295601225E+03  0.37848421836E+03  0.12026356167E+04  0.10566000000E+00 0. -1.
         -4    1    4    4    0  501 -0.32662352523E+03  0.16237702421E+02  0.50111180957E+03  0.59838084520E+03  0.00000000000E+00 0. -1.
<mgrwt>
<rscale>  2 0.14541488E+04</rscale>
<asrwt>0</asrwt>
<pdfrwt beam="1">  1        1 0.28031890E+00 0.14541488E+04</pdfrwt>
<pdfrwt beam="2">  1       -1 0.21540036E+00 0.14541488E+04</pdfrwt>
<totfact> 0.47309303E-01</totfact>
</mgrwt>
</event>
<event>
 8    1  0.1439553E-005  0.1273716E+04  0.7818608E-02  0.8553028E-01
         -2   -1    0    0    0  501 -0.00000000000E+00  0.00000000000E+00  0.89860974343E+03  0.89860974343E+03  0.00000000000E+00 0. -1.
          2   -1    0    0  502    0  0.00000000000E+00 -0.00000000000E+00 -0.18802649174E+04  0.18802649174E+04  0.00000000000E+00 0.  1.
    9000010    2    1    2  502    0  0.84687635571E+03  0.26310010079E+02 -0.76049578938E+03  0.14677457571E+04  0.92630015836E+03 0.  0.
   -9000010    2    1    2    0  501 -0.84687635571E+03 -0.26310010079E+02 -0.22115938464E+03  0.13111289038E+04  0.97583592389E+03 0.  0.
        -13    1    3    3    0    0  0.18240016482E+03 -0.39637195831E+03 -0.43341337922E+03  0.61500220968E+03  0.10566000000E+00 0.  1.
          4    1    3    3  502    0  0.66447619089E+03  0.42268196839E+03 -0.32708241016E+03  0.85274354743E+03  0.00000000000E+00 0.  1.
         13    1    4    4    0    0  0.10793891869E+03 -0.27458317429E+03 -0.12314907857E+03  0.31970679769E+03  0.10566000000E+00 0. -1.
         -4    1    4    4    0  501 -0.95481527440E+03  0.24827316421E+03 -0.98010306065E+02  0.99142210606E+03  0.00000000000E+00 0. -1.
<mgrwt>
<rscale>  2 0.12737157E+04</rscale>
<asrwt>0</asrwt>
<pdfrwt beam="2">  1        2 0.28927152E+00 0.12737157E+04</pdfrwt>
<pdfrwt beam="1">  1       -2 0.13824765E+00 0.12737157E+04</pdfrwt>
<totfact> 0.41254321E+00</totfact>
</mgrwt>
</event>
<event>
 8    1  0.1439553E-005  0.1722321E+04  0.7818608E-02  0.8291907E-01
          2   -1    0    0  502    0  0.00000000000E+00  0.00000000000E+00  0.36536667303E+04  0.36536667303E+04  0.00000000000E+00 0.  1.
         -2   -1    0    0    0  501 -0.00000000000E+00 -0.00000000000E+00 -0.10750975470E+04  0.10750975470E+04  0.00000000000E+00 0. -1.
    9000010    2    1    2  502    0 -0.88820784737E+03  0.11004930956E+04  0.24624096416E+04  0.30082993561E+04  0.99317950985E+03 0.  0.
   -9000010    2    1    2    0  501  0.88820784737E+03 -0.11004930956E+04  0.11615954159E+03  0.17204649213E+04  0.97288656712E+03 0.  0.
        -13    1    3    3    0    0 -0.33595862655E+03  0.52832270676E+03  0.28061172865E+03  0.68610205848E+03  0.10566000000E+00 0.  1.
          4    1    3    3  502    0 -0.55224922082E+03  0.57217038888E+03  0.21817979130E+04  0.23221972976E+04  0.00000000000E+00 0.  1.
         13    1    4    4    0    0  0.22512312674E+02  0.72170858842E+02 -0.21313064863E+03  0.22614181754E+03  0.10566000000E+00 0. -1.
         -4    1    4    4    0  501  0.86569553470E+03 -0.11726639545E+04  0.32929019022E+03  0.14943231037E+04  0.00000000000E+00 0. -1.
<mgrwt>
<rscale>  2 0.17223205E+04</rscale>
<asrwt>0</asrwt>
<pdfrwt beam="1">  1        2 0.56210257E+00 0.17223205E+04</pdfrwt>
<pdfrwt beam="2">  1       -2 0.16539962E+00 0.17223205E+04</pdfrwt>
<totfact> 0.18295213E-01</totfact>
</mgrwt>
</event>
<event>
 8    1  0.1439553E-005  0.1196618E+04  0.7818608E-02  0.8609113E-01
         -1   -1    0    0    0  501 -0.00000000000E+00  0.00000000000E+00  0.17336583485E+04  0.17336583485E+04  0.00000000000E+00 0. -1.
          1   -1    0    0  502    0  0.00000000000E+00 -0.00000000000E+00 -0.83344182132E+03  0.83344182132E+03  0.00000000000E+00 0.  1.
    9000010    2    1    2  502    0  0.56126472943E+03 -0.34798652371E+03  0.32570870127E+03  0.12326699731E+04  0.98857290436E+03 0.  0.
   -9000010    2    1    2    0  501 -0.56126472943E+03  0.34798652371E+03  0.57450782594E+03  0.13344301968E+04  0.10072397881E+04 0.  0.
        -13    1    3    3    0    0  0.70704831154E+02 -0.62042279372E+03  0.21724773486E+03  0.66115066784E+03  0.10566000000E+00 0.  1.
          4    1    3    3  502    0  0.49055989828E+03  0.27243627001E+03  0.10846096641E+03  0.57151930523E+03  0.00000000000E+00 0.  1.
         13    1    4    4    0    0 -0.81869846384E+03  0.19744388197E+03  0.60161005679E+03  0.10349811268E+04  0.10566000000E+00 0. -1.
         -4    1    4    4    0  501  0.25743373441E+03  0.15054264174E+03 -0.27102230852E+02  0.29944906998E+03  0.00000000000E+00 0. -1.
<mgrwt>
<rscale>  2 0.11966185E+04</rscale>
<asrwt>0</asrwt>
<pdfrwt beam="2">  1        1 0.12822182E+00 0.11966185E+04</pdfrwt>
<pdfrwt beam="1">  1       -1 0.26671667E+00 0.11966185E+04</pdfrwt>
<totfact> 0.91790197E-01</totfact>
</mgrwt>
</event>
<event>
 8    1  0.1439553E-005  0.1909414E+04  0.7818608E-02  0.8206304E-01
          2   -1    0    0  502    0  0.00000000000E+00  0.00000000000E+00  0.24003072083E+04  0.24003072083E+04  0.00000000000E+00 0. -1.
         -2   -1    0    0    0  501 -0.00000000000E+00 -0.00000000000E+00 -0.15246411894E+04  0.15246411894E+04  0.00000000000E+00 0.  1.
    9000010    2    1    2  502    0 -0.14409319276E+04 -0.84786645301E+03  0.31728238038E+03  0.19343273763E+04  0.91966947729E+03 0.  0.
   -9000010    2    1    2    0  501  0.14409319276E+04  0.84786645301E+03  0.55838363855E+03  0.19906210214E+04  0.92499590324E+03 0.  0.
        -13    1    3    3    0    0 -0.37834141283E+03 -0.27447116248E+03 -0.32249565660E+03  0.56787331632E+03  0.10566000000E+00 0.  1.
          4    1    3    3  502    0 -0.10625905148E+04 -0.57339529053E+03  0.63977803697E+03  0.13664540599E+04  0.00000000000E+00 0.  1.
         13    1    4    4    0    0  0.72586934593E+03  0.15382781024E+02  0.51905348876E+03  0.89249060088E+03  0.10566000000E+00 0. -1.
         -4    1    4    4    0  501  0.71506258170E+03  0.83248367199E+03  0.39330149792E+02  0.10981304206E+04  0.00000000000E+00 0. -1.
<mgrwt>
<rscale>  2 0.19094145E+04</rscale>
<asrwt>0</asrwt>
<pdfrwt beam="1">  1        2 0.36927803E+00 0.19094145E+04</pdfrwt>
<pdfrwt beam="2">  1       -2 0.23456018E+00 0.19094145E+04</pdfrwt>
<totfact> 0.30980812E-01</totfact>
</mgrwt>
</event>
<event>
 8    1  0.1439553E-005  0.1080261E+04  0.7818608E-02  0.8702632E-01
         -2   -1    0    0    0  501 -0.00000000000E+00  0.00000000000E+00  0.74987978219E+03  0.74987978219E+03  0.00000000000E+00 0. -1.
          2   -1    0    0  502    0  0.00000000000E+00 -0.00000000000E+00 -0.15765823291E+04  0.15765823291E+04  0.00000000000E+00 0.  1.
    9000010    2    1    2  502    0 -0.18684229229E+03  0.33527113319E+03 -0.54798030386E+03  0.12173937795E+04  0.10170783776E+04 0.  0.
   -9000010    2    1    2    0  501  0.18684229229E+03 -0.33527113319E+03 -0.27872224301E+03  0.11090683317E+04  0.10025116960E+04 0.  0.
        -13    1    3    3    0    0 -0.58106961000E+03  0.54561737807E+02 -0.18434302411E+03  0.61204676014E+03  0.10566000000E+00 0.  1.
          4    1    3    3  502    0  0.39422731771E+03  0.28070939539E+03 -0.36363727975E+03  0.60534701941E+03  0.00000000000E+00 0.  1.
         13    1    4    4    0    0 -0.30298686045E+02 -0.35665296495E+03  0.31482282344E+03  0.47668938431E+03  0.10566000000E+00 0. -1.
         -4    1    4    4    0  501  0.21714097833E+03  0.21381831758E+02 -0.59354506645E+03  0.63237894740E+03  0.00000000000E+00 0. -1.
<mgrwt>
<rscale>  2 0.10802607E+04</rscale>
<asrwt>0</asrwt>
<pdfrwt beam="2">  1        2 0.24255112E+00 0.10802607E+04</pdfrwt>
<pdfrwt beam="1">  1       -2 0.11536612E+00 0.10802607E+04</pdfrwt>
<totfact> 0.10086922E+01</totfact>
</mgrwt>
</event>
<event>
 8    1  0.1439553E-005  0.1603770E+04  0.7818608E-02  0.8352161E-01
         -2   -1    0    0    0  501 -0.00000000000E+00  0.00000000000E+00  0.14787210565E+04  0.14787210565E+04  0.00000000000E+00 0.  1.
          2   -1    0    0  502    0  0.00000000000E+00 -0.00000000000E+00 -0.17515559210E+04  0.17515559210E+04  0.00000000000E+00 0. -1.
    9000010    2    1    2  502    0 -0.84368026103E+03  0.87570512453E+03 -0.27124588022E+03  0.16299589333E+04  0.10509690523E+04 0.  0.
   -9000010    2    1    2    0  501  0.84368026103E+03 -0.87570512453E+03 -0.15889842752E+01  0.16003180441E+04  0.10403650654E+04 0.  0.
        -13    1    3    3    0    0 -0.42542372934E+03  0.94886643184E+03 -0.49312892613E+03  0.11508731485E+04  0.10566000000E+00 0.  1.
          4    1    3    3  502    0 -0.41825653169E+03 -0.73161307313E+02  0.22188304592E+03  0.47908578486E+03  0.00000000000E+00 0.  1.
         13    1    4    4    0    0  0.85274906349E+02 -0.21629300504E+03  0.44383509920E+03  0.50104299229E+03  0.10566000000E+00 0. -1.
         -4    1    4    4    0  501  0.75840535468E+03 -0.65941211949E+03 -0.44542408347E+03  0.10992750518E+04  0.00000000000E+00 0. -1.
<mgrwt>
<rscale>  2 0.16037705E+04</rscale>
<asrwt>0</asrwt>
<pdfrwt beam="2">  1        2 0.26947014E+00 0.16037705E+04</pdfrwt>
<pdfrwt beam="1">  1       -2 0.22749555E+00 0.16037705E+04</pdfrwt>
<totfact> 0.82699009E-01</totfact>
</mgrwt>
</event>
<event>
 8    1  0.1439553E-005  0.1442818E+04  0.7818608E-02  0.8443188E-01
          2   -1    0    0  502    0  0.00000000000E+00  0.00000000000E+00  0.11513853488E+04  0.11513853488E+04  0.00000000000E+00 0. -1.
         -2   -1    0    0    0  501 -0.00000000000E+00 -0.00000000000E+00 -0.20076466632E+04  0.20076466632E+04  0.00000000000E+00 0.  1.
    9000010    2    1    2  502    0  0.92841323754E+03  0.49843298737E+03  0.66415124346E+02  0.14568923115E+04  0.10038613730E+04 0.  0.
   -9000010    2    1    2    0  501 -0.92841323754E+03 -0.49843298737E+03 -0.92267643876E+03  0.17021397005E+04  0.96724410931E+03 0.  0.
        -13    1    3    3    0    0  0.70162352080E+03  0.52070140284E+03  0.47096225026E+03  0.99257794062E+03  0.10566000000E+00 0.  1.
          4    1    3    3  502    0  0.22678971674E+03 -0.22268415475E+02 -0.40454712592E+03  0.46431437091E+03  0.00000000000E+00 0.  1.
         13    1    4    4    0    0  0.92432060415E+01 -0.48982125457E+03 -0.26698637201E+03  0.55793550908E+03  0.10566000000E+00 0. -1.
         -4    1    4    4    0  501 -0.93765644358E+03 -0.86117327954E+01 -0.65569006675E+03  0.11442041915E+04  0.00000000000E+00 0. -1.
<mgrwt>
<rscale>  2 0.14428178E+04</rscale>
<asrwt>0</asrwt>
<pdfrwt beam="1">  1        2 0.17713621E+00 0.14428178E+04</pdfrwt>
<pdfrwt beam="2">  1       -2 0.30886872E+00 0.14428178E+04</pdfrwt>
<totfact> 0.45126256E-01</totfact>
</mgrwt>
</event>
<event>
 8    1  0.1439553E-005  0.1071167E+04  0.7818608E-02  0.8710454E-01
          2   -1    0    0  502    0  0.00000000000E+00  0.00000000000E+00  0.11292837143E+04  0.11292837143E+04  0.00000000000E+00 0. -1.
         -2   -1    0    0    0  501 -0.00000000000E+00 -0.00000000000E+00 -0.10277947347E+04  0.10277947347E+04  0.00000000000E+00 0.  1.
    9000010    2    1    2  502    0  0.23928297181E+03 -0.31994368893E+03 -0.64377853385E+02  0.10765747368E+04  0.99762134665E+03 0.  0.
   -9000010    2    1    2    0  501 -0.23928297181E+03  0.31994368893E+03  0.16586683302E+03  0.10805037121E+04  0.99012936576E+03 0.  0.
        -13    1    3    3    0    0 -0.35039658132E+03 -0.21086412321E+02  0.14980016142E+03  0.38165756970E+03  0.10566000000E+00 0.  1.
          4    1    3    3  502    0  0.58967955312E+03 -0.29885727661E+03 -0.21417801480E+03  0.69491716713E+03  0.00000000000E+00 0.  1.
         13    1    4    4    0    0 -0.16611046954E+03  0.67905102917E+03  0.76247673100E+02  0.70321881881E+03  0.10566000000E+00 0. -1.
         -4    1    4    4    0  501 -0.73172502269E+02 -0.35910734024E+03  0.89619159915E+02  0.37728489332E+03  0.00000000000E+00 0. -1.
<mgrwt>
<rscale>  2 0.10711668E+04</rscale>
<asrwt>0</asrwt>
<pdfrwt beam="1">  1        2 0.17373596E+00 0.10711668E+04</pdfrwt>
<pdfrwt beam="2">  1       -2 0.15812227E+00 0.10711668E+04</pdfrwt>
<totfact> 0.72964013E+00</totfact>
</mgrwt>
</event>
<event>
 8    1  0.1439553E-005  0.1225217E+04  0.7818608E-02  0.8587812E-01
          1   -1    0    0  502    0  0.00000000000E+00  0.00000000000E+00  0.19185992163E+04  0.19185992163E+04  0.00000000000E+00 0.  1.
         -1   -1    0    0    0  501 -0.00000000000E+00 -0.00000000000E+00 -0.80215987078E+03  0.80215987078E+03  0.00000000000E+00 0. -1.
    9000010    2    1    2  502    0  0.67992974667E+03 -0.17636826690E+03  0.77045799626E+03  0.14451755500E+04  0.10007580228E+04 0.  0.
   -9000010    2    1    2    0  501 -0.67992974667E+03  0.17636826690E+03  0.34598134929E+03  0.12755835371E+04  0.10069756900E+04 0.  0.
        -13    1    3    3    0    0  0.45867263649E+03 -0.59372051583E+03  0.46700307377E+03  0.88372875955E+03  0.10566000000E+00 0.  1.
          4    1    3    3  502    0  0.22125711018E+03  0.41735224893E+03  0.30345492249E+03  0.56144679042E+03  0.00000000000E+00 0.  1.
         13    1    4    4    0    0 -0.37954902158E+03  0.95547097465E+02  0.70143405512E+03  0.80324121686E+03  0.10566000000E+00 0. -1.
         -4    1    4    4    0  501 -0.30038072509E+03  0.80821169433E+02 -0.35545270583E+03  0.47234232027E+03  0.00000000000E+00 0. -1.
<mgrwt>
<rscale>  2 0.12252165E+04</rscale>
<asrwt>0</asrwt>
<pdfrwt beam="1">  1        1 0.29516911E+00 0.12252165E+04</pdfrwt>
<pdfrwt beam="2">  1       -1 0.12340921E+00 0.12252165E+04</pdfrwt>
<totfact> 0.26644449E+00</totfact>
</mgrwt>
</event>
<event>
 8    1  0.1439553E-005  0.1163078E+04  0.7818608E-02  0.8634896E-01
          2   -1    0    0  502    0  0.00000000000E+00  0.00000000000E+00  0.25707433412E+04  0.25707433412E+04  0.00000000000E+00 0.  1.
         -2   -1    0    0    0  501 -0.00000000000E+00 -0.00000000000E+00 -0.70948682756E+03  0.70948682756E+03  0.00000000000E+00 0. -1.
    9000010    2    1    2  502    0  0.20180746912E+03 -0.60149893976E+03  0.10333227622E+03  0.11780782501E+04  0.98725051270E+03 0.  0.
   -9000010    2    1    2    0  501 -0.20180746912E+03  0.60149893976E+03  0.17579242374E+04  0.21021519187E+04  0.96240211744E+03 0.  0.
        -13    1    3    3    0    0  0.15871940511E+03 -0.42360354681E+03  0.54009612210E+03  0.70451092731E+03  0.10566000000E+00 0.  1.
          4    1    3    3  502    0  0.43088064011E+02 -0.17789539295E+03 -0.43676384589E+03  0.47356732274E+03  0.00000000000E+00 0.  1.
         13    1    4    4    0    0 -0.52491111082E+02  0.42719939195E+03  0.18152578534E+04  0.18655872327E+04  0.10566000000E+00 0. -1.
         -4    1    4    4    0  501 -0.14931635804E+03  0.17429954781E+03 -0.57333615993E+02  0.23656468602E+03  0.00000000000E+00 0. -1.
<mgrwt>
<rscale>  2 0.11630783E+04</rscale>
<asrwt>0</asrwt>
<pdfrwt beam="1">  1        2 0.39549897E+00 0.11630783E+04</pdfrwt>
<pdfrwt beam="2">  1       -2 0.10915182E+00 0.11630783E+04</pdfrwt>
<totfact> 0.32844621E+00</totfact>
</mgrwt>
</event>
<event>
 8    1  0.1439553E-005  0.1405531E+04  0.7818608E-02  0.8466030E-01
          1   -1    0    0  502    0  0.00000000000E+00  0.00000000000E+00  0.10810006099E+04  0.10810006099E+04  0.00000000000E+00 0.  1.
         -1   -1    0    0    0  501 -0.00000000000E+00 -0.00000000000E+00 -0.18305388248E+04  0.18305388248E+04  0.00000000000E+00 0. -1.
    9000010    2    1    2  502    0 -0.51402788193E+03  0.84273714924E+03 -0.31545263155E+03  0.14408874162E+04  0.10011071957E+04 0.  0.
   -9000010    2    1    2    0  501  0.51402788193E+03 -0.84273714924E+03 -0.43408558333E+03  0.14706520186E+04  0.99997824972E+03 0.  0.
        -13    1    3    3    0    0 -0.50010449461E+03  0.10378458478E+04 -0.11013061275E+03  0.11573060409E+04  0.10566000000E+00 0.  1.
          4    1    3    3  502    0 -0.13923387314E+02 -0.19510869857E+03 -0.20532201880E+03  0.28358137523E+03  0.00000000000E+00 0.  1.
         13    1    4    4    0    0  0.48403580436E+03 -0.95649126974E+03 -0.62906218509E+03  0.12429342110E+04  0.10566000000E+00 0. -1.
         -4    1    4    4    0  501  0.29992077563E+02  0.11375412050E+03  0.19497660176E+03  0.22771780756E+03  0.00000000000E+00 0. -1.
<mgrwt>
<rscale>  2 0.14055306E+04</rscale>
<asrwt>0</asrwt>
<pdfrwt beam="1">  1        1 0.16630779E+00 0.14055306E+04</pdfrwt>
<pdfrwt beam="2">  1       -1 0.28162136E+00 0.14055306E+04</pdfrwt>
<totfact> 0.39978480E-01</totfact>
</mgrwt>
</event>
<event>
 8    1  0.1439553E-005  0.1289235E+04  0.7818608E-02  0.8542234E-01
         -2   -1    0    0    0  501 -0.00000000000E+00  0.00000000000E+00  0.62150949363E+03  0.62150949363E+03  0.00000000000E+00 0.  1.
          2   -1    0    0  502    0  0.00000000000E+00 -0.00000000000E+00 -0.32241045143E+04  0.32241045143E+04  0.00000000000E+00 0. -1.
    9000010    2    1    2  502    0 -0.19544565715E+03 -0.79015856433E+03 -0.52523307146E+03  0.14114840380E+04  0.10265806585E+04 0.  0.
   -9000010    2    1    2    0  501  0.19544565715E+03  0.79015856433E+03 -0.20773619492E+04  0.24341299700E+04  0.97314257999E+03 0.  0.
        -13    1    3    3    0    0  0.26277682530E+03 -0.77330538986E+03 -0.17696069620E+03  0.83568414193E+03  0.10566000000E+00 0.  1.
          4    1    3    3  502    0 -0.45822248244E+03 -0.16853174469E+02 -0.34827237526E+03  0.57579989604E+03  0.00000000000E+00 0.  1.
         13    1    4    4    0    0 -0.33102535717E+02  0.93980033624E+03 -0.12593817950E+04  0.15717388354E+04  0.10566000000E+00 0. -1.
         -4    1    4    4    0  501  0.22854819286E+03 -0.14964177191E+03 -0.81798015418E+03  0.86239113457E+03  0.00000000000E+00 0. -1.
<mgrwt>
<rscale>  2 0.12892355E+04</rscale>
<asrwt>0</asrwt>
<pdfrwt beam="2">  1        2 0.49601608E+00 0.12892355E+04</pdfrwt>
<pdfrwt beam="1">  1       -2 0.95616845E-01 0.12892355E+04</pdfrwt>
<totfact> 0.17898585E+00</totfact>
</mgrwt>
</event>
<event>
 8    1  0.1439553E-005  0.1353592E+04  0.7818608E-02  0.8499089E-01
         -1   -1    0    0    0  501 -0.00000000000E+00  0.00000000000E+00  0.12935369052E+04  0.12935369052E+04  0.00000000000E+00 0. -1.
          1   -1    0    0  502    0  0.00000000000E+00 -0.00000000000E+00 -0.14845327876E+04  0.14845327876E+04  0.00000000000E+00 0.  1.
    9000010    2    1    2  502    0  0.35236932793E+03 -0.83509443859E+03 -0.39086827285E+03  0.13893372550E+04  0.97771833202E+03 0.  0.
   -9000010    2    1    2    0  501 -0.35236932793E+03  0.83509443859E+03  0.19987239053E+03  0.13887324378E+04  0.10329965860E+04 0.  0.
        -13    1    3    3    0    0  0.15129097486E+03 -0.45662830475E+03 -0.70816670899E+03  0.85609489348E+03  0.10566000000E+00 0.  1.
          4    1    3    3  502    0  0.20107835307E+03 -0.37846613384E+03  0.31729843613E+03  0.53324236151E+03  0.00000000000E+00 0.  1.
         13    1    4    4    0    0 -0.16567348608E+03  0.32752810295E+03  0.60868589818E+03  0.71078892508E+03  0.10566000000E+00 0. -1.
         -4    1    4    4    0  501 -0.18669584186E+03  0.50756633564E+03 -0.40881350764E+03  0.67794351274E+03  0.00000000000E+00 0. -1.
<mgrwt>
<rscale>  2 0.13535922E+04</rscale>
<asrwt>0</asrwt>
<pdfrwt beam="2">  1        1 0.22838966E+00 0.13535922E+04</pdfrwt>
<pdfrwt beam="1">  1       -1 0.19900568E+00 0.13535922E+04</pdfrwt>
<totfact> 0.12083050E+00</totfact>
</mgrwt>
</event>
<event>
 8    1  0.1439553E-005  0.1320723E+04  0.7818608E-02  0.8520808E-01
         -2   -1    0    0    0  501 -0.00000000000E+00  0.00000000000E+00  0.81050896352E+03  0.81050896352E+03  0.00000000000E+00 0.  1.
          2   -1    0    0  502    0  0.00000000000E+00 -0.00000000000E+00 -0.22533744547E+04  0.22533744547E+04  0.00000000000E+00 0. -1.
    9000010    2    1    2  502    0 -0.61288486975E+03 -0.64040616346E+03 -0.39760500093E+03  0.13809488740E+04  0.98141843167E+03 0.  0.
   -9000010    2    1    2    0  501  0.61288486975E+03  0.64040616346E+03 -0.10452604903E+04  0.16829345442E+04  0.97670428992E+03 0.  0.
        -13    1    3    3    0    0  0.19988659010E+03 -0.38002238139E+03  0.21931954560E+02  0.42994497445E+03  0.10566000000E+00 0.  1.
          4    1    3    3  502    0 -0.81277145985E+03 -0.26038378208E+03 -0.41953695549E+03  0.95100389954E+03  0.00000000000E+00 0.  1.
         13    1    4    4    0    0  0.33336492614E+03  0.51505911905E+03 -0.21047270763E+02  0.61389011139E+03  0.10566000000E+00 0. -1.
         -4    1    4    4    0  501  0.27951994361E+03  0.12534704441E+03 -0.10242132195E+04  0.10690444328E+04  0.00000000000E+00 0. -1.
<mgrwt>
<rscale>  2 0.13207227E+04</rscale>
<asrwt>0</asrwt>
<pdfrwt beam="2">  1        2 0.34667299E+00 0.13207227E+04</pdfrwt>
<pdfrwt beam="1">  1       -2 0.12469369E+00 0.13207227E+04</pdfrwt>
<totfact> 0.34247719E+00</totfact>
</mgrwt>
</event>
<event>
 8    1  0.1439553E-005  0.1263994E+04  0.7818608E-02  0.8559871E-01
         -1   -1    0    0    0  501 -0.00000000000E+00  0.00000000000E+00  0.76335446536E+03  0.76335446536E+03  0.00000000000E+00 0.  1.
          1   -1    0    0  502    0  0.00000000000E+00 -0.00000000000E+00 -0.24002886650E+04  0.24002886650E+04  0.00000000000E+00 0. -1.
    9000010    2    1    2  502    0 -0.72024909487E+03  0.27413328994E+03 -0.25325499464E+03  0.12904833978E+04  0.10036441045E+04 0.  0.
   -9000010    2    1    2    0  501  0.72024909487E+03 -0.27413328994E+03 -0.13836792050E+04  0.18731597326E+04  0.10001257031E+04 0.  0.
        -13    1    3    3    0    0 -0.86566806955E+03 -0.78904171065E+02 -0.85532197367E+02  0.87345454536E+03  0.10566000000E+00 0.  1.
          4    1    3    3  502    0  0.14541897468E+03  0.35303746100E+03 -0.16772279727E+03  0.41702885247E+03  0.00000000000E+00 0.  1.
         13    1    4    4    0    0  0.53979725357E+03  0.29072695417E+03 -0.42535609562E+03  0.74621113372E+03  0.10566000000E+00 0. -1.
         -4    1    4    4    0  501  0.18045184131E+03 -0.56486024411E+03 -0.95832310940E+03  0.11269485988E+04  0.00000000000E+00 0. -1.
<mgrwt>
<rscale>  2 0.12639938E+04</rscale>
<asrwt>0</asrwt>
<pdfrwt beam="2">  1        1 0.36927517E+00 0.12639938E+04</pdfrwt>
<pdfrwt beam="1">  1       -1 0.11743915E+00 0.12639938E+04</pdfrwt>
<totfact> 0.12290708E+00</totfact>
</mgrwt>
</event>
<event>
 8    1  0.1439553E-005  0.1269320E+04  0.7818608E-02  0.8556114E-01
          2   -1    0    0  502    0  0.00000000000E+00  0.00000000000E+00  0.16027195265E+04  0.16027195265E+04  0.00000000000E+00 0. -1.
         -2   -1    0    0    0  501 -0.00000000000E+00 -0.00000000000E+00 -0.12211639343E+04  0.12211639343E+04  0.00000000000E+00 0.  1.
    9000010    2    1    2  502    0  0.52459482561E+03 -0.34616764613E+03  0.78507069420E+03  0.15979783792E+04  0.12418402213E+04 0.  0.
   -9000010    2    1    2    0  501 -0.52459482561E+03  0.34616764613E+03 -0.40351510204E+03  0.12259050816E+04  0.97210444976E+03 0.  0.
        -13    1    3    3    0    0  0.89608426405E+02 -0.63546699826E+03  0.85699126675E+03  0.10706456082E+04  0.10566000000E+00 0.  1.
          4    1    3    3  502    0  0.43498639920E+03  0.28929935213E+03 -0.71920572545E+02  0.52733277101E+03  0.00000000000E+00 0.  1.
         13    1    4    4    0    0 -0.23581472874E+02  0.12109660380E+03  0.30524723378E+03  0.32923602204E+03  0.10566000000E+00 0. -1.
         -4    1    4    4    0  501 -0.50101335273E+03  0.22507104234E+03 -0.70876233581E+03  0.89666905957E+03  0.00000000000E+00 0. -1.
<mgrwt>
<rscale>  2 0.12693205E+04</rscale>
<asrwt>0</asrwt>
<pdfrwt beam="1">  1        2 0.24657224E+00 0.12693205E+04</pdfrwt>
<pdfrwt beam="2">  1       -2 0.18787137E+00 0.12693205E+04</pdfrwt>
<totfact> 0.21867067E+00</totfact>
</mgrwt>
</event>
<event>
 8    1  0.1439553E-005  0.1077857E+04  0.7818608E-02  0.8704692E-01
         -1   -1    0    0    0  501 -0.00000000000E+00  0.00000000000E+00  0.16591411105E+04  0.16591411105E+04  0.00000000000E+00 0. -1.
          1   -1    0    0  502    0  0.00000000000E+00 -0.00000000000E+00 -0.71482449265E+03  0.71482449265E+03  0.00000000000E+00 0.  1.
    9000010    2    1    2  502    0  0.28506648164E+03  0.27766928178E+03  0.30207858130E+03  0.11183508825E+04  0.10005468995E+04 0.  0.
   -9000010    2    1    2    0  501 -0.28506648164E+03 -0.27766928178E+03  0.64223803656E+03  0.12556147206E+04  0.10028636508E+04 0.  0.
        -13    1    3    3    0    0  0.46267942205E+03 -0.17883572445E+03  0.37669661402E+03  0.62286018825E+03  0.10566000000E+00 0.  1.
          4    1    3    3  502    0 -0.17761294041E+03  0.45650500623E+03 -0.74618032720E+02  0.49549069428E+03  0.00000000000E+00 0.  1.
         13    1    4    4    0    0 -0.21444107349E+03  0.31157503815E+03 -0.39484071425E+01  0.37825861455E+03  0.10566000000E+00 0. -1.
         -4    1    4    4    0  501 -0.70625408151E+02 -0.58924431993E+03  0.64618644370E+03  0.87735610608E+03  0.00000000000E+00 0. -1.
<mgrwt>
<rscale>  2 0.10778570E+04</rscale>
<asrwt>0</asrwt>
<pdfrwt beam="2">  1        1 0.10997300E+00 0.10778570E+04</pdfrwt>
<pdfrwt beam="1">  1       -1 0.25525248E+00 0.10778570E+04</pdfrwt>
<totfact> 0.15557615E+00</totfact>
</mgrwt>
</event>
<event>
 8    1  0.1439553E-005  0.1032562E+04  0.7818608E-02  0.8744584E-01
         -1   -1    0    0    0  501 -0.00000000000E+00  0.00000000000E+00  0.59583306445E+03  0.59583306445E+03  0.00000000000E+00 0. -1.
          1   -1    0    0  502    0  0.00000000000E+00 -0.00000000000E+00 -0.18168165305E+04  0.18168165305E+04  0.00000000000E+00 0.  1.
    9000010    2    1    2  502    0  0.19434776644E+03 -0.18582741033E+03 -0.46189995437E+03  0.11305266647E+04  0.99621086670E+03 0.  0.
   -9000010    2    1    2    0  501 -0.19434776644E+03  0.18582741033E+03 -0.75908351172E+03  0.12821229303E+04  0.99766154078E+03 0.  0.
        -13    1    3    3    0    0  0.39834179982E+03  0.27178992614E+03 -0.55525633071E+02  0.48541637851E+03  0.10566000000E+00 0.  1.
          4    1    3    3  502    0 -0.20399403339E+03 -0.45761733646E+03 -0.40637432130E+03  0.64511028615E+03  0.00000000000E+00 0.  1.
         13    1    4    4    0    0 -0.53896314396E+03  0.34556001500E+03 -0.57281105288E+03  0.85907246958E+03  0.10566000000E+00 0. -1.
         -4    1    4    4    0  501  0.34461537752E+03 -0.15973260468E+03 -0.18627245884E+03  0.42305046075E+03  0.00000000000E+00 0. -1.
<mgrwt>
<rscale>  2 0.10325620E+04</rscale>
<asrwt>0</asrwt>
<pdfrwt beam="2">  1        1 0.27951023E+00 0.10325620E+04</pdfrwt>
<pdfrwt beam="1">  1       -1 0.91666627E-01 0.10325620E+04</pdfrwt>
<totfact> 0.63734007E+00</totfact>
</mgrwt>
</event>
<event>
 8    1  0.1439553E-005  0.1725538E+04  0.7818608E-02  0.8290342E-01
          2   -1    0    0  502    0  0.00000000000E+00  0.00000000000E+00  0.24226298673E+04  0.24226298673E+04  0.00000000000E+00 0.  1.
         -2   -1    0    0    0  501 -0.00000000000E+00 -0.00000000000E+00 -0.12315921195E+04  0.12315921195E+04  0.00000000000E+00 0. -1.
    9000010    2    1    2  502    0  0.88560095642E+02  0.13981479805E+04  0.51621237103E+03  0.18105556422E+04  0.10241952233E+04 0.  0.
   -9000010    2    1    2    0  501 -0.88560095642E+02 -0.13981479805E+04  0.67482537684E+03  0.18436663447E+04  0.99048252653E+03 0.  0.
        -13    1    3    3    0    0 -0.86798395451E+02  0.85865815145E+03 -0.21080735651E+03  0.88840730255E+03  0.10566000000E+00 0.  1.
          4    1    3    3  502    0  0.17535849109E+03  0.53948982903E+03  0.72701972753E+03  0.92214833961E+03  0.00000000000E+00 0.  1.
         13    1    4    4    0    0 -0.59420117882E+02 -0.31976551554E+03  0.69214427562E+03  0.76475123065E+03  0.10566000000E+00 0. -1.
         -4    1    4    4    0  501 -0.29139977760E+02 -0.10783824649E+04 -0.17318898780E+02  0.10789151140E+04  0.00000000000E+00 0. -1.
<mgrwt>
<rscale>  2 0.17255384E+04</rscale>
<asrwt>0</asrwt>
<pdfrwt beam="1">  1        2 0.37271229E+00 0.17255384E+04</pdfrwt>
<pdfrwt beam="2">  1       -2 0.18947571E+00 0.17255384E+04</pdfrwt>
<totfact> 0.71751888E-01</totfact>
</mgrwt>
</event>
<event>
 8    1  0.1439553E-005  0.1162128E+04  0.7818608E-02  0.8635640E-01
          2   -1    0    0  502    0  0.00000000000E+00  0.00000000000E+00  0.57211863993E+03  0.57211863993E+03  0.00000000000E+00 0.  1.
         -2   -1    0    0    0  501 -0.00000000000E+00 -0.00000000000E+00 -0.23830505315E+04  0.23830505315E+04  0.00000000000E+00 0. -1.
    9000010    2    1    2  502    0 -0.64619403753E+03 -0.11520565631E+03 -0.79624885844E+03  0.14382739639E+04  0.10018885533E+04 0.  0.
   -9000010    2    1    2    0  501  0.64619403753E+03  0.11520565631E+03 -0.10146830331E+04  0.15168952075E+04  0.91681532244E+03 0.  0.
        -13    1    3    3    0    0 -0.59285582673E+03 -0.51862216393E+03 -0.47498076032E+03  0.91981178186E+03  0.10566000000E+00 0.  1.
          4    1    3    3  502    0 -0.53338210798E+02  0.40341650761E+03 -0.32126809812E+03  0.51846218205E+03  0.00000000000E+00 0.  1.
         13    1    4    4    0    0  0.44822108505E+03 -0.35159732620E+03 -0.30941542352E+03  0.64827520109E+03  0.10566000000E+00 0. -1.
         -4    1    4    4    0  501  0.19797295248E+03  0.46680298251E+03 -0.70526760961E+03  0.86862000642E+03  0.00000000000E+00 0. -1.
<mgrwt>
<rscale>  2 0.11621277E+04</rscale>
<asrwt>0</asrwt>
<pdfrwt beam="1">  1        2 0.88018252E-01 0.11621277E+04</pdfrwt>
<pdfrwt beam="2">  1       -2 0.36662316E+00 0.11621277E+04</pdfrwt>
<totfact> 0.44947837E-01</totfact>
</mgrwt>
</event>
<event>
 8    1  0.1439553E-005  0.1039002E+04  0.7818608E-02  0.8738784E-01
          2   -1    0    0  502    0  0.00000000000E+00  0.00000000000E+00  0.15025159316E+04  0.15025159316E+04  0.00000000000E+00 0. -1.
         -2   -1    0    0    0  501 -0.00000000000E+00 -0.00000000000E+00 -0.80116701877E+03  0.80116701877E+03  0.00000000000E+00 0.  1.
    9000010    2    1    2  502    0  0.13349541052E+03  0.22789558338E+03 -0.21570390640E+02  0.10316730149E+04  0.99705892818E+03 0.  0.
   -9000010    2    1    2    0  501 -0.13349541052E+03 -0.22789558338E+03  0.72291930343E+03  0.12720099355E+04  0.10127386312E+04 0.  0.
        -13    1    3    3    0    0 -0.25430759844E+03  0.49776081076E+03 -0.15326905641E+02  0.55917180236E+03  0.10566000000E+00 0.  1.
          4    1    3    3  502    0  0.38780300896E+03 -0.26986522738E+03 -0.62434849994E+01  0.47250121250E+03  0.00000000000E+00 0.  1.
         13    1    4    4    0    0  0.24235902741E+03  0.30214041200E+03  0.35444083876E+03  0.52502861453E+03  0.10566000000E+00 0. -1.
         -4    1    4    4    0  501 -0.37585443793E+03 -0.53003599539E+03  0.36847846467E+03  0.74698132095E+03  0.00000000000E+00 0. -1.
<mgrwt>
<rscale>  2 0.10390021E+04</rscale>
<asrwt>0</asrwt>
<pdfrwt beam="1">  1        2 0.23115630E+00 0.10390021E+04</pdfrwt>
<pdfrwt beam="2">  1       -2 0.12325647E+00 0.10390021E+04</pdfrwt>
<totfact> 0.93490648E+00</totfact>
</mgrwt>
</event>
<event>
 8    1  0.1439553E-005  0.1950107E+04  0.7818608E-02  0.8189013E-01
         -4   -1    0    0    0  501 -0.00000000000E+00  0.00000000000E+00  0.19051031531E+04  0.19051031531E+04  0.00000000000E+00 0.  1.
          4   -1    0    0  502    0  0.00000000000E+00 -0.00000000000E+00 -0.20080229343E+04  0.20080229343E+04  0.00000000000E+00 0. -1.
    9000010    2    1    2  502    0 -0.35638426071E+03  0.15718634031E+04 -0.19252640309E+03  0.19122750028E+04  0.10109228315E+04 0.  0.
   -9000010    2    1    2    0  501  0.35638426071E+03 -0.15718634031E+04  0.89606621893E+02  0.20008510845E+04  0.11822061650E+04 0.  0.
        -13    1    3    3    0    0 -0.64624452468E+03  0.75614441774E+03 -0.30242655113E+03  0.10396384930E+04  0.10566000000E+00 0.  1.
          4    1    3    3  502    0  0.28986026397E+03  0.81571898533E+03  0.10990014804E+03  0.87263650977E+03  0.00000000000E+00 0.  1.
         13    1    4    4    0    0  0.44345970340E+03 -0.17446470531E+04  0.37678539861E+02  0.18005192395E+04  0.10566000000E+00 0. -1.
         -4    1    4    4    0  501 -0.87075442687E+02  0.17278365001E+03  0.51928082032E+02  0.20033184503E+03  0.00000000000E+00 0. -1.
<mgrwt>
<rscale>  2 0.19501069E+04</rscale>
<asrwt>0</asrwt>
<pdfrwt beam="2">  1        4 0.30892661E+00 0.19501069E+04</pdfrwt>
<pdfrwt beam="1">  1       -4 0.29309279E+00 0.19501069E+04</pdfrwt>
<totfact> 0.52685593E-02</totfact>
</mgrwt>
</event>
<event>
 8    1  0.1439553E-005  0.1530558E+04  0.7818608E-02  0.8392127E-01
         -4   -1    0    0    0  501 -0.00000000000E+00  0.00000000000E+00  0.11191901824E+04  0.11191901824E+04  0.00000000000E+00 0. -1.
          4   -1    0    0  502    0  0.00000000000E+00 -0.00000000000E+00 -0.27742296190E+04  0.27742296190E+04  0.00000000000E+00 0.  1.
    9000010    2    1    2  502    0 -0.90654471524E+03 -0.74901924054E+03 -0.17975861536E+04  0.23699458255E+04  0.10012362821E+04 0.  0.
   -9000010    2    1    2    0  501  0.90654471524E+03  0.74901924054E+03  0.14254671708E+03  0.15234739760E+04  0.95801891705E+03 0.  0.
        -13    1    3    3    0    0 -0.94384292004E+03 -0.18391613785E+03 -0.12934665677E+04  0.16117445133E+04  0.10566000000E+00 0.  1.
          4    1    3    3  502    0  0.37298204803E+02 -0.56510310269E+03 -0.50411958595E+03  0.75820131211E+03  0.00000000000E+00 0.  1.
         13    1    4    4    0    0  0.51825875654E+03  0.62021245068E+03  0.52472683968E+03  0.96363576634E+03  0.10566000000E+00 0. -1.
         -4    1    4    4    0  501  0.38828595869E+03  0.12880678986E+03 -0.38218012260E+03  0.55983820961E+03  0.00000000000E+00 0. -1.
<mgrwt>
<rscale>  2 0.15305580E+04</rscale>
<asrwt>0</asrwt>
<pdfrwt beam="2">  1        4 0.42680456E+00 0.15305580E+04</pdfrwt>
<pdfrwt beam="1">  1       -4 0.17218311E+00 0.15305580E+04</pdfrwt>
<totfact> 0.43566309E-02</totfact>
</mgrwt>
</event>
<event>
 8    1  0.1439553E-005  0.1301387E+04  0.7818608E-02  0.8533891E-01
         -2   -1    0    0    0  501 -0.00000000000E+00  0.00000000000E+00  0.20377507239E+04  0.20377507239E+04  0.00000000000E+00 0. -1.
          2   -1    0    0  502    0  0.00000000000E+00 -0.00000000000E+00 -0.10747919147E+04  0.10747919147E+04  0.00000000000E+00 0.  1.
    9000010    2    1    2  502    0  0.78593989952E+03 -0.31947623566E+03  0.12240312407E+04  0.17905638078E+04  0.99403203218E+03 0.  0.
   -9000010    2    1    2    0  501 -0.78593989952E+03  0.31947623566E+03 -0.26107243146E+03  0.13219788309E+04  0.97964413128E+03 0.  0.
        -13    1    3    3    0    0  0.85340576903E+03 -0.49812791723E+03  0.12547614466E+04  0.15971409229E+04  0.10566000000E+00 0.  1.
          4    1    3    3  502    0 -0.67465869505E+02  0.17865168157E+03 -0.30730205904E+02  0.19342288497E+03  0.00000000000E+00 0.  1.
         13    1    4    4    0    0 -0.23017354574E+03  0.61622540231E+03 -0.59525072948E+02  0.66049742852E+03  0.10566000000E+00 0. -1.
         -4    1    4    4    0  501 -0.55576635378E+03 -0.29674916665E+03 -0.20154735851E+03  0.66148140233E+03  0.00000000000E+00 0. -1.
<mgrwt>
<rscale>  2 0.13013870E+04</rscale>
<asrwt>0</asrwt>
<pdfrwt beam="2">  1        2 0.16535260E+00 0.13013870E+04</pdfrwt>
<pdfrwt beam="1">  1       -2 0.31350011E+00 0.13013870E+04</pdfrwt>
<totfact> 0.47093965E-01</totfact>
</mgrwt>
</event>
<event>
 8    1  0.1439553E-005  0.1132098E+04  0.7818608E-02  0.8659527E-01
         -2   -1    0    0    0  501 -0.00000000000E+00  0.00000000000E+00  0.45025001313E+03  0.45025001313E+03  0.00000000000E+00 0. -1.
          2   -1    0    0  502    0  0.00000000000E+00 -0.00000000000E+00 -0.31852138773E+04  0.31852138773E+04  0.00000000000E+00 0.  1.
    9000010    2    1    2  502    0  0.63484904524E+03 -0.48549307350E+02 -0.72243177959E+03  0.12986097013E+04  0.87125721500E+03 0.  0.
   -9000010    2    1    2    0  501 -0.63484904524E+03  0.48549307350E+02 -0.20125320845E+04  0.23368541891E+04  0.10026024956E+04 0.  0.
        -13    1    3    3    0    0  0.70939607023E+03  0.10237122578E+03 -0.83169814672E+03  0.10979273522E+04  0.10566000000E+00 0.  1.
          4    1    3    3  502    0 -0.74547024987E+02 -0.15092053313E+03  0.10926636713E+03  0.20068234910E+03  0.00000000000E+00 0.  1.
         13    1    4    4    0    0 -0.57381145593E+03  0.45416032169E+03 -0.95920295912E+03  0.12064789732E+04  0.10566000000E+00 0. -1.
         -4    1    4    4    0  501 -0.61037589312E+02 -0.40561101434E+03 -0.10533291254E+04  0.11303752159E+04  0.00000000000E+00 0. -1.
<mgrwt>
<rscale>  2 0.11320982E+04</rscale>
<asrwt>0</asrwt>
<pdfrwt beam="2">  1        2 0.49003291E+00 0.11320982E+04</pdfrwt>
<pdfrwt beam="1">  1       -2 0.69269233E-01 0.11320982E+04</pdfrwt>
<totfact> 0.39530276E+00</totfact>
</mgrwt>
</event>
<event>
 8    1  0.1439553E-005  0.1681143E+04  0.7818608E-02  0.8312253E-01
          2   -1    0    0  502    0  0.00000000000E+00  0.00000000000E+00  0.23283761524E+04  0.23283761524E+04  0.00000000000E+00 0. -1.
         -2   -1    0    0    0  501 -0.00000000000E+00 -0.00000000000E+00 -0.15985069144E+04  0.15985069144E+04  0.00000000000E+00 0.  1.
    9000010    2    1    2  502    0  0.63542724844E+03 -0.11870121666E+04  0.13274885383E+04  0.21390943128E+04  0.10003664267E+04 0.  0.
   -9000010    2    1    2    0  501 -0.63542724844E+03  0.11870121666E+04 -0.59761930030E+03  0.17877887540E+04  0.10130518887E+04 0.  0.
        -13    1    3    3    0    0  0.23774767874E+03 -0.70300477279E+03  0.84161856590E+02  0.74687542373E+03  0.10566000000E+00 0.  1.
          4    1    3    3  502    0  0.39767956970E+03 -0.48400739381E+03  0.12433266817E+04  0.13922188890E+04  0.00000000000E+00 0.  1.
         13    1    4    4    0    0 -0.25524527075E+03  0.10660049836E+04 -0.78377310866E+03  0.13475225676E+04  0.10566000000E+00 0. -1.
         -4    1    4    4    0  501 -0.38018197769E+03  0.12100718300E+03  0.18615380837E+03  0.44026618638E+03  0.00000000000E+00 0. -1.
<mgrwt>
<rscale>  2 0.16811426E+04</rscale>
<asrwt>0</asrwt>
<pdfrwt beam="1">  1        2 0.35821172E+00 0.16811426E+04</pdfrwt>
<pdfrwt beam="2">  1       -2 0.24592414E+00 0.16811426E+04</pdfrwt>
<totfact> 0.28205715E-01</totfact>
</mgrwt>
</event>
<event>
 8    1  0.1439553E-005  0.1203422E+04  0.7818608E-02  0.8603990E-01
         -2   -1    0    0    0  501 -0.00000000000E+00  0.00000000000E+00  0.47567511509E+03  0.47567511509E+03  0.00000000000E+00 0. -1.
          2   -1    0    0  502    0  0.00000000000E+00 -0.00000000000E+00 -0.31070397805E+04  0.31070397805E+04  0.00000000000E+00 0.  1.
    9000010    2    1    2  502    0 -0.16434258356E+03  0.63731714625E+03 -0.15791945742E+04  0.19910850067E+04  0.10185196960E+04 0.  0.
   -9000010    2    1    2    0  501  0.16434258356E+03 -0.63731714625E+03 -0.10521700912E+04  0.15916298889E+04  0.99651501372E+03 0.  0.
        -13    1    3    3    0    0  0.21916671215E+03  0.37853977079E+03 -0.11036728866E+03  0.45111789518E+03  0.10566000000E+00 0.  1.
          4    1    3    3  502    0 -0.38350929571E+03  0.25877737546E+03 -0.14688272855E+04  0.15399671116E+04  0.00000000000E+00 0.  1.
         13    1    4    4    0    0 -0.16924895132E+03 -0.65028443251E+03 -0.10630456889E+04  0.12576093187E+04  0.10566000000E+00 0. -1.
         -4    1    4    4    0  501  0.33359153488E+03  0.12967286254E+02  0.10875597667E+02  0.33402057015E+03  0.00000000000E+00 0. -1.
<mgrwt>
<rscale>  2 0.12034219E+04</rscale>
<asrwt>0</asrwt>
<pdfrwt beam="2">  1        2 0.47800610E+00 0.12034219E+04</pdfrwt>
<pdfrwt beam="1">  1       -2 0.73180790E-01 0.12034219E+04</pdfrwt>
<totfact> 0.39112671E+00</totfact>
</mgrwt>
</event>
<event>
 8    1  0.1439553E-005  0.1152593E+04  0.7818608E-02  0.8643142E-01
          1   -1    0    0  502    0  0.00000000000E+00  0.00000000000E+00  0.92343174891E+03  0.92343174891E+03  0.00000000000E+00 0.  1.
         -1   -1    0    0    0  501 -0.00000000000E+00 -0.00000000000E+00 -0.14434075268E+04  0.14434075268E+04  0.00000000000E+00 0. -1.
    9000010    2    1    2  502    0  0.52376963291E+03  0.22674451916E+03 -0.32782280173E+03  0.11971014630E+04  0.99991820565E+03 0.  0.
   -9000010    2    1    2    0  501 -0.52376963291E+03 -0.22674451916E+03 -0.19215297619E+03  0.11697378128E+04  0.10028041080E+04 0.  0.
        -13    1    3    3    0    0  0.54620783510E+03  0.23300288611E+03 -0.64634903045E+03  0.87772457205E+03  0.10566000000E+00 0.  1.
          4    1    3    3  502    0 -0.22438202187E+02 -0.62583669466E+01  0.31852622872E+03  0.31937689092E+03  0.00000000000E+00 0.  1.
         13    1    4    4    0    0 -0.12804981413E+03 -0.45692970896E+03  0.24734009904E+03  0.53512489158E+03  0.10566000000E+00 0. -1.
         -4    1    4    4    0  501 -0.39571981878E+03  0.23018518980E+03 -0.43949307523E+03  0.63461292120E+03  0.00000000000E+00 0. -1.
<mgrwt>
<rscale>  2 0.11525931E+04</rscale>
<asrwt>0</asrwt>
<pdfrwt beam="1">  1        1 0.14206642E+00 0.11525931E+04</pdfrwt>
<pdfrwt beam="2">  1       -1 0.22206269E+00 0.11525931E+04</pdfrwt>
<totfact> 0.20835343E+00</totfact>
</mgrwt>
</event>
<event>
 8    1  0.1439553E-005  0.1346154E+04  0.7818608E-02  0.8503948E-01
          1   -1    0    0  502    0  0.00000000000E+00  0.00000000000E+00  0.15009028368E+04  0.15009028368E+04  0.00000000000E+00 0.  1.
         -1   -1    0    0    0  501 -0.00000000000E+00 -0.00000000000E+00 -0.12817360941E+04  0.12817360941E+04  0.00000000000E+00 0. -1.
    9000010    2    1    2  502    0  0.87954436043E+03  0.28809884014E+03  0.44517137673E+03  0.14240862855E+04  0.98653178878E+03 0.  0.
   -9000010    2    1    2    0  501 -0.87954436043E+03 -0.28809884014E+03 -0.22600463403E+03  0.13585526454E+04  0.96849779150E+03 0.  0.
        -13    1    3    3    0    0 -0.16658432776E+03 -0.21518105068E+02  0.27165408669E+03  0.31938898084E+03  0.10566000000E+00 0.  1.
          4    1    3    3  502    0  0.10461286882E+04  0.30961694521E+03  0.17351729004E+03  0.11046973047E+04  0.00000000000E+00 0.  1.
         13    1    4    4    0    0 -0.68162032822E+03  0.89482533800E+02  0.23888240747E+03  0.72778995010E+03  0.10566000000E+00 0. -1.
         -4    1    4    4    0  501 -0.19792403221E+03 -0.37758137394E+03 -0.46488704150E+03  0.63076269533E+03  0.00000000000E+00 0. -1.
<mgrwt>
<rscale>  2 0.13461538E+04</rscale>
<asrwt>0</asrwt>
<pdfrwt beam="1">  1        1 0.23090813E+00 0.13461538E+04</pdfrwt>
<pdfrwt beam="2">  1       -1 0.19719017E+00 0.13461538E+04</pdfrwt>
<totfact> 0.12206782E+00</totfact>
</mgrwt>
</event>
<event>
 8    1  0.1439553E-005  0.1233851E+04  0.7818608E-02  0.8581498E-01
         -2   -1    0    0    0  501 -0.00000000000E+00  0.00000000000E+00  0.81830524323E+03  0.81830524323E+03  0.00000000000E+00 0.  1.
          2   -1    0    0  502    0  0.00000000000E+00 -0.00000000000E+00 -0.29520066101E+04  0.29520066101E+04  0.00000000000E+00 0. -1.
    9000010    2    1    2  502    0  0.37958866040E+03  0.57258572825E+03  0.69693635771E+02  0.12534183096E+04  0.10460680134E+04 0.  0.
   -9000010    2    1    2    0  501 -0.37958866040E+03 -0.57258572825E+03 -0.22033950026E+04  0.25168935437E+04  0.10039231073E+04 0.  0.
        -13    1    3    3    0    0 -0.17211122114E+03 -0.67365810853E+02  0.32229937267E+03  0.37153374235E+03  0.10566000000E+00 0.  1.
          4    1    3    3  502    0  0.55169988154E+03  0.63995153911E+03 -0.25260573690E+03  0.88188456728E+03  0.00000000000E+00 0.  1.
         13    1    4    4    0    0  0.63966698608E+02 -0.72072466911E+03 -0.10791692577E+04  0.12992852209E+04  0.10566000000E+00 0. -1.
         -4    1    4    4    0  501 -0.44355535901E+03  0.14813894085E+03 -0.11242257449E+04  0.12176083228E+04  0.00000000000E+00 0. -1.
<mgrwt>
<rscale>  2 0.12338513E+04</rscale>
<asrwt>0</asrwt>
<pdfrwt beam="2">  1        2 0.45415486E+00 0.12338513E+04</pdfrwt>
<pdfrwt beam="1">  1       -2 0.12589312E+00 0.12338513E+04</pdfrwt>
<totfact> 0.13367614E+00</totfact>
</mgrwt>
</event>
<event>
 8    1  0.1439553E-005  0.1927391E+04  0.7818608E-02  0.8198612E-01
         -2   -1    0    0    0  501 -0.00000000000E+00  0.00000000000E+00  0.17679743848E+04  0.17679743848E+04  0.00000000000E+00 0. -1.
          2   -1    0    0  502    0  0.00000000000E+00 -0.00000000000E+00 -0.24568410012E+04  0.24568410012E+04  0.00000000000E+00 0.  1.
    9000010    2    1    2  502    0  0.67439758217E+03 -0.14897881773E+04  0.46082234173E+03  0.19714641704E+04  0.10000164161E+04 0.  0.
   -9000010    2    1    2    0  501 -0.67439758217E+03  0.14897881773E+04 -0.11496889582E+04  0.22533512156E+04  0.10399644650E+04 0.  0.
        -13    1    3    3    0    0  0.31934196359E+03 -0.10523303289E+04  0.75687447869E+03  0.13350046436E+04  0.10566000000E+00 0.  1.
          4    1    3    3  502    0  0.35505561857E+03 -0.43745784844E+03 -0.29605213697E+03  0.63645952679E+03  0.00000000000E+00 0.  1.
         13    1    4    4    0    0 -0.93103096175E+02  0.82642715782E+03 -0.10876285602E+04  0.13691551884E+04  0.10566000000E+00 0. -1.
         -4    1    4    4    0  501 -0.58129448599E+03  0.66336101948E+03 -0.62060397952E+02  0.88419602725E+03  0.00000000000E+00 0. -1.
<mgrwt>
<rscale>  2 0.19273912E+04</rscale>
<asrwt>0</asrwt>
<pdfrwt beam="2">  1        2 0.37797553E+00 0.19273912E+04</pdfrwt>
<pdfrwt beam="1">  1       -2 0.27199606E+00 0.19273912E+04</pdfrwt>
<totfact> 0.14707487E-01</totfact>
</mgrwt>
</event>
<event>
 8    1  0.1439553E-005  0.1082023E+04  0.7818608E-02  0.8701126E-01
         -4   -1    0    0    0  501 -0.00000000000E+00  0.00000000000E+00  0.48297562265E+03  0.48297562265E+03  0.00000000000E+00 0. -1.
          4   -1    0    0  502    0  0.00000000000E+00 -0.00000000000E+00 -0.24991303740E+04  0.24991303740E+04  0.00000000000E+00 0.  1.
    9000010    2    1    2  502    0  0.21932957657E+03 -0.33612220934E+03 -0.12615200664E+04  0.16585196214E+04  0.99908500825E+03 0.  0.
   -9000010    2    1    2    0  501 -0.21932957657E+03  0.33612220934E+03 -0.75463468492E+03  0.13235863753E+04  0.10106056513E+04 0.  0.
        -13    1    3    3    0    0 -0.19973090213E+03 -0.52522024050E+03 -0.42703170470E+03  0.70576541590E+03  0.10566000000E+00 0.  1.
          4    1    3    3  502    0  0.41906047870E+03  0.18909803116E+03 -0.83448836173E+03  0.95275420548E+03  0.00000000000E+00 0.  1.
         13    1    4    4    0    0 -0.77976301638E+02  0.11765042641E+03 -0.97343191782E+03  0.98361152710E+03  0.10566000000E+00 0. -1.
         -4    1    4    4    0  501 -0.14135327493E+03  0.21847178292E+03  0.21879723290E+03  0.33997484818E+03  0.00000000000E+00 0. -1.
<mgrwt>
<rscale>  2 0.10820230E+04</rscale>
<asrwt>0</asrwt>
<pdfrwt beam="2">  1        4 0.38448159E+00 0.10820230E+04</pdfrwt>
<pdfrwt beam="1">  1       -4 0.74303943E-01 0.10820230E+04</pdfrwt>
<totfact> 0.29294840E-01</totfact>
</mgrwt>
</event>
<event>
 8    1  0.1439553E-005  0.1201346E+04  0.7818608E-02  0.8605550E-01
         -2   -1    0    0    0  501 -0.00000000000E+00  0.00000000000E+00  0.10822221421E+04  0.10822221421E+04  0.00000000000E+00 0.  1.
          2   -1    0    0  502    0  0.00000000000E+00 -0.00000000000E+00 -0.25901049670E+04  0.25901049670E+04  0.00000000000E+00 0. -1.
    9000010    2    1    2  502    0 -0.10886977136E+03  0.64034207575E+03  0.52657889681E+03  0.13070640603E+04  0.10046096367E+04 0.  0.
   -9000010    2    1    2    0  501  0.10886977136E+03 -0.64034207575E+03 -0.20344617218E+04  0.23652630488E+04  0.10166337550E+04 0.  0.
        -13    1    3    3    0    0 -0.83991346538E+02 -0.27008434978E+03  0.16268377408E+03  0.32629147063E+03  0.10566000000E+00 0.  1.
          4    1    3    3  502    0 -0.24878424826E+02  0.91042642553E+03  0.36389512273E+03  0.98077258968E+03  0.00000000000E+00 0.  1.
         13    1    4    4    0    0  0.35120843004E+03 -0.60147134965E+03 -0.19995153413E+04  0.21173513542E+04  0.10566000000E+00 0. -1.
         -4    1    4    4    0  501 -0.24233865868E+03 -0.38870726100E+02 -0.34946380463E+02  0.24791169465E+03  0.00000000000E+00 0. -1.
<mgrwt>
<rscale>  2 0.12013458E+04</rscale>
<asrwt>0</asrwt>
<pdfrwt beam="2">  1        2 0.39847768E+00 0.12013458E+04</pdfrwt>
<pdfrwt beam="1">  1       -2 0.16649572E+00 0.12013458E+04</pdfrwt>
<totfact> 0.95405747E-01</totfact>
</mgrwt>
</event>
<event>
 8    1  0.1439553E-005  0.1205949E+04  0.7818608E-02  0.8602096E-01
         -2   -1    0    0    0  501 -0.00000000000E+00  0.00000000000E+00  0.90847824275E+03  0.90847824275E+03  0.00000000000E+00 0.  1.
          2   -1    0    0  502    0  0.00000000000E+00 -0.00000000000E+00 -0.18076030798E+04  0.18076030798E+04  0.00000000000E+00 0. -1.
    9000010    2    1    2  502    0  0.67879075146E+02  0.68260707343E+03  0.13431760123E+02  0.11943848395E+04  0.97765778626E+03 0.  0.
   -9000010    2    1    2    0  501 -0.67879075146E+02 -0.68260707343E+03 -0.91255659713E+03  0.15216964830E+04  0.10061017135E+04 0.  0.
        -13    1    3    3    0    0 -0.54639707533E+02 -0.17014114530E+03  0.24411301887E+03  0.30253046807E+03  0.10566000000E+00 0.  1.
          4    1    3    3  502    0  0.12251878268E+03  0.85274821873E+03 -0.23068125875E+03  0.89185437140E+03  0.00000000000E+00 0.  1.
         13    1    4    4    0    0 -0.11366848277E+03  0.41731405727E+02  0.17584254893E+03  0.21350093062E+03  0.10566000000E+00 0. -1.
         -4    1    4    4    0  501  0.45789407621E+02 -0.72433847916E+03 -0.10883991461E+04  0.13081955524E+04  0.00000000000E+00 0. -1.
<mgrwt>
<rscale>  2 0.12059494E+04</rscale>
<asrwt>0</asrwt>
<pdfrwt beam="2">  1        2 0.27809278E+00 0.12059494E+04</pdfrwt>
<pdfrwt beam="1">  1       -2 0.13976588E+00 0.12059494E+04</pdfrwt>
<totfact> 0.44092983E+00</totfact>
</mgrwt>
</event>
<event>
 8    1  0.1439553E-005  0.1444636E+04  0.7818608E-02  0.8442092E-01
          2   -1    0    0  502    0  0.00000000000E+00  0.00000000000E+00  0.14088079871E+04  0.14088079871E+04  0.00000000000E+00 0.  1.
         -2   -1    0    0    0  501 -0.00000000000E+00 -0.00000000000E+00 -0.15614909431E+04  0.15614909431E+04  0.00000000000E+00 0. -1.
    9000010    2    1    2  502    0 -0.10419156172E+04 -0.23059650360E+02  0.26026524844E+03  0.14631577548E+04  0.99346500442E+03 0.  0.
   -9000010    2    1    2    0  501  0.10419156172E+04  0.23059650360E+02 -0.41294820448E+03  0.15071411755E+04  0.10073869180E+04 0.  0.
        -13    1    3    3    0    0 -0.24246352447E+03 -0.14588135347E+03 -0.34989223731E+03  0.44999390983E+03  0.10566000000E+00 0.  1.
          4    1    3    3  502    0 -0.79945209269E+03  0.12282170311E+03  0.61015748575E+03  0.10131638449E+04  0.00000000000E+00 0.  1.
         13    1    4    4    0    0  0.40386089459E+03  0.25231274996E+03  0.26782566137E+03  0.54634782147E+03  0.10566000000E+00 0. -1.
         -4    1    4    4    0  501  0.63805472257E+03 -0.22925309960E+03 -0.68077386585E+03  0.96079335400E+03  0.00000000000E+00 0. -1.
<mgrwt>
<rscale>  2 0.14446363E+04</rscale>
<asrwt>0</asrwt>
<pdfrwt beam="1">  1        2 0.21673969E+00 0.14446363E+04</pdfrwt>
<pdfrwt beam="2">  1       -2 0.24022938E+00 0.14446363E+04</pdfrwt>
<totfact> 0.10265981E+00</totfact>
</mgrwt>
</event>
<event>
 8    1  0.1439553E-005  0.1180023E+04  0.7818608E-02  0.8621759E-01
         -4   -1    0    0    0  501 -0.00000000000E+00  0.00000000000E+00  0.32439895077E+04  0.32439895077E+04  0.00000000000E+00 0. -1.
          4   -1    0    0  502    0  0.00000000000E+00 -0.00000000000E+00 -0.53283180825E+03  0.53283180825E+03  0.00000000000E+00 0.  1.
    9000010    2    1    2  502    0 -0.52674079930E+03  0.30962617481E+03  0.52881159658E+03  0.12988541143E+04  0.10168854743E+04 0.  0.
   -9000010    2    1    2    0  501  0.52674079930E+03 -0.30962617481E+03  0.21823461029E+04  0.24779672017E+04  0.10021789769E+04 0.  0.
        -13    1    3    3    0    0 -0.67823200519E+03  0.26348068096E+03  0.73807401011E+03  0.10364236478E+04  0.10566000000E+00 0.  1.
          4    1    3    3  502    0  0.15149120589E+03  0.46145493856E+02 -0.20926241353E+03  0.26243046657E+03  0.00000000000E+00 0.  1.
         13    1    4    4    0    0  0.61328619961E+03 -0.45602144982E+03  0.21776225631E+04  0.23078378547E+04  0.10566000000E+00 0. -1.
         -4    1    4    4    0  501 -0.86545400317E+02  0.14639527501E+03  0.47235398470E+01  0.17012934694E+03  0.00000000000E+00 0. -1.
<mgrwt>
<rscale>  2 0.11800231E+04</rscale>
<asrwt>0</asrwt>
<pdfrwt beam="2">  1        4 0.81974126E-01 0.11800231E+04</pdfrwt>
<pdfrwt beam="1">  1       -4 0.49907530E+00 0.11800231E+04</pdfrwt>
<totfact> 0.74050298E-02</totfact>
</mgrwt>
</event>
<event>
 8    1  0.1439553E-005  0.1150665E+04  0.7818608E-02  0.8644669E-01
         -2   -1    0    0    0  501 -0.00000000000E+00  0.00000000000E+00  0.17311071716E+04  0.17311071716E+04  0.00000000000E+00 0.  1.
          2   -1    0    0  502    0  0.00000000000E+00 -0.00000000000E+00 -0.77192894668E+03  0.77192894668E+03  0.00000000000E+00 0. -1.
    9000010    2    1    2  502    0  0.52985348565E+02  0.54241974856E+03  0.36773610734E+03  0.12236189237E+04  0.10319819741E+04 0.  0.
   -9000010    2    1    2    0  501 -0.52985348565E+02 -0.54241974856E+03  0.59144211759E+03  0.12794171946E+04  0.99502660700E+03 0.  0.
        -13    1    3    3    0    0  0.25693939124E+03 -0.45127023635E+02 -0.23968858053E+03  0.35426674390E+03  0.10566000000E+00 0.  1.
          4    1    3    3  502    0 -0.20395404267E+03  0.58754677219E+03  0.60742468786E+03  0.86935217977E+03  0.00000000000E+00 0.  1.
         13    1    4    4    0    0 -0.36880092273E+03 -0.16535533049E+03 -0.11353600663E+03  0.41981774843E+03  0.10566000000E+00 0. -1.
         -4    1    4    4    0  501  0.31581557417E+03 -0.37706441807E+03  0.70497812422E+03  0.85959944619E+03  0.00000000000E+00 0. -1.
<mgrwt>
<rscale>  2 0.11506647E+04</rscale>
<asrwt>0</asrwt>
<pdfrwt beam="2">  1        2 0.11875830E+00 0.11506647E+04</pdfrwt>
<pdfrwt beam="1">  1       -2 0.26632418E+00 0.11506647E+04</pdfrwt>
<totfact> 0.16088409E+00</totfact>
</mgrwt>
</event>
<event>
 8    1  0.1439553E-005  0.1716880E+04  0.7818608E-02  0.8294561E-01
          2   -1    0    0  502    0  0.00000000000E+00  0.00000000000E+00  0.10026956157E+04  0.10026956157E+04  0.00000000000E+00 0. -1.
         -2   -1    0    0    0  501 -0.00000000000E+00 -0.00000000000E+00 -0.39063735989E+04  0.39063735989E+04  0.00000000000E+00 0.  1.
    9000010    2    1    2  502    0 -0.10713320913E+04  0.90379559652E+03 -0.23497790782E+03  0.17392667320E+04  0.10026141919E+04 0.  0.
   -9000010    2    1    2    0  501  0.10713320913E+04 -0.90379559652E+03 -0.26687000753E+04  0.31698024826E+04  0.98035134326E+03 0.  0.
        -13    1    3    3    0    0 -0.11036709093E+04  0.72988691909E+03  0.13412349498E+03  0.13299674860E+04  0.10566000000E+00 0.  1.
          4    1    3    3  502    0  0.32338818022E+02  0.17390867743E+03 -0.36910140279E+03  0.40929924601E+03  0.00000000000E+00 0.  1.
         13    1    4    4    0    0  0.18213177176E+03 -0.35519457686E+03 -0.16958336839E+04  0.17421788268E+04  0.10566000000E+00 0. -1.
         -4    1    4    4    0  501  0.88920031956E+03 -0.54860101966E+03 -0.97286639139E+03  0.14276236558E+04  0.00000000000E+00 0. -1.
<mgrwt>
<rscale>  2 0.17168804E+04</rscale>
<asrwt>0</asrwt>
<pdfrwt beam="1">  1        2 0.15426086E+00 0.17168804E+04</pdfrwt>
<pdfrwt beam="2">  1       -2 0.60098056E+00 0.17168804E+04</pdfrwt>
<totfact> 0.16267826E-01</totfact>
</mgrwt>
</event>
<event>
 8    1  0.1439553E-005  0.1859733E+04  0.7818608E-02  0.8228022E-01
         -2   -1    0    0    0  501 -0.00000000000E+00  0.00000000000E+00  0.28005777078E+04  0.28005777078E+04  0.00000000000E+00 0.  1.
          2   -1    0    0  502    0  0.00000000000E+00 -0.00000000000E+00 -0.14097476190E+04  0.14097476190E+04  0.00000000000E+00 0. -1.
    9000010    2    1    2  502    0 -0.14963141704E+04  0.47185841574E+03 -0.45627046704E+02  0.18609461446E+04  0.99971609199E+03 0.  0.
   -9000010    2    1    2    0  501  0.14963141704E+04 -0.47185841574E+03  0.14364571356E+04  0.23493791822E+04  0.99727978938E+03 0.  0.
        -13    1    3    3    0    0 -0.10520059068E+04  0.78399347832E+03  0.32230012822E+02  0.13124027533E+04  0.10566000000E+00 0.  1.
          4    1    3    3  502    0 -0.44430826359E+03 -0.31213506258E+03 -0.77857059526E+02  0.54854339127E+03  0.00000000000E+00 0.  1.
         13    1    4    4    0    0  0.84485841822E+01 -0.14741771724E+03  0.58775667508E+03  0.60602085954E+03  0.10566000000E+00 0. -1.
         -4    1    4    4    0  501  0.14878655862E+04 -0.32444069850E+03  0.84870046050E+03  0.17433583227E+04  0.00000000000E+00 0. -1.
<mgrwt>
<rscale>  2 0.18597326E+04</rscale>
<asrwt>0</asrwt>
<pdfrwt beam="2">  1        2 0.21688425E+00 0.18597326E+04</pdfrwt>
<pdfrwt beam="1">  1       -2 0.43085811E+00 0.18597326E+04</pdfrwt>
<totfact> 0.63622881E-02</totfact>
</mgrwt>
</event>
<event>
 8    1  0.1439553E-005  0.1921832E+04  0.7818608E-02  0.8200981E-01
         -2   -1    0    0    0  501 -0.00000000000E+00  0.00000000000E+00  0.15921068040E+04  0.15921068040E+04  0.00000000000E+00 0. -1.
          2   -1    0    0  502    0  0.00000000000E+00 -0.00000000000E+00 -0.23295380144E+04  0.23295380144E+04  0.00000000000E+00 0.  1.
    9000010    2    1    2  502    0  0.15993843672E+04 -0.35699889231E+03 -0.24373162443E+03  0.19440634775E+04  0.10171033068E+04 0.  0.
   -9000010    2    1    2    0  501 -0.15993843672E+04  0.35699889231E+03 -0.49369958599E+03  0.19775813409E+04  0.99076239106E+03 0.  0.
        -13    1    3    3    0    0  0.81080681926E+03  0.27716331769E+03 -0.35199480005E+03  0.92635174381E+03  0.10566000000E+00 0.  1.
          4    1    3    3  502    0  0.78857754794E+03 -0.63416221001E+03  0.10826317562E+03  0.10177117337E+04  0.00000000000E+00 0.  1.
         13    1    4    4    0    0 -0.32749789655E+03 -0.33287303053E+03 -0.92308429748E+02  0.47600439501E+03  0.10566000000E+00 0. -1.
         -4    1    4    4    0  501 -0.12718864706E+04  0.68987192284E+03 -0.40139115625E+03  0.15015769459E+04  0.00000000000E+00 0. -1.
<mgrwt>
<rscale>  2 0.19218321E+04</rscale>
<asrwt>0</asrwt>
<pdfrwt beam="2">  1        2 0.35839046E+00 0.19218321E+04</pdfrwt>
<pdfrwt beam="1">  1       -2 0.24493951E+00 0.19218321E+04</pdfrwt>
<totfact> 0.28023485E-01</totfact>
</mgrwt>
</event>
<event>
 8    1  0.1439553E-005  0.1735989E+04  0.7818608E-02  0.8285282E-01
         -2   -1    0    0    0  501 -0.00000000000E+00  0.00000000000E+00  0.12268966194E+04  0.12268966194E+04  0.00000000000E+00 0.  1.
          2   -1    0    0  502    0  0.00000000000E+00 -0.00000000000E+00 -0.35326709474E+04  0.35326709474E+04  0.00000000000E+00 0. -1.
    9000010    2    1    2  502    0 -0.13656601949E+04 -0.28348493824E+03 -0.24589176187E+04  0.30008036089E+04  0.10065559922E+04 0.  0.
   -9000010    2    1    2    0  501  0.13656601949E+04  0.28348493824E+03  0.15314329063E+03  0.17587639579E+04  0.10603802686E+04 0.  0.
        -13    1    3    3    0    0 -0.35047290985E+03 -0.41847051401E+03 -0.32865350020E+03  0.63715144667E+03  0.10566000000E+00 0.  1.
          4    1    3    3  502    0 -0.10151872850E+04  0.13498557578E+03 -0.21302641185E+04  0.23636521622E+04  0.00000000000E+00 0.  1.
         13    1    4    4    0    0  0.88449344532E+03  0.12554466733E+03  0.60591011858E+03  0.10794522691E+04  0.10566000000E+00 0. -1.
         -4    1    4    4    0  501  0.48116674957E+03  0.15794027091E+03 -0.45276682796E+03  0.67931168882E+03  0.00000000000E+00 0. -1.
<mgrwt>
<rscale>  2 0.17359893E+04</rscale>
<asrwt>0</asrwt>
<pdfrwt beam="2">  1        2 0.54348784E+00 0.17359893E+04</pdfrwt>
<pdfrwt beam="1">  1       -2 0.18875333E+00 0.17359893E+04</pdfrwt>
<totfact> 0.14456424E-01</totfact>
</mgrwt>
</event>
<event>
 8    1  0.1439553E-005  0.1332321E+04  0.7818608E-02  0.8513071E-01
          1   -1    0    0  502    0  0.00000000000E+00  0.00000000000E+00  0.14625230352E+04  0.14625230352E+04  0.00000000000E+00 0. -1.
         -1   -1    0    0    0  501 -0.00000000000E+00 -0.00000000000E+00 -0.13172195937E+04  0.13172195937E+04  0.00000000000E+00 0.  1.
    9000010    2    1    2  502    0  0.61118791275E+03 -0.60153944124E+03 -0.31708699958E+03  0.13669419707E+04  0.10161623009E+04 0.  0.
   -9000010    2    1    2    0  501 -0.61118791275E+03  0.60153944124E+03  0.46239044107E+03  0.14128006583E+04  0.10231326483E+04 0.  0.
        -13    1    3    3    0    0 -0.47027345509E+02 -0.50400920469E+03 -0.46268785319E+03  0.68579655167E+03  0.10566000000E+00 0.  1.
          4    1    3    3  502    0  0.65821525826E+03 -0.97530236552E+02  0.14560085360E+03  0.68114541900E+03  0.00000000000E+00 0.  1.
         13    1    4    4    0    0 -0.33887703107E+03  0.87512860589E+03  0.24549882740E+03  0.97002958947E+03  0.10566000000E+00 0. -1.
         -4    1    4    4    0  501 -0.27231088169E+03 -0.27358916465E+03  0.21689161367E+03  0.44277106882E+03  0.00000000000E+00 0. -1.
<mgrwt>
<rscale>  2 0.13323210E+04</rscale>
<asrwt>0</asrwt>
<pdfrwt beam="1">  1        1 0.22500354E+00 0.13323210E+04</pdfrwt>
<pdfrwt beam="2">  1       -1 0.20264917E+00 0.13323210E+04</pdfrwt>
<totfact> 0.11665797E+00</totfact>
</mgrwt>
</event>
<event>
 8    1  0.1439553E-005  0.1124877E+04  0.7818608E-02  0.8665386E-01
          2   -1    0    0  502    0  0.00000000000E+00  0.00000000000E+00  0.57250726785E+03  0.57250726785E+03  0.00000000000E+00 0. -1.
         -2   -1    0    0    0  501 -0.00000000000E+00 -0.00000000000E+00 -0.23703158798E+04  0.23703158798E+04  0.00000000000E+00 0.  1.
    9000010    2    1    2  502    0  0.59304243215E+02  0.40238269358E+03 -0.64856848446E+03  0.14159217947E+04  0.11911190639E+04 0.  0.
   -9000010    2    1    2    0  501 -0.59304243215E+02 -0.40238269358E+03 -0.11492401275E+04  0.15269013529E+04  0.91937263697E+03 0.  0.
        -13    1    3    3    0    0 -0.25224915242E+03 -0.34079453143E+03 -0.37167417309E+03  0.56383707723E+03  0.10566000000E+00 0.  1.
          4    1    3    3  502    0  0.31155339563E+03  0.74317722501E+03 -0.27689431137E+03  0.85208471749E+03  0.00000000000E+00 0.  1.
         13    1    4    4    0    0 -0.35077117937E+03 -0.39219380246E+03 -0.25190779401E+03  0.58336433454E+03  0.10566000000E+00 0. -1.
         -4    1    4    4    0  501  0.29146693616E+03 -0.10188891122E+02 -0.89733233348E+03  0.94353701839E+03  0.00000000000E+00 0. -1.
<mgrwt>
<rscale>  2 0.11248767E+04</rscale>
<asrwt>0</asrwt>
<pdfrwt beam="1">  1        2 0.88078043E-01 0.11248767E+04</pdfrwt>
<pdfrwt beam="2">  1       -2 0.36466398E+00 0.11248767E+04</pdfrwt>
<totfact> 0.46979867E-01</totfact>
</mgrwt>
</event>
<event>
 8    1  0.1439553E-005  0.1065809E+04  0.7818608E-02  0.8715101E-01
         -1   -1    0    0    0  501 -0.00000000000E+00  0.00000000000E+00  0.17758245413E+04  0.17758245413E+04  0.00000000000E+00 0.  1.
          1   -1    0    0  502    0  0.00000000000E+00 -0.00000000000E+00 -0.73384904589E+03  0.73384904589E+03  0.00000000000E+00 0. -1.
    9000010    2    1    2  502    0 -0.29404514470E+03  0.23204084066E+03  0.64818616450E+02  0.10513631710E+04  0.98023342391E+03 0.  0.
   -9000010    2    1    2    0  501  0.29404514470E+03 -0.23204084066E+03  0.97715687895E+03  0.14583104162E+04  0.10156417701E+04 0.  0.
        -13    1    3    3    0    0  0.20953657965E+03  0.18825959951E+02  0.36961867446E+03  0.42529750841E+03  0.10566000000E+00 0.  1.
          4    1    3    3  502    0 -0.50358172435E+03  0.21321488071E+03 -0.30480005801E+03  0.62606566255E+03  0.00000000000E+00 0.  1.
         13    1    4    4    0    0  0.18966545052E+03 -0.61482895813E+03  0.79214659299E+03  0.10205311690E+04  0.10566000000E+00 0. -1.
         -4    1    4    4    0  501  0.10437969417E+03  0.38278811747E+03  0.18501028596E+03  0.43777924727E+03  0.00000000000E+00 0. -1.
<mgrwt>
<rscale>  2 0.10658091E+04</rscale>
<asrwt>0</asrwt>
<pdfrwt beam="2">  1        1 0.11289985E+00 0.10658091E+04</pdfrwt>
<pdfrwt beam="1">  1       -1 0.27320377E+00 0.10658091E+04</pdfrwt>
<totfact> 0.99115375E-01</totfact>
</mgrwt>
</event>
<event>
 8    1  0.1439553E-005  0.1182509E+04  0.7818608E-02  0.8619851E-01
         -1   -1    0    0    0  501 -0.00000000000E+00  0.00000000000E+00  0.90637433098E+03  0.90637433098E+03  0.00000000000E+00 0.  1.
          1   -1    0    0  502    0  0.00000000000E+00 -0.00000000000E+00 -0.17520243359E+04  0.17520243359E+04  0.00000000000E+00 0. -1.
    9000010    2    1    2  502    0  0.57178928223E+03  0.28267682469E+03  0.37285128559E+02  0.11807071837E+04  0.99288977350E+03 0.  0.
   -9000010    2    1    2    0  501 -0.57178928223E+03 -0.28267682469E+03 -0.88293513344E+03  0.14776914832E+04  0.99857323168E+03 0.  0.
        -13    1    3    3    0    0  0.81302892894E+03  0.49039752659E+02  0.14647204652E+03  0.82757175411E+03  0.10566000000E+00 0.  1.
          4    1    3    3  502    0 -0.24123964671E+03  0.23363707203E+03 -0.10918691796E+03  0.35313542958E+03  0.00000000000E+00 0.  1.
         13    1    4    4    0    0 -0.58653555478E+03 -0.26014509636E+03 -0.10921854280E+04  0.12667156146E+04  0.10566000000E+00 0. -1.
         -4    1    4    4    0  501  0.14746272554E+02 -0.22531728322E+02  0.20925029452E+03  0.21097586850E+03  0.00000000000E+00 0. -1.
<mgrwt>
<rscale>  2 0.11825088E+04</rscale>
<asrwt>0</asrwt>
<pdfrwt beam="2">  1        1 0.26954220E+00 0.11825088E+04</pdfrwt>
<pdfrwt beam="1">  1       -1 0.13944221E+00 0.11825088E+04</pdfrwt>
<totfact> 0.25816037E+00</totfact>
</mgrwt>
</event>
<event>
 8    1  0.1439553E-005  0.1178915E+04  0.7818608E-02  0.8622611E-01
          1   -1    0    0  502    0  0.00000000000E+00  0.00000000000E+00  0.11546592250E+04  0.11546592250E+04  0.00000000000E+00 0. -1.
         -1   -1    0    0    0  501 -0.00000000000E+00 -0.00000000000E+00 -0.14877138172E+04  0.14877138172E+04  0.00000000000E+00 0.  1.
    9000010    2    1    2  502    0 -0.51653288266E+03 -0.26472947369E+03 -0.74599568472E+03  0.14162891835E+04  0.10547405257E+04 0.  0.
   -9000010    2    1    2    0  501  0.51653288266E+03  0.26472947369E+03  0.41294109250E+03  0.12260838587E+04  0.99793455174E+03 0.  0.
        -13    1    3    3    0    0 -0.69144865509E+02 -0.57027596249E+03 -0.11719329829E+03  0.58628488480E+03  0.10566000000E+00 0.  1.
          4    1    3    3  502    0 -0.44738801715E+03  0.30554648880E+03 -0.62880238642E+03  0.83000429871E+03  0.00000000000E+00 0.  1.
         13    1    4    4    0    0  0.69256252352E+03  0.50308751588E+03  0.27376590457E+03  0.89871445927E+03  0.10566000000E+00 0. -1.
         -4    1    4    4    0  501 -0.17602964086E+03 -0.23835804219E+03  0.13917518792E+03  0.32736939942E+03  0.00000000000E+00 0. -1.
<mgrwt>
<rscale>  2 0.11789152E+04</rscale>
<asrwt>0</asrwt>
<pdfrwt beam="1">  1        1 0.17763988E+00 0.11789152E+04</pdfrwt>
<pdfrwt beam="2">  1       -1 0.22887905E+00 0.11789152E+04</pdfrwt>
<totfact> 0.11685001E+00</totfact>
</mgrwt>
</event>
<event>
 8    1  0.1439553E-005  0.1072281E+04  0.7818608E-02  0.8709491E-01
          1   -1    0    0  502    0  0.00000000000E+00  0.00000000000E+00  0.13896594546E+04  0.13896594546E+04  0.00000000000E+00 0. -1.
         -1   -1    0    0    0  501 -0.00000000000E+00 -0.00000000000E+00 -0.82799677894E+03  0.82799677894E+03  0.00000000000E+00 0.  1.
    9000010    2    1    2  502    0 -0.26285904601E+03  0.20500872470E+03  0.31015919856E+03  0.11139000601E+04  0.10165879993E+04 0.  0.
   -9000010    2    1    2    0  501  0.26285904601E+03 -0.20500872470E+03  0.25150347707E+03  0.11037561734E+04  0.10217143613E+04 0.  0.
        -13    1    3    3    0    0 -0.44174793485E+03  0.40977160390E+03 -0.11092073750E+03  0.61266420368E+03  0.10566000000E+00 0.  1.
          4    1    3    3  502    0  0.17888888884E+03 -0.20476287920E+03  0.42107993605E+03  0.50123585645E+03  0.00000000000E+00 0.  1.
         13    1    4    4    0    0  0.21648968939E+03 -0.14890065110E+03 -0.38334415237E+03  0.46474933010E+03  0.10566000000E+00 0. -1.
         -4    1    4    4    0  501  0.46369356618E+02 -0.56108073604E+02  0.63484762943E+03  0.63900684328E+03  0.00000000000E+00 0. -1.
<mgrwt>
<rscale>  2 0.10722813E+04</rscale>
<asrwt>0</asrwt>
<pdfrwt beam="1">  1        1 0.21379376E+00 0.10722813E+04</pdfrwt>
<pdfrwt beam="2">  1       -1 0.12738412E+00 0.10722813E+04</pdfrwt>
<totfact> 0.62134297E+00</totfact>
</mgrwt>
</event>
<event>
 8    1  0.1439553E-005  0.1295369E+04  0.7818608E-02  0.8538011E-01
         -2   -1    0    0    0  501 -0.00000000000E+00  0.00000000000E+00  0.19606251188E+04  0.19606251188E+04  0.00000000000E+00 0. -1.
          2   -1    0    0  502    0  0.00000000000E+00 -0.00000000000E+00 -0.88028721473E+03  0.88028721473E+03  0.00000000000E+00 0.  1.
    9000010    2    1    2  502    0  0.81376853721E+03 -0.14377415534E+03  0.30530863578E+03  0.13352154279E+04  0.10033427311E+04 0.  0.
   -9000010    2    1    2    0  501 -0.81376853721E+03  0.14377415534E+03  0.77502926833E+03  0.15056969057E+04  0.99174722840E+03 0.  0.
        -13    1    3    3    0    0  0.63757824463E+03  0.33296332092E+03 -0.40582995526E+02  0.72042874859E+03  0.10566000000E+00 0.  1.
          4    1    3    3  502    0  0.17619029258E+03 -0.47673747626E+03  0.34589163131E+03  0.61478667933E+03  0.00000000000E+00 0.  1.
         13    1    4    4    0    0 -0.38766537975E+03 -0.12542317747E+03 -0.16458764271E+03  0.43943659770E+03  0.10566000000E+00 0. -1.
         -4    1    4    4    0  501 -0.42610315746E+03  0.26919733281E+03  0.93961691104E+03  0.10662603080E+04  0.00000000000E+00 0. -1.
<mgrwt>
<rscale>  2 0.12953687E+04</rscale>
<asrwt>0</asrwt>
<pdfrwt beam="2">  1        2 0.13542880E+00 0.12953687E+04</pdfrwt>
<pdfrwt beam="1">  1       -2 0.30163463E+00 0.12953687E+04</pdfrwt>
<totfact> 0.74615564E-01</totfact>
</mgrwt>
</event>
<event>
 8    1  0.1439553E-005  0.1058156E+04  0.7818608E-02  0.8721788E-01
          1   -1    0    0  502    0  0.00000000000E+00  0.00000000000E+00  0.20514480059E+04  0.20514480059E+04  0.00000000000E+00 0. -1.
         -1   -1    0    0    0  501 -0.00000000000E+00 -0.00000000000E+00 -0.57133895912E+03  0.57133895912E+03  0.00000000000E+00 0.  1.
    9000010    2    1    2  502    0 -0.26433639596E+03 -0.20860247193E+03  0.10222426452E+04  0.14768340373E+04  0.10112714900E+04 0.  0.
   -9000010    2    1    2    0  501  0.26433639596E+03  0.20860247193E+03  0.45786640151E+03  0.11459529277E+04  0.99507675552E+03 0.  0.
        -13    1    3    3    0    0  0.23954939817E+03  0.10970431382E+03 -0.32373872785E+02  0.26545626653E+03  0.10566000000E+00 0.  1.
          4    1    3    3  502    0 -0.50388579413E+03 -0.31830678576E+03  0.10546165180E+04  0.12113777708E+04  0.00000000000E+00 0.  1.
         13    1    4    4    0    0 -0.18795956239E+03  0.27891437703E+01 -0.23020488683E+03  0.29720511015E+03  0.10566000000E+00 0. -1.
         -4    1    4    4    0  501  0.45229595834E+03  0.20581332816E+03  0.68807128834E+03  0.84874781756E+03  0.00000000000E+00 0. -1.
<mgrwt>
<rscale>  2 0.10581563E+04</rscale>
<asrwt>0</asrwt>
<pdfrwt beam="1">  1        1 0.31560738E+00 0.10581563E+04</pdfrwt>
<pdfrwt beam="2">  1       -1 0.87898302E-01 0.10581563E+04</pdfrwt>
<totfact> 0.46056621E+00</totfact>
</mgrwt>
</event>
<event>
 8    1  0.1439553E-005  0.1122149E+04  0.7818608E-02  0.8667611E-01
         -1   -1    0    0    0  501 -0.00000000000E+00  0.00000000000E+00  0.90939493418E+03  0.90939493418E+03  0.00000000000E+00 0.  1.
          1   -1    0    0  502    0  0.00000000000E+00 -0.00000000000E+00 -0.15953644176E+04  0.15953644176E+04  0.00000000000E+00 0. -1.
    9000010    2    1    2  502    0  0.60957871962E+03 -0.50133883519E+01  0.12045263684E+03  0.10904164316E+04  0.89604007002E+03 0.  0.
   -9000010    2    1    2    0  501 -0.60957871962E+03  0.50133883519E+01 -0.80642212030E+03  0.14143429202E+04  0.98916020463E+03 0.  0.
        -13    1    3    3    0    0  0.15614837001E+03 -0.42787410108E+03 -0.15248678369E+02  0.45573138271E+03  0.10566000000E+00 0.  1.
          4    1    3    3  502    0  0.45343034962E+03  0.42286071273E+03  0.13570131521E+03  0.63468504888E+03  0.00000000000E+00 0.  1.
         13    1    4    4    0    0  0.45028734568E+02 -0.27825107438E+03  0.63959851063E+02  0.28903653929E+03  0.10566000000E+00 0. -1.
         -4    1    4    4    0  501 -0.65460745419E+03  0.28326446273E+03 -0.87038197136E+03  0.11253063809E+04  0.00000000000E+00 0. -1.
<mgrwt>
<rscale>  2 0.11221491E+04</rscale>
<asrwt>0</asrwt>
<pdfrwt beam="2">  1        1 0.24544068E+00 0.11221491E+04</pdfrwt>
<pdfrwt beam="1">  1       -1 0.13990691E+00 0.11221491E+04</pdfrwt>
<totfact> 0.33723375E+00</totfact>
</mgrwt>
</event>
<event>
 8    1  0.1439553E-005  0.1678467E+04  0.7818608E-02  0.8313596E-01
          1   -1    0    0  502    0  0.00000000000E+00  0.00000000000E+00  0.96924856510E+03  0.96924856510E+03  0.00000000000E+00 0.  1.
         -1   -1    0    0    0  501 -0.00000000000E+00 -0.00000000000E+00 -0.30685321573E+04  0.30685321573E+04  0.00000000000E+00 0. -1.
    9000010    2    1    2  502    0  0.10160630964E+04  0.85248217964E+03 -0.15031818745E+04  0.22409789157E+04  0.10016589592E+04 0.  0.
   -9000010    2    1    2    0  501 -0.10160630964E+04 -0.85248217964E+03 -0.59610171774E+03  0.17968018067E+04  0.10554853822E+04 0.  0.
        -13    1    3    3    0    0  0.81804552267E+03  0.71598992948E+02 -0.98812816019E+03  0.12848043295E+04  0.10566000000E+00 0.  1.
          4    1    3    3  502    0  0.19801757372E+03  0.78088318669E+03 -0.51505371427E+03  0.95617458622E+03  0.00000000000E+00 0.  1.
         13    1    4    4    0    0 -0.82254387832E+03 -0.81129896699E+03 -0.87891850900E+03  0.14516480986E+04  0.10566000000E+00 0. -1.
         -4    1    4    4    0  501 -0.19351921807E+03 -0.41183212653E+02  0.28281679126E+03  0.34515370805E+03  0.00000000000E+00 0. -1.
<mgrwt>
<rscale>  2 0.16784669E+04</rscale>
<asrwt>0</asrwt>
<pdfrwt beam="1">  1        1 0.14911517E+00 0.16784669E+04</pdfrwt>
<pdfrwt beam="2">  1       -1 0.47208186E+00 0.16784669E+04</pdfrwt>
<totfact> 0.21376661E-01</totfact>
</mgrwt>
</event>
<event>
 8    1  0.1439553E-005  0.1035991E+04  0.7818608E-02  0.8741491E-01
          2   -1    0    0  502    0  0.00000000000E+00  0.00000000000E+00  0.31812850686E+04  0.31812850686E+04  0.00000000000E+00 0. -1.
         -2   -1    0    0    0  501 -0.00000000000E+00 -0.00000000000E+00 -0.34118733613E+03  0.34118733613E+03  0.00000000000E+00 0.  1.
    9000010    2    1    2  502    0 -0.21590013780E+03 -0.17921562294E+03  0.16125671386E+04  0.19192592116E+04  0.10022235458E+04 0.  0.
   -9000010    2    1    2    0  501  0.21590013780E+03  0.17921562294E+03  0.12275305938E+04  0.16032131931E+04  0.99233566635E+03 0.  0.
        -13    1    3    3    0    0  0.18754716290E+03  0.32481398454E+03  0.78187106455E+03  0.86717958671E+03  0.10566000000E+00 0.  1.
          4    1    3    3  502    0 -0.40344730070E+03 -0.50402960748E+03  0.83069607406E+03  0.10520796249E+04  0.00000000000E+00 0.  1.
         13    1    4    4    0    0  0.68224263466E+02 -0.26969196736E+03 -0.10158935374E+02  0.27837299171E+03  0.10566000000E+00 0. -1.
         -4    1    4    4    0  501  0.14767587433E+03  0.44890759030E+03  0.12376895292E+04  0.13248402014E+04  0.00000000000E+00 0. -1.
<mgrwt>
<rscale>  2 0.10359908E+04</rscale>
<asrwt>0</asrwt>
<pdfrwt beam="1">  1        2 0.48942845E+00 0.10359908E+04</pdfrwt>
<pdfrwt beam="2">  1       -2 0.52490362E-01 0.10359908E+04</pdfrwt>
<totfact> 0.70474027E+00</totfact>
</mgrwt>
</event>
<event>
 8    1  0.1439553E-005  0.1246819E+04  0.7818608E-02  0.8572116E-01
          1   -1    0    0  502    0  0.00000000000E+00  0.00000000000E+00  0.43783157973E+03  0.43783157973E+03  0.00000000000E+00 0. -1.
         -1   -1    0    0    0  501 -0.00000000000E+00 -0.00000000000E+00 -0.45564598321E+04  0.45564598321E+04  0.00000000000E+00 0.  1.
    9000010    2    1    2  502    0  0.25946272626E+03 -0.69144639154E+03 -0.32369093458E+04  0.34699504631E+04  0.10087393542E+04 0.  0.
   -9000010    2    1    2    0  501 -0.25946272626E+03  0.69144639154E+03 -0.88171890654E+03  0.15243409487E+04  0.10003839658E+04 0.  0.
        -13    1    3    3    0    0  0.32180340886E+03  0.12860487490E+03 -0.47358181695E+03  0.58683591942E+03  0.10566000000E+00 0.  1.
          4    1    3    3  502    0 -0.62340682603E+02 -0.82005126644E+03 -0.27633275289E+04  0.28831145437E+04  0.00000000000E+00 0.  1.
         13    1    4    4    0    0 -0.10381941230E+03 -0.25348172246E+03 -0.28854112669E+03  0.39785354962E+03  0.10566000000E+00 0. -1.
         -4    1    4    4    0  501 -0.15564331396E+03  0.94492811400E+03 -0.59317777986E+03  0.11264873991E+04  0.00000000000E+00 0. -1.
<mgrwt>
<rscale>  2 0.12468191E+04</rscale>
<asrwt>0</asrwt>
<pdfrwt beam="1">  1        1 0.67358707E-01 0.12468191E+04</pdfrwt>
<pdfrwt beam="2">  1       -1 0.70099379E+00 0.12468191E+04</pdfrwt>
<totfact> 0.77638499E-02</totfact>
</mgrwt>
</event>
<event>
 8    1  0.1439553E-005  0.1794279E+04  0.7818608E-02  0.8257719E-01
         -2   -1    0    0    0  501 -0.00000000000E+00  0.00000000000E+00  0.11738011126E+04  0.11738011126E+04  0.00000000000E+00 0.  1.
          2   -1    0    0  502    0  0.00000000000E+00 -0.00000000000E+00 -0.32338339633E+04  0.32338339633E+04  0.00000000000E+00 0. -1.
    9000010    2    1    2  502    0 -0.47314450458E+03 -0.14134109809E+04 -0.18900640055E+04  0.26078638293E+04  0.10035016114E+04 0.  0.
   -9000010    2    1    2    0  501  0.47314450458E+03  0.14134109809E+04 -0.16996884516E+03  0.17997712466E+04  0.99432932606E+03 0.  0.
        -13    1    3    3    0    0 -0.68209167950E+03 -0.51266554757E+03 -0.71941316535E+03  0.11160781050E+04  0.10566000000E+00 0.  1.
          4    1    3    3  502    0  0.20894717492E+03 -0.90074543335E+03 -0.11706508401E+04  0.14917857243E+04  0.00000000000E+00 0.  1.
         13    1    4    4    0    0 -0.51404422896E+01 -0.76901503987E+02  0.18011953058E+03  0.19591661983E+03  0.10566000000E+00 0. -1.
         -4    1    4    4    0  501  0.47828494687E+03  0.14903124849E+04 -0.35008837575E+03  0.16038546268E+04  0.00000000000E+00 0. -1.
<mgrwt>
<rscale>  2 0.17942788E+04</rscale>
<asrwt>0</asrwt>
<pdfrwt beam="2">  1        2 0.49751291E+00 0.17942788E+04</pdfrwt>
<pdfrwt beam="1">  1       -2 0.18058479E+00 0.17942788E+04</pdfrwt>
<totfact> 0.27314287E-01</totfact>
</mgrwt>
</event>
<event>
 8    1  0.1439553E-005  0.1572570E+04  0.7818608E-02  0.8368918E-01
         -4   -1    0    0    0  501 -0.00000000000E+00  0.00000000000E+00  0.24924730309E+04  0.24924730309E+04  0.00000000000E+00 0. -1.
          4   -1    0    0  502    0  0.00000000000E+00 -0.00000000000E+00 -0.10380396914E+04  0.10380396914E+04  0.00000000000E+00 0.  1.
    9000010    2    1    2  502    0  0.67451116131E+03  0.10339555566E+04  0.36096340072E+03  0.16236630071E+04  0.99093772969E+03 0.  0.
   -9000010    2    1    2    0  501 -0.67451116131E+03 -0.10339555566E+04  0.10934699388E+04  0.19068497152E+04  0.95727212937E+03 0.  0.
        -13    1    3    3    0    0  0.88048398298E+03  0.10361010613E+04  0.22848259976E+03  0.13787536992E+04  0.10566000000E+00 0.  1.
          4    1    3    3  502    0 -0.20597282167E+03 -0.21455047057E+01  0.13248080096E+03  0.24490930787E+03  0.00000000000E+00 0.  1.
         13    1    4    4    0    0  0.19151214205E+03 -0.47389574057E+03  0.22461969206E+03  0.55830823988E+03  0.10566000000E+00 0. -1.
         -4    1    4    4    0  501 -0.86602330336E+03 -0.56005981600E+03  0.86885024671E+03  0.13485414753E+04  0.00000000000E+00 0. -1.
<mgrwt>
<rscale>  2 0.15725698E+04</rscale>
<asrwt>0</asrwt>
<pdfrwt beam="2">  1        4 0.15969841E+00 0.15725698E+04</pdfrwt>
<pdfrwt beam="1">  1       -4 0.38345739E+00 0.15725698E+04</pdfrwt>
<totfact> 0.72499051E-02</totfact>
</mgrwt>
</event>
<event>
 8    1  0.1439553E-005  0.1046891E+04  0.7818608E-02  0.8731738E-01
          1   -1    0    0  502    0  0.00000000000E+00  0.00000000000E+00  0.38936320797E+03  0.38936320797E+03  0.00000000000E+00 0.  1.
         -1   -1    0    0    0  501 -0.00000000000E+00 -0.00000000000E+00 -0.28182403106E+04  0.28182403106E+04  0.00000000000E+00 0. -1.
    9000010    2    1    2  502    0  0.17945063008E+03  0.20893301678E+03 -0.12609412630E+04  0.16342924723E+04  0.10025385191E+04 0.  0.
   -9000010    2    1    2    0  501 -0.17945063008E+03 -0.20893301678E+03 -0.11679358397E+04  0.15733110462E+04  0.10175352517E+04 0.  0.
        -13    1    3    3    0    0 -0.17305409412E+02 -0.18586239420E+03 -0.11688657001E+04  0.11836770433E+04  0.10566000000E+00 0.  1.
          4    1    3    3  502    0  0.19675603949E+03  0.39479541098E+03 -0.92075562855E+02  0.45061542903E+03  0.00000000000E+00 0.  1.
         13    1    4    4    0    0 -0.11777659741E+03 -0.16013074660E+03  0.15249801489E+03  0.25053710027E+03  0.10566000000E+00 0. -1.
         -4    1    4    4    0  501 -0.61674032668E+02 -0.48802270179E+02 -0.13204338545E+04  0.13227739460E+04  0.00000000000E+00 0. -1.
<mgrwt>
<rscale>  2 0.10468914E+04</rscale>
<asrwt>0</asrwt>
<pdfrwt beam="1">  1        1 0.59902032E-01 0.10468914E+04</pdfrwt>
<pdfrwt beam="2">  1       -1 0.43357544E+00 0.10468914E+04</pdfrwt>
<totfact> 0.10077043E+00</totfact>
</mgrwt>
</event>
<event>
 8    1  0.1439553E-005  0.1060224E+04  0.7818608E-02  0.8719975E-01
          1   -1    0    0  502    0  0.00000000000E+00  0.00000000000E+00  0.75946175953E+03  0.75946175953E+03  0.00000000000E+00 0.  1.
         -1   -1    0    0    0  501 -0.00000000000E+00 -0.00000000000E+00 -0.16716232464E+04  0.16716232464E+04  0.00000000000E+00 0. -1.
    9000010    2    1    2  502    0  0.13997713098E+03  0.34964436786E+03 -0.86423721926E+03  0.13613924146E+04  0.98216014686E+03 0.  0.
   -9000010    2    1    2    0  501 -0.13997713098E+03 -0.34964436786E+03 -0.47924267572E+02  0.10696925913E+04  0.10000503604E+04 0.  0.
        -13    1    3    3    0    0  0.34484611302E+03  0.43756975989E+03 -0.96692209732E+03  0.11159410781E+04  0.10566000000E+00 0.  1.
          4    1    3    3  502    0 -0.20486898204E+03 -0.87925392030E+02  0.10268487806E+03  0.24545133641E+03  0.00000000000E+00 0.  1.
         13    1    4    4    0    0  0.38039631888E+03 -0.35916908226E+03  0.90970511839E+02  0.53101735777E+03  0.10566000000E+00 0. -1.
         -4    1    4    4    0  501 -0.52037344986E+03  0.95247143916E+01 -0.13889477941E+03  0.53867523356E+03  0.00000000000E+00 0. -1.
<mgrwt>
<rscale>  2 0.10602238E+04</rscale>
<asrwt>0</asrwt>
<pdfrwt beam="1">  1        1 0.11684027E+00 0.10602238E+04</pdfrwt>
<pdfrwt beam="2">  1       -1 0.25717280E+00 0.10602238E+04</pdfrwt>
<totfact> 0.13554131E+00</totfact>
</mgrwt>
</event>
<event>
 8    1  0.1439553E-005  0.1077389E+04  0.7818608E-02  0.8705093E-01
         -1   -1    0    0    0  501 -0.00000000000E+00  0.00000000000E+00  0.56030828228E+03  0.56030828228E+03  0.00000000000E+00 0.  1.
          1   -1    0    0  502    0  0.00000000000E+00 -0.00000000000E+00 -0.20841858280E+04  0.20841858280E+04  0.00000000000E+00 0. -1.
    9000010    2    1    2  502    0 -0.49710972657E+03  0.11429126645E+03 -0.81099771815E+03  0.13107951831E+04  0.89458713351E+03 0.  0.
   -9000010    2    1    2    0  501  0.49710972657E+03 -0.11429126645E+03 -0.71287982760E+03  0.13336989272E+04  0.10051739182E+04 0.  0.
        -13    1    3    3    0    0 -0.25431057597E+03  0.17945186166E+03 -0.96637530695E+03  0.10152625694E+04  0.10566000000E+00 0.  1.
          4    1    3    3  502    0 -0.24279915060E+03 -0.65160595209E+02  0.15537758880E+03  0.29553261377E+03  0.00000000000E+00 0.  1.
         13    1    4    4    0    0 -0.19841778137E+03 -0.11782330332E+02  0.12893424098E+03  0.23692295991E+03  0.10566000000E+00 0. -1.
         -4    1    4    4    0  501  0.69552750794E+03 -0.10250893611E+03 -0.84181406858E+03  0.10967759673E+04  0.00000000000E+00 0. -1.
<mgrwt>
<rscale>  2 0.10773893E+04</rscale>
<asrwt>0</asrwt>
<pdfrwt beam="2">  1        1 0.32064398E+00 0.10773893E+04</pdfrwt>
<pdfrwt beam="1">  1       -1 0.86201274E-01 0.10773893E+04</pdfrwt>
<totfact> 0.45091538E+00</totfact>
</mgrwt>
</event>
<event>
 8    1  0.1439553E-005  0.1561847E+04  0.7818608E-02  0.8374769E-01
          2   -1    0    0  502    0  0.00000000000E+00  0.00000000000E+00  0.27337173809E+04  0.27337173809E+04  0.00000000000E+00 0. -1.
         -2   -1    0    0    0  501 -0.00000000000E+00 -0.00000000000E+00 -0.89244108400E+03  0.89244108400E+03  0.00000000000E+00 0.  1.
    9000010    2    1    2  502    0 -0.79780980734E+03 -0.88579098139E+03  0.90663697656E+03  0.18126199405E+04  0.10210163025E+04 0.  0.
   -9000010    2    1    2    0  501  0.79780980734E+03  0.88579098139E+03  0.93463932030E+03  0.18135385244E+04  0.99711843271E+03 0.  0.
        -13    1    3    3    0    0 -0.97469602099E+03 -0.76839088802E+03  0.98685773592E+03  0.15856686578E+04  0.10566000000E+00 0.  1.
          4    1    3    3  502    0  0.17688621364E+03 -0.11740009337E+03 -0.80220759362E+02  0.22695128273E+03  0.00000000000E+00 0.  1.
         13    1    4    4    0    0  0.98279014146E+02 -0.10473430482E+03 -0.13459174344E+03  0.19683238503E+03  0.10566000000E+00 0. -1.
         -4    1    4    4    0  501  0.69953079320E+03  0.99052528621E+03  0.10692310637E+04  0.16167061393E+04  0.00000000000E+00 0. -1.
<mgrwt>
<rscale>  2 0.15618472E+04</rscale>
<asrwt>0</asrwt>
<pdfrwt beam="1">  1        2 0.42057190E+00 0.15618472E+04</pdfrwt>
<pdfrwt beam="2">  1       -2 0.13729863E+00 0.15618472E+04</pdfrwt>
<totfact> 0.13646772E+00</totfact>
</mgrwt>
</event>
<event>
 8    1  0.1439553E-005  0.1130373E+04  0.7818608E-02  0.8660922E-01
         -2   -1    0    0    0  501 -0.00000000000E+00  0.00000000000E+00  0.45495968114E+03  0.45495968114E+03  0.00000000000E+00 0. -1.
          2   -1    0    0  502    0  0.00000000000E+00 -0.00000000000E+00 -0.34888488850E+04  0.34888488850E+04  0.00000000000E+00 0.  1.
    9000010    2    1    2  502    0 -0.43361685525E+03 -0.26337303176E+03 -0.23904493339E+04  0.26453140447E+04  0.10129409884E+04 0.  0.
   -9000010    2    1    2    0  501  0.43361685525E+03  0.26337303176E+03 -0.64343986995E+03  0.12984945215E+04  0.10073153553E+04 0.  0.
        -13    1    3    3    0    0 -0.13816898454E+03 -0.17124228124E+01 -0.22048777386E+04  0.22092033528E+04  0.10566000000E+00 0.  1.
          4    1    3    3  502    0 -0.29544787072E+03 -0.26166060895E+03 -0.18557159532E+03  0.43611069189E+03  0.00000000000E+00 0.  1.
         13    1    4    4    0    0 -0.23347098727E+03  0.26318013085E+03 -0.50778651574E+03  0.61775370488E+03  0.10566000000E+00 0. -1.
         -4    1    4    4    0  501  0.66708784252E+03  0.19290091283E+00 -0.13565335421E+03  0.68074081658E+03  0.00000000000E+00 0. -1.
<mgrwt>
<rscale>  2 0.11303730E+04</rscale>
<asrwt>0</asrwt>
<pdfrwt beam="2">  1        2 0.53674599E+00 0.11303730E+04</pdfrwt>
<pdfrwt beam="1">  1       -2 0.69993796E-01 0.11303730E+04</pdfrwt>
<totfact> 0.24000586E+00</totfact>
</mgrwt>
</event>
<event>
 8    1  0.1439553E-005  0.1146795E+04  0.7818608E-02  0.8647741E-01
          2   -1    0    0  502    0  0.00000000000E+00  0.00000000000E+00  0.23921478467E+04  0.23921478467E+04  0.00000000000E+00 0. -1.
         -2   -1    0    0    0  501 -0.00000000000E+00 -0.00000000000E+00 -0.55100975261E+03  0.55100975261E+03  0.00000000000E+00 0.  1.
    9000010    2    1    2  502    0  0.43799399181E+03 -0.56318844870E+03  0.84183577984E+03  0.13904691688E+04  0.84598880811E+03 0.  0.
   -9000010    2    1    2    0  501 -0.43799399181E+03  0.56318844870E+03  0.99930231426E+03  0.15526884306E+04  0.95037691549E+03 0.  0.
        -13    1    3    3    0    0  0.72160824004E+02 -0.34472349042E+03  0.89429948383E+03  0.96115193768E+03  0.10566000000E+00 0.  1.
          4    1    3    3  502    0  0.36583316781E+03 -0.21846495828E+03 -0.52463703992E+02  0.42931723108E+03  0.00000000000E+00 0.  1.
         13    1    4    4    0    0 -0.58368455120E+03  0.56306429643E+03  0.34324837104E+03  0.88065232221E+03  0.10566000000E+00 0. -1.
         -4    1    4    4    0  501  0.14569055939E+03  0.12415227098E+00  0.65605394322E+03  0.67203610835E+03  0.00000000000E+00 0. -1.
<mgrwt>
<rscale>  2 0.11467950E+04</rscale>
<asrwt>0</asrwt>
<pdfrwt beam="1">  1        2 0.36802274E+00 0.11467950E+04</pdfrwt>
<pdfrwt beam="2">  1       -2 0.84770733E-01 0.11467950E+04</pdfrwt>
<totfact> 0.75422406E+00</totfact>
</mgrwt>
</event>
<event>
 8    1  0.1439553E-005  0.1165298E+04  0.7818608E-02  0.8633162E-01
          2   -1    0    0  502    0  0.00000000000E+00  0.00000000000E+00  0.62013044329E+03  0.62013044329E+03  0.00000000000E+00 0. -1.
         -2   -1    0    0    0  501 -0.00000000000E+00 -0.00000000000E+00 -0.23667881601E+04  0.23667881601E+04  0.00000000000E+00 0.  1.
    9000010    2    1    2  502    0 -0.60798566324E+03 -0.12723926129E+02 -0.12760633394E+04  0.17226472097E+04  0.98456452204E+03 0.  0.
   -9000010    2    1    2    0  501  0.60798566324E+03  0.12723926129E+02 -0.47059437742E+03  0.12642713937E+04  0.10035510071E+04 0.  0.
        -13    1    3    3    0    0 -0.33845572559E+03 -0.49715475233E+03 -0.62108910011E+03  0.86456162730E+03  0.10566000000E+00 0.  1.
          4    1    3    3  502    0 -0.26952993765E+03  0.48443082621E+03 -0.65497423930E+03  0.85808558245E+03  0.00000000000E+00 0.  1.
         13    1    4    4    0    0  0.19612417894E+03 -0.43690820815E+03  0.23464039387E+02  0.47948310525E+03  0.10566000000E+00 0. -1.
         -4    1    4    4    0  501  0.41186148430E+03  0.44963213428E+03 -0.49405841681E+03  0.78478828842E+03  0.00000000000E+00 0. -1.
<mgrwt>
<rscale>  2 0.11652975E+04</rscale>
<asrwt>0</asrwt>
<pdfrwt beam="1">  1        2 0.95404684E-01 0.11652975E+04</pdfrwt>
<pdfrwt beam="2">  1       -2 0.36412126E+00 0.11652975E+04</pdfrwt>
<totfact> 0.43051810E-01</totfact>
</mgrwt>
</event>
<event>
 8    1  0.1439553E-005  0.1455744E+04  0.7818608E-02  0.8435434E-01
          1   -1    0    0  502    0  0.00000000000E+00  0.00000000000E+00  0.25924678276E+04  0.25924678276E+04  0.00000000000E+00 0.  1.
         -1   -1    0    0    0  501 -0.00000000000E+00 -0.00000000000E+00 -0.91589959283E+03  0.91589959283E+03  0.00000000000E+00 0. -1.
    9000010    2    1    2  502    0 -0.95328352802E+03 -0.47336557422E+03  0.26299779507E+03  0.14790391700E+04  0.99275604984E+03 0.  0.
   -9000010    2    1    2    0  501  0.95328352802E+03  0.47336557422E+03  0.14135704397E+04  0.20293282504E+04  0.99356293628E+03 0.  0.
        -13    1    3    3    0    0 -0.50415173100E+03 -0.58078558441E+03  0.54074270412E+03  0.94015081032E+03  0.10566000000E+00 0.  1.
          4    1    3    3  502    0 -0.44913179701E+03  0.10742001019E+03 -0.27774490905E+03  0.53888835966E+03  0.00000000000E+00 0.  1.
         13    1    4    4    0    0  0.78170186535E+03 -0.69598473802E+02  0.43539177393E+03  0.89747855787E+03  0.10566000000E+00 0. -1.
         -4    1    4    4    0  501  0.17158166266E+03  0.54296404802E+03  0.97817866574E+03  0.11318496925E+04  0.00000000000E+00 0. -1.
<mgrwt>
<rscale>  2 0.14557439E+04</rscale>
<asrwt>0</asrwt>
<pdfrwt beam="1">  1        1 0.39884120E+00 0.14557439E+04</pdfrwt>
<pdfrwt beam="2">  1       -1 0.14090763E+00 0.14557439E+04</pdfrwt>
<totfact> 0.49925529E-01</totfact>
</mgrwt>
</event>
<event>
 8    1  0.1439553E-005  0.1270794E+04  0.7818608E-02  0.8555078E-01
          2   -1    0    0  502    0  0.00000000000E+00  0.00000000000E+00  0.17557877334E+04  0.17557877334E+04  0.00000000000E+00 0. -1.
         -2   -1    0    0    0  501 -0.00000000000E+00 -0.00000000000E+00 -0.92580714048E+03  0.92580714048E+03  0.00000000000E+00 0.  1.
    9000010    2    1    2  502    0 -0.80115632633E+03 -0.17076222058E+03  0.52657929638E+03  0.13874049685E+04  0.98822851401E+03 0.  0.
   -9000010    2    1    2    0  501  0.80115632633E+03  0.17076222058E+03  0.30340129652E+03  0.12941899054E+04  0.95491568702E+03 0.  0.
        -13    1    3    3    0    0  0.47725257300E+02 -0.22004980567E+03 -0.17487979805E+03  0.28510098577E+03  0.10566000000E+00 0.  1.
          4    1    3    3  502    0 -0.84888158363E+03  0.49287585090E+02  0.70145909443E+03  0.11023039827E+04  0.00000000000E+00 0.  1.
         13    1    4    4    0    0  0.77545135267E+03  0.22511527804E+03  0.59082953064E+03  0.10005404710E+04  0.10566000000E+00 0. -1.
         -4    1    4    4    0  501  0.25704973668E+02 -0.54353057464E+02 -0.28742823412E+03  0.29364943436E+03  0.00000000000E+00 0. -1.
<mgrwt>
<rscale>  2 0.12707937E+04</rscale>
<asrwt>0</asrwt>
<pdfrwt beam="1">  1        2 0.27012119E+00 0.12707937E+04</pdfrwt>
<pdfrwt beam="2">  1       -2 0.14243187E+00 0.12707937E+04</pdfrwt>
<totfact> 0.44210854E+00</totfact>
</mgrwt>
</event>
<event>
 8    1  0.1439553E-005  0.1290957E+04  0.7818608E-02  0.8541047E-01
         -2   -1    0    0    0  501 -0.00000000000E+00  0.00000000000E+00  0.10557622835E+04  0.10557622835E+04  0.00000000000E+00 0. -1.
          2   -1    0    0  502    0  0.00000000000E+00 -0.00000000000E+00 -0.16022860756E+04  0.16022860756E+04  0.00000000000E+00 0.  1.
    9000010    2    1    2  502    0 -0.22615251783E+03  0.79646143395E+03 -0.43474356924E+03  0.13608966093E+04  0.98870715237E+03 0.  0.
   -9000010    2    1    2    0  501  0.22615251783E+03 -0.79646143395E+03 -0.11178022289E+03  0.12971517497E+04  0.99227620476E+03 0.  0.
        -13    1    3    3    0    0 -0.46885566427E+03  0.27882912589E+03  0.12625117661E+03  0.55992024979E+03  0.10566000000E+00 0.  1.
          4    1    3    3  502    0  0.24270314644E+03  0.51763230805E+03 -0.56099474586E+03  0.80097635952E+03  0.00000000000E+00 0.  1.
         13    1    4    4    0    0  0.44955040381E+03 -0.80194143396E+03 -0.33767385762E+03  0.97940250886E+03  0.10566000000E+00 0. -1.
         -4    1    4    4    0  501 -0.22339788598E+03  0.54800000172E+01  0.22589363474E+03  0.31774924087E+03  0.00000000000E+00 0. -1.
<mgrwt>
<rscale>  2 0.12909566E+04</rscale>
<asrwt>0</asrwt>
<pdfrwt beam="2">  1        2 0.24650555E+00 0.12909566E+04</pdfrwt>
<pdfrwt beam="1">  1       -2 0.16242497E+00 0.12909566E+04</pdfrwt>
<totfact> 0.35675194E+00</totfact>
</mgrwt>
</event>
<event>
 8    1  0.1439553E-005  0.1059906E+04  0.7818608E-02  0.8720254E-01
          1   -1    0    0  502    0  0.00000000000E+00  0.00000000000E+00  0.19269266160E+04  0.19269266160E+04  0.00000000000E+00 0. -1.
         -1   -1    0    0    0  501 -0.00000000000E+00 -0.00000000000E+00 -0.58434712811E+03  0.58434712811E+03  0.00000000000E+00 0.  1.
    9000010    2    1    2  502    0 -0.23109723761E+03 -0.42921932582E+03  0.71848054941E+03  0.13223258111E+04  0.99734451821E+03 0.  0.
   -9000010    2    1    2    0  501  0.23109723761E+03  0.42921932582E+03  0.62409893846E+03  0.11889479330E+04  0.88682723202E+03 0.  0.
        -13    1    3    3    0    0  0.12986447915E+03  0.27250997419E+03  0.31402433387E+03  0.43558898334E+03  0.10566000000E+00 0.  1.
          4    1    3    3  502    0 -0.36096171676E+03 -0.70172930001E+03  0.40445621554E+03  0.88673682779E+03  0.00000000000E+00 0.  1.
         13    1    4    4    0    0  0.24078843076E+03  0.66842570227E+03  0.26691915126E+03  0.75895838642E+03  0.10566000000E+00 0. -1.
         -4    1    4    4    0  501 -0.96911931516E+01 -0.23920637645E+03  0.35717978720E+03  0.42998954655E+03  0.00000000000E+00 0. -1.
<mgrwt>
<rscale>  2 0.10599057E+04</rscale>
<asrwt>0</asrwt>
<pdfrwt beam="1">  1        1 0.29645024E+00 0.10599057E+04</pdfrwt>
<pdfrwt beam="2">  1       -1 0.89899559E-01 0.10599057E+04</pdfrwt>
<totfact> 0.54661468E+00</totfact>
</mgrwt>
</event>
<event>
 8    1  0.1439553E-005  0.1119058E+04  0.7818608E-02  0.8670141E-01
          2   -1    0    0  502    0  0.00000000000E+00  0.00000000000E+00  0.34120238396E+04  0.34120238396E+04  0.00000000000E+00 0. -1.
         -2   -1    0    0    0  501 -0.00000000000E+00 -0.00000000000E+00 -0.37381357147E+03  0.37381357147E+03  0.00000000000E+00 0.  1.
    9000010    2    1    2  502    0 -0.49301677027E+03 -0.16505247268E+02  0.17636164930E+04  0.20845811791E+04  0.99589035504E+03 0.  0.
   -9000010    2    1    2    0  501  0.49301677027E+03  0.16505247268E+02  0.12745937751E+04  0.17012562319E+04  0.10130871216E+04 0.  0.
        -13    1    3    3    0    0 -0.65323686298E+03  0.35156747769E+02  0.53669750906E+03  0.84616701866E+03  0.10566000000E+00 0.  1.
          4    1    3    3  502    0  0.16022009271E+03 -0.51661995037E+02  0.12269189839E+04  0.12384141605E+04  0.00000000000E+00 0.  1.
         13    1    4    4    0    0 -0.31347587728E+03 -0.34902918694E+02  0.30128408590E+03  0.43618511087E+03  0.10566000000E+00 0. -1.
         -4    1    4    4    0  501  0.80649264755E+03  0.51408165962E+02  0.97330968924E+03  0.12650711210E+04  0.00000000000E+00 0. -1.
<mgrwt>
<rscale>  2 0.11190578E+04</rscale>
<asrwt>0</asrwt>
<pdfrwt beam="1">  1        2 0.52492672E+00 0.11190578E+04</pdfrwt>
<pdfrwt beam="2">  1       -2 0.57509783E-01 0.11190578E+04</pdfrwt>
<totfact> 0.40752897E+00</totfact>
</mgrwt>
</event>
<event>
 8    1  0.1439553E-005  0.1070879E+04  0.7818608E-02  0.8710703E-01
          1   -1    0    0  502    0  0.00000000000E+00  0.00000000000E+00  0.16265097026E+04  0.16265097026E+04  0.00000000000E+00 0.  1.
         -1   -1    0    0    0  501 -0.00000000000E+00 -0.00000000000E+00 -0.85861469881E+03  0.85861469881E+03  0.00000000000E+00 0. -1.
    9000010    2    1    2  502    0 -0.21670168902E+03 -0.22032752479E+03 -0.13664089902E+03  0.10951325506E+04  0.10417008822E+04 0.  0.
   -9000010    2    1    2    0  501  0.21670168902E+03  0.22032752479E+03  0.90453590284E+03  0.13899918508E+04  0.10091522708E+04 0.  0.
        -13    1    3    3    0    0  0.15203749736E+03  0.33529131705E+03 -0.21071144286E+03  0.42418744820E+03  0.10566000000E+00 0.  1.
          4    1    3    3  502    0 -0.36873918638E+03 -0.55561884184E+03  0.74070543839E+02  0.67094510241E+03  0.00000000000E+00 0.  1.
         13    1    4    4    0    0 -0.31934296397E+03  0.33315207509E+03  0.61945734220E+03  0.77246206622E+03  0.10566000000E+00 0. -1.
         -4    1    4    4    0  501  0.53604465299E+03 -0.11282455031E+03  0.28507856063E+03  0.61752978461E+03  0.00000000000E+00 0. -1.
<mgrwt>
<rscale>  2 0.10708794E+04</rscale>
<asrwt>0</asrwt>
<pdfrwt beam="1">  1        1 0.25023226E+00 0.10708794E+04</pdfrwt>
<pdfrwt beam="2">  1       -1 0.13209457E+00 0.10708794E+04</pdfrwt>
<totfact> 0.37680802E+00</totfact>
</mgrwt>
</event>
<event>
 8    1  0.1439553E-005  0.1144340E+04  0.7818608E-02  0.8649697E-01
          1   -1    0    0  502    0  0.00000000000E+00  0.00000000000E+00  0.19269212172E+04  0.19269212172E+04  0.00000000000E+00 0.  1.
         -1   -1    0    0    0  501 -0.00000000000E+00 -0.00000000000E+00 -0.67980204521E+03  0.67980204521E+03  0.00000000000E+00 0. -1.
    9000010    2    1    2  502    0  0.45799836878E+03  0.26347439644E+03  0.60194040640E+03  0.12951531332E+04  0.10177957173E+04 0.  0.
   -9000010    2    1    2    0  501 -0.45799836878E+03 -0.26347439644E+03  0.64517876555E+03  0.13115701292E+04  0.10123138352E+04 0.  0.
        -13    1    3    3    0    0  0.48457427995E+03 -0.28758529726E+03  0.45491095634E+03  0.72419715917E+03  0.10566000000E+00 0.  1.
          4    1    3    3  502    0 -0.26575911166E+02  0.55105969370E+03  0.14702945005E+03  0.57095597401E+03  0.00000000000E+00 0.  1.
         13    1    4    4    0    0 -0.57736377859E+03  0.23879102653E+03  0.32789160251E+03  0.70560824920E+03  0.10566000000E+00 0. -1.
         -4    1    4    4    0  501  0.11936540981E+03 -0.50226542297E+03  0.31728716303E+03  0.60596187999E+03  0.00000000000E+00 0. -1.
<mgrwt>
<rscale>  2 0.11443396E+04</rscale>
<asrwt>0</asrwt>
<pdfrwt beam="1">  1        1 0.29644941E+00 0.11443396E+04</pdfrwt>
<pdfrwt beam="2">  1       -1 0.10458493E+00 0.11443396E+04</pdfrwt>
<totfact> 0.39194576E+00</totfact>
</mgrwt>
</event>
<event>
 8    1  0.1439553E-005  0.1076513E+04  0.7818608E-02  0.8705846E-01
          2   -1    0    0  502    0  0.00000000000E+00  0.00000000000E+00  0.20897259401E+04  0.20897259401E+04  0.00000000000E+00 0. -1.
         -2   -1    0    0    0  501 -0.00000000000E+00 -0.00000000000E+00 -0.55793099465E+03  0.55793099465E+03  0.00000000000E+00 0.  1.
    9000010    2    1    2  502    0  0.16456948345E+03 -0.37737655711E+03  0.87124032120E+03  0.13877102015E+04  0.99859086979E+03 0.  0.
   -9000010    2    1    2    0  501 -0.16456948345E+03  0.37737655711E+03  0.66055462427E+03  0.12599467333E+04  0.99077604855E+03 0.  0.
        -13    1    3    3    0    0  0.40424680338E+03 -0.35767470996E+03  0.61789133434E+02  0.54329051562E+03  0.10566000000E+00 0.  1.
          4    1    3    3  502    0 -0.23967731993E+03 -0.19701847150E+02  0.80945118777E+03  0.84441968585E+03  0.00000000000E+00 0.  1.
         13    1    4    4    0    0  0.38126471561E+03  0.94463761052E+02  0.54328575682E+02  0.39653220654E+03  0.10566000000E+00 0. -1.
         -4    1    4    4    0  501 -0.54583419907E+03  0.28291279606E+03  0.60622604858E+03  0.86341452676E+03  0.00000000000E+00 0. -1.
<mgrwt>
<rscale>  2 0.10765132E+04</rscale>
<asrwt>0</asrwt>
<pdfrwt beam="1">  1        2 0.32149630E+00 0.10765132E+04</pdfrwt>
<pdfrwt beam="2">  1       -2 0.85835538E-01 0.10765132E+04</pdfrwt>
<totfact> 0.10817379E+01</totfact>
</mgrwt>
</event>
<event>
 8    1  0.1439553E-005  0.1017906E+04  0.7818608E-02  0.8757948E-01
          1   -1    0    0  502    0  0.00000000000E+00  0.00000000000E+00  0.94134610146E+03  0.94134610146E+03  0.00000000000E+00 0.  1.
         -1   -1    0    0    0  501 -0.00000000000E+00 -0.00000000000E+00 -0.11050929958E+04  0.11050929958E+04  0.00000000000E+00 0. -1.
    9000010    2    1    2  502    0  0.11145494122E+03 -0.16361803041E+03 -0.14659233186E+03  0.10307178655E+04  0.10008481117E+04 0.  0.
   -9000010    2    1    2    0  501 -0.11145494122E+03  0.16361803041E+03 -0.17154562486E+02  0.10157212318E+04  0.99609350860E+03 0.  0.
        -13    1    3    3    0    0  0.47415299602E+03  0.13251465970E+03 -0.24855735956E+03  0.55150881301E+03  0.10566000000E+00 0.  1.
          4    1    3    3  502    0 -0.36269805480E+03 -0.29613269011E+03  0.10196502770E+03  0.47920905248E+03  0.00000000000E+00 0.  1.
         13    1    4    4    0    0 -0.14134512286E+02 -0.37231758256E+03  0.20754831491E+03  0.42649323665E+03  0.10566000000E+00 0. -1.
         -4    1    4    4    0  501 -0.97320428938E+02  0.53593561297E+03 -0.22470287739E+03  0.58922799513E+03  0.00000000000E+00 0. -1.
<mgrwt>
<rscale>  2 0.10179056E+04</rscale>
<asrwt>0</asrwt>
<pdfrwt beam="1">  1        1 0.14482248E+00 0.10179056E+04</pdfrwt>
<pdfrwt beam="2">  1       -1 0.17001431E+00 0.10179056E+04</pdfrwt>
<totfact> 0.59615573E+00</totfact>
</mgrwt>
</event>
<event>
 8    1  0.1439553E-005  0.1654604E+04  0.7818608E-02  0.8325687E-01
         -1   -1    0    0    0  501 -0.00000000000E+00  0.00000000000E+00  0.14814367799E+04  0.14814367799E+04  0.00000000000E+00 0. -1.
          1   -1    0    0  502    0  0.00000000000E+00 -0.00000000000E+00 -0.19225735300E+04  0.19225735300E+04  0.00000000000E+00 0.  1.
    9000010    2    1    2  502    0  0.13236927357E+04  0.72963715664E+02 -0.55631932853E+03  0.17501638342E+04  0.99804613576E+03 0.  0.
   -9000010    2    1    2    0  501 -0.13236927357E+04 -0.72963715664E+02  0.11518257841E+03  0.16538464756E+04  0.98206668626E+03 0.  0.
        -13    1    3    3    0    0  0.10764986784E+04  0.47937796257E+03 -0.33230237305E+03  0.12243682101E+04  0.10566000000E+00 0.  1.
          4    1    3    3  502    0  0.24719405730E+03 -0.40641424691E+03 -0.22401695548E+03  0.52579562417E+03  0.00000000000E+00 0.  1.
         13    1    4    4    0    0 -0.12273956228E+04  0.69928538973E+02  0.42380028786E+03  0.13003832937E+04  0.10566000000E+00 0. -1.
         -4    1    4    4    0  501 -0.96297112891E+02 -0.14289225464E+03 -0.30861770944E+03  0.35346318191E+03  0.00000000000E+00 0. -1.
<mgrwt>
<rscale>  2 0.16546045E+04</rscale>
<asrwt>0</asrwt>
<pdfrwt beam="2">  1        1 0.29578054E+00 0.16546045E+04</pdfrwt>
<pdfrwt beam="1">  1       -1 0.22791335E+00 0.16546045E+04</pdfrwt>
<totfact> 0.29662986E-01</totfact>
</mgrwt>
</event>
<event>
 8    1  0.1439553E-005  0.1615300E+04  0.7818608E-02  0.8346069E-01
         -1   -1    0    0    0  501 -0.00000000000E+00  0.00000000000E+00  0.34713584030E+04  0.34713584030E+04  0.00000000000E+00 0.  1.
          1   -1    0    0  502    0  0.00000000000E+00 -0.00000000000E+00 -0.75251042408E+03  0.75251042408E+03  0.00000000000E+00 0. -1.
    9000010    2    1    2  502    0 -0.42036150167E+03  0.11899583698E+04  0.12834137000E+04  0.20591324358E+04  0.10000854708E+04 0.  0.
   -9000010    2    1    2    0  501  0.42036150167E+03 -0.11899583698E+04  0.14354342790E+04  0.21647363913E+04  0.10163205008E+04 0.  0.
        -13    1    3    3    0    0 -0.54079030583E+03  0.12867998904E+04  0.94078594604E+03  0.16832665625E+04  0.10566000000E+00 0.  1.
          4    1    3    3  502    0  0.12042880416E+03 -0.96841520595E+02  0.34262775395E+03  0.37586587336E+03  0.00000000000E+00 0.  1.
         13    1    4    4    0    0  0.44235425661E+03 -0.46764836514E+03  0.12693625957E+04  0.14232546126E+04  0.10566000000E+00 0. -1.
         -4    1    4    4    0  501 -0.21992754946E+02 -0.72231000470E+03  0.16607168331E+03  0.74148177871E+03  0.00000000000E+00 0. -1.
<mgrwt>
<rscale>  2 0.16152995E+04</rscale>
<asrwt>0</asrwt>
<pdfrwt beam="2">  1        1 0.11577084E+00 0.16152995E+04</pdfrwt>
<pdfrwt beam="1">  1       -1 0.53405513E+00 0.16152995E+04</pdfrwt>
<totfact> 0.22480616E-01</totfact>
</mgrwt>
</event>
<event>
 8    1  0.1439553E-005  0.1068546E+04  0.7818608E-02  0.8712724E-01
         -1   -1    0    0    0  501 -0.00000000000E+00  0.00000000000E+00  0.11066590661E+04  0.11066590661E+04  0.00000000000E+00 0.  1.
          1   -1    0    0  502    0  0.00000000000E+00 -0.00000000000E+00 -0.10612971918E+04  0.10612971918E+04  0.00000000000E+00 0. -1.
    9000010    2    1    2  502    0  0.37540909028E+02 -0.43646365377E+03 -0.15635567494E+03  0.10513645259E+04  0.94287349534E+03 0.  0.
   -9000010    2    1    2    0  501 -0.37540909028E+02  0.43646365377E+03  0.20171754923E+03  0.11165917320E+04  0.10070636948E+04 0.  0.
        -13    1    3    3    0    0 -0.18009083852E+03 -0.24583161588E+03 -0.51021029321E+03  0.59428986862E+03  0.10566000000E+00 0.  1.
          4    1    3    3  502    0  0.21763174755E+03 -0.19063203790E+03  0.35385461827E+03  0.45707465723E+03  0.00000000000E+00 0.  1.
         13    1    4    4    0    0  0.16659205999E+03  0.72548815894E+03  0.13490733006E+03  0.75649585728E+03  0.10566000000E+00 0. -1.
         -4    1    4    4    0  501 -0.20413296902E+03 -0.28902450516E+03  0.66810219160E+02  0.36009587474E+03  0.00000000000E+00 0. -1.
<mgrwt>
<rscale>  2 0.10685457E+04</rscale>
<asrwt>0</asrwt>
<pdfrwt beam="2">  1        1 0.16327649E+00 0.10685457E+04</pdfrwt>
<pdfrwt beam="1">  1       -1 0.17025524E+00 0.10685457E+04</pdfrwt>
<totfact> 0.47086982E+00</totfact>
</mgrwt>
</event>
<event>
 8    1  0.1439553E-005  0.1337015E+04  0.7818608E-02  0.8509962E-01
         -1   -1    0    0    0  501 -0.00000000000E+00  0.00000000000E+00  0.84937658299E+03  0.84937658299E+03  0.00000000000E+00 0.  1.
          1   -1    0    0  502    0  0.00000000000E+00 -0.00000000000E+00 -0.21658937680E+04  0.21658937680E+04  0.00000000000E+00 0. -1.
    9000010    2    1    2  502    0  0.71764528327E+03  0.50008902336E+03 -0.91338472520E+03  0.16219124469E+04  0.10154922674E+04 0.  0.
   -9000010    2    1    2    0  501 -0.71764528327E+03 -0.50008902336E+03 -0.40313245986E+03  0.13933579041E+04  0.10068896091E+04 0.  0.
        -13    1    3    3    0    0  0.46191902070E+03  0.22640819110E+03  0.11527592813E+03  0.52717966715E+03  0.10566000000E+00 0.  1.
          4    1    3    3  502    0  0.25572626257E+03  0.27368083226E+03 -0.10286606533E+04  0.10947327797E+04  0.00000000000E+00 0.  1.
         13    1    4    4    0    0 -0.43261495923E+03  0.26739066143E+03 -0.22167480575E+03  0.55479113136E+03  0.10566000000E+00 0. -1.
         -4    1    4    4    0  501 -0.28503032404E+03 -0.76747968479E+03 -0.18145765412E+03  0.83856677279E+03  0.00000000000E+00 0. -1.
<mgrwt>
<rscale>  2 0.13370147E+04</rscale>
<asrwt>0</asrwt>
<pdfrwt beam="2">  1        1 0.33321442E+00 0.13370147E+04</pdfrwt>
<pdfrwt beam="1">  1       -1 0.13067332E+00 0.13370147E+04</pdfrwt>
<totfact> 0.14610402E+00</totfact>
</mgrwt>
</event>
<event>
 8    1  0.1439553E-005  0.1331012E+04  0.7818608E-02  0.8513940E-01
          2   -1    0    0  502    0  0.00000000000E+00  0.00000000000E+00  0.16818171557E+04  0.16818171557E+04  0.00000000000E+00 0.  1.
         -2   -1    0    0    0  501 -0.00000000000E+00 -0.00000000000E+00 -0.11382534456E+04  0.11382534456E+04  0.00000000000E+00 0. -1.
    9000010    2    1    2  502    0 -0.87549491766E+03 -0.53197531639E+02  0.65727028195E+03  0.14866695786E+04  0.10044206709E+04 0.  0.
   -9000010    2    1    2    0  501  0.87549491766E+03  0.53197531639E+02 -0.11370657187E+03  0.13334010227E+04  0.99785157941E+03 0.  0.
        -13    1    3    3    0    0 -0.84128998225E+02 -0.21849426722E+03 -0.20029101491E+03  0.30811350988E+03  0.10566000000E+00 0.  1.
          4    1    3    3  502    0 -0.79136591944E+03  0.16529673558E+03  0.85756129686E+03  0.11785560687E+04  0.00000000000E+00 0.  1.
         13    1    4    4    0    0 -0.62005986228E+02 -0.11724066684E+03 -0.33055545444E+03  0.35616995369E+03  0.10566000000E+00 0. -1.
         -4    1    4    4    0  501  0.93750090389E+03  0.17043819848E+03  0.21684888257E+03  0.97723106898E+03  0.00000000000E+00 0. -1.
<mgrwt>
<rscale>  2 0.13310122E+04</rscale>
<asrwt>0</asrwt>
<pdfrwt beam="1">  1        2 0.25874110E+00 0.13310122E+04</pdfrwt>
<pdfrwt beam="2">  1       -2 0.17511591E+00 0.13310122E+04</pdfrwt>
<totfact> 0.25123395E+00</totfact>
</mgrwt>
</event>
<event>
 8    1  0.1439553E-005  0.1653890E+04  0.7818608E-02  0.8326052E-01
          2   -1    0    0  502    0  0.00000000000E+00  0.00000000000E+00  0.22443377832E+04  0.22443377832E+04  0.00000000000E+00 0. -1.
         -2   -1    0    0    0  501 -0.00000000000E+00 -0.00000000000E+00 -0.12367053835E+04  0.12367053835E+04  0.00000000000E+00 0.  1.
    9000010    2    1    2  502    0  0.12656281242E+04 -0.38272389760E+03  0.29338227396E+03  0.16767289224E+04  0.98846071733E+03 0.  0.
   -9000010    2    1    2    0  501 -0.12656281242E+04  0.38272389760E+03  0.71425012574E+03  0.18043142444E+04  0.99855121032E+03 0.  0.
        -13    1    3    3    0    0  0.13743575502E+04 -0.43055697577E+03  0.92292630945E+02  0.14431756394E+04  0.10566000000E+00 0.  1.
          4    1    3    3  502    0 -0.10872942599E+03  0.47833078178E+02  0.20108964302E+03  0.23355328295E+03  0.00000000000E+00 0.  1.
         13    1    4    4    0    0 -0.76606972228E+03  0.24928583585E+03 -0.12829053548E+03  0.81576020987E+03  0.10566000000E+00 0. -1.
         -4    1    4    4    0  501 -0.49955840197E+03  0.13343806174E+03  0.84254066123E+03  0.98855403449E+03  0.00000000000E+00 0. -1.
<mgrwt>
<rscale>  2 0.16538904E+04</rscale>
<asrwt>0</asrwt>
<pdfrwt beam="1">  1        2 0.34528274E+00 0.16538904E+04</pdfrwt>
<pdfrwt beam="2">  1       -2 0.19026237E+00 0.16538904E+04</pdfrwt>
<totfact> 0.89344656E-01</totfact>
</mgrwt>
</event>
<event>
 8    1  0.1439553E-005  0.1067669E+04  0.7818608E-02  0.8713484E-01
          2   -1    0    0  502    0  0.00000000000E+00  0.00000000000E+00  0.42603254632E+04  0.42603254632E+04  0.00000000000E+00 0.  1.
         -2   -1    0    0    0  501 -0.00000000000E+00 -0.00000000000E+00 -0.28873194598E+03  0.28873194598E+03  0.00000000000E+00 0. -1.
    9000010    2    1    2  502    0  0.13352125525E+03  0.29934942274E+03  0.13480744391E+04  0.17116282723E+04  0.10024612944E+04 0.  0.
   -9000010    2    1    2    0  501 -0.13352125525E+03 -0.29934942274E+03  0.26235190781E+04  0.28374291368E+04  0.10299095838E+04 0.  0.
        -13    1    3    3    0    0 -0.24252135755E+03 -0.23169924198E+03  0.19597566869E+03  0.38846830178E+03  0.10566000000E+00 0.  1.
          4    1    3    3  502    0  0.37604261280E+03  0.53104866472E+03  0.11520987704E+04  0.13231599706E+04  0.00000000000E+00 0.  1.
         13    1    4    4    0    0 -0.56718582883E+03 -0.22975063610E+03  0.11899022914E+04  0.13380405799E+04  0.10566000000E+00 0. -1.
         -4    1    4    4    0  501  0.43366457358E+03 -0.69598786640E+02  0.14336167867E+04  0.14993885569E+04  0.00000000000E+00 0. -1.
<mgrwt>
<rscale>  2 0.10676694E+04</rscale>
<asrwt>0</asrwt>
<pdfrwt beam="1">  1        2 0.65543464E+00 0.10676694E+04</pdfrwt>
<pdfrwt beam="2">  1       -2 0.44420303E-01 0.10676694E+04</pdfrwt>
<totfact> 0.13298747E+00</totfact>
</mgrwt>
</event>
<event>
 8    1  0.1439553E-005  0.1159461E+04  0.7818608E-02  0.8637731E-01
          1   -1    0    0  502    0  0.00000000000E+00  0.00000000000E+00  0.22352599009E+04  0.22352599009E+04  0.00000000000E+00 0. -1.
         -1   -1    0    0    0  501 -0.00000000000E+00 -0.00000000000E+00 -0.12380777297E+04  0.12380777297E+04  0.00000000000E+00 0.  1.
    9000010    2    1    2  502    0 -0.33305227206E+03 -0.47814573234E+03  0.17386642460E+04  0.20769811719E+04  0.97537186274E+03 0.  0.
   -9000010    2    1    2    0  501  0.33305227206E+03  0.47814573234E+03 -0.74148207477E+03  0.13963564588E+04  0.10297905299E+04 0.  0.
        -13    1    3    3    0    0 -0.47058474830E+01  0.56281573127E+01  0.14025650509E+04  0.14025842414E+04  0.10566000000E+00 0.  1.
          4    1    3    3  502    0 -0.32834642457E+03 -0.48377388965E+03  0.33609919515E+03  0.67439693046E+03  0.00000000000E+00 0.  1.
         13    1    4    4    0    0 -0.95326787983E+02  0.60274645720E+03 -0.72811764550E+03  0.95002410760E+03  0.10566000000E+00 0. -1.
         -4    1    4    4    0  501  0.42837906004E+03 -0.12460072486E+03 -0.13364429269E+02  0.44633235115E+03  0.00000000000E+00 0. -1.
<mgrwt>
<rscale>  2 0.11594610E+04</rscale>
<asrwt>0</asrwt>
<pdfrwt beam="1">  1        1 0.34388614E+00 0.11594610E+04</pdfrwt>
<pdfrwt beam="2">  1       -1 0.19047350E+00 0.11594610E+04</pdfrwt>
<totfact> 0.39692622E-01</totfact>
</mgrwt>
</event>
<event>
 8    1  0.1439553E-005  0.1063191E+04  0.7818608E-02  0.8717382E-01
         -1   -1    0    0    0  501 -0.00000000000E+00  0.00000000000E+00  0.71257860434E+03  0.71257860434E+03  0.00000000000E+00 0. -1.
          1   -1    0    0  502    0  0.00000000000E+00 -0.00000000000E+00 -0.16711069857E+04  0.16711069857E+04  0.00000000000E+00 0.  1.
    9000010    2    1    2  502    0  0.38569903563E+03  0.20896494377E+03 -0.76684868362E+03  0.13814355309E+04  0.10620155971E+04 0.  0.
   -9000010    2    1    2    0  501 -0.38569903563E+03 -0.20896494377E+03 -0.19167969777E+03  0.10022500592E+04  0.88053051103E+03 0.  0.
        -13    1    3    3    0    0  0.45876623361E+02  0.18965178811E+03 -0.96705922977E+03  0.98654753071E+03  0.10566000000E+00 0.  1.
          4    1    3    3  502    0  0.33982241227E+03  0.19313155662E+02  0.20021054616E+03  0.39488800014E+03  0.00000000000E+00 0.  1.
         13    1    4    4    0    0  0.21169350835E+03  0.72281060848E+02  0.13943596365E+03  0.26359266370E+03  0.10566000000E+00 0. -1.
         -4    1    4    4    0  501 -0.59739254398E+03 -0.28124600462E+03 -0.33111566142E+03  0.73865739551E+03  0.00000000000E+00 0. -1.
<mgrwt>
<rscale>  2 0.10631906E+04</rscale>
<asrwt>0</asrwt>
<pdfrwt beam="2">  1        1 0.25709338E+00 0.10631906E+04</pdfrwt>
<pdfrwt beam="1">  1       -1 0.10962748E+00 0.10631906E+04</pdfrwt>
<totfact> 0.55330339E+00</totfact>
</mgrwt>
</event>
<event>
 8    1  0.1439553E-005  0.1046880E+04  0.7818608E-02  0.8731748E-01
          4   -1    0    0  502    0  0.00000000000E+00  0.00000000000E+00  0.36492640515E+04  0.36492640515E+04  0.00000000000E+00 0.  1.
         -4   -1    0    0    0  501 -0.00000000000E+00 -0.00000000000E+00 -0.30516452551E+03  0.30516452551E+03  0.00000000000E+00 0. -1.
    9000010    2    1    2  502    0  0.15922910771E+03 -0.23242133991E+03  0.19277538760E+04  0.21957430175E+04  0.10127580188E+04 0.  0.
   -9000010    2    1    2    0  501 -0.15922910771E+03  0.23242133991E+03  0.14163456501E+04  0.17586855595E+04  0.10037760252E+04 0.  0.
        -13    1    3    3    0    0 -0.30024064819E+03  0.12499621544E+03  0.22297296959E+03  0.39431644276E+03  0.10566000000E+00 0.  1.
          4    1    3    3  502    0  0.45946975591E+03 -0.35741755536E+03  0.17047809064E+04  0.18014265748E+04  0.00000000000E+00 0.  1.
         13    1    4    4    0    0 -0.35282640581E+02 -0.38425757428E+03  0.35167797849E+03  0.52208826824E+03  0.10566000000E+00 0. -1.
         -4    1    4    4    0  501 -0.12394646713E+03  0.61667891419E+03  0.10646676716E+04  0.12365972913E+04  0.00000000000E+00 0. -1.
<mgrwt>
<rscale>  2 0.10468805E+04</rscale>
<asrwt>0</asrwt>
<pdfrwt beam="1">  1        4 0.56142521E+00 0.10468805E+04</pdfrwt>
<pdfrwt beam="2">  1       -4 0.46948391E-01 0.10468805E+04</pdfrwt>
<totfact> 0.11998917E-01</totfact>
</mgrwt>
</event>
<event>
 8    1  0.1439553E-005  0.9612796E+03  0.7818608E-02  0.8811848E-01
          2   -1    0    0  502    0  0.00000000000E+00  0.00000000000E+00  0.23754931323E+04  0.23754931323E+04  0.00000000000E+00 0. -1.
         -2   -1    0    0    0  501 -0.00000000000E+00 -0.00000000000E+00 -0.42432905995E+03  0.42432905995E+03  0.00000000000E+00 0.  1.
    9000010    2    1    2  502    0  0.17688550268E+03  0.98674138913E+02  0.14259501484E+04  0.17549846494E+04  0.10028021874E+04 0.  0.
   -9000010    2    1    2    0  501 -0.17688550268E+03 -0.98674138913E+02  0.52521392391E+03  0.10448375428E+04  0.88023335447E+03 0.  0.
        -13    1    3    3    0    0  0.54514736871E+03 -0.16556919786E+03  0.78464131100E+03  0.96967046515E+03  0.10566000000E+00 0.  1.
          4    1    3    3  502    0 -0.36826186603E+03  0.26424333677E+03  0.64130883739E+03  0.78531418421E+03  0.00000000000E+00 0.  1.
         13    1    4    4    0    0 -0.77438752151E+01 -0.48179898366E+03  0.32021221317E+03  0.57855518396E+03  0.10566000000E+00 0. -1.
         -4    1    4    4    0  501 -0.16914162747E+03  0.38312484475E+03  0.20500171075E+03  0.46628235889E+03  0.00000000000E+00 0. -1.
<mgrwt>
<rscale>  2 0.96127964E+03</rscale>
<asrwt>0</asrwt>
<pdfrwt beam="1">  1        2 0.36546047E+00 0.96127964E+03</pdfrwt>
<pdfrwt beam="2">  1       -2 0.65281395E-01 0.96127964E+03</pdfrwt>
<totfact> 0.13752684E+01</totfact>
</mgrwt>
</event>
<event>
 8    1  0.1439553E-005  0.1380887E+04  0.7818608E-02  0.8481530E-01
         -1   -1    0    0    0  501 -0.00000000000E+00  0.00000000000E+00  0.30258747647E+04  0.30258747647E+04  0.00000000000E+00 0. -1.
          1   -1    0    0  502    0  0.00000000000E+00 -0.00000000000E+00 -0.66578289585E+03  0.66578289585E+03  0.00000000000E+00 0.  1.
    9000010    2    1    2  502    0  0.16907807575E+03  0.92937310463E+03  0.16057384976E+04  0.21169196043E+04  0.10053013107E+04 0.  0.
   -9000010    2    1    2    0  501 -0.16907807575E+03 -0.92937310463E+03  0.75435337125E+03  0.15747380562E+04  0.10091725193E+04 0.  0.
        -13    1    3    3    0    0 -0.31520704093E+03  0.81457455154E+03  0.11320178023E+04  0.14298082020E+04  0.10566000000E+00 0.  1.
          4    1    3    3  502    0  0.48428511669E+03  0.11479855309E+03  0.47372069527E+03  0.68711140230E+03  0.00000000000E+00 0.  1.
         13    1    4    4    0    0 -0.24089830442E+03 -0.95319060295E+03  0.94865827747E+03  0.13662199154E+04  0.10566000000E+00 0. -1.
         -4    1    4    4    0  501  0.71820228664E+02  0.23817498328E+02 -0.19430490622E+03  0.20851814083E+03  0.00000000000E+00 0. -1.
<mgrwt>
<rscale>  2 0.13808866E+04</rscale>
<asrwt>0</asrwt>
<pdfrwt beam="2">  1        1 0.10242814E+00 0.13808866E+04</pdfrwt>
<pdfrwt beam="1">  1       -1 0.46551919E+00 0.13808866E+04</pdfrwt>
<totfact> 0.42046070E-01</totfact>
</mgrwt>
</event>
<event>
 8    1  0.1439553E-005  0.1143351E+04  0.7818608E-02  0.8650486E-01
          1   -1    0    0  502    0  0.00000000000E+00  0.00000000000E+00  0.80720816599E+03  0.80720816599E+03  0.00000000000E+00 0. -1.
         -1   -1    0    0    0  501 -0.00000000000E+00 -0.00000000000E+00 -0.18235317836E+04  0.18235317836E+04  0.00000000000E+00 0.  1.
    9000010    2    1    2  502    0  0.38176855383E+03 -0.39726712267E+03 -0.94859060321E+03  0.14864301967E+04  0.10030364907E+04 0.  0.
   -9000010    2    1    2    0  501 -0.38176855383E+03  0.39726712267E+03 -0.67733014388E+02  0.11443097529E+04  0.10006441195E+04 0.  0.
        -13    1    3    3    0    0 -0.34539804640E+03 -0.13339330679E+03 -0.28519429144E+03  0.46736429023E+03  0.10566000000E+00 0.  1.
          4    1    3    3  502    0  0.72716660023E+03 -0.26387381588E+03 -0.66339631178E+03  0.10190659064E+04  0.00000000000E+00 0.  1.
         13    1    4    4    0    0  0.10040715403E+03  0.58806699778E+03  0.87637566996E+02  0.60297988753E+03  0.10566000000E+00 0. -1.
         -4    1    4    4    0  501 -0.48217570786E+03 -0.19079987511E+03 -0.15537058138E+03  0.54132986538E+03  0.00000000000E+00 0. -1.
<mgrwt>
<rscale>  2 0.11433511E+04</rscale>
<asrwt>0</asrwt>
<pdfrwt beam="1">  1        1 0.12418587E+00 0.11433511E+04</pdfrwt>
<pdfrwt beam="2">  1       -1 0.28054335E+00 0.11433511E+04</pdfrwt>
<totfact> 0.71459781E-01</totfact>
</mgrwt>
</event>
<event>
 8    1  0.1439553E-005  0.1253777E+04  0.7818608E-02  0.8567131E-01
          1   -1    0    0  502    0  0.00000000000E+00  0.00000000000E+00  0.77419630501E+03  0.77419630501E+03  0.00000000000E+00 0.  1.
         -1   -1    0    0    0  501 -0.00000000000E+00 -0.00000000000E+00 -0.20493104185E+04  0.20493104185E+04  0.00000000000E+00 0. -1.
    9000010    2    1    2  502    0  0.32782198886E+03  0.49456480586E+03 -0.77710030123E+03  0.15496691089E+04  0.12023010710E+04 0.  0.
   -9000010    2    1    2    0  501 -0.32782198886E+03 -0.49456480586E+03 -0.49801381229E+03  0.12738376146E+04  0.10112284151E+04 0.  0.
        -13    1    3    3    0    0 -0.39657559115E+03  0.36197783381E+03 -0.93805986323E+02  0.54506855156E+03  0.10566000000E+00 0.  1.
          4    1    3    3  502    0  0.72439758001E+03  0.13258697205E+03 -0.68329431491E+03  0.10046005574E+04  0.00000000000E+00 0.  1.
         13    1    4    4    0    0  0.22020594157E+03  0.15211058684E+03 -0.30254774736E+03  0.40393494270E+03  0.10566000000E+00 0. -1.
         -4    1    4    4    0  501 -0.54802793043E+03 -0.64667539270E+03 -0.19546606493E+03  0.86990267191E+03  0.00000000000E+00 0. -1.
<mgrwt>
<rscale>  2 0.12537768E+04</rscale>
<asrwt>0</asrwt>
<pdfrwt beam="1">  1        1 0.11910712E+00 0.12537768E+04</pdfrwt>
<pdfrwt beam="2">  1       -1 0.31527853E+00 0.12537768E+04</pdfrwt>
<totfact> 0.38551601E-01</totfact>
</mgrwt>
</event>
<event>
 8    1  0.1439553E-005  0.1472379E+04  0.7818608E-02  0.8425575E-01
          1   -1    0    0  502    0  0.00000000000E+00  0.00000000000E+00  0.25284420341E+04  0.25284420341E+04  0.00000000000E+00 0. -1.
         -1   -1    0    0    0  501 -0.00000000000E+00 -0.00000000000E+00 -0.93632843963E+03  0.93632843963E+03  0.00000000000E+00 0.  1.
    9000010    2    1    2  502    0 -0.88615020544E+03 -0.60262073345E+03  0.29161630405E+03  0.14980190007E+04  0.10052894721E+04 0.  0.
   -9000010    2    1    2    0  501  0.88615020544E+03  0.60262073345E+03  0.13004972904E+04  0.19667514730E+04  0.10141026670E+04 0.  0.
        -13    1    3    3    0    0 -0.49795444261E+03  0.22026108025E+03  0.64736250482E+01  0.54453235842E+03  0.10566000000E+00 0.  1.
          4    1    3    3  502    0 -0.38819576283E+03 -0.82288181370E+03  0.28514267900E+03  0.95348664227E+03  0.00000000000E+00 0.  1.
         13    1    4    4    0    0  0.32520174430E+03  0.55087388993E+03  0.10917069013E+03  0.64895028149E+03  0.10566000000E+00 0. -1.
         -4    1    4    4    0  501  0.56094846114E+03  0.51746843525E+02  0.11913266003E+04  0.13178011916E+04  0.00000000000E+00 0. -1.
<mgrwt>
<rscale>  2 0.14723794E+04</rscale>
<asrwt>0</asrwt>
<pdfrwt beam="1">  1        1 0.38899108E+00 0.14723794E+04</pdfrwt>
<pdfrwt beam="2">  1       -1 0.14405053E+00 0.14723794E+04</pdfrwt>
<totfact> 0.53521330E-01</totfact>
</mgrwt>
</event>
<event>
 8    1  0.1439553E-005  0.1475321E+04  0.7818608E-02  0.8423846E-01
          1   -1    0    0  502    0  0.00000000000E+00  0.00000000000E+00  0.24319516337E+04  0.24319516337E+04  0.00000000000E+00 0. -1.
         -1   -1    0    0    0  501 -0.00000000000E+00 -0.00000000000E+00 -0.90317923680E+03  0.90317923680E+03  0.00000000000E+00 0.  1.
    9000010    2    1    2  502    0 -0.51507308229E+02 -0.10888302244E+04  0.92490405919E+03  0.17441972000E+04  0.99928579166E+03 0.  0.
   -9000010    2    1    2    0  501  0.51507308229E+02  0.10888302244E+04  0.60386833769E+03  0.15909336705E+04  0.98904434392E+03 0.  0.
        -13    1    3    3    0    0 -0.15682440504E+03 -0.12623829277E+04  0.75346391147E+03  0.14784831508E+04  0.10566000000E+00 0.  1.
          4    1    3    3  502    0  0.10531709681E+03  0.17355270328E+03  0.17144014772E+03  0.26571404921E+03  0.00000000000E+00 0.  1.
         13    1    4    4    0    0 -0.11445335041E+03  0.12405711523E+04  0.53395452652E+03  0.13554422897E+04  0.10566000000E+00 0. -1.
         -4    1    4    4    0  501  0.16596065864E+03 -0.15174092787E+03  0.69913811174E+02  0.23549138074E+03  0.00000000000E+00 0. -1.
<mgrwt>
<rscale>  2 0.14753206E+04</rscale>
<asrwt>0</asrwt>
<pdfrwt beam="1">  1        1 0.37414640E+00 0.14753206E+04</pdfrwt>
<pdfrwt beam="2">  1       -1 0.13895065E+00 0.14753206E+04</pdfrwt>
<totfact> 0.72336477E-01</totfact>
</mgrwt>
</event>
<event>
 8    1  0.1439553E-005  0.1080337E+04  0.7818608E-02  0.8702567E-01
         -1   -1    0    0    0  501 -0.00000000000E+00  0.00000000000E+00  0.97143035913E+03  0.97143035913E+03  0.00000000000E+00 0.  1.
          1   -1    0    0  502    0  0.00000000000E+00 -0.00000000000E+00 -0.12764473838E+04  0.12764473838E+04  0.00000000000E+00 0. -1.
    9000010    2    1    2  502    0  0.12066147248E+03 -0.36229526873E+03  0.11871597367E+03  0.10949160101E+04  0.10192794191E+04 0.  0.
   -9000010    2    1    2    0  501 -0.12066147248E+03  0.36229526873E+03 -0.42373299838E+03  0.11529617328E+04  0.10019750749E+04 0.  0.
        -13    1    3    3    0    0  0.34187446110E+03 -0.46988815519E+03  0.41184791033E+03  0.71224415614E+03  0.10566000000E+00 0.  1.
          4    1    3    3  502    0 -0.22121298862E+03  0.10759288646E+03 -0.29313193666E+03  0.38267185400E+03  0.00000000000E+00 0.  1.
         13    1    4    4    0    0  0.14159703248E+03 -0.27466929472E+03  0.55300746990E+02  0.31392853462E+03  0.10566000000E+00 0. -1.
         -4    1    4    4    0  501 -0.26225850496E+03  0.63696456345E+03 -0.47903374537E+03  0.83903319822E+03  0.00000000000E+00 0. -1.
<mgrwt>
<rscale>  2 0.10803371E+04</rscale>
<asrwt>0</asrwt>
<pdfrwt beam="2">  1        1 0.19637652E+00 0.10803371E+04</pdfrwt>
<pdfrwt beam="1">  1       -1 0.14945083E+00 0.10803371E+04</pdfrwt>
<totfact> 0.48489241E+00</totfact>
</mgrwt>
</event>
<event>
 8    1  0.1439553E-005  0.9975875E+03  0.7818608E-02  0.8776861E-01
         -1   -1    0    0    0  501 -0.00000000000E+00  0.00000000000E+00  0.11351303639E+04  0.11351303639E+04  0.00000000000E+00 0. -1.
          1   -1    0    0  502    0  0.00000000000E+00 -0.00000000000E+00 -0.15267372807E+04  0.15267372807E+04  0.00000000000E+00 0.  1.
    9000010    2    1    2  502    0 -0.28955990819E+03 -0.58176289467E+02 -0.10613262996E+04  0.14416184871E+04  0.92984994864E+03 0.  0.
   -9000010    2    1    2    0  501  0.28955990819E+03  0.58176289467E+02  0.66971938279E+03  0.12202491576E+04  0.97634754769E+03 0.  0.
        -13    1    3    3    0    0 -0.42976903917E+03 -0.33735019526E+03 -0.97476959139E+03  0.11174445618E+04  0.10566000000E+00 0.  1.
          4    1    3    3  502    0  0.14020913097E+03  0.27917390579E+03 -0.86556708200E+02  0.32417392526E+03  0.00000000000E+00 0.  1.
         13    1    4    4    0    0  0.31568060877E+03 -0.23626754728E+03 -0.90521068188E+02  0.40456232598E+03  0.10566000000E+00 0. -1.
         -4    1    4    4    0  501 -0.26120700577E+02  0.29444383674E+03  0.76024045098E+03  0.81568683164E+03  0.00000000000E+00 0. -1.
<mgrwt>
<rscale>  2 0.99758754E+03</rscale>
<asrwt>0</asrwt>
<pdfrwt beam="2">  1        1 0.23488266E+00 0.99758754E+03</pdfrwt>
<pdfrwt beam="1">  1       -1 0.17463544E+00 0.99758754E+03</pdfrwt>
<totfact> 0.19335662E+00</totfact>
</mgrwt>
</event>
<event>
 8    1  0.1439553E-005  0.1407697E+04  0.7818608E-02  0.8464683E-01
         -2   -1    0    0    0  501 -0.00000000000E+00  0.00000000000E+00  0.79528773649E+03  0.79528773649E+03  0.00000000000E+00 0.  1.
          2   -1    0    0  502    0  0.00000000000E+00 -0.00000000000E+00 -0.37428795140E+04  0.37428795140E+04  0.00000000000E+00 0. -1.
    9000010    2    1    2  502    0  0.17276014562E+02 -0.95466616821E+03 -0.14869028257E+03  0.13963855910E+04  0.10080168477E+04 0.  0.
   -9000010    2    1    2    0  501 -0.17276014562E+02  0.95466616821E+03 -0.27989014950E+04  0.31417816595E+04  0.10607810633E+04 0.  0.
        -13    1    3    3    0    0 -0.45688347144E+03 -0.26751508320E+03 -0.18472500948E+03  0.56074073020E+03  0.10566000000E+00 0.  1.
          4    1    3    3  502    0  0.47415948600E+03 -0.68715108501E+03  0.36034726911E+02  0.83564486078E+03  0.00000000000E+00 0.  1.
         13    1    4    4    0    0  0.38871298024E+03  0.36640309230E+03 -0.19986450311E+04  0.20687994051E+04  0.10566000000E+00 0. -1.
         -4    1    4    4    0  501 -0.40598899480E+03  0.58826307591E+03 -0.80025646386E+03  0.10729822544E+04  0.00000000000E+00 0. -1.
<mgrwt>
<rscale>  2 0.14076973E+04</rscale>
<asrwt>0</asrwt>
<pdfrwt beam="2">  1        2 0.57582762E+00 0.14076973E+04</pdfrwt>
<pdfrwt beam="1">  1       -2 0.12235196E+00 0.14076973E+04</pdfrwt>
<totfact> 0.39223832E-01</totfact>
</mgrwt>
</event>
<event>
 8    1  0.1439553E-005  0.1213915E+04  0.7818608E-02  0.8596157E-01
          1   -1    0    0  502    0  0.00000000000E+00  0.00000000000E+00  0.27442818764E+04  0.27442818764E+04  0.00000000000E+00 0. -1.
         -1   -1    0    0    0  501 -0.00000000000E+00 -0.00000000000E+00 -0.59267992676E+03  0.59267992676E+03  0.00000000000E+00 0.  1.
    9000010    2    1    2  502    0 -0.65892095623E+03 -0.22500394615E+03  0.56172867070E+03  0.13347165376E+04  0.99051781104E+03 0.  0.
   -9000010    2    1    2    0  501  0.65892095623E+03  0.22500394615E+03  0.15898732789E+04  0.20022452655E+04  0.99824118226E+03 0.  0.
        -13    1    3    3    0    0 -0.79279588865E+03 -0.36622722719E+03  0.15929699859E+03  0.88770673531E+03  0.10566000000E+00 0.  1.
          4    1    3    3  502    0  0.13387493242E+03  0.14122328105E+03  0.40243167211E+03  0.44700980231E+03  0.00000000000E+00 0.  1.
         13    1    4    4    0    0  0.70183757231E+03 -0.24609482512E+03  0.99334948705E+03  0.12409197619E+04  0.10566000000E+00 0. -1.
         -4    1    4    4    0  501 -0.42916616084E+02  0.47109877126E+03  0.59652379187E+03  0.76132550364E+03  0.00000000000E+00 0. -1.
<mgrwt>
<rscale>  2 0.12139148E+04</rscale>
<asrwt>0</asrwt>
<pdfrwt beam="1">  1        1 0.42219721E+00 0.12139148E+04</pdfrwt>
<pdfrwt beam="2">  1       -1 0.91181528E-01 0.12139148E+04</pdfrwt>
<totfact> 0.10450474E+00</totfact>
</mgrwt>
</event>
<event>
 8    1  0.1439553E-005  0.1185087E+04  0.7818608E-02  0.8617878E-01
          2   -1    0    0  502    0  0.00000000000E+00  0.00000000000E+00  0.31239356170E+04  0.31239356170E+04  0.00000000000E+00 0. -1.
         -2   -1    0    0    0  501 -0.00000000000E+00 -0.00000000000E+00 -0.45041342812E+03  0.45041342812E+03  0.00000000000E+00 0.  1.
    9000010    2    1    2  502    0 -0.17227726056E+02 -0.62723117489E+03  0.14121853889E+04  0.18425153931E+04  0.10034339341E+04 0.  0.
   -9000010    2    1    2    0  501  0.17227726056E+02  0.62723117489E+03  0.12613368000E+04  0.17318336520E+04  0.10072544533E+04 0.  0.
        -13    1    3    3    0    0  0.38094236778E+03 -0.63806783708E+03  0.11372582130E+04  0.13585300536E+04  0.10566000000E+00 0.  1.
          4    1    3    3  502    0 -0.39817009384E+03  0.10836662194E+02  0.27492717585E+03  0.48398533954E+03  0.00000000000E+00 0.  1.
         13    1    4    4    0    0  0.44137767069E+02  0.33949036308E+02  0.11199632699E+04  0.11213466978E+04  0.10566000000E+00 0. -1.
         -4    1    4    4    0  501 -0.26910041013E+02  0.59328213858E+03  0.14137353016E+03  0.61048695424E+03  0.00000000000E+00 0. -1.
<mgrwt>
<rscale>  2 0.11850870E+04</rscale>
<asrwt>0</asrwt>
<pdfrwt beam="1">  1        2 0.48060547E+00 0.11850870E+04</pdfrwt>
<pdfrwt beam="2">  1       -2 0.69294376E-01 0.11850870E+04</pdfrwt>
<totfact> 0.42915600E+00</totfact>
</mgrwt>
</event>
<event>
 8    1  0.1439553E-005  0.2093552E+04  0.7818608E-02  0.8131329E-01
          2   -1    0    0  502    0  0.00000000000E+00  0.00000000000E+00  0.24105536347E+04  0.24105536347E+04  0.00000000000E+00 0.  1.
         -2   -1    0    0    0  501 -0.00000000000E+00 -0.00000000000E+00 -0.18865845028E+04  0.18865845028E+04  0.00000000000E+00 0. -1.
    9000010    2    1    2  502    0  0.18385649518E+04 -0.26403906504E+03  0.66755134962E+03  0.21759953931E+04  0.91612959592E+03 0.  0.
   -9000010    2    1    2    0  501 -0.18385649518E+04  0.26403906504E+03 -0.14358221772E+03  0.21211427444E+04  0.10141957302E+04 0.  0.
        -13    1    3    3    0    0  0.60082467281E+03 -0.32447350625E+03 -0.13977284208E+03  0.69700057551E+03  0.10566000000E+00 0.  1.
          4    1    3    3  502    0  0.12377402790E+04  0.60434441211E+02  0.80732419170E+03  0.14789948176E+04  0.00000000000E+00 0.  1.
         13    1    4    4    0    0 -0.18688342137E+04  0.18353399067E+03 -0.33850244752E+03  0.19080906588E+04  0.10566000000E+00 0. -1.
         -4    1    4    4    0  501  0.30269261887E+02  0.80505074370E+02  0.19492022979E+03  0.21305208564E+03  0.00000000000E+00 0. -1.
<mgrwt>
<rscale>  2 0.20935518E+04</rscale>
<asrwt>0</asrwt>
<pdfrwt beam="1">  1        2 0.37085441E+00 0.20935518E+04</pdfrwt>
<pdfrwt beam="2">  1       -2 0.29024377E+00 0.20935518E+04</pdfrwt>
<totfact> 0.11310319E-01</totfact>
</mgrwt>
</event>
<event>
 8    1  0.1439553E-005  0.1994224E+04  0.7818608E-02  0.8170748E-01
         -2   -1    0    0    0  501 -0.00000000000E+00  0.00000000000E+00  0.18742000629E+04  0.18742000629E+04  0.00000000000E+00 0.  1.
          2   -1    0    0  502    0  0.00000000000E+00 -0.00000000000E+00 -0.26473527741E+04  0.26473527741E+04  0.00000000000E+00 0. -1.
    9000010    2    1    2  502    0 -0.42985701255E+03  0.16811841938E+04  0.61945860037E+03  0.20950362024E+04  0.99714110697E+03 0.  0.
   -9000010    2    1    2    0  501  0.42985701255E+03 -0.16811841938E+04 -0.13926113116E+04  0.24265166346E+04  0.96822485414E+03 0.  0.
        -13    1    3    3    0    0  0.76068038683E+01  0.18624869533E+03  0.49908988352E+03  0.53276370276E+03  0.10566000000E+00 0.  1.
          4    1    3    3  502    0 -0.43746381642E+03  0.14949354984E+04  0.12036871685E+03  0.15622724997E+04  0.00000000000E+00 0.  1.
         13    1    4    4    0    0  0.19738108465E+03 -0.11120630121E+04 -0.14160369431E+04  0.18112990009E+04  0.10566000000E+00 0. -1.
         -4    1    4    4    0  501  0.23247592790E+03 -0.56912118172E+03  0.23425631552E+02  0.61521763364E+03  0.00000000000E+00 0. -1.
<mgrwt>
<rscale>  2 0.19942243E+04</rscale>
<asrwt>0</asrwt>
<pdfrwt beam="2">  1        2 0.40728504E+00 0.19942243E+04</pdfrwt>
<pdfrwt beam="1">  1       -2 0.28833847E+00 0.19942243E+04</pdfrwt>
<totfact> 0.86112048E-02</totfact>
</mgrwt>
</event>
<event>
 8    1  0.1439553E-005  0.1250929E+04  0.7818608E-02  0.8569168E-01
          2   -1    0    0  502    0  0.00000000000E+00  0.00000000000E+00  0.30671860250E+04  0.30671860250E+04  0.00000000000E+00 0.  1.
         -2   -1    0    0    0  501 -0.00000000000E+00 -0.00000000000E+00 -0.52447266946E+03  0.52447266946E+03  0.00000000000E+00 0. -1.
    9000010    2    1    2  502    0  0.47624684008E+03  0.63527143529E+03  0.95236638506E+03  0.15525739159E+04  0.93439990563E+03 0.  0.
   -9000010    2    1    2    0  501 -0.47624684008E+03 -0.63527143529E+03  0.15903469704E+04  0.20390847786E+04  0.99914083019E+03 0.  0.
        -13    1    3    3    0    0  0.66819110876E+03  0.61010333670E+03  0.10046550374E+04  0.13520492575E+04  0.10566000000E+00 0.  1.
          4    1    3    3  502    0 -0.19194426869E+03  0.25168098589E+02 -0.52288652321E+02  0.20052465841E+03  0.00000000000E+00 0.  1.
         13    1    4    4    0    0 -0.32144719278E+03  0.22632566076E+03  0.39317030424E+03  0.55599865266E+03  0.10566000000E+00 0. -1.
         -4    1    4    4    0  501 -0.15479964730E+03 -0.86159709605E+03  0.11971766662E+04  0.14830861259E+04  0.00000000000E+00 0. -1.
<mgrwt>
<rscale>  2 0.12509286E+04</rscale>
<asrwt>0</asrwt>
<pdfrwt beam="1">  1        2 0.47187476E+00 0.12509286E+04</pdfrwt>
<pdfrwt beam="2">  1       -2 0.80688104E-01 0.12509286E+04</pdfrwt>
<totfact> 0.33371091E+00</totfact>
</mgrwt>
</event>
<event>
 8    1  0.1439553E-005  0.1196323E+04  0.7818608E-02  0.8609336E-01
         -2   -1    0    0    0  501 -0.00000000000E+00  0.00000000000E+00  0.88029619885E+03  0.88029619885E+03  0.00000000000E+00 0. -1.
          2   -1    0    0  502    0  0.00000000000E+00 -0.00000000000E+00 -0.26868634628E+04  0.26868634628E+04  0.00000000000E+00 0.  1.
    9000010    2    1    2  502    0 -0.52581672015E+03  0.34931951716E+03 -0.20234378292E+04  0.23498865272E+04  0.10144745900E+04 0.  0.
   -9000010    2    1    2    0  501  0.52581672015E+03 -0.34931951716E+03  0.21687056528E+03  0.12172731344E+04  0.10179458205E+04 0.  0.
        -13    1    3    3    0    0 -0.28061971709E+03 -0.50232921726E+01 -0.18723362103E+04  0.18932552798E+04  0.10566000000E+00 0.  1.
          4    1    3    3  502    0 -0.24519700306E+03  0.35434280933E+03 -0.15110161892E+03  0.45663124737E+03  0.00000000000E+00 0.  1.
         13    1    4    4    0    0 -0.12433708661E+02 -0.63311761257E+02  0.52869747778E+03  0.53261994930E+03  0.10566000000E+00 0. -1.
         -4    1    4    4    0  501  0.53825042881E+03 -0.28600775590E+03 -0.31182691249E+03  0.68465318513E+03  0.00000000000E+00 0. -1.
<mgrwt>
<rscale>  2 0.11963232E+04</rscale>
<asrwt>0</asrwt>
<pdfrwt beam="2">  1        2 0.41336360E+00 0.11963232E+04</pdfrwt>
<pdfrwt beam="1">  1       -2 0.13543019E+00 0.11963232E+04</pdfrwt>
<totfact> 0.15776859E+00</totfact>
</mgrwt>
</event>
<event>
 8    1  0.1439553E-005  0.1097453E+04  0.7818608E-02  0.8688062E-01
         -2   -1    0    0    0  501 -0.00000000000E+00  0.00000000000E+00  0.12199904391E+04  0.12199904391E+04  0.00000000000E+00 0.  1.
          2   -1    0    0  502    0  0.00000000000E+00 -0.00000000000E+00 -0.11931610647E+04  0.11931610647E+04  0.00000000000E+00 0. -1.
    9000010    2    1    2  502    0 -0.20910256970E+03 -0.39796829313E+03  0.51470302378E+03  0.12141612594E+04  0.10035764615E+04 0.  0.
   -9000010    2    1    2    0  501  0.20910256970E+03  0.39796829313E+03 -0.48787364935E+03  0.11989902444E+04  0.99872631959E+03 0.  0.
        -13    1    3    3    0    0 -0.54536382818E+02 -0.38010410212E+03 -0.23385616039E+03  0.44960211345E+03  0.10566000000E+00 0.  1.
          4    1    3    3  502    0 -0.15456618688E+03 -0.17864191012E+02  0.74855918418E+03  0.76455914596E+03  0.00000000000E+00 0.  1.
         13    1    4    4    0    0  0.31545873569E+03  0.37223234220E+03 -0.76143624892E+03  0.90435408046E+03  0.10566000000E+00 0. -1.
         -4    1    4    4    0  501 -0.10635616599E+03  0.25735950933E+02  0.27356259957E+03  0.29463616394E+03  0.00000000000E+00 0. -1.
<mgrwt>
<rscale>  2 0.10974529E+04</rscale>
<asrwt>0</asrwt>
<pdfrwt beam="2">  1        2 0.18356324E+00 0.10974529E+04</pdfrwt>
<pdfrwt beam="1">  1       -2 0.18769084E+00 0.10974529E+04</pdfrwt>
<totfact> 0.37739360E+00</totfact>
</mgrwt>
</event>
<event>
 8    1  0.1439553E-005  0.1090061E+04  0.7818608E-02  0.8694292E-01
          1   -1    0    0  502    0  0.00000000000E+00  0.00000000000E+00  0.83865655380E+03  0.83865655380E+03  0.00000000000E+00 0. -1.
         -1   -1    0    0    0  501 -0.00000000000E+00 -0.00000000000E+00 -0.15502731683E+04  0.15502731683E+04  0.00000000000E+00 0.  1.
    9000010    2    1    2  502    0  0.40396758432E+03  0.14734745378E+03 -0.59259405620E+01  0.10919418394E+04  0.10036935701E+04 0.  0.
   -9000010    2    1    2    0  501 -0.40396758432E+03 -0.14734745378E+03 -0.70569067391E+03  0.12969878827E+04  0.99963851425E+03 0.  0.
        -13    1    3    3    0    0  0.51571684520E+03 -0.18908457412E+03 -0.30486462084E+03  0.62821914074E+03  0.10566000000E+00 0.  1.
          4    1    3    3  502    0 -0.11174926088E+03  0.33643202790E+03  0.29893868027E+03  0.46372269868E+03  0.00000000000E+00 0.  1.
         13    1    4    4    0    0  0.62250099529E+02  0.37692458177E+03 -0.19282120209E+03  0.42793368922E+03  0.10566000000E+00 0. -1.
         -4    1    4    4    0  501 -0.46621768385E+03 -0.52427203555E+03 -0.51286947182E+03  0.86905419343E+03  0.00000000000E+00 0. -1.
<mgrwt>
<rscale>  2 0.10900611E+04</rscale>
<asrwt>0</asrwt>
<pdfrwt beam="1">  1        1 0.12902409E+00 0.10900611E+04</pdfrwt>
<pdfrwt beam="2">  1       -1 0.23850356E+00 0.10900611E+04</pdfrwt>
<totfact> 0.17413614E+00</totfact>
</mgrwt>
</event>
<event>
 8    1  0.1439553E-005  0.1116380E+04  0.7818608E-02  0.8672339E-01
          2   -1    0    0  502    0  0.00000000000E+00  0.00000000000E+00  0.24981961245E+04  0.24981961245E+04  0.00000000000E+00 0.  1.
         -2   -1    0    0    0  501 -0.00000000000E+00 -0.00000000000E+00 -0.62304379045E+03  0.62304379045E+03  0.00000000000E+00 0. -1.
    9000010    2    1    2  502    0 -0.28121428420E+03 -0.37774943647E+03  0.16366755909E+04  0.19832134619E+04  0.10161951266E+04 0.  0.
   -9000010    2    1    2    0  501  0.28121428420E+03  0.37774943647E+03  0.23847674311E+03  0.11380264530E+04  0.10081948920E+04 0.  0.
        -13    1    3    3    0    0  0.13607677142E+03 -0.61476992069E+03  0.79275986383E+03  0.10123868608E+04  0.10566000000E+00 0.  1.
          4    1    3    3  502    0 -0.41729105562E+03  0.23702048421E+03  0.84391572706E+03  0.97082660111E+03  0.00000000000E+00 0.  1.
         13    1    4    4    0    0 -0.38027351950E+03  0.91208834432E+02  0.63090323422E+02  0.39611538872E+03  0.10566000000E+00 0. -1.
         -4    1    4    4    0  501  0.66148780370E+03  0.28654060204E+03  0.17538641969E+03  0.74191106426E+03  0.00000000000E+00 0. -1.
<mgrwt>
<rscale>  2 0.11163801E+04</rscale>
<asrwt>0</asrwt>
<pdfrwt beam="1">  1        2 0.38433786E+00 0.11163801E+04</pdfrwt>
<pdfrwt beam="2">  1       -2 0.95852892E-01 0.11163801E+04</pdfrwt>
<totfact> 0.49781795E+00</totfact>
</mgrwt>
</event>
<event>
 8    1  0.1439553E-005  0.1403338E+04  0.7818608E-02  0.8467396E-01
         -2   -1    0    0    0  501 -0.00000000000E+00  0.00000000000E+00  0.65950460427E+03  0.65950460427E+03  0.00000000000E+00 0.  1.
          2   -1    0    0  502    0  0.00000000000E+00 -0.00000000000E+00 -0.30281742168E+04  0.30281742168E+04  0.00000000000E+00 0. -1.
    9000010    2    1    2  502    0  0.66677228728E+02  0.96974583328E+03 -0.13977545597E+04  0.19774536079E+04  0.10058589008E+04 0.  0.
   -9000010    2    1    2    0  501 -0.66677228728E+02 -0.96974583328E+03 -0.97091505287E+03  0.17102252132E+04  0.10184995856E+04 0.  0.
        -13    1    3    3    0    0  0.47715759542E+03  0.69421263677E+03 -0.11470384563E+04  0.14231330884E+04  0.10566000000E+00 0.  1.
          4    1    3    3  502    0 -0.41048036670E+03  0.27553319651E+03 -0.25071610334E+03  0.55432051946E+03  0.00000000000E+00 0.  1.
         13    1    4    4    0    0  0.29501482150E+03 -0.77311220276E+03 -0.99945071396E+03  0.12975507558E+04  0.10566000000E+00 0. -1.
         -4    1    4    4    0  501 -0.36169205023E+03 -0.19663363052E+03  0.28535661099E+02  0.41267445742E+03  0.00000000000E+00 0. -1.
<mgrwt>
<rscale>  2 0.14033382E+04</rscale>
<asrwt>0</asrwt>
<pdfrwt beam="2">  1        2 0.46587296E+00 0.14033382E+04</pdfrwt>
<pdfrwt beam="1">  1       -2 0.10146225E+00 0.14033382E+04</pdfrwt>
<totfact> 0.20401231E+00</totfact>
</mgrwt>
</event>
<event>
 8    1  0.1439553E-005  0.1294206E+04  0.7818608E-02  0.8538810E-01
         -2   -1    0    0    0  501 -0.00000000000E+00  0.00000000000E+00  0.78217484010E+03  0.78217484010E+03  0.00000000000E+00 0. -1.
          2   -1    0    0  502    0  0.00000000000E+00 -0.00000000000E+00 -0.24206426351E+04  0.24206426351E+04  0.00000000000E+00 0.  1.
    9000010    2    1    2  502    0 -0.45363293152E+03 -0.66734013962E+03 -0.28198207286E+03  0.13358766217E+04  0.10266093515E+04 0.  0.
   -9000010    2    1    2    0  501  0.45363293152E+03  0.66734013962E+03 -0.13564857221E+04  0.18669408534E+04  0.99714037999E+03 0.  0.
        -13    1    3    3    0    0 -0.82164827284E+02 -0.10309473565E+03 -0.58197287088E+03  0.59671770291E+03  0.10566000000E+00 0.  1.
          4    1    3    3  502    0 -0.37146810424E+03 -0.56424540397E+03  0.29999079802E+03  0.73915891882E+03  0.00000000000E+00 0.  1.
         13    1    4    4    0    0  0.13796997376E+03 -0.15363003975E+03  0.45918715066E+02  0.21153354895E+03  0.10566000000E+00 0. -1.
         -4    1    4    4    0  501  0.31566295776E+03  0.82097017937E+03 -0.14024044372E+04  0.16554073045E+04  0.00000000000E+00 0. -1.
<mgrwt>
<rscale>  2 0.12942056E+04</rscale>
<asrwt>0</asrwt>
<pdfrwt beam="2">  1        2 0.37240656E+00 0.12942056E+04</pdfrwt>
<pdfrwt beam="1">  1       -2 0.12033459E+00 0.12942056E+04</pdfrwt>
<totfact> 0.30561262E+00</totfact>
</mgrwt>
</event>
<event>
 8    1  0.1439553E-005  0.1143904E+04  0.7818608E-02  0.8650045E-01
         -4   -1    0    0    0  501 -0.00000000000E+00  0.00000000000E+00  0.60749568688E+03  0.60749568688E+03  0.00000000000E+00 0. -1.
          4   -1    0    0  502    0  0.00000000000E+00 -0.00000000000E+00 -0.28256609793E+04  0.28256609793E+04  0.00000000000E+00 0.  1.
    9000010    2    1    2  502    0 -0.77758377862E+02 -0.49978286047E+03 -0.19355976506E+04  0.22414079787E+04  0.10107137029E+04 0.  0.
   -9000010    2    1    2    0  501  0.77758377862E+02  0.49978286047E+03 -0.28256764187E+03  0.11917486875E+04  0.10414370787E+04 0.  0.
        -13    1    3    3    0    0  0.28172909031E+03  0.19125098835E+03 -0.73806180189E+03  0.81282436937E+03  0.10566000000E+00 0.  1.
          4    1    3    3  502    0 -0.35948746817E+03 -0.69103384881E+03 -0.11975358487E+04  0.14285836093E+04  0.00000000000E+00 0.  1.
         13    1    4    4    0    0  0.86475088617E+02  0.43424902223E+03  0.34462263971E+03  0.56108370964E+03  0.10566000000E+00 0. -1.
         -4    1    4    4    0  501 -0.87167107550E+01  0.65533838237E+02 -0.62719028158E+03  0.63066497786E+03  0.00000000000E+00 0. -1.
<mgrwt>
<rscale>  2 0.11439040E+04</rscale>
<asrwt>0</asrwt>
<pdfrwt beam="2">  1        4 0.43471709E+00 0.11439040E+04</pdfrwt>
<pdfrwt beam="1">  1       -4 0.93460872E-01 0.11439040E+04</pdfrwt>
<totfact> 0.11390356E-01</totfact>
</mgrwt>
</event>
<event>
 8    1  0.1439553E-005  0.1085329E+04  0.7818608E-02  0.8698308E-01
         -1   -1    0    0    0  501 -0.00000000000E+00  0.00000000000E+00  0.25502467328E+04  0.25502467328E+04  0.00000000000E+00 0. -1.
          1   -1    0    0  502    0  0.00000000000E+00 -0.00000000000E+00 -0.52356792190E+03  0.52356792190E+03  0.00000000000E+00 0.  1.
    9000010    2    1    2  502    0  0.36299453265E+03  0.27125941990E+03  0.48304874342E+03  0.11848519644E+04  0.98244154301E+03 0.  0.
   -9000010    2    1    2    0  501 -0.36299453265E+03 -0.27125941990E+03  0.15436300675E+04  0.18889626903E+04  0.98996947250E+03 0.  0.
        -13    1    3    3    0    0 -0.46478407842E+02 -0.28204022713E+01 -0.27599836023E+03  0.27989873718E+03  0.10566000000E+00 0.  1.
          4    1    3    3  502    0  0.40947294049E+03  0.27407982217E+03  0.75904710364E+03  0.90495322723E+03  0.00000000000E+00 0.  1.
         13    1    4    4    0    0 -0.42328204108E+03 -0.11595047788E+02  0.15652515584E+04  0.16215161374E+04  0.10566000000E+00 0. -1.
         -4    1    4    4    0  501  0.60287508433E+02 -0.25966437211E+03 -0.21621490914E+02  0.26744655295E+03  0.00000000000E+00 0. -1.
<mgrwt>
<rscale>  2 0.10853289E+04</rscale>
<asrwt>0</asrwt>
<pdfrwt beam="2">  1        1 0.80548913E-01 0.10853289E+04</pdfrwt>
<pdfrwt beam="1">  1       -1 0.39234564E+00 0.10853289E+04</pdfrwt>
<totfact> 0.63844104E-01</totfact>
</mgrwt>
</event>
<event>
 8    1  0.1439553E-005  0.1195083E+04  0.7818608E-02  0.8610274E-01
         -2   -1    0    0    0  501 -0.00000000000E+00  0.00000000000E+00  0.69983606282E+03  0.69983606282E+03  0.00000000000E+00 0. -1.
          2   -1    0    0  502    0  0.00000000000E+00 -0.00000000000E+00 -0.20908483414E+04  0.20908483414E+04  0.00000000000E+00 0.  1.
    9000010    2    1    2  502    0  0.64837821151E+03  0.14340314472E+03 -0.48422572147E+03  0.12966916046E+04  0.10029834500E+04 0.  0.
   -9000010    2    1    2    0  501 -0.64837821151E+03 -0.14340314472E+03 -0.90678655707E+03  0.14939927996E+04  0.98427326396E+03 0.  0.
        -13    1    3    3    0    0  0.79909494017E+03 -0.11413423204E+03 -0.10479022829E+03  0.81397810133E+03  0.10566000000E+00 0.  1.
          4    1    3    3  502    0 -0.15071672866E+03  0.25753737676E+03 -0.37943549319E+03  0.48271350325E+03  0.00000000000E+00 0.  1.
         13    1    4    4    0    0 -0.14457254280E+03 -0.21384897207E+01  0.21331907648E+03  0.25770299343E+03  0.10566000000E+00 0. -1.
         -4    1    4    4    0  501 -0.50380566872E+03 -0.14126465500E+03 -0.11201056335E+04  0.12362898062E+04  0.00000000000E+00 0. -1.
<mgrwt>
<rscale>  2 0.11950827E+04</rscale>
<asrwt>0</asrwt>
<pdfrwt beam="2">  1        2 0.32166897E+00 0.11950827E+04</pdfrwt>
<pdfrwt beam="1">  1       -2 0.10766709E+00 0.11950827E+04</pdfrwt>
<totfact> 0.62339572E+00</totfact>
</mgrwt>
</event>
<event>
 8    1  0.1439553E-005  0.1102599E+04  0.7818608E-02  0.8683754E-01
          2   -1    0    0  502    0  0.00000000000E+00  0.00000000000E+00  0.22684796064E+04  0.22684796064E+04  0.00000000000E+00 0.  1.
         -2   -1    0    0    0  501 -0.00000000000E+00 -0.00000000000E+00 -0.54453653292E+03  0.54453653292E+03  0.00000000000E+00 0. -1.
    9000010    2    1    2  502    0  0.44344206527E+03  0.23558585693E+03  0.70624222506E+03  0.13299307357E+04  0.10088588207E+04 0.  0.
   -9000010    2    1    2    0  501 -0.44344206527E+03 -0.23558585693E+03  0.10177008484E+04  0.14830854036E+04  0.95482235852E+03 0.  0.
        -13    1    3    3    0    0  0.71067341205E+03  0.39758710693E+03  0.51765425176E+03  0.96493426808E+03  0.10566000000E+00 0.  1.
          4    1    3    3  502    0 -0.26723134678E+03 -0.16200125000E+03  0.18858797331E+03  0.36499646763E+03  0.00000000000E+00 0.  1.
         13    1    4    4    0    0 -0.38035305073E+03 -0.57995606018E+03  0.84355637079E+03  0.10920644838E+04  0.10566000000E+00 0. -1.
         -4    1    4    4    0  501 -0.63089014539E+02  0.34437020325E+03  0.17414447764E+03  0.39102091982E+03  0.00000000000E+00 0. -1.
<mgrwt>
<rscale>  2 0.11025994E+04</rscale>
<asrwt>0</asrwt>
<pdfrwt beam="1">  1        2 0.34899686E+00 0.11025994E+04</pdfrwt>
<pdfrwt beam="2">  1       -2 0.83774853E-01 0.11025994E+04</pdfrwt>
<totfact> 0.90956052E+00</totfact>
</mgrwt>
</event>
<event>
 8    1  0.1439553E-005  0.1247033E+04  0.7818608E-02  0.8571963E-01
         -1   -1    0    0    0  501 -0.00000000000E+00  0.00000000000E+00  0.89933580108E+03  0.89933580108E+03  0.00000000000E+00 0.  1.
          1   -1    0    0  502    0  0.00000000000E+00 -0.00000000000E+00 -0.18012373911E+04  0.18012373911E+04  0.00000000000E+00 0. -1.
    9000010    2    1    2  502    0 -0.17184582468E+03 -0.73760930871E+03 -0.71757876842E+03  0.14305601076E+04  0.97876680201E+03 0.  0.
   -9000010    2    1    2    0  501  0.17184582468E+03  0.73760930871E+03 -0.18432282165E+03  0.12700130847E+04  0.10026763450E+04 0.  0.
        -13    1    3    3    0    0  0.47159878674E+01 -0.82445170171E+03 -0.16075119053E+03  0.83999036031E+03  0.10566000000E+00 0.  1.
          4    1    3    3  502    0 -0.17656181254E+03  0.86842392999E+02 -0.55682757789E+03  0.59056974725E+03  0.00000000000E+00 0.  1.
         13    1    4    4    0    0 -0.39227975994E+03  0.18093303411E+03 -0.20285375010E+03  0.47725237347E+03  0.10566000000E+00 0. -1.
         -4    1    4    4    0  501  0.56412558461E+03  0.55667627459E+03  0.18530928449E+02  0.79276071120E+03  0.00000000000E+00 0. -1.
<mgrwt>
<rscale>  2 0.12470326E+04</rscale>
<asrwt>0</asrwt>
<pdfrwt beam="2">  1        1 0.27711344E+00 0.12470326E+04</pdfrwt>
<pdfrwt beam="1">  1       -1 0.13835935E+00 0.12470326E+04</pdfrwt>
<totfact> 0.24043861E+00</totfact>
</mgrwt>
</event>
<event>
 8    1  0.1439553E-005  0.1583033E+04  0.7818608E-02  0.8363254E-01
          2   -1    0    0  502    0  0.00000000000E+00  0.00000000000E+00  0.91567550149E+03  0.91567550149E+03  0.00000000000E+00 0.  1.
         -2   -1    0    0    0  501 -0.00000000000E+00 -0.00000000000E+00 -0.27761389968E+04  0.27761389968E+04  0.00000000000E+00 0. -1.
    9000010    2    1    2  502    0  0.98119979794E+03  0.70718188444E+03 -0.71993937353E+03  0.17529739367E+04  0.10448663360E+04 0.  0.
   -9000010    2    1    2    0  501 -0.98119979794E+03 -0.70718188444E+03 -0.11405241218E+04  0.19388405615E+04  0.99772149902E+03 0.  0.
        -13    1    3    3    0    0  0.10941981999E+04  0.75775201768E+03 -0.84536924056E+03  0.15767393523E+04  0.10566000000E+00 0.  1.
          4    1    3    3  502    0 -0.11299840193E+03 -0.50570133239E+02  0.12542986704E+03  0.17623458446E+03  0.00000000000E+00 0.  1.
         13    1    4    4    0    0 -0.63531996964E+03 -0.87332187946E+03 -0.49526685998E+03  0.11881127231E+04  0.10566000000E+00 0. -1.
         -4    1    4    4    0  501 -0.34587982829E+03  0.16613999503E+03 -0.64525726178E+03  0.75072783847E+03  0.00000000000E+00 0. -1.
<mgrwt>
<rscale>  2 0.15830331E+04</rscale>
<asrwt>0</asrwt>
<pdfrwt beam="1">  1        2 0.14087315E+00 0.15830331E+04</pdfrwt>
<pdfrwt beam="2">  1       -2 0.42709831E+00 0.15830331E+04</pdfrwt>
<totfact> 0.12680438E-01</totfact>
</mgrwt>
</event>
<event>
 8    1  0.1439553E-005  0.1269833E+04  0.7818608E-02  0.8555753E-01
         -2   -1    0    0    0  501 -0.00000000000E+00  0.00000000000E+00  0.44422435078E+03  0.44422435078E+03  0.00000000000E+00 0.  1.
          2   -1    0    0  502    0  0.00000000000E+00 -0.00000000000E+00 -0.48159379349E+04  0.48159379349E+04  0.00000000000E+00 0. -1.
    9000010    2    1    2  502    0 -0.68655630848E+03 -0.19032751637E+03 -0.34430944346E+04  0.36578367855E+04  0.10086062340E+04 0.  0.
   -9000010    2    1    2    0  501  0.68655630848E+03  0.19032751637E+03 -0.92861914952E+03  0.16023255002E+04  0.10943168443E+04 0.  0.
        -13    1    3    3    0    0 -0.93859945852E+03 -0.57099776683E+02 -0.24368161609E+04  0.26119537403E+04  0.10566000000E+00 0.  1.
          4    1    3    3  502    0  0.25204315005E+03 -0.13322773969E+03 -0.10062782737E+04  0.10458830452E+04  0.00000000000E+00 0.  1.
         13    1    4    4    0    0  0.65391098818E+03 -0.34395854700E+03 -0.36172830980E+03  0.82265086385E+03  0.10566000000E+00 0. -1.
         -4    1    4    4    0  501  0.32645320296E+02  0.53428606337E+03 -0.56689083972E+03  0.77967463637E+03  0.00000000000E+00 0. -1.
<mgrwt>
<rscale>  2 0.12698329E+04</rscale>
<asrwt>0</asrwt>
<pdfrwt beam="2">  1        2 0.74091354E+00 0.12698329E+04</pdfrwt>
<pdfrwt beam="1">  1       -2 0.68342207E-01 0.12698329E+04</pdfrwt>
<totfact> 0.17664095E-01</totfact>
</mgrwt>
</event>
<event>
 8    1  0.1439553E-005  0.1119755E+04  0.7818608E-02  0.8669570E-01
          2   -1    0    0  502    0  0.00000000000E+00  0.00000000000E+00  0.12972364758E+04  0.12972364758E+04  0.00000000000E+00 0. -1.
         -2   -1    0    0    0  501 -0.00000000000E+00 -0.00000000000E+00 -0.97108347071E+03  0.97108347071E+03  0.00000000000E+00 0.  1.
    9000010    2    1    2  502    0  0.44548831315E+03 -0.27126109260E+03  0.85886509495E+02  0.11246891731E+04  0.99272696451E+03 0.  0.
   -9000010    2    1    2    0  501 -0.44548831315E+03  0.27126109260E+03  0.24026649559E+03  0.11436307734E+04  0.98899996938E+03 0.  0.
        -13    1    3    3    0    0  0.98147880646E+02 -0.60830970636E+03  0.15607352752E+03  0.63563563658E+03  0.10566000000E+00 0.  1.
          4    1    3    3  502    0  0.34734043251E+03  0.33704861376E+03 -0.70187018024E+02  0.48905353653E+03  0.00000000000E+00 0.  1.
         13    1    4    4    0    0  0.12151015649E+03  0.48577116144E+03  0.18910639511E+03  0.53525655461E+03  0.10566000000E+00 0. -1.
         -4    1    4    4    0  501 -0.56699846964E+03 -0.21451006884E+03  0.51160100479E+02  0.60837421879E+03  0.00000000000E+00 0. -1.
<mgrwt>
<rscale>  2 0.11197548E+04</rscale>
<asrwt>0</asrwt>
<pdfrwt beam="1">  1        2 0.19957484E+00 0.11197548E+04</pdfrwt>
<pdfrwt beam="2">  1       -2 0.14939746E+00 0.11197548E+04</pdfrwt>
<totfact> 0.69533064E+00</totfact>
</mgrwt>
</event>
<event>
 8    1  0.1439553E-005  0.1796947E+04  0.7818608E-02  0.8256483E-01
          2   -1    0    0  502    0  0.00000000000E+00  0.00000000000E+00  0.13976199953E+04  0.13976199953E+04  0.00000000000E+00 0. -1.
         -2   -1    0    0    0  501 -0.00000000000E+00 -0.00000000000E+00 -0.23878120833E+04  0.23878120833E+04  0.00000000000E+00 0.  1.
    9000010    2    1    2  502    0 -0.78566493227E+02  0.14905160568E+04 -0.15571542645E+03  0.18090480666E+04  0.10102459125E+04 0.  0.
   -9000010    2    1    2    0  501  0.78566493227E+02 -0.14905160568E+04 -0.83447666155E+03  0.19763840120E+04  0.99092464630E+03 0.  0.
        -13    1    3    3    0    0 -0.64838818912E+02  0.16430724582E+04 -0.10501049211E+03  0.16477009407E+04  0.10566000000E+00 0.  1.
          4    1    3    3  502    0 -0.13727674315E+02 -0.15255640142E+03 -0.50704934346E+02  0.16134712586E+03  0.00000000000E+00 0.  1.
         13    1    4    4    0    0 -0.15209602788E+03 -0.83247696840E+03  0.52794569749E+02  0.84790234247E+03  0.10566000000E+00 0. -1.
         -4    1    4    4    0  501  0.23066252110E+03 -0.65803908843E+03 -0.88727123129E+03  0.11284816695E+04  0.00000000000E+00 0. -1.
<mgrwt>
<rscale>  2 0.17969466E+04</rscale>
<asrwt>0</asrwt>
<pdfrwt beam="1">  1        2 0.21501846E+00 0.17969466E+04</pdfrwt>
<pdfrwt beam="2">  1       -2 0.36735570E+00 0.17969466E+04</pdfrwt>
<totfact> 0.12206871E-01</totfact>
</mgrwt>
</event>
<event>
 8    1  0.1439553E-005  0.1219202E+04  0.7818608E-02  0.8592241E-01
          1   -1    0    0  502    0  0.00000000000E+00  0.00000000000E+00  0.21427928526E+04  0.21427928526E+04  0.00000000000E+00 0. -1.
         -1   -1    0    0    0  501 -0.00000000000E+00 -0.00000000000E+00 -0.10505975338E+04  0.10505975338E+04  0.00000000000E+00 0.  1.
    9000010    2    1    2  502    0  0.45102388040E+03 -0.54792327165E+03 -0.38817004307E+03  0.12674195668E+04  0.97572225745E+03 0.  0.
   -9000010    2    1    2    0  501 -0.45102388040E+03  0.54792327165E+03  0.14803653618E+04  0.19259708196E+04  0.10070946039E+04 0.  0.
        -13    1    3    3    0    0  0.35130128008E+03 -0.41427089581E+03  0.25710485639E+03  0.60094582355E+03  0.10566000000E+00 0.  1.
          4    1    3    3  502    0  0.99722600323E+02 -0.13365237584E+03 -0.64527489946E+03  0.66647374326E+03  0.00000000000E+00 0.  1.
         13    1    4    4    0    0 -0.17301064467E+03  0.29625024782E+03  0.15112429351E+04  0.15496941997E+04  0.10566000000E+00 0. -1.
         -4    1    4    4    0  501 -0.27801323574E+03  0.25167302383E+03 -0.30877573290E+02  0.37627661993E+03  0.00000000000E+00 0. -1.
<mgrwt>
<rscale>  2 0.12192021E+04</rscale>
<asrwt>0</asrwt>
<pdfrwt beam="1">  1        1 0.32966044E+00 0.12192021E+04</pdfrwt>
<pdfrwt beam="2">  1       -1 0.16163039E+00 0.12192021E+04</pdfrwt>
<totfact> 0.83359601E-01</totfact>
</mgrwt>
</event>
<event>
 8    1  0.1439553E-005  0.1653909E+04  0.7818608E-02  0.8326043E-01
          2   -1    0    0  502    0  0.00000000000E+00  0.00000000000E+00  0.32918952781E+04  0.32918952781E+04  0.00000000000E+00 0.  1.
         -2   -1    0    0    0  501 -0.00000000000E+00 -0.00000000000E+00 -0.95523946471E+03  0.95523946471E+03  0.00000000000E+00 0. -1.
    9000010    2    1    2  502    0  0.11411650910E+04 -0.59117708269E+03  0.38210508971E+03  0.16637114575E+04  0.98497888615E+03 0.  0.
   -9000010    2    1    2    0  501 -0.11411650910E+04  0.59117708269E+03  0.19545507236E+04  0.25834232853E+04  0.10963846186E+04 0.  0.
        -13    1    3    3    0    0  0.22385744229E+03  0.13094967663E+02 -0.29710514314E+03  0.37222991536E+03  0.10566000000E+00 0.  1.
          4    1    3    3  502    0  0.91730764868E+03 -0.60427205036E+03  0.67921023285E+03  0.12914815421E+04  0.00000000000E+00 0.  1.
         13    1    4    4    0    0 -0.10334051584E+04  0.84938833474E+03  0.18538112329E+04  0.22860452452E+04  0.10566000000E+00 0. -1.
         -4    1    4    4    0  501 -0.10775993256E+03 -0.25821125205E+03  0.10073949071E+03  0.29737804010E+03  0.00000000000E+00 0. -1.
<mgrwt>
<rscale>  2 0.16539086E+04</rscale>
<asrwt>0</asrwt>
<pdfrwt beam="1">  1        2 0.50644542E+00 0.16539086E+04</pdfrwt>
<pdfrwt beam="2">  1       -2 0.14695992E+00 0.16539086E+04</pdfrwt>
<totfact> 0.49409317E-01</totfact>
</mgrwt>
</event>
<event>
 8    1  0.1439553E-005  0.1489161E+04  0.7818608E-02  0.8415764E-01
          2   -1    0    0  502    0  0.00000000000E+00  0.00000000000E+00  0.32813988503E+04  0.32813988503E+04  0.00000000000E+00 0. -1.
         -2   -1    0    0    0  501 -0.00000000000E+00 -0.00000000000E+00 -0.69994776540E+03  0.69994776540E+03  0.00000000000E+00 0.  1.
    9000010    2    1    2  502    0  0.60987185844E+02 -0.10661237332E+04  0.95124709533E+03  0.17952035772E+04  0.10851477299E+04 0.  0.
   -9000010    2    1    2    0  501 -0.60987185844E+02  0.10661237332E+04  0.16302039896E+04  0.21861430385E+04  0.99061449915E+03 0.  0.
        -13    1    3    3    0    0 -0.84909002906E+02 -0.34463269328E+03 -0.21581189551E+03  0.41539862477E+03  0.10566000000E+00 0.  1.
          4    1    3    3  502    0  0.14589618875E+03 -0.72149103993E+03  0.11670589908E+04  0.13798049524E+04  0.00000000000E+00 0.  1.
         13    1    4    4    0    0  0.21044605609E+03  0.34422950406E+03  0.23763088264E+02  0.40416109353E+03  0.10566000000E+00 0. -1.
         -4    1    4    4    0  501 -0.27143324194E+03  0.72189422915E+03  0.16064409013E+04  0.17819819450E+04  0.00000000000E+00 0. -1.
<mgrwt>
<rscale>  2 0.14891612E+04</rscale>
<asrwt>0</asrwt>
<pdfrwt beam="1">  1        2 0.50483058E+00 0.14891612E+04</pdfrwt>
<pdfrwt beam="2">  1       -2 0.10768427E+00 0.14891612E+04</pdfrwt>
<totfact> 0.11993854E+00</totfact>
</mgrwt>
</event>
<event>
 8    1  0.1439553E-005  0.1338753E+04  0.7818608E-02  0.8508814E-01
         -2   -1    0    0    0  501 -0.00000000000E+00  0.00000000000E+00  0.18376805681E+04  0.18376805681E+04  0.00000000000E+00 0.  1.
          2   -1    0    0  502    0  0.00000000000E+00 -0.00000000000E+00 -0.10824696943E+04  0.10824696943E+04  0.00000000000E+00 0. -1.
    9000010    2    1    2  502    0  0.69023887725E+03  0.59623078872E+03 -0.80383009065E+02  0.13467506983E+04  0.98760070588E+03 0.  0.
   -9000010    2    1    2    0  501 -0.69023887725E+03 -0.59623078872E+03  0.83559388290E+03  0.15733995641E+04  0.97234160150E+03 0.  0.
        -13    1    3    3    0    0 -0.25791434234E+02 -0.58744082545E+02 -0.33694613426E+03  0.34299967036E+03  0.10566000000E+00 0.  1.
          4    1    3    3  502    0  0.71603031148E+03  0.65497487126E+03  0.25656312519E+03  0.10037510280E+04  0.00000000000E+00 0.  1.
         13    1    4    4    0    0 -0.82650911668E+03 -0.52817526158E+03  0.31380819702E+03  0.10298359202E+04  0.10566000000E+00 0. -1.
         -4    1    4    4    0  501  0.13627023943E+03 -0.68055527138E+02  0.52178568588E+03  0.54356364385E+03  0.00000000000E+00 0. -1.
<mgrwt>
<rscale>  2 0.13387532E+04</rscale>
<asrwt>0</asrwt>
<pdfrwt beam="2">  1        2 0.16653380E+00 0.13387532E+04</pdfrwt>
<pdfrwt beam="1">  1       -2 0.28272009E+00 0.13387532E+04</pdfrwt>
<totfact> 0.75309097E-01</totfact>
</mgrwt>
</event>
<event>
 8    1  0.1439553E-005  0.1095546E+04  0.7818608E-02  0.8689664E-01
         -2   -1    0    0    0  501 -0.00000000000E+00  0.00000000000E+00  0.52292699498E+03  0.52292699498E+03  0.00000000000E+00 0.  1.
          2   -1    0    0  502    0  0.00000000000E+00 -0.00000000000E+00 -0.23004823695E+04  0.23004823695E+04  0.00000000000E+00 0. -1.
    9000010    2    1    2  502    0 -0.29314603846E+03 -0.28342800695E+03 -0.96579113158E+03  0.14719122901E+04  0.10332024220E+04 0.  0.
   -9000010    2    1    2    0  501  0.29314603846E+03  0.28342800695E+03 -0.81176424290E+03  0.13514970744E+04  0.10006583438E+04 0.  0.
        -13    1    3    3    0    0  0.97204245102E+02  0.33197149633E+03 -0.49652242652E+03  0.60513491954E+03  0.10566000000E+00 0.  1.
          4    1    3    3  502    0 -0.39035028356E+03 -0.61539950328E+03 -0.46926870506E+03  0.86677737053E+03  0.00000000000E+00 0.  1.
         13    1    4    4    0    0 -0.21831698029E+03 -0.25641360425E+03 -0.24343299384E+03  0.41553564706E+03  0.10566000000E+00 0. -1.
         -4    1    4    4    0  501  0.51146301875E+03  0.53984161120E+03 -0.56833124906E+03  0.93596142730E+03  0.00000000000E+00 0. -1.
<mgrwt>
<rscale>  2 0.10955464E+04</rscale>
<asrwt>0</asrwt>
<pdfrwt beam="2">  1        2 0.35392037E+00 0.10955464E+04</pdfrwt>
<pdfrwt beam="1">  1       -2 0.80450305E-01 0.10955464E+04</pdfrwt>
<totfact> 0.95591024E+00</totfact>
</mgrwt>
</event>
<event>
 8    1  0.1439553E-005  0.1049767E+04  0.7818608E-02  0.8729185E-01
         -2   -1    0    0    0  501 -0.00000000000E+00  0.00000000000E+00  0.53897612556E+03  0.53897612556E+03  0.00000000000E+00 0. -1.
          2   -1    0    0  502    0  0.00000000000E+00 -0.00000000000E+00 -0.21226063553E+04  0.21226063553E+04  0.00000000000E+00 0.  1.
    9000010    2    1    2  502    0  0.33415623859E+03 -0.14806450084E+03 -0.10475888462E+04  0.14837612765E+04  0.98515057059E+03 0.  0.
   -9000010    2    1    2    0  501 -0.33415623859E+03  0.14806450084E+03 -0.53604138353E+03  0.11778212044E+04  0.98302539966E+03 0.  0.
        -13    1    3    3    0    0  0.20888563466E+03 -0.15683437671E+03  0.13533767506E+03  0.29418791195E+03  0.10566000000E+00 0.  1.
          4    1    3    3  502    0  0.12527060394E+03  0.87698758688E+01 -0.11829265212E+04  0.11895733645E+04  0.00000000000E+00 0.  1.
         13    1    4    4    0    0  0.67245269691E+02 -0.13271646467E+03  0.22679748777E+03  0.27124287624E+03  0.10566000000E+00 0. -1.
         -4    1    4    4    0  501 -0.40140150828E+03  0.28078096551E+03 -0.76283887130E+03  0.90657832812E+03  0.00000000000E+00 0. -1.
<mgrwt>
<rscale>  2 0.10497675E+04</rscale>
<asrwt>0</asrwt>
<pdfrwt beam="2">  1        2 0.32655483E+00 0.10497675E+04</pdfrwt>
<pdfrwt beam="1">  1       -2 0.82919403E-01 0.10497675E+04</pdfrwt>
<totfact> 0.11246948E+01</totfact>
</mgrwt>
</event>
<event>
 8    1  0.1439553E-005  0.1074705E+04  0.7818608E-02  0.8707401E-01
         -1   -1    0    0    0  501 -0.00000000000E+00  0.00000000000E+00  0.16246606966E+04  0.16246606966E+04  0.00000000000E+00 0.  1.
          1   -1    0    0  502    0  0.00000000000E+00 -0.00000000000E+00 -0.13067158221E+04  0.13067158221E+04  0.00000000000E+00 0. -1.
    9000010    2    1    2  502    0 -0.44187216968E+03 -0.16608463874E+03 -0.83233640284E+03  0.13387252216E+04  0.93625114685E+03 0.  0.
   -9000010    2    1    2    0  501  0.44187216968E+03  0.16608463874E+03  0.11502812773E+04  0.15926512971E+04  0.99526680629E+03 0.  0.
        -13    1    3    3    0    0 -0.84909390506E+02 -0.50978428603E+03 -0.59861364048E+03  0.79084001202E+03  0.10566000000E+00 0.  1.
          4    1    3    3  502    0 -0.35696277918E+03  0.34369964729E+03 -0.23372276237E+03  0.54788520961E+03  0.00000000000E+00 0.  1.
         13    1    4    4    0    0  0.27853903555E+03  0.32485667223E+03  0.81200076512E+01  0.42799742699E+03  0.10566000000E+00 0. -1.
         -4    1    4    4    0  501  0.16333313413E+03 -0.15877203349E+03  0.11421612696E+04  0.11646538701E+04  0.00000000000E+00 0. -1.
<mgrwt>
<rscale>  2 0.10747050E+04</rscale>
<asrwt>0</asrwt>
<pdfrwt beam="2">  1        1 0.20103320E+00 0.10747050E+04</pdfrwt>
<pdfrwt beam="1">  1       -1 0.24994780E+00 0.10747050E+04</pdfrwt>
<totfact> 0.57030240E-01</totfact>
</mgrwt>
</event>
<event>
 8    1  0.1439553E-005  0.1494671E+04  0.7818608E-02  0.8412572E-01
          4   -1    0    0  502    0  0.00000000000E+00  0.00000000000E+00  0.26202574483E+04  0.26202574483E+04  0.00000000000E+00 0.  1.
         -4   -1    0    0    0  501 -0.00000000000E+00 -0.00000000000E+00 -0.88232615403E+03  0.88232615403E+03  0.00000000000E+00 0. -1.
    9000010    2    1    2  502    0 -0.74537832141E+03  0.82977215209E+03  0.11885301235E+04  0.19070589048E+04  0.99002987107E+03 0.  0.
   -9000010    2    1    2    0  501  0.74537832141E+03 -0.82977215209E+03  0.54940117080E+03  0.15955246975E+04  0.99987336578E+03 0.  0.
        -13    1    3    3    0    0 -0.94790624876E+03  0.52461050335E+03  0.10684586744E+04  0.15216262309E+04  0.10566000000E+00 0.  1.
          4    1    3    3  502    0  0.20252792735E+03  0.30516164874E+03  0.12007144915E+03  0.38543267391E+03  0.00000000000E+00 0.  1.
         13    1    4    4    0    0  0.49251409760E+03 -0.73248174092E+03  0.82561743980E+03  0.12086123469E+04  0.10566000000E+00 0. -1.
         -4    1    4    4    0  501  0.25286422381E+03 -0.97290411171E+02 -0.27621626900E+03  0.38691235060E+03  0.00000000000E+00 0. -1.
<mgrwt>
<rscale>  2 0.14946713E+04</rscale>
<asrwt>0</asrwt>
<pdfrwt beam="1">  1        4 0.40311653E+00 0.14946713E+04</pdfrwt>
<pdfrwt beam="2">  1       -4 0.13574249E+00 0.14946713E+04</pdfrwt>
<totfact> 0.77840965E-02</totfact>
</mgrwt>
</event>
<event>
 8    1  0.1439553E-005  0.1647517E+04  0.7818608E-02  0.8329319E-01
          2   -1    0    0  502    0  0.00000000000E+00  0.00000000000E+00  0.27984449498E+04  0.27984449498E+04  0.00000000000E+00 0.  1.
         -2   -1    0    0    0  501 -0.00000000000E+00 -0.00000000000E+00 -0.97888192745E+03  0.97888192745E+03  0.00000000000E+00 0. -1.
    9000010    2    1    2  502    0  0.57187976322E+03 -0.11768027806E+04  0.73102832332E+03  0.18053650262E+04  0.10064935272E+04 0.  0.
   -9000010    2    1    2    0  501 -0.57187976322E+03  0.11768027806E+04  0.10885346990E+04  0.19719618510E+04  0.99589884173E+03 0.  0.
        -13    1    3    3    0    0  0.51157045666E+03 -0.45112341051E+03 -0.11220217255E+03  0.69123512811E+03  0.10566000000E+00 0.  1.
          4    1    3    3  502    0  0.60309306555E+02 -0.72567937010E+03  0.84323049587E+03  0.11141298981E+04  0.00000000000E+00 0.  1.
         13    1    4    4    0    0 -0.71911601374E+03  0.12011211060E+04  0.11488650200E+04  0.18109971280E+04  0.10566000000E+00 0. -1.
         -4    1    4    4    0  501  0.14723625053E+03 -0.24318325372E+02 -0.60330320979E+02  0.16096472299E+03  0.00000000000E+00 0. -1.
<mgrwt>
<rscale>  2 0.16475170E+04</rscale>
<asrwt>0</asrwt>
<pdfrwt beam="1">  1        2 0.43052999E+00 0.16475170E+04</pdfrwt>
<pdfrwt beam="2">  1       -2 0.15059722E+00 0.16475170E+04</pdfrwt>
<totfact> 0.94087827E-01</totfact>
</mgrwt>
</event>
<event>
 8    1  0.1439553E-005  0.1104410E+04  0.7818608E-02  0.8682244E-01
         -2   -1    0    0    0  501 -0.00000000000E+00  0.00000000000E+00  0.43738716080E+03  0.43738716080E+03  0.00000000000E+00 0. -1.
          2   -1    0    0  502    0  0.00000000000E+00 -0.00000000000E+00 -0.44465650229E+04  0.44465650229E+04  0.00000000000E+00 0.  1.
    9000010    2    1    2  502    0 -0.15193298088E+03 -0.42793862529E+03 -0.35050643575E+04  0.36774582682E+04  0.10158779782E+04 0.  0.
   -9000010    2    1    2    0  501  0.15193298088E+03  0.42793862529E+03 -0.50411350457E+03  0.12064939154E+04  0.99763823344E+03 0.  0.
        -13    1    3    3    0    0 -0.28393957987E+03 -0.59433157354E+03 -0.12546097866E+04  0.14170029753E+04  0.10566000000E+00 0.  1.
          4    1    3    3  502    0  0.13200659898E+03  0.16639294825E+03 -0.22504545709E+04  0.22604552929E+04  0.00000000000E+00 0.  1.
         13    1    4    4    0    0 -0.36378104362E+03  0.57927417462E+02 -0.43194078488E+03  0.56768396683E+03  0.10566000000E+00 0. -1.
         -4    1    4    4    0  501  0.51571402450E+03  0.37001120783E+03 -0.72172719691E+02  0.63880994862E+03  0.00000000000E+00 0. -1.
<mgrwt>
<rscale>  2 0.11044102E+04</rscale>
<asrwt>0</asrwt>
<pdfrwt beam="2">  1        2 0.68408695E+00 0.11044102E+04</pdfrwt>
<pdfrwt beam="1">  1       -2 0.67290330E-01 0.11044102E+04</pdfrwt>
<totfact> 0.39158223E-01</totfact>
</mgrwt>
</event>
<event>
 8    1  0.1439553E-005  0.1088406E+04  0.7818608E-02  0.8695694E-01
          1   -1    0    0  502    0  0.00000000000E+00  0.00000000000E+00  0.29984519574E+04  0.29984519574E+04  0.00000000000E+00 0.  1.
         -1   -1    0    0    0  501 -0.00000000000E+00 -0.00000000000E+00 -0.41729066540E+03  0.41729066540E+03  0.00000000000E+00 0. -1.
    9000010    2    1    2  502    0 -0.41037764711E+03  0.16547687810E+03  0.89033993543E+03  0.14018368094E+04  0.98825544728E+03 0.  0.
   -9000010    2    1    2    0  501  0.41037764711E+03 -0.16547687810E+03  0.16908213565E+04  0.20139058134E+04  0.10005735131E+04 0.  0.
        -13    1    3    3    0    0 -0.37235514402E+03 -0.30986076413E+03  0.12531936468E+03  0.50036686616E+03  0.10566000000E+00 0.  1.
          4    1    3    3  502    0 -0.38022503086E+02  0.47533764223E+03  0.76502057076E+03  0.90146994323E+03  0.00000000000E+00 0.  1.
         13    1    4    4    0    0  0.31930119147E+03 -0.42343932332E+03  0.32727630223E+03  0.62318849522E+03  0.10566000000E+00 0. -1.
         -4    1    4    4    0  501  0.91076455639E+02  0.25796244522E+03  0.13635450543E+04  0.13907173182E+04  0.00000000000E+00 0. -1.
<mgrwt>
<rscale>  2 0.10884058E+04</rscale>
<asrwt>0</asrwt>
<pdfrwt beam="1">  1        1 0.46130029E+00 0.10884058E+04</pdfrwt>
<pdfrwt beam="2">  1       -1 0.64198566E-01 0.10884058E+04</pdfrwt>
<totfact> 0.11550101E+00</totfact>
</mgrwt>
</event>
<event>
 8    1  0.1439553E-005  0.1342098E+04  0.7818608E-02  0.8506611E-01
          2   -1    0    0  502    0  0.00000000000E+00  0.00000000000E+00  0.25212829367E+04  0.25212829367E+04  0.00000000000E+00 0. -1.
         -2   -1    0    0    0  501 -0.00000000000E+00 -0.00000000000E+00 -0.87402859440E+03  0.87402859440E+03  0.00000000000E+00 0.  1.
    9000010    2    1    2  502    0 -0.54262353714E+03  0.70911763079E+03  0.10008113619E+03  0.13496586026E+04  0.10071117079E+04 0.  0.
   -9000010    2    1    2    0  501  0.54262353714E+03 -0.70911763079E+03  0.15471732061E+04  0.20456529285E+04  0.99682639256E+03 0.  0.
        -13    1    3    3    0    0  0.12329729927E+03  0.47964886442E+03  0.34542018709E+03  0.60380491382E+03  0.10566000000E+00 0.  1.
          4    1    3    3  502    0 -0.66592083641E+03  0.22946876638E+03 -0.24533905090E+03  0.74585368874E+03  0.00000000000E+00 0.  1.
         13    1    4    4    0    0  0.10760507230E+03  0.25548648179E+03  0.26865285040E+03  0.38603958237E+03  0.10566000000E+00 0. -1.
         -4    1    4    4    0  501  0.43501846484E+03 -0.96460411259E+03  0.12785203557E+04  0.16596133461E+04  0.00000000000E+00 0. -1.
<mgrwt>
<rscale>  2 0.13420980E+04</rscale>
<asrwt>0</asrwt>
<pdfrwt beam="1">  1        2 0.38788968E+00 0.13420980E+04</pdfrwt>
<pdfrwt beam="2">  1       -2 0.13446594E+00 0.13420980E+04</pdfrwt>
<totfact> 0.19677072E+00</totfact>
</mgrwt>
</event>
<event>
 8    1  0.1439553E-005  0.1348045E+04  0.7818608E-02  0.8502709E-01
          1   -1    0    0  502    0  0.00000000000E+00  0.00000000000E+00  0.15372791328E+04  0.15372791328E+04  0.00000000000E+00 0. -1.
         -1   -1    0    0    0  501 -0.00000000000E+00 -0.00000000000E+00 -0.11840331953E+04  0.11840331953E+04  0.00000000000E+00 0.  1.
    9000010    2    1    2  502    0  0.44341460197E+03  0.76083539435E+03  0.22738427345E+03  0.13522758932E+04  0.10007294724E+04 0.  0.
   -9000010    2    1    2    0  501 -0.44341460197E+03 -0.76083539435E+03  0.12586166399E+03  0.13690364349E+04  0.10406404735E+04 0.  0.
        -13    1    3    3    0    0 -0.31846565363E+03  0.31002012193E+03  0.31256761445E+02  0.44554443644E+03  0.10566000000E+00 0.  1.
          4    1    3    3  502    0  0.76188025560E+03  0.45081527242E+03  0.19612751201E+03  0.90673145676E+03  0.00000000000E+00 0.  1.
         13    1    4    4    0    0  0.30459167436E+03 -0.17894120496E+03  0.22081945318E+03  0.41660207031E+03  0.10566000000E+00 0. -1.
         -4    1    4    4    0  501 -0.74800627633E+03 -0.58189418939E+03 -0.94957789188E+02  0.95243436457E+03  0.00000000000E+00 0. -1.
<mgrwt>
<rscale>  2 0.13480454E+04</rscale>
<asrwt>0</asrwt>
<pdfrwt beam="1">  1        1 0.23650448E+00 0.13480454E+04</pdfrwt>
<pdfrwt beam="2">  1       -1 0.18215895E+00 0.13480454E+04</pdfrwt>
<totfact> 0.15557727E+00</totfact>
</mgrwt>
</event>
<event>
 8    1  0.1439553E-005  0.1361424E+04  0.7818608E-02  0.8494007E-01
         -1   -1    0    0    0  501 -0.00000000000E+00  0.00000000000E+00  0.68261775726E+03  0.68261775726E+03  0.00000000000E+00 0. -1.
          1   -1    0    0  502    0  0.00000000000E+00 -0.00000000000E+00 -0.27840099916E+04  0.27840099916E+04  0.00000000000E+00 0.  1.
    9000010    2    1    2  502    0 -0.94255244967E+03 -0.86951045883E+02 -0.13207045023E+04  0.18945088890E+04  0.97413445859E+03 0.  0.
   -9000010    2    1    2    0  501  0.94255244967E+03  0.86951045883E+02 -0.78068773206E+03  0.15721188599E+04  0.98291340908E+03 0.  0.
        -13    1    3    3    0    0 -0.55728990066E+03 -0.11032270901E+03 -0.54417497169E+02  0.57070518542E+03  0.10566000000E+00 0.  1.
          4    1    3    3  502    0 -0.38526254901E+03  0.23371663127E+02 -0.12662870051E+04  0.13238037036E+04  0.00000000000E+00 0.  1.
         13    1    4    4    0    0  0.33455033467E+03 -0.43756155233E+03 -0.41576568453E+03  0.69010517612E+03  0.10566000000E+00 0. -1.
         -4    1    4    4    0  501  0.60800211500E+03  0.52451259821E+03 -0.36492204753E+03  0.88201368374E+03  0.00000000000E+00 0. -1.
<mgrwt>
<rscale>  2 0.13614235E+04</rscale>
<asrwt>0</asrwt>
<pdfrwt beam="2">  1        1 0.42830923E+00 0.13614235E+04</pdfrwt>
<pdfrwt beam="1">  1       -1 0.10501812E+00 0.13614235E+04</pdfrwt>
<totfact> 0.69041947E-01</totfact>
</mgrwt>
</event>
<event>
 8    1  0.1439553E-005  0.1137005E+04  0.7818608E-02  0.8655571E-01
         -2   -1    0    0    0  501 -0.00000000000E+00  0.00000000000E+00  0.10526613473E+04  0.10526613473E+04  0.00000000000E+00 0.  1.
          2   -1    0    0  502    0  0.00000000000E+00 -0.00000000000E+00 -0.16543526841E+04  0.16543526841E+04  0.00000000000E+00 0. -1.
    9000010    2    1    2  502    0 -0.32029134845E+03 -0.39013820034E+03  0.38599109244E+03  0.12016723664E+04  0.10199181288E+04 0.  0.
   -9000010    2    1    2    0  501  0.32029134845E+03  0.39013820034E+03 -0.98768242928E+03  0.15053416650E+04  0.10177143921E+04 0.  0.
        -13    1    3    3    0    0 -0.35961646139E+03  0.96087567186E+02 -0.21324300278E+03  0.42898649078E+03  0.10566000000E+00 0.  1.
          4    1    3    3  502    0  0.39325112936E+02 -0.48622576752E+03  0.59923409523E+03  0.77268587563E+03  0.00000000000E+00 0.  1.
         13    1    4    4    0    0 -0.12546954321E+03  0.38596324171E+02  0.17069384825E+03  0.21533388843E+03  0.10566000000E+00 0. -1.
         -4    1    4    4    0  501  0.44576089165E+03  0.35154187616E+03 -0.11583762775E+04  0.12900077766E+04  0.00000000000E+00 0. -1.
<mgrwt>
<rscale>  2 0.11370049E+04</rscale>
<asrwt>0</asrwt>
<pdfrwt beam="2">  1        2 0.25451580E+00 0.11370049E+04</pdfrwt>
<pdfrwt beam="1">  1       -2 0.16194790E+00 0.11370049E+04</pdfrwt>
<totfact> 0.34314505E+00</totfact>
</mgrwt>
</event>
<event>
 8    1  0.1439553E-005  0.1284748E+04  0.7818608E-02  0.8545339E-01
         -2   -1    0    0    0  501 -0.00000000000E+00  0.00000000000E+00  0.24975469218E+04  0.24975469218E+04  0.00000000000E+00 0.  1.
          2   -1    0    0  502    0  0.00000000000E+00 -0.00000000000E+00 -0.70010690143E+03  0.70010690143E+03  0.00000000000E+00 0. -1.
    9000010    2    1    2  502    0 -0.54568047643E+02  0.80288523230E+03  0.12680119524E+04  0.17956980652E+04  0.98441600038E+03 0.  0.
   -9000010    2    1    2    0  501  0.54568047643E+02 -0.80288523230E+03  0.52942806798E+03  0.14019557581E+04  0.10186184273E+04 0.  0.
        -13    1    3    3    0    0  0.48990757285E+02  0.97460214497E+03  0.72160459200E+03  0.12136567198E+04  0.10566000000E+00 0.  1.
          4    1    3    3  502    0 -0.10355880493E+03 -0.17171691266E+03  0.54640736044E+03  0.58204134537E+03  0.00000000000E+00 0.  1.
         13    1    4    4    0    0 -0.26671339341E+03 -0.45091724849E+03 -0.17423545661E+03  0.55210542899E+03  0.10566000000E+00 0. -1.
         -4    1    4    4    0  501  0.32128144106E+03 -0.35196798381E+03  0.70366352459E+03  0.84985032908E+03  0.00000000000E+00 0. -1.
<mgrwt>
<rscale>  2 0.12847475E+04</rscale>
<asrwt>0</asrwt>
<pdfrwt beam="2">  1        2 0.10770876E+00 0.12847475E+04</pdfrwt>
<pdfrwt beam="1">  1       -2 0.38423798E+00 0.12847475E+04</pdfrwt>
<totfact> 0.25644599E-01</totfact>
</mgrwt>
</event>
<event>
 8    1  0.1439553E-005  0.1140771E+04  0.7818608E-02  0.8652550E-01
          1   -1    0    0  502    0  0.00000000000E+00  0.00000000000E+00  0.14642393824E+04  0.14642393824E+04  0.00000000000E+00 0. -1.
         -1   -1    0    0    0  501 -0.00000000000E+00 -0.00000000000E+00 -0.91380746110E+03  0.91380746110E+03  0.00000000000E+00 0.  1.
    9000010    2    1    2  502    0 -0.41776710228E+03 -0.30345821833E+03  0.47672864882E+03  0.12662412509E+04  0.10533187832E+04 0.  0.
   -9000010    2    1    2    0  501  0.41776710228E+03  0.30345821833E+03  0.73703272470E+02  0.11118055925E+04  0.98186723197E+03 0.  0.
        -13    1    3    3    0    0 -0.61887911147E+03 -0.37488961115E+03 -0.21854883959E+02  0.72390000848E+03  0.10566000000E+00 0.  1.
          4    1    3    3  502    0  0.20111200919E+03  0.71431392813E+02  0.49858353278E+03  0.54234124246E+03  0.00000000000E+00 0.  1.
         13    1    4    4    0    0  0.63170883854E+03  0.38844734182E+03 -0.18620822628E+03  0.76460506718E+03  0.10566000000E+00 0. -1.
         -4    1    4    4    0  501 -0.21394173626E+03 -0.84989123485E+02  0.25991149875E+03  0.34720052536E+03  0.00000000000E+00 0. -1.
<mgrwt>
<rscale>  2 0.11407710E+04</rscale>
<asrwt>0</asrwt>
<pdfrwt beam="1">  1        1 0.22526760E+00 0.11407710E+04</pdfrwt>
<pdfrwt beam="2">  1       -1 0.14058576E+00 0.11407710E+04</pdfrwt>
<totfact> 0.41535504E+00</totfact>
</mgrwt>
</event>
<event>
 8    1  0.1439553E-005  0.1387096E+04  0.7818608E-02  0.8477593E-01
          2   -1    0    0  502    0  0.00000000000E+00  0.00000000000E+00  0.26266711814E+04  0.26266711814E+04  0.00000000000E+00 0.  1.
         -2   -1    0    0    0  501 -0.00000000000E+00 -0.00000000000E+00 -0.74120683493E+03  0.74120683493E+03  0.00000000000E+00 0. -1.
    9000010    2    1    2  502    0 -0.87521717817E+03 -0.40568254311E+03  0.11221530662E+04  0.17806894037E+04  0.99047655884E+03 0.  0.
   -9000010    2    1    2    0  501  0.87521717817E+03  0.40568254311E+03  0.76331128029E+03  0.15871886127E+04  0.10029656758E+04 0.  0.
        -13    1    3    3    0    0 -0.82994521200E+03 -0.47970479894E+03  0.12808356835E+04  0.15998330564E+04  0.10566000000E+00 0.  1.
          4    1    3    3  502    0 -0.45271966168E+02  0.74022255829E+02 -0.15868261736E+03  0.18085634722E+03  0.00000000000E+00 0.  1.
         13    1    4    4    0    0  0.43836754590E+03 -0.48676826004E+02  0.84345228889E+03  0.95181264621E+03  0.10566000000E+00 0. -1.
         -4    1    4    4    0  501  0.43684963227E+03  0.45435936911E+03 -0.80141008601E+02  0.63537596647E+03  0.00000000000E+00 0. -1.
<mgrwt>
<rscale>  2 0.13870959E+04</rscale>
<asrwt>0</asrwt>
<pdfrwt beam="1">  1        2 0.40410325E+00 0.13870959E+04</pdfrwt>
<pdfrwt beam="2">  1       -2 0.11403182E+00 0.13870959E+04</pdfrwt>
<totfact> 0.26602401E+00</totfact>
</mgrwt>
</event>
<event>
 8    1  0.1439553E-005  0.1071421E+04  0.7818608E-02  0.8710235E-01
         -2   -1    0    0    0  501 -0.00000000000E+00  0.00000000000E+00  0.65216653979E+03  0.65216653979E+03  0.00000000000E+00 0. -1.
          2   -1    0    0  502    0  0.00000000000E+00 -0.00000000000E+00 -0.19039333147E+04  0.19039333147E+04  0.00000000000E+00 0.  1.
    9000010    2    1    2  502    0 -0.29998561870E+03  0.24817063901E+03 -0.97536912055E+03  0.14466306907E+04  0.99489466597E+03 0.  0.
   -9000010    2    1    2    0  501  0.29998561870E+03 -0.24817063901E+03 -0.27639765441E+03  0.11094691639E+04  0.10014719790E+04 0.  0.
        -13    1    3    3    0    0 -0.40727739717E+03  0.43655720992E+03 -0.18198612740E+03  0.62416026589E+03  0.10566000000E+00 0.  1.
          4    1    3    3  502    0  0.10729177847E+03 -0.18838657091E+03 -0.79338299315E+03  0.82247042478E+03  0.00000000000E+00 0.  1.
         13    1    4    4    0    0  0.21463706969E+03  0.30521022343E+03 -0.38825308098E+03  0.53848195720E+03  0.10566000000E+00 0. -1.
         -4    1    4    4    0  501  0.85348549006E+02 -0.55338086244E+03  0.11185542657E+03  0.57098720668E+03  0.00000000000E+00 0. -1.
<mgrwt>
<rscale>  2 0.10714206E+04</rscale>
<asrwt>0</asrwt>
<pdfrwt beam="2">  1        2 0.29291281E+00 0.10714206E+04</pdfrwt>
<pdfrwt beam="1">  1       -2 0.10033332E+00 0.10714206E+04</pdfrwt>
<totfact> 0.94909611E+00</totfact>
</mgrwt>
</event>
<event>
 8    1  0.1439553E-005  0.1500102E+04  0.7818608E-02  0.8409440E-01
         -2   -1    0    0    0  501 -0.00000000000E+00  0.00000000000E+00  0.68687969112E+03  0.68687969112E+03  0.00000000000E+00 0. -1.
          2   -1    0    0  502    0  0.00000000000E+00 -0.00000000000E+00 -0.34814536683E+04  0.34814536683E+04  0.00000000000E+00 0.  1.
    9000010    2    1    2  502    0 -0.70506944651E+03 -0.85769835732E+03 -0.19019115699E+04  0.24212395813E+04  0.10061630554E+04 0.  0.
   -9000010    2    1    2    0  501  0.70506944651E+03  0.85769835732E+03 -0.89266240730E+03  0.17470937781E+04  0.10112967415E+04 0.  0.
        -13    1    3    3    0    0 -0.68676774403E+03 -0.99845644949E+03 -0.19277029322E+04  0.22769725123E+04  0.10566000000E+00 0.  1.
          4    1    3    3  502    0 -0.18301702484E+02  0.14075809218E+03  0.25791362375E+02  0.14426706901E+03  0.00000000000E+00 0.  1.
         13    1    4    4    0    0  0.65844317391E+03  0.77562572974E+03 -0.18615619324E+03  0.10343098304E+04  0.10566000000E+00 0. -1.
         -4    1    4    4    0  501  0.46626272605E+02  0.82072627575E+02 -0.70650621406E+03  0.71278394763E+03  0.00000000000E+00 0. -1.
<mgrwt>
<rscale>  2 0.15001020E+04</rscale>
<asrwt>0</asrwt>
<pdfrwt beam="2">  1        2 0.53560826E+00 0.15001020E+04</pdfrwt>
<pdfrwt beam="1">  1       -2 0.10567380E+00 0.15001020E+04</pdfrwt>
<totfact> 0.90919336E-01</totfact>
</mgrwt>
</event>
<event>
 8    1  0.1439553E-005  0.1119740E+04  0.7818608E-02  0.8669582E-01
          2   -1    0    0  502    0  0.00000000000E+00  0.00000000000E+00  0.28556240554E+04  0.28556240554E+04  0.00000000000E+00 0. -1.
         -2   -1    0    0    0  501 -0.00000000000E+00 -0.00000000000E+00 -0.58976954113E+03  0.58976954113E+03  0.00000000000E+00 0.  1.
    9000010    2    1    2  502    0  0.38951938190E+03  0.29264178882E+03  0.20055752550E+04  0.22981833241E+04  0.10109153883E+04 0.  0.
   -9000010    2    1    2    0  501 -0.38951938190E+03 -0.29264178882E+03  0.26027925925E+03  0.11472102724E+04  0.10054757833E+04 0.  0.
        -13    1    3    3    0    0  0.49035470837E+03  0.12835776058E+03  0.31527419741E+03  0.59692653270E+03  0.10566000000E+00 0.  1.
          4    1    3    3  502    0 -0.10083532647E+03  0.16428402825E+03  0.16903010576E+04  0.17012567914E+04  0.00000000000E+00 0.  1.
         13    1    4    4    0    0 -0.36303584645E+03 -0.39376710937E+03 -0.27483456835E+03  0.60198140616E+03  0.10566000000E+00 0. -1.
         -4    1    4    4    0  501 -0.26483535455E+02  0.10112532055E+03  0.53511382760E+03  0.54522886625E+03  0.00000000000E+00 0. -1.
<mgrwt>
<rscale>  2 0.11197403E+04</rscale>
<asrwt>0</asrwt>
<pdfrwt beam="1">  1        2 0.43932677E+00 0.11197403E+04</pdfrwt>
<pdfrwt beam="2">  1       -2 0.90733777E-01 0.11197403E+04</pdfrwt>
<totfact> 0.35122644E+00</totfact>
</mgrwt>
</event>
<event>
 8    1  0.1439553E-005  0.1207724E+04  0.7818608E-02  0.8600769E-01
         -2   -1    0    0    0  501 -0.00000000000E+00  0.00000000000E+00  0.88818513403E+03  0.88818513403E+03  0.00000000000E+00 0. -1.
          2   -1    0    0  502    0  0.00000000000E+00 -0.00000000000E+00 -0.16653643525E+04  0.16653643525E+04  0.00000000000E+00 0.  1.
    9000010    2    1    2  502    0 -0.42260304390E+03  0.56490638762E+03 -0.24325297659E+03  0.12457873607E+04  0.99754778226E+03 0.  0.
   -9000010    2    1    2    0  501  0.42260304390E+03 -0.56490638762E+03 -0.53392624188E+03  0.13077621259E+04  0.96304308657E+03 0.  0.
        -13    1    3    3    0    0  0.19803041781E+03  0.53410139735E+03 -0.25540926215E+03  0.62427097593E+03  0.10566000000E+00 0.  1.
          4    1    3    3  502    0 -0.62063346171E+03  0.30804990270E+02  0.12156285560E+02  0.62151638474E+03  0.00000000000E+00 0.  1.
         13    1    4    4    0    0  0.69269182533E+03 -0.59560923177E+03 -0.34406443076E+03  0.97619294483E+03  0.10566000000E+00 0. -1.
         -4    1    4    4    0  501 -0.27008878143E+03  0.30702844151E+02 -0.18986181112E+03  0.33156918104E+03  0.00000000000E+00 0. -1.
<mgrwt>
<rscale>  2 0.12077240E+04</rscale>
<asrwt>0</asrwt>
<pdfrwt beam="2">  1        2 0.25620990E+00 0.12077240E+04</pdfrwt>
<pdfrwt beam="1">  1       -2 0.13664387E+00 0.12077240E+04</pdfrwt>
<totfact> 0.56243284E+00</totfact>
</mgrwt>
</event>
<event>
 8    1  0.1439553E-005  0.1174470E+04  0.7818608E-02  0.8626039E-01
          4   -1    0    0  502    0  0.00000000000E+00  0.00000000000E+00  0.68852724129E+03  0.68852724129E+03  0.00000000000E+00 0.  1.
         -4   -1    0    0    0  501 -0.00000000000E+00 -0.00000000000E+00 -0.20857689494E+04  0.20857689494E+04  0.00000000000E+00 0. -1.
    9000010    2    1    2  502    0  0.57885234512E+03  0.20484741324E+03 -0.42398801823E+03  0.12503999422E+04  0.10033452426E+04 0.  0.
   -9000010    2    1    2    0  501 -0.57885234512E+03 -0.20484741324E+03 -0.97325368989E+03  0.15238962485E+04  0.99900176730E+03 0.  0.
        -13    1    3    3    0    0  0.48922822959E+03  0.91390142305E+02  0.25288713525E+03  0.55825472060E+03  0.10566000000E+00 0.  1.
          4    1    3    3  502    0  0.89624115532E+02  0.11345727094E+03 -0.67687515348E+03  0.69214522162E+03  0.00000000000E+00 0.  1.
         13    1    4    4    0    0 -0.24198198855E+03 -0.51658417688E+03 -0.16402064062E+03  0.59356320329E+03  0.10566000000E+00 0. -1.
         -4    1    4    4    0  501 -0.33687035656E+03  0.31173676364E+03 -0.80923304927E+03  0.93033304519E+03  0.00000000000E+00 0. -1.
<mgrwt>
<rscale>  2 0.11744696E+04</rscale>
<asrwt>0</asrwt>
<pdfrwt beam="1">  1        4 0.10592727E+00 0.11744696E+04</pdfrwt>
<pdfrwt beam="2">  1       -4 0.32088753E+00 0.11744696E+04</pdfrwt>
<totfact> 0.23475839E-01</totfact>
</mgrwt>
</event>
<event>
 8    1  0.1439553E-005  0.1262641E+04  0.7818608E-02  0.8560828E-01
          2   -1    0    0  502    0  0.00000000000E+00  0.00000000000E+00  0.23077308575E+04  0.23077308575E+04  0.00000000000E+00 0.  1.
         -2   -1    0    0    0  501 -0.00000000000E+00 -0.00000000000E+00 -0.89792044383E+03  0.89792044383E+03  0.00000000000E+00 0. -1.
    9000010    2    1    2  502    0 -0.63606225275E+03  0.42071174266E+03  0.14771075737E+04  0.19470158379E+04  0.10136322455E+04 0.  0.
   -9000010    2    1    2    0  501  0.63606225275E+03 -0.42071174266E+03 -0.67297160071E+02  0.12586354633E+04  0.99902991047E+03 0.  0.
        -13    1    3    3    0    0 -0.44462828642E+03 -0.22048675718E+03  0.26537253133E+03  0.56278887224E+03  0.10566000000E+00 0.  1.
          4    1    3    3  502    0 -0.19143396634E+03  0.64119849984E+03  0.12117350424E+04  0.13842269657E+04  0.00000000000E+00 0.  1.
         13    1    4    4    0    0 -0.26370912052E+03 -0.14708651002E+03 -0.98634337137E+02  0.31765655243E+03  0.10566000000E+00 0. -1.
         -4    1    4    4    0  501  0.89977137328E+03 -0.27362523265E+03  0.31337177065E+02  0.94097891091E+03  0.00000000000E+00 0. -1.
<mgrwt>
<rscale>  2 0.12626406E+04</rscale>
<asrwt>0</asrwt>
<pdfrwt beam="1">  1        2 0.35503551E+00 0.12626406E+04</pdfrwt>
<pdfrwt beam="2">  1       -2 0.13814161E+00 0.12626406E+04</pdfrwt>
<totfact> 0.24146585E+00</totfact>
</mgrwt>
</event>
<event>
 8    1  0.1439553E-005  0.1140056E+04  0.7818608E-02  0.8653123E-01
          2   -1    0    0  502    0  0.00000000000E+00  0.00000000000E+00  0.10445895987E+04  0.10445895987E+04  0.00000000000E+00 0.  1.
         -2   -1    0    0    0  501 -0.00000000000E+00 -0.00000000000E+00 -0.12617621543E+04  0.12617621543E+04  0.00000000000E+00 0. -1.
    9000010    2    1    2  502    0  0.22049378525E+03  0.51889962216E+03 -0.24361376313E+03  0.11589714619E+04  0.98284935602E+03 0.  0.
   -9000010    2    1    2    0  501 -0.22049378525E+03 -0.51889962216E+03  0.26441207521E+02  0.11473802912E+04  0.99895348637E+03 0.  0.
        -13    1    3    3    0    0  0.89979969393E+02 -0.21322252837E+03  0.18884850101E+03  0.29870388179E+03  0.10566000000E+00 0.  1.
          4    1    3    3  502    0  0.13051381586E+03  0.73212215053E+03 -0.43246226414E+03  0.86026758008E+03  0.00000000000E+00 0.  1.
         13    1    4    4    0    0  0.10567078873E+03 -0.74291045765E+03 -0.55342046550E+01  0.75040849027E+03  0.10566000000E+00 0. -1.
         -4    1    4    4    0  501 -0.32616457398E+03  0.22401083549E+03  0.31975412176E+02  0.39697180092E+03  0.00000000000E+00 0. -1.
<mgrwt>
<rscale>  2 0.11400556E+04</rscale>
<asrwt>0</asrwt>
<pdfrwt beam="1">  1        2 0.16070609E+00 0.11400556E+04</pdfrwt>
<pdfrwt beam="2">  1       -2 0.19411725E+00 0.11400556E+04</pdfrwt>
<totfact> 0.40531352E+00</totfact>
</mgrwt>
</event>
<event>
 8    1  0.1439553E-005  0.1617393E+04  0.7818608E-02  0.8344968E-01
          2   -1    0    0  502    0  0.00000000000E+00  0.00000000000E+00  0.88160430867E+03  0.88160430867E+03  0.00000000000E+00 0.  1.
         -2   -1    0    0    0  501 -0.00000000000E+00 -0.00000000000E+00 -0.29743407707E+04  0.29743407707E+04  0.00000000000E+00 0. -1.
    9000010    2    1    2  502    0 -0.65546433291E+03 -0.10878024410E+04 -0.11405037677E+04  0.19792466467E+04  0.10018586737E+04 0.  0.
   -9000010    2    1    2    0  501  0.65546433291E+03  0.10878024410E+04 -0.95223269429E+03  0.18766984327E+04  0.10011504686E+04 0.  0.
        -13    1    3    3    0    0 -0.56830254698E+03 -0.62141373797E+03 -0.12356759618E+04  0.14953320409E+04  0.10566000000E+00 0.  1.
          4    1    3    3  502    0 -0.87161785933E+02 -0.46638870298E+03  0.95172194109E+02  0.48391460582E+03  0.00000000000E+00 0.  1.
         13    1    4    4    0    0  0.32943855407E+03  0.81915875782E+03 -0.11165151976E+04  0.14234314276E+04  0.10566000000E+00 0. -1.
         -4    1    4    4    0  501  0.32602577884E+03  0.26864368313E+03  0.16428250334E+03  0.45326700504E+03  0.00000000000E+00 0. -1.
<mgrwt>
<rscale>  2 0.16173927E+04</rscale>
<asrwt>0</asrwt>
<pdfrwt beam="1">  1        2 0.13563144E+00 0.16173927E+04</pdfrwt>
<pdfrwt beam="2">  1       -2 0.45759088E+00 0.16173927E+04</pdfrwt>
<totfact> 0.12926449E-01</totfact>
</mgrwt>
</event>
<event>
 8    1  0.1439553E-005  0.1930532E+04  0.7818608E-02  0.8197277E-01
          2   -1    0    0  502    0  0.00000000000E+00  0.00000000000E+00  0.19308219873E+04  0.19308219873E+04  0.00000000000E+00 0.  1.
         -2   -1    0    0    0  501 -0.00000000000E+00 -0.00000000000E+00 -0.28880414329E+04  0.28880414329E+04  0.00000000000E+00 0. -1.
    9000010    2    1    2  502    0 -0.46124800447E+03  0.15784553044E+04  0.90823228096E+03  0.21373565156E+04  0.10193802672E+04 0.  0.
   -9000010    2    1    2    0  501  0.46124800447E+03 -0.15784553044E+04 -0.18654517265E+04  0.26815069046E+04  0.10031441900E+04 0.  0.
        -13    1    3    3    0    0 -0.51189060378E+03  0.16853486835E+04  0.69503101248E+03  0.18935417330E+04  0.10566000000E+00 0.  1.
          4    1    3    3  502    0  0.50642599304E+02 -0.10689337906E+03  0.21320126847E+03  0.24381478263E+03  0.00000000000E+00 0.  1.
         13    1    4    4    0    0  0.26420543748E+03 -0.14317948527E+03  0.22971071406E+02  0.30138440484E+03  0.10566000000E+00 0. -1.
         -4    1    4    4    0  501  0.19704256700E+03 -0.14352758191E+04 -0.18884227979E+04  0.23801224998E+04  0.00000000000E+00 0. -1.
<mgrwt>
<rscale>  2 0.19305315E+04</rscale>
<asrwt>0</asrwt>
<pdfrwt beam="1">  1        2 0.29704954E+00 0.19305315E+04</pdfrwt>
<pdfrwt beam="2">  1       -2 0.44431407E+00 0.19305315E+04</pdfrwt>
<totfact> 0.32208900E-02</totfact>
</mgrwt>
</event>
<event>
 8    1  0.1439553E-005  0.1160140E+04  0.7818608E-02  0.8637198E-01
         -2   -1    0    0    0  501 -0.00000000000E+00  0.00000000000E+00  0.59689723043E+03  0.59689723043E+03  0.00000000000E+00 0.  1.
          2   -1    0    0  502    0  0.00000000000E+00 -0.00000000000E+00 -0.24086191957E+04  0.24086191957E+04  0.00000000000E+00 0. -1.
    9000010    2    1    2  502    0  0.66242057065E+02  0.52492928051E+03 -0.51360070765E+03  0.12522441317E+04  0.10121219881E+04 0.  0.
   -9000010    2    1    2    0  501 -0.66242057065E+02 -0.52492928051E+03 -0.12981212577E+04  0.17532722945E+04  0.10530461430E+04 0.  0.
        -13    1    3    3    0    0 -0.41890190440E+03  0.49207900072E+03 -0.37260899566E+03  0.74596114059E+03  0.10566000000E+00 0.  1.
          4    1    3    3  502    0  0.48514396147E+03  0.32850279783E+02 -0.14099171199E+03  0.50628299110E+03  0.00000000000E+00 0.  1.
         13    1    4    4    0    0 -0.34530815875E+03  0.12213476868E+03 -0.83014893733E+03  0.90735984898E+03  0.10566000000E+00 0. -1.
         -4    1    4    4    0  501  0.27906610168E+03 -0.64706404919E+03 -0.46797232032E+03  0.84591244550E+03  0.00000000000E+00 0. -1.
<mgrwt>
<rscale>  2 0.11601397E+04</rscale>
<asrwt>0</asrwt>
<pdfrwt beam="2">  1        2 0.37055681E+00 0.11601397E+04</pdfrwt>
<pdfrwt beam="1">  1       -2 0.91830342E-01 0.11601397E+04</pdfrwt>
<totfact> 0.61400024E+00</totfact>
</mgrwt>
</event>
<event>
 8    1  0.1439553E-005  0.1237465E+04  0.7818608E-02  0.8578872E-01
          4   -1    0    0  502    0  0.00000000000E+00  0.00000000000E+00  0.52924637365E+03  0.52924637365E+03  0.00000000000E+00 0.  1.
         -4   -1    0    0    0  501 -0.00000000000E+00 -0.00000000000E+00 -0.28969286646E+04  0.28969286646E+04  0.00000000000E+00 0. -1.
    9000010    2    1    2  502    0  0.32737636103E+03 -0.65284425201E+03 -0.11257372271E+04  0.16742066537E+04  0.10011506957E+04 0.  0.
   -9000010    2    1    2    0  501 -0.32737636103E+03  0.65284425201E+03 -0.12419450638E+04  0.17519683846E+04  0.99678722903E+03 0.  0.
        -13    1    3    3    0    0 -0.20354416529E+03 -0.66981788505E+03 -0.73300146117E+03  0.10135962606E+04  0.10566000000E+00 0.  1.
          4    1    3    3  502    0  0.53092052632E+03  0.16973633046E+02 -0.39273576596E+03  0.66061039301E+03  0.00000000000E+00 0.  1.
         13    1    4    4    0    0 -0.21918325749E+03  0.16857865802E+03 -0.12246324476E+04  0.12554619498E+04  0.10566000000E+00 0. -1.
         -4    1    4    4    0  501 -0.10819310354E+03  0.48426559399E+03 -0.17312616188E+02  0.49650643485E+03  0.00000000000E+00 0. -1.
<mgrwt>
<rscale>  2 0.12374645E+04</rscale>
<asrwt>0</asrwt>
<pdfrwt beam="1">  1        4 0.81422519E-01 0.12374645E+04</pdfrwt>
<pdfrwt beam="2">  1       -4 0.44568133E+00 0.12374645E+04</pdfrwt>
<totfact> 0.13346116E-01</totfact>
</mgrwt>
</event>
<event>
 8    1  0.1439553E-005  0.1354616E+04  0.7818608E-02  0.8498422E-01
         -2   -1    0    0    0  501 -0.00000000000E+00  0.00000000000E+00  0.84443364495E+03  0.84443364495E+03  0.00000000000E+00 0. -1.
          2   -1    0    0  502    0  0.00000000000E+00 -0.00000000000E+00 -0.25454978215E+04  0.25454978215E+04  0.00000000000E+00 0.  1.
    9000010    2    1    2  502    0  0.79210520867E+03  0.46323029482E+03 -0.15003139809E+04  0.20231610762E+04  0.10001128594E+04 0.  0.
   -9000010    2    1    2    0  501 -0.79210520867E+03 -0.46323029482E+03 -0.20075019561E+03  0.13667703902E+04  0.99284827180E+03 0.  0.
        -13    1    3    3    0    0  0.77962196252E+03  0.26106464207E+03 -0.15988938457E+04  0.17978950728E+04  0.10566000000E+00 0.  1.
          4    1    3    3  502    0  0.12483246149E+02  0.20216565274E+03  0.98579864761E+02  0.22526600347E+03  0.00000000000E+00 0.  1.
         13    1    4    4    0    0  0.72033536210E+01 -0.31656316688E+03 -0.41912261499E+03  0.52528840125E+03  0.10566000000E+00 0. -1.
         -4    1    4    4    0  501 -0.79930856229E+03 -0.14666712794E+03  0.21837241938E+03  0.84148198894E+03  0.00000000000E+00 0. -1.
<mgrwt>
<rscale>  2 0.13546163E+04</rscale>
<asrwt>0</asrwt>
<pdfrwt beam="2">  1        2 0.39161505E+00 0.13546163E+04</pdfrwt>
<pdfrwt beam="1">  1       -2 0.12991287E+00 0.13546163E+04</pdfrwt>
<totfact> 0.20976024E+00</totfact>
</mgrwt>
</event>
<event>
 8    1  0.1439553E-005  0.2004034E+04  0.7818608E-02  0.8166752E-01
          2   -1    0    0  502    0  0.00000000000E+00  0.00000000000E+00  0.28277060509E+04  0.28277060509E+04  0.00000000000E+00 0.  1.
         -2   -1    0    0    0  501 -0.00000000000E+00 -0.00000000000E+00 -0.15185998003E+04  0.15185998003E+04  0.00000000000E+00 0. -1.
    9000010    2    1    2  502    0 -0.12933734662E+04 -0.11714240731E+04  0.10246100187E+03  0.20093884632E+04  0.99100678957E+03 0.  0.
   -9000010    2    1    2    0  501  0.12933734662E+04  0.11714240731E+04  0.12066452487E+04  0.23369173880E+04  0.97986776648E+03 0.  0.
        -13    1    3    3    0    0 -0.59317073235E+02 -0.35891238796E+03 -0.30718604953E+03  0.47613012675E+03  0.10566000000E+00 0.  1.
          4    1    3    3  502    0 -0.12340563930E+04 -0.81251168517E+03  0.40964705141E+03  0.15332583365E+04  0.00000000000E+00 0.  1.
         13    1    4    4    0    0  0.26671170131E+03  0.89738175030E+03  0.50684548505E+03  0.10645757344E+04  0.10566000000E+00 0. -1.
         -4    1    4    4    0  501  0.10266617649E+04  0.27404232284E+03  0.69979976365E+03  0.12723416536E+04  0.00000000000E+00 0. -1.
<mgrwt>
<rscale>  2 0.20040339E+04</rscale>
<asrwt>0</asrwt>
<pdfrwt beam="1">  1        2 0.43503170E+00 0.20040339E+04</pdfrwt>
<pdfrwt beam="2">  1       -2 0.23363074E+00 0.20040339E+04</pdfrwt>
<totfact> 0.17639823E-01</totfact>
</mgrwt>
</event>
<event>
 8    1  0.1439553E-005  0.1165567E+04  0.7818608E-02  0.8632952E-01
          2   -1    0    0  502    0  0.00000000000E+00  0.00000000000E+00  0.14642432590E+04  0.14642432590E+04  0.00000000000E+00 0. -1.
         -2   -1    0    0    0  501 -0.00000000000E+00 -0.00000000000E+00 -0.96506147684E+03  0.96506147684E+03  0.00000000000E+00 0.  1.
    9000010    2    1    2  502    0 -0.58633669274E+03  0.10097200451E+03  0.48767361271E+03  0.12611054526E+04  0.99928741970E+03 0.  0.
   -9000010    2    1    2    0  501  0.58633669274E+03 -0.10097200451E+03  0.11508169479E+02  0.11681992832E+04  0.10052716371E+04 0.  0.
        -13    1    3    3    0    0  0.26531185022E+03  0.10210721077E+03  0.95926549682E+01  0.28444382670E+03  0.10566000000E+00 0.  1.
          4    1    3    3  502    0 -0.85164854295E+03 -0.11352062593E+01  0.47808095775E+03  0.97666162593E+03  0.00000000000E+00 0.  1.
         13    1    4    4    0    0 -0.14190266435E+03 -0.11352530473E+03 -0.31996606251E+03  0.36797099516E+03  0.10566000000E+00 0. -1.
         -4    1    4    4    0  501  0.72823935708E+03  0.12553300222E+02  0.33147423199E+03  0.80022828807E+03  0.00000000000E+00 0. -1.
<mgrwt>
<rscale>  2 0.11655668E+04</rscale>
<asrwt>0</asrwt>
<pdfrwt beam="1">  1        2 0.22526819E+00 0.11655668E+04</pdfrwt>
<pdfrwt beam="2">  1       -2 0.14847100E+00 0.11655668E+04</pdfrwt>
<totfact> 0.56999056E+00</totfact>
</mgrwt>
</event>
<event>
 8    1  0.1439553E-005  0.1644733E+04  0.7818608E-02  0.8330751E-01
         -2   -1    0    0    0  501 -0.00000000000E+00  0.00000000000E+00  0.14187714071E+04  0.14187714071E+04  0.00000000000E+00 0.  1.
          2   -1    0    0  502    0  0.00000000000E+00 -0.00000000000E+00 -0.20584695583E+04  0.20584695583E+04  0.00000000000E+00 0. -1.
    9000010    2    1    2  502    0  0.38922802350E+03  0.12131881784E+04  0.14868139937E+03  0.16693010752E+04  0.10682396317E+04 0.  0.
   -9000010    2    1    2    0  501 -0.38922802350E+03 -0.12131881784E+04 -0.78837955058E+03  0.18079398903E+04  0.10118203006E+04 0.  0.
        -13    1    3    3    0    0  0.75587726744E+03  0.70976925680E+03  0.14135395308E+03  0.10464720696E+04  0.10566000000E+00 0.  1.
          4    1    3    3  502    0 -0.36664924394E+03  0.50341892155E+03  0.73274462915E+01  0.62282900553E+03  0.00000000000E+00 0.  1.
         13    1    4    4    0    0  0.25909183371E+03 -0.81469835422E+03 -0.31158203170E+03  0.90991502917E+03  0.10566000000E+00 0. -1.
         -4    1    4    4    0  501 -0.64831985721E+03 -0.39848982414E+03 -0.47679751888E+03  0.89802486113E+03  0.00000000000E+00 0. -1.
<mgrwt>
<rscale>  2 0.16447327E+04</rscale>
<asrwt>0</asrwt>
<pdfrwt beam="2">  1        2 0.31668762E+00 0.16447327E+04</pdfrwt>
<pdfrwt beam="1">  1       -2 0.21827252E+00 0.16447327E+04</pdfrwt>
<totfact> 0.66407558E-01</totfact>
</mgrwt>
</event>
<event>
 8    1  0.1439553E-005  0.1183622E+04  0.7818608E-02  0.8618998E-01
          1   -1    0    0  502    0  0.00000000000E+00  0.00000000000E+00  0.29800094785E+04  0.29800094785E+04  0.00000000000E+00 0.  1.
         -1   -1    0    0    0  501 -0.00000000000E+00 -0.00000000000E+00 -0.10616493483E+04  0.10616493483E+04  0.00000000000E+00 0. -1.
    9000010    2    1    2  502    0 -0.74161397111E+02 -0.61218017999E+03  0.24685386832E+04  0.27387525176E+04  0.10133201056E+04 0.  0.
   -9000010    2    1    2    0  501  0.74161397111E+02  0.61218017999E+03 -0.55017855301E+03  0.13029063092E+04  0.10072754960E+04 0.  0.
        -13    1    3    3    0    0  0.31076476613E+03  0.14718455912E+02  0.14459859194E+04  0.14790762871E+04  0.10566000000E+00 0.  1.
          4    1    3    3  502    0 -0.38492616324E+03 -0.62689863590E+03  0.10225527638E+04  0.12596762305E+04  0.00000000000E+00 0.  1.
         13    1    4    4    0    0  0.43845381054E+03  0.35742519221E+03 -0.63492579254E+03  0.85036773528E+03  0.10566000000E+00 0. -1.
         -4    1    4    4    0  501 -0.36429241343E+03  0.25475498778E+03  0.84747239531E+02  0.45253857392E+03  0.00000000000E+00 0. -1.
<mgrwt>
<rscale>  2 0.11836224E+04</rscale>
<asrwt>0</asrwt>
<pdfrwt beam="1">  1        1 0.45846299E+00 0.11836224E+04</pdfrwt>
<pdfrwt beam="2">  1       -1 0.16333067E+00 0.11836224E+04</pdfrwt>
<totfact> 0.13690099E-01</totfact>
</mgrwt>
</event>
<event>
 8    1  0.1439553E-005  0.1107990E+04  0.7818608E-02  0.8679268E-01
          2   -1    0    0  502    0  0.00000000000E+00  0.00000000000E+00  0.11016443516E+04  0.11016443516E+04  0.00000000000E+00 0.  1.
         -2   -1    0    0    0  501 -0.00000000000E+00 -0.00000000000E+00 -0.12674142574E+04  0.12674142574E+04  0.00000000000E+00 0. -1.
    9000010    2    1    2  502    0 -0.34720315892E+03 -0.32366325463E+03  0.32917322859E+03  0.11481121243E+04  0.99221897765E+03 0.  0.
   -9000010    2    1    2    0  501  0.34720315892E+03  0.32366325463E+03 -0.49494313434E+03  0.12209464847E+04  0.10101651728E+04 0.  0.
        -13    1    3    3    0    0 -0.10319877778E+02 -0.48804922413E+03  0.53190033328E+03  0.72195326771E+03  0.10566000000E+00 0.  1.
          4    1    3    3  502    0 -0.33688328114E+03  0.16438596950E+03 -0.20272710469E+03  0.42615885660E+03  0.00000000000E+00 0.  1.
         13    1    4    4    0    0  0.42840458385E+03 -0.57572382369E+02  0.15823229350E+03  0.46030700250E+03  0.10566000000E+00 0. -1.
         -4    1    4    4    0  501 -0.81201424934E+02  0.38123563700E+03 -0.65317542784E+03  0.76063948219E+03  0.00000000000E+00 0. -1.
<mgrwt>
<rscale>  2 0.11079903E+04</rscale>
<asrwt>0</asrwt>
<pdfrwt beam="1">  1        2 0.16948375E+00 0.11079903E+04</pdfrwt>
<pdfrwt beam="2">  1       -2 0.19498681E+00 0.11079903E+04</pdfrwt>
<totfact> 0.37016967E+00</totfact>
</mgrwt>
</event>
<event>
 8    1  0.1439553E-005  0.1203030E+04  0.7818608E-02  0.8604284E-01
          2   -1    0    0  502    0  0.00000000000E+00  0.00000000000E+00  0.33875778350E+04  0.33875778350E+04  0.00000000000E+00 0.  1.
         -2   -1    0    0    0  501 -0.00000000000E+00 -0.00000000000E+00 -0.64940203730E+03  0.64940203730E+03  0.00000000000E+00 0. -1.
    9000010    2    1    2  502    0  0.31809145986E+03  0.58897159549E+03  0.18872578999E+03  0.12180918255E+04  0.10000302767E+04 0.  0.
   -9000010    2    1    2    0  501 -0.31809145986E+03 -0.58897159549E+03  0.25494500077E+04  0.28188880468E+04  0.99918204623E+03 0.  0.
        -13    1    3    3    0    0  0.41267385240E+03 -0.14695384229E+03 -0.44522116497E+02  0.44031508064E+03  0.10566000000E+00 0.  1.
          4    1    3    3  502    0 -0.94582392540E+02  0.73592543778E+03  0.23324790649E+03  0.77777674485E+03  0.00000000000E+00 0.  1.
         13    1    4    4    0    0 -0.56895937977E+03 -0.66125343666E+03  0.14792988118E+04  0.17173514111E+04  0.10566000000E+00 0. -1.
         -4    1    4    4    0  501  0.25086791991E+03  0.72281841169E+02  0.10701511958E+04  0.11015366357E+04  0.00000000000E+00 0. -1.
<mgrwt>
<rscale>  2 0.12030304E+04</rscale>
<asrwt>0</asrwt>
<pdfrwt beam="1">  1        2 0.52116581E+00 0.12030304E+04</pdfrwt>
<pdfrwt beam="2">  1       -2 0.99908008E-01 0.12030304E+04</pdfrwt>
<totfact> 0.12638689E+00</totfact>
</mgrwt>
</event>
<event>
 8    1  0.1439553E-005  0.1056354E+04  0.7818608E-02  0.8723371E-01
          2   -1    0    0  502    0  0.00000000000E+00  0.00000000000E+00  0.21792057045E+04  0.21792057045E+04  0.00000000000E+00 0.  1.
         -2   -1    0    0    0  501 -0.00000000000E+00 -0.00000000000E+00 -0.58756071930E+03  0.58756071930E+03  0.00000000000E+00 0. -1.
    9000010    2    1    2  502    0 -0.16880395400E+03  0.32865131271E+03  0.12997373675E+04  0.16829105396E+04  0.10031770529E+04 0.  0.
   -9000010    2    1    2    0  501  0.16880395400E+03 -0.32865131271E+03  0.29190761765E+03  0.10838558842E+04  0.97623104858E+03 0.  0.
        -13    1    3    3    0    0 -0.11771723962E+03  0.59894217378E+03  0.12663889760E+04  0.14058200901E+04  0.10566000000E+00 0.  1.
          4    1    3    3  502    0 -0.51086714377E+02 -0.27029086108E+03  0.33348391497E+02  0.27709044946E+03  0.00000000000E+00 0.  1.
         13    1    4    4    0    0  0.23708280818E+03 -0.64083626335E+03  0.53920874279E+02  0.68540998403E+03  0.10566000000E+00 0. -1.
         -4    1    4    4    0  501 -0.68278854177E+02  0.31218495064E+03  0.23798674337E+03  0.39844590016E+03  0.00000000000E+00 0. -1.
<mgrwt>
<rscale>  2 0.10563539E+04</rscale>
<asrwt>0</asrwt>
<pdfrwt beam="1">  1        2 0.33526241E+00 0.10563539E+04</pdfrwt>
<pdfrwt beam="2">  1       -2 0.90393958E-01 0.10563539E+04</pdfrwt>
<totfact> 0.86067428E+00</totfact>
</mgrwt>
</event>
<event>
 8    1  0.1439553E-005  0.1282447E+04  0.7818608E-02  0.8546936E-01
         -2   -1    0    0    0  501 -0.00000000000E+00  0.00000000000E+00  0.53150311258E+03  0.53150311258E+03  0.00000000000E+00 0. -1.
          2   -1    0    0  502    0  0.00000000000E+00 -0.00000000000E+00 -0.31998560218E+04  0.31998560218E+04  0.00000000000E+00 0.  1.
    9000010    2    1    2  502    0 -0.70683839649E+03  0.38143402943E+03 -0.16729870203E+04  0.21080205962E+04  0.99987640540E+03 0.  0.
   -9000010    2    1    2    0  501  0.70683839649E+03 -0.38143402943E+03 -0.99536588886E+03  0.16233385382E+04  0.99968110881E+03 0.  0.
        -13    1    3    3    0    0 -0.42231376279E+03 -0.30749236709E+03 -0.84973836383E+03  0.99747469551E+03  0.10566000000E+00 0.  1.
          4    1    3    3  502    0 -0.28452463370E+03  0.68892639652E+03 -0.82324865651E+03  0.11105459006E+04  0.00000000000E+00 0.  1.
         13    1    4    4    0    0 -0.18214457525E+03  0.54829686670E+02  0.35936300388E+02  0.19358297881E+03  0.10566000000E+00 0. -1.
         -4    1    4    4    0  501  0.88898297174E+03 -0.43626371610E+03 -0.10313021892E+04  0.14297555594E+04  0.00000000000E+00 0. -1.
<mgrwt>
<rscale>  2 0.12824469E+04</rscale>
<asrwt>0</asrwt>
<pdfrwt beam="2">  1        2 0.49228554E+00 0.12824469E+04</pdfrwt>
<pdfrwt beam="1">  1       -2 0.81769710E-01 0.12824469E+04</pdfrwt>
<totfact> 0.26591169E+00</totfact>
</mgrwt>
</event>
<event>
 8    1  0.1439553E-005  0.1098181E+04  0.7818608E-02  0.8687451E-01
         -1   -1    0    0    0  501 -0.00000000000E+00  0.00000000000E+00  0.63705151529E+03  0.63705151529E+03  0.00000000000E+00 0. -1.
          1   -1    0    0  502    0  0.00000000000E+00 -0.00000000000E+00 -0.19167366926E+04  0.19167366926E+04  0.00000000000E+00 0.  1.
    9000010    2    1    2  502    0  0.44133890794E+03  0.84531738953E+01 -0.79432059556E+03  0.13793839130E+04  0.10377395064E+04 0.  0.
   -9000010    2    1    2    0  501 -0.44133890794E+03 -0.84531738953E+01 -0.48536458173E+03  0.11744042949E+04  0.97406118023E+03 0.  0.
        -13    1    3    3    0    0 -0.17373152495E+03  0.21039589283E+03 -0.66557501350E+03  0.71933245738E+03  0.10566000000E+00 0.  1.
          4    1    3    3  502    0  0.61507043290E+03 -0.20194271893E+03 -0.12874558205E+03  0.66005145561E+03  0.00000000000E+00 0.  1.
         13    1    4    4    0    0 -0.70793874401E+03  0.17989827907E+03 -0.41634765789E+03  0.84076515120E+03  0.10566000000E+00 0. -1.
         -4    1    4    4    0  501  0.26659983606E+03 -0.18835145296E+03 -0.69016923840E+02  0.33363914368E+03  0.00000000000E+00 0. -1.
<mgrwt>
<rscale>  2 0.10981807E+04</rscale>
<asrwt>0</asrwt>
<pdfrwt beam="2">  1        1 0.29488257E+00 0.10981807E+04</pdfrwt>
<pdfrwt beam="1">  1       -1 0.98007925E-01 0.10981807E+04</pdfrwt>
<totfact> 0.46232216E+00</totfact>
</mgrwt>
</event>
<event>
 8    1  0.1439553E-005  0.1093661E+04  0.7818608E-02  0.8691252E-01
         -1   -1    0    0    0  501 -0.00000000000E+00  0.00000000000E+00  0.63453027778E+03  0.63453027778E+03  0.00000000000E+00 0. -1.
          1   -1    0    0  502    0  0.00000000000E+00 -0.00000000000E+00 -0.27848089160E+04  0.27848089160E+04  0.00000000000E+00 0.  1.
    9000010    2    1    2  502    0  0.28456384925E+03 -0.32727122470E+03 -0.10431796375E+03  0.11001232541E+04  0.10056370607E+04 0.  0.
   -9000010    2    1    2    0  501 -0.28456384925E+03  0.32727122470E+03 -0.20459606745E+04  0.23192159397E+04  0.10023594437E+04 0.  0.
        -13    1    3    3    0    0 -0.91264956355E+02  0.32216729596E+03  0.35987589467E+02  0.33677318273E+03  0.10566000000E+00 0.  1.
          4    1    3    3  502    0  0.37582880561E+03 -0.64943852066E+03 -0.14030555322E+03  0.76335007140E+03  0.00000000000E+00 0.  1.
         13    1    4    4    0    0 -0.12089655562E+03  0.34646004722E+03 -0.21105572238E+04  0.21422190242E+04  0.10566000000E+00 0. -1.
         -4    1    4    4    0  501 -0.16366729363E+03 -0.19188822512E+02  0.64596549307E+02  0.17699691550E+03  0.00000000000E+00 0. -1.
<mgrwt>
<rscale>  2 0.10936607E+04</rscale>
<asrwt>0</asrwt>
<pdfrwt beam="2">  1        1 0.42843215E+00 0.10936607E+04</pdfrwt>
<pdfrwt beam="1">  1       -1 0.97620042E-01 0.10936607E+04</pdfrwt>
<totfact> 0.84134019E-01</totfact>
</mgrwt>
</event>
<event>
 8    1  0.1439553E-005  0.1124307E+04  0.7818608E-02  0.8665850E-01
         -1   -1    0    0    0  501 -0.00000000000E+00  0.00000000000E+00  0.10546835004E+04  0.10546835004E+04  0.00000000000E+00 0. -1.
          1   -1    0    0  502    0  0.00000000000E+00 -0.00000000000E+00 -0.12009667104E+04  0.12009667104E+04  0.00000000000E+00 0.  1.
    9000010    2    1    2  502    0 -0.39551051293E+03  0.29956842483E+03 -0.12336294119E+03  0.11427068214E+04  0.10219543323E+04 0.  0.
   -9000010    2    1    2    0  501  0.39551051293E+03 -0.29956842483E+03 -0.22920268750E+02  0.11129433895E+04  0.99596578378E+03 0.  0.
        -13    1    3    3    0    0  0.16911048024E+03  0.10976887120E+03  0.33507348479E+03  0.39105218447E+03  0.10566000000E+00 0.  1.
          4    1    3    3  502    0 -0.56462099316E+03  0.18979955364E+03 -0.45843642598E+03  0.75165463688E+03  0.00000000000E+00 0.  1.
         13    1    4    4    0    0 -0.80234070117E+02  0.94017389820E+02 -0.38005609951E+03  0.39964912803E+03  0.10566000000E+00 0. -1.
         -4    1    4    4    0  501  0.47574458304E+03 -0.39358581465E+03  0.35713583076E+03  0.71329426144E+03  0.00000000000E+00 0. -1.
<mgrwt>
<rscale>  2 0.11243074E+04</rscale>
<asrwt>0</asrwt>
<pdfrwt beam="2">  1        1 0.18476411E+00 0.11243074E+04</pdfrwt>
<pdfrwt beam="1">  1       -1 0.16225900E+00 0.11243074E+04</pdfrwt>
<totfact> 0.42705977E+00</totfact>
</mgrwt>
</event>
<event>
 8    1  0.1439553E-005  0.1040524E+04  0.7818608E-02  0.8737420E-01
         -1   -1    0    0    0  501 -0.00000000000E+00  0.00000000000E+00  0.93197834581E+03  0.93197834581E+03  0.00000000000E+00 0. -1.
          1   -1    0    0  502    0  0.00000000000E+00 -0.00000000000E+00 -0.11621856846E+04  0.11621856846E+04  0.00000000000E+00 0.  1.
    9000010    2    1    2  502    0 -0.34948633411E+02 -0.31221147279E+03 -0.13638226026E+03  0.10522477721E+04  0.99495117581E+03 0.  0.
   -9000010    2    1    2    0  501  0.34948633411E+02  0.31221147279E+03 -0.93825078558E+02  0.10419162583E+04  0.98898378820E+03 0.  0.
        -13    1    3    3    0    0  0.25412712085E+03 -0.58758166527E+03 -0.39383111589E+02  0.64139211685E+03  0.10566000000E+00 0.  1.
          4    1    3    3  502    0 -0.28907575426E+03  0.27537019248E+03 -0.96999148674E+02  0.41085565525E+03  0.00000000000E+00 0.  1.
         13    1    4    4    0    0  0.32484717459E+03 -0.22041335691E+03 -0.17554368983E+03  0.43002713047E+03  0.10566000000E+00 0. -1.
         -4    1    4    4    0  501 -0.28989854117E+03  0.53262482969E+03  0.81718611267E+02  0.61188912787E+03  0.00000000000E+00 0. -1.
<mgrwt>
<rscale>  2 0.10405237E+04</rscale>
<asrwt>0</asrwt>
<pdfrwt beam="2">  1        1 0.17879780E+00 0.10405237E+04</pdfrwt>
<pdfrwt beam="1">  1       -1 0.14338128E+00 0.10405237E+04</pdfrwt>
<totfact> 0.67240784E+00</totfact>
</mgrwt>
</event>
<event>
 8    1  0.1439553E-005  0.1472193E+04  0.7818608E-02  0.8425684E-01
          2   -1    0    0  502    0  0.00000000000E+00  0.00000000000E+00  0.39581727081E+04  0.39581727081E+04  0.00000000000E+00 0. -1.
         -2   -1    0    0    0  501 -0.00000000000E+00 -0.00000000000E+00 -0.54805403113E+03  0.54805403113E+03  0.00000000000E+00 0.  1.
    9000010    2    1    2  502    0  0.17471426646E+03 -0.10704343581E+04  0.17689977161E+04  0.22996448632E+04  0.99129147444E+03 0.  0.
   -9000010    2    1    2    0  501 -0.17471426646E+03  0.10704343581E+04  0.16411209609E+04  0.22065818761E+04  0.99968533927E+03 0.  0.
        -13    1    3    3    0    0  0.11973386892E+03  0.22300809318E+02 -0.83852367589E+02  0.14786736008E+03  0.10566000000E+00 0.  1.
          4    1    3    3  502    0  0.54980397535E+02 -0.10927351674E+04  0.18528500837E+04  0.21517775031E+04  0.00000000000E+00 0.  1.
         13    1    4    4    0    0  0.11332069232E+02  0.12076688874E+04  0.11686176121E+04  0.16805533885E+04  0.10566000000E+00 0. -1.
         -4    1    4    4    0  501 -0.18604633569E+03 -0.13723452925E+03  0.47250334883E+03  0.52602848753E+03  0.00000000000E+00 0. -1.
<mgrwt>
<rscale>  2 0.14721934E+04</rscale>
<asrwt>0</asrwt>
<pdfrwt beam="1">  1        2 0.60894963E+00 0.14721934E+04</pdfrwt>
<pdfrwt beam="2">  1       -2 0.84316007E-01 0.14721934E+04</pdfrwt>
<totfact> 0.63948700E-01</totfact>
</mgrwt>
</event>
<event>
 8    1  0.1439553E-005  0.1451141E+04  0.7818608E-02  0.8438186E-01
          4   -1    0    0  502    0  0.00000000000E+00  0.00000000000E+00  0.11591760357E+04  0.11591760357E+04  0.00000000000E+00 0.  1.
         -4   -1    0    0    0  501 -0.00000000000E+00 -0.00000000000E+00 -0.22297824582E+04  0.22297824582E+04  0.00000000000E+00 0. -1.
    9000010    2    1    2  502    0 -0.87769381553E+03 -0.56187081900E+03  0.19769296423E+03  0.14522091496E+04  0.99185868696E+03 0.  0.
   -9000010    2    1    2    0  501  0.87769381553E+03  0.56187081900E+03 -0.12682993867E+04  0.19367493444E+04  0.10277983448E+04 0.  0.
        -13    1    3    3    0    0 -0.10750065469E+04 -0.41854942034E+03  0.25899872674E+02  0.11539035955E+04  0.10566000000E+00 0.  1.
          4    1    3    3  502    0  0.19731273137E+03 -0.14332139866E+03  0.17179309156E+03  0.29830555406E+03  0.00000000000E+00 0.  1.
         13    1    4    4    0    0  0.20724571516E+03  0.34531368169E+03 -0.11549275541E+04  0.12231312242E+04  0.10566000000E+00 0. -1.
         -4    1    4    4    0  501  0.67044810038E+03  0.21655713731E+03 -0.11337183259E+03  0.71361812017E+03  0.00000000000E+00 0. -1.
<mgrwt>
<rscale>  2 0.14511406E+04</rscale>
<asrwt>0</asrwt>
<pdfrwt beam="1">  1        4 0.17833478E+00 0.14511406E+04</pdfrwt>
<pdfrwt beam="2">  1       -4 0.34304345E+00 0.14511406E+04</pdfrwt>
<totfact> 0.87633728E-02</totfact>
</mgrwt>
</event>
<event>
 8    1  0.1439553E-005  0.1080234E+04  0.7818608E-02  0.8702655E-01
         -1   -1    0    0    0  501 -0.00000000000E+00  0.00000000000E+00  0.94053770578E+03  0.94053770578E+03  0.00000000000E+00 0.  1.
          1   -1    0    0  502    0  0.00000000000E+00 -0.00000000000E+00 -0.12420040155E+04  0.12420040155E+04  0.00000000000E+00 0. -1.
    9000010    2    1    2  502    0 -0.87850898828E+01 -0.48271349403E+03 -0.12949976412E+03  0.11134559998E+04  0.99494953619E+03 0.  0.
   -9000010    2    1    2    0  501  0.87850898828E+01  0.48271349403E+03 -0.17196654563E+03  0.10690857215E+04  0.93823360198E+03 0.  0.
        -13    1    3    3    0    0 -0.50058082917E+03 -0.22204711709E+03 -0.94855959632E+02  0.55577311286E+03  0.10566000000E+00 0.  1.
          4    1    3    3  502    0  0.49179573928E+03 -0.26066637695E+03 -0.34643804485E+02  0.55768288699E+03  0.00000000000E+00 0.  1.
         13    1    4    4    0    0  0.39231031570E+03 -0.27178021386E+02 -0.17649374932E+03  0.43104069804E+03  0.10566000000E+00 0. -1.
         -4    1    4    4    0  501 -0.38352522582E+03  0.50989151542E+03  0.45272036930E+01  0.63804502342E+03  0.00000000000E+00 0. -1.
<mgrwt>
<rscale>  2 0.10802342E+04</rscale>
<asrwt>0</asrwt>
<pdfrwt beam="2">  1        1 0.19107754E+00 0.10802342E+04</pdfrwt>
<pdfrwt beam="1">  1       -1 0.14469811E+00 0.10802342E+04</pdfrwt>
<totfact> 0.56605380E+00</totfact>
</mgrwt>
</event>
<event>
 8    1  0.1439553E-005  0.1231115E+04  0.7818608E-02  0.8583493E-01
         -1   -1    0    0    0  501 -0.00000000000E+00  0.00000000000E+00  0.16979463290E+04  0.16979463290E+04  0.00000000000E+00 0. -1.
          1   -1    0    0  502    0  0.00000000000E+00 -0.00000000000E+00 -0.94684364192E+03  0.94684364192E+03  0.00000000000E+00 0.  1.
    9000010    2    1    2  502    0 -0.29711324936E+03  0.67507573093E+03  0.57248776292E+02  0.12256189729E+04  0.97716985157E+03 0.  0.
   -9000010    2    1    2    0  501  0.29711324936E+03 -0.67507573093E+03  0.69385391079E+03  0.14191709981E+04  0.99428846256E+03 0.  0.
        -13    1    3    3    0    0  0.23873904828E+03  0.63183110093E+03  0.11419688414E+03  0.68501665147E+03  0.10566000000E+00 0.  1.
          4    1    3    3  502    0 -0.53585229764E+03  0.43244629996E+02 -0.56948107853E+02  0.54060232139E+03  0.00000000000E+00 0.  1.
         13    1    4    4    0    0 -0.25336064858E+03 -0.57712838130E+03  0.56258193213E+03  0.84484745858E+03  0.10566000000E+00 0. -1.
         -4    1    4    4    0  501  0.55047389794E+03 -0.97947349626E+02  0.13127197866E+03  0.57432353947E+03  0.00000000000E+00 0. -1.
<mgrwt>
<rscale>  2 0.12311153E+04</rscale>
<asrwt>0</asrwt>
<pdfrwt beam="2">  1        1 0.14566825E+00 0.12311153E+04</pdfrwt>
<pdfrwt beam="1">  1       -1 0.26122251E+00 0.12311153E+04</pdfrwt>
<totfact> 0.82851747E-01</totfact>
</mgrwt>
</event>
<event>
 8    1  0.1439553E-005  0.1225181E+04  0.7818608E-02  0.8587838E-01
         -2   -1    0    0    0  501 -0.00000000000E+00  0.00000000000E+00  0.53669835788E+03  0.53669835788E+03  0.00000000000E+00 0.  1.
          2   -1    0    0  502    0  0.00000000000E+00 -0.00000000000E+00 -0.27969497557E+04  0.27969497557E+04  0.00000000000E+00 0. -1.
    9000010    2    1    2  502    0  0.66028737869E+03 -0.25281763391E+03 -0.11375882780E+04  0.16705116978E+04  0.99830158968E+03 0.  0.
   -9000010    2    1    2    0  501 -0.66028737869E+03  0.25281763391E+03 -0.11226631199E+04  0.16631364158E+04  0.10028729123E+04 0.  0.
        -13    1    3    3    0    0  0.26433151149E+03 -0.30938391355E+02  0.14983918992E+03  0.30541795302E+03  0.10566000000E+00 0.  1.
          4    1    3    3  502    0  0.39595586720E+03 -0.22187924256E+03 -0.12874274679E+04  0.13650937448E+04  0.00000000000E+00 0.  1.
         13    1    4    4    0    0 -0.55179074253E+03 -0.16014390091E+03 -0.13948838899E+03  0.59124962103E+03  0.10566000000E+00 0. -1.
         -4    1    4    4    0  501 -0.10849663616E+03  0.41296153482E+03 -0.98317473086E+03  0.10718867947E+04  0.00000000000E+00 0. -1.
<mgrwt>
<rscale>  2 0.12251813E+04</rscale>
<asrwt>0</asrwt>
<pdfrwt beam="2">  1        2 0.43029996E+00 0.12251813E+04</pdfrwt>
<pdfrwt beam="1">  1       -2 0.82568978E-01 0.12251813E+04</pdfrwt>
<totfact> 0.46556718E+00</totfact>
</mgrwt>
</event>
<event>
 8    1  0.1439553E-005  0.1205777E+04  0.7818608E-02  0.8602225E-01
         -1   -1    0    0    0  501 -0.00000000000E+00  0.00000000000E+00  0.10189528606E+04  0.10189528606E+04  0.00000000000E+00 0.  1.
          1   -1    0    0  502    0  0.00000000000E+00 -0.00000000000E+00 -0.15183998061E+04  0.15183998061E+04  0.00000000000E+00 0. -1.
    9000010    2    1    2  502    0  0.19441142622E+03 -0.71311187429E+03  0.60247613064E+02  0.10984348052E+04  0.81031160576E+03 0.  0.
   -9000010    2    1    2    0  501 -0.19441142622E+03  0.71311187429E+03 -0.55969455852E+03  0.14389178616E+04  0.11004100443E+04 0.  0.
        -13    1    3    3    0    0  0.36309246251E+03 -0.31347217613E+03 -0.27254009306E+03  0.55170558727E+03  0.10566000000E+00 0.  1.
          4    1    3    3  502    0 -0.16868103629E+03 -0.39963969817E+03  0.33278770613E+03  0.54672921790E+03  0.00000000000E+00 0.  1.
         13    1    4    4    0    0 -0.29588111536E+03  0.79465536891E+03  0.16589492211E+02  0.84811438626E+03  0.10566000000E+00 0. -1.
         -4    1    4    4    0  501  0.10146968914E+03 -0.81543494615E+02 -0.57628405073E+03  0.59080347532E+03  0.00000000000E+00 0. -1.
<mgrwt>
<rscale>  2 0.12057769E+04</rscale>
<asrwt>0</asrwt>
<pdfrwt beam="2">  1        1 0.23359997E+00 0.12057769E+04</pdfrwt>
<pdfrwt beam="1">  1       -1 0.15676198E+00 0.12057769E+04</pdfrwt>
<totfact> 0.27211458E+00</totfact>
</mgrwt>
</event>
<event>
 8    1  0.1439553E-005  0.1563119E+04  0.7818608E-02  0.8374073E-01
          2   -1    0    0  502    0  0.00000000000E+00  0.00000000000E+00  0.16245366812E+04  0.16245366812E+04  0.00000000000E+00 0.  1.
         -2   -1    0    0    0  501 -0.00000000000E+00 -0.00000000000E+00 -0.17813960931E+04  0.17813960931E+04  0.00000000000E+00 0. -1.
    9000010    2    1    2  502    0 -0.82425928562E+03 -0.86528400107E+03  0.59297236816E+03  0.16823021295E+04  0.10248924104E+04 0.  0.
   -9000010    2    1    2    0  501  0.82425928562E+03  0.86528400107E+03 -0.74983178006E+03  0.17236306449E+04  0.99021973791E+03 0.  0.
        -13    1    3    3    0    0  0.14096958254E+02  0.20411318150E+03  0.14778737795E+03  0.25239262140E+03  0.10566000000E+00 0.  1.
          4    1    3    3  502    0 -0.83835624388E+03 -0.10693971826E+04  0.44518499021E+03  0.14299095081E+04  0.00000000000E+00 0.  1.
         13    1    4    4    0    0  0.18372321395E+03 -0.21048589404E+03 -0.25204477740E+03  0.37627797160E+03  0.10566000000E+00 0. -1.
         -4    1    4    4    0  501  0.64053607167E+03  0.10757698951E+04 -0.49778700266E+03  0.13473526733E+04  0.00000000000E+00 0. -1.
<mgrwt>
<rscale>  2 0.15631186E+04</rscale>
<asrwt>0</asrwt>
<pdfrwt beam="1">  1        2 0.24992872E+00 0.15631186E+04</pdfrwt>
<pdfrwt beam="2">  1       -2 0.27406094E+00 0.15631186E+04</pdfrwt>
<totfact> 0.42292649E-01</totfact>
</mgrwt>
</event>
<event>
 8    1  0.1439553E-005  0.1272963E+04  0.7818608E-02  0.8553556E-01
          2   -1    0    0  502    0  0.00000000000E+00  0.00000000000E+00  0.18924663562E+04  0.18924663562E+04  0.00000000000E+00 0. -1.
         -2   -1    0    0    0  501 -0.00000000000E+00 -0.00000000000E+00 -0.87281249475E+03  0.87281249475E+03  0.00000000000E+00 0.  1.
    9000010    2    1    2  502    0 -0.78007827062E+03  0.43365995350E+02  0.31810175748E+03  0.13088279608E+04  0.10007193338E+04 0.  0.
   -9000010    2    1    2    0  501  0.78007827062E+03 -0.43365995350E+02  0.70155210400E+03  0.14564508902E+04  0.10092923873E+04 0.  0.
        -13    1    3    3    0    0 -0.72162336740E+03 -0.39594039683E+03  0.25148646886E+03  0.86067098092E+03  0.10566000000E+00 0.  1.
          4    1    3    3  502    0 -0.58454903217E+02  0.43930639218E+03  0.66615288618E+02  0.44815697986E+03  0.00000000000E+00 0.  1.
         13    1    4    4    0    0 -0.23617638228E+03 -0.90738363578E+02  0.85279184942E+02  0.26699304246E+03  0.10566000000E+00 0. -1.
         -4    1    4    4    0  501  0.10162546529E+04  0.47372368228E+02  0.61627291905E+03  0.11894578477E+04  0.00000000000E+00 0. -1.
<mgrwt>
<rscale>  2 0.12729631E+04</rscale>
<asrwt>0</asrwt>
<pdfrwt beam="1">  1        2 0.29114867E+00 0.12729631E+04</pdfrwt>
<pdfrwt beam="2">  1       -2 0.13427885E+00 0.12729631E+04</pdfrwt>
<totfact> 0.44163610E+00</totfact>
</mgrwt>
</event>
<event>
 8    1  0.1439553E-005  0.1187318E+04  0.7818608E-02  0.8616174E-01
         -2   -1    0    0    0  501 -0.00000000000E+00  0.00000000000E+00  0.50970189334E+03  0.50970189334E+03  0.00000000000E+00 0. -1.
          2   -1    0    0  502    0  0.00000000000E+00 -0.00000000000E+00 -0.27777933738E+04  0.27777933738E+04  0.00000000000E+00 0.  1.
    9000010    2    1    2  502    0  0.19203683236E+03  0.61169980657E+03 -0.12416440964E+04  0.17176075458E+04  0.99871959074E+03 0.  0.
   -9000010    2    1    2    0  501 -0.19203683236E+03 -0.61169980657E+03 -0.10264473840E+04  0.15698877213E+04  0.99994921221E+03 0.  0.
        -13    1    3    3    0    0 -0.33385936129E+02  0.51605378219E+03 -0.13531059983E+04  0.14485585872E+04  0.10566000000E+00 0.  1.
          4    1    3    3  502    0  0.22542276849E+03  0.95646024379E+02  0.11146190189E+03  0.26904895857E+03  0.00000000000E+00 0.  1.
         13    1    4    4    0    0 -0.14518362354E+03 -0.68001738666E+03 -0.11947151283E+04  0.13823335993E+04  0.10566000000E+00 0. -1.
         -4    1    4    4    0  501 -0.46853208827E+02  0.68317580086E+02  0.16826774428E+03  0.18755412203E+03  0.00000000000E+00 0. -1.
<mgrwt>
<rscale>  2 0.11873179E+04</rscale>
<asrwt>0</asrwt>
<pdfrwt beam="2">  1        2 0.42735282E+00 0.11873179E+04</pdfrwt>
<pdfrwt beam="1">  1       -2 0.78415676E-01 0.11873179E+04</pdfrwt>
<totfact> 0.53749506E+00</totfact>
</mgrwt>
</event>
<event>
 8    1  0.1439553E-005  0.1168140E+04  0.7818608E-02  0.8630948E-01
          2   -1    0    0  502    0  0.00000000000E+00  0.00000000000E+00  0.66704082504E+03  0.66704082504E+03  0.00000000000E+00 0.  1.
         -2   -1    0    0    0  501 -0.00000000000E+00 -0.00000000000E+00 -0.20567592931E+04  0.20567592931E+04  0.00000000000E+00 0. -1.
    9000010    2    1    2  502    0  0.61498261991E+02 -0.60590542645E+03 -0.79197499115E+03  0.14075202296E+04  0.99145619572E+03 0.  0.
   -9000010    2    1    2    0  501 -0.61498261991E+02  0.60590542645E+03 -0.59774347689E+03  0.13162798885E+04  0.10021936234E+04 0.  0.
        -13    1    3    3    0    0  0.66784592460E+02 -0.51677050219E+03 -0.10294512289E+04  0.11538118467E+04  0.10566000000E+00 0.  1.
          4    1    3    3  502    0 -0.52863304684E+01 -0.89134924259E+02  0.23747623779E+03  0.25370838285E+03  0.00000000000E+00 0.  1.
         13    1    4    4    0    0  0.15230331154E+03 -0.24527774833E+03 -0.20893335629E+03  0.35638550906E+03  0.10566000000E+00 0. -1.
         -4    1    4    4    0  501 -0.21380157353E+03  0.85118317478E+03 -0.38881012061E+03  0.95989437948E+03  0.00000000000E+00 0. -1.
<mgrwt>
<rscale>  2 0.11681396E+04</rscale>
<asrwt>0</asrwt>
<pdfrwt beam="1">  1        2 0.10262166E+00 0.11681396E+04</pdfrwt>
<pdfrwt beam="2">  1       -2 0.31642451E+00 0.11681396E+04</pdfrwt>
<totfact> 0.85204555E-01</totfact>
</mgrwt>
</event>
<event>
 8    1  0.1439553E-005  0.2026925E+04  0.7818608E-02  0.8157517E-01
          1   -1    0    0  502    0  0.00000000000E+00  0.00000000000E+00  0.24895610878E+04  0.24895610878E+04  0.00000000000E+00 0.  1.
         -1   -1    0    0    0  501 -0.00000000000E+00 -0.00000000000E+00 -0.17810366940E+04  0.17810366940E+04  0.00000000000E+00 0. -1.
    9000010    2    1    2  502    0  0.15756632981E+04 -0.78628340234E+03 -0.22672106395E+03  0.20235282018E+04  0.97072525704E+03 0.  0.
   -9000010    2    1    2    0  501 -0.15756632981E+04  0.78628340234E+03  0.93524545777E+03  0.22470695800E+04  0.10361858969E+04 0.  0.
        -13    1    3    3    0    0  0.13282934611E+04 -0.16409326118E+03 -0.20165988359E+03  0.13534980004E+04  0.10566000000E+00 0.  1.
          4    1    3    3  502    0  0.24736983701E+03 -0.62219014116E+03 -0.25061180358E+02  0.67003020139E+03  0.00000000000E+00 0.  1.
         13    1    4    4    0    0 -0.97329562970E+03  0.92067299430E+03  0.92815632329E+03  0.16298519310E+04  0.10566000000E+00 0. -1.
         -4    1    4    4    0  501 -0.60236766843E+03 -0.13438959196E+03  0.70891344719E+01  0.61721764899E+03  0.00000000000E+00 0. -1.
<mgrwt>
<rscale>  2 0.20269252E+04</rscale>
<asrwt>0</asrwt>
<pdfrwt beam="1">  1        1 0.38300940E+00 0.20269252E+04</pdfrwt>
<pdfrwt beam="2">  1       -1 0.27400564E+00 0.20269252E+04</pdfrwt>
<totfact> 0.34741573E-02</totfact>
</mgrwt>
</event>
<event>
 8    1  0.1439553E-005  0.1093010E+04  0.7818608E-02  0.8691801E-01
          2   -1    0    0  502    0  0.00000000000E+00  0.00000000000E+00  0.15294846263E+04  0.15294846263E+04  0.00000000000E+00 0.  1.
         -2   -1    0    0    0  501 -0.00000000000E+00 -0.00000000000E+00 -0.78557221991E+03  0.78557221991E+03  0.00000000000E+00 0. -1.
    9000010    2    1    2  502    0 -0.48748325257E+02  0.46551487227E+03  0.28646563008E+03  0.11349207105E+04  0.99342939675E+03 0.  0.
   -9000010    2    1    2    0  501  0.48748325257E+02 -0.46551487227E+03  0.45744677626E+03  0.11801361357E+04  0.98203016762E+03 0.  0.
        -13    1    3    3    0    0 -0.18358491470E+02  0.74966539577E+03  0.37136124958E+03  0.83680608786E+03  0.10566000000E+00 0.  1.
          4    1    3    3  502    0 -0.30389833787E+02 -0.28415052350E+03 -0.84895619501E+02  0.29811462261E+03  0.00000000000E+00 0.  1.
         13    1    4    4    0    0 -0.45006846961E+03 -0.15932929215E+03  0.81071951382E+02  0.48427277761E+03  0.10566000000E+00 0. -1.
         -4    1    4    4    0  501  0.49881679486E+03 -0.30618558012E+03  0.37637482488E+03  0.69586335808E+03  0.00000000000E+00 0. -1.
<mgrwt>
<rscale>  2 0.10930096E+04</rscale>
<asrwt>0</asrwt>
<pdfrwt beam="1">  1        2 0.23530533E+00 0.10930096E+04</pdfrwt>
<pdfrwt beam="2">  1       -2 0.12085726E+00 0.10930096E+04</pdfrwt>
<totfact> 0.94671493E+00</totfact>
</mgrwt>
</event>
<event>
 8    1  0.1439553E-005  0.1072674E+04  0.7818608E-02  0.8709153E-01
          1   -1    0    0  502    0  0.00000000000E+00  0.00000000000E+00  0.18899147165E+04  0.18899147165E+04  0.00000000000E+00 0.  1.
         -1   -1    0    0    0  501 -0.00000000000E+00 -0.00000000000E+00 -0.78975964744E+03  0.78975964744E+03  0.00000000000E+00 0. -1.
    9000010    2    1    2  502    0  0.37957853390E+03  0.36242802357E+02  0.11921155515E+04  0.16049226592E+04  0.10046112929E+04 0.  0.
   -9000010    2    1    2    0  501 -0.37957853390E+03 -0.36242802357E+02 -0.91960482507E+02  0.10747517047E+04  0.10006203537E+04 0.  0.
        -13    1    3    3    0    0 -0.15806291838E+03  0.34988520742E+03  0.19789423548E+03  0.43193249952E+03  0.10566000000E+00 0.  1.
          4    1    3    3  502    0  0.53764145227E+03 -0.31364240507E+03  0.99422131604E+03  0.11729901597E+04  0.00000000000E+00 0.  1.
         13    1    4    4    0    0 -0.45257032698E+03 -0.44398535425E+03  0.52257082309E+02  0.63613969336E+03  0.10566000000E+00 0. -1.
         -4    1    4    4    0  501  0.72991793082E+02  0.40774255189E+03 -0.14421756482E+03  0.43861201133E+03  0.00000000000E+00 0. -1.
<mgrwt>
<rscale>  2 0.10726737E+04</rscale>
<asrwt>0</asrwt>
<pdfrwt beam="1">  1        1 0.29075611E+00 0.10726737E+04</pdfrwt>
<pdfrwt beam="2">  1       -1 0.12150148E+00 0.10726737E+04</pdfrwt>
<totfact> 0.29711677E+00</totfact>
</mgrwt>
</event>
<event>
 8    1  0.1439553E-005  0.1494326E+04  0.7818608E-02  0.8412772E-01
         -2   -1    0    0    0  501 -0.00000000000E+00  0.00000000000E+00  0.17583876100E+04  0.17583876100E+04  0.00000000000E+00 0. -1.
          2   -1    0    0  502    0  0.00000000000E+00 -0.00000000000E+00 -0.15822322893E+04  0.15822322893E+04  0.00000000000E+00 0.  1.
    9000010    2    1    2  502    0 -0.22296380202E+03  0.10794738419E+04  0.83012461778E+03  0.17086357830E+04  0.10076471235E+04 0.  0.
   -9000010    2    1    2    0  501  0.22296380202E+03 -0.10794738419E+04 -0.65396929715E+03  0.16319841163E+04  0.10103067266E+04 0.  0.
        -13    1    3    3    0    0 -0.24071124899E+03  0.12744220702E+04  0.70306397860E+03  0.14752601424E+04  0.10566000000E+00 0.  1.
          4    1    3    3  502    0  0.17747446972E+02 -0.19494822833E+03  0.12706063918E+03  0.23337564062E+03  0.00000000000E+00 0.  1.
         13    1    4    4    0    0 -0.14004671574E+03 -0.21407393817E+03 -0.64457720811E+03  0.69348433434E+03  0.10566000000E+00 0. -1.
         -4    1    4    4    0  501  0.36301051776E+03 -0.86539990373E+03 -0.93920890352E+01  0.93849978195E+03  0.00000000000E+00 0. -1.
<mgrwt>
<rscale>  2 0.14943263E+04</rscale>
<asrwt>0</asrwt>
<pdfrwt beam="2">  1        2 0.24342035E+00 0.14943263E+04</pdfrwt>
<pdfrwt beam="1">  1       -2 0.27052117E+00 0.14943263E+04</pdfrwt>
<totfact> 0.47769059E-01</totfact>
</mgrwt>
</event>
<event>
 8    1  0.1439553E-005  0.1233925E+04  0.7818608E-02  0.8581444E-01
         -1   -1    0    0    0  501 -0.00000000000E+00  0.00000000000E+00  0.81851828844E+03  0.81851828844E+03  0.00000000000E+00 0. -1.
          1   -1    0    0  502    0  0.00000000000E+00 -0.00000000000E+00 -0.22478892331E+04  0.22478892331E+04  0.00000000000E+00 0.  1.
    9000010    2    1    2  502    0 -0.27751629979E+02  0.72203066035E+03 -0.74777812044E+02  0.12295525105E+04  0.99202279584E+03 0.  0.
   -9000010    2    1    2    0  501  0.27751629979E+02 -0.72203066035E+03 -0.13545931326E+04  0.18368550110E+04  0.10084717890E+04 0.  0.
        -13    1    3    3    0    0  0.46627090673E+03  0.50235230733E+03 -0.68986595485E+02  0.68885815714E+03  0.10566000000E+00 0.  1.
          4    1    3    3  502    0 -0.49402253671E+03  0.21967835302E+03 -0.57912165587E+01  0.54069435336E+03  0.00000000000E+00 0.  1.
         13    1    4    4    0    0  0.25462599241E+03 -0.46491309084E+02 -0.10149519437E+04  0.10474365361E+04  0.10566000000E+00 0. -1.
         -4    1    4    4    0  501 -0.22687436243E+03 -0.67553935127E+03 -0.33964118886E+03  0.78941847496E+03  0.00000000000E+00 0. -1.
<mgrwt>
<rscale>  2 0.12339254E+04</rscale>
<asrwt>0</asrwt>
<pdfrwt beam="2">  1        1 0.34582910E+00 0.12339254E+04</pdfrwt>
<pdfrwt beam="1">  1       -1 0.12592589E+00 0.12339254E+04</pdfrwt>
<totfact> 0.13988714E+00</totfact>
</mgrwt>
</event>
<event>
 8    1  0.1439553E-005  0.1239333E+04  0.7818608E-02  0.8577518E-01
         -2   -1    0    0    0  501 -0.00000000000E+00  0.00000000000E+00  0.64416851207E+03  0.64416851207E+03  0.00000000000E+00 0. -1.
          2   -1    0    0  502    0  0.00000000000E+00 -0.00000000000E+00 -0.32777088089E+04  0.32777088089E+04  0.00000000000E+00 0.  1.
    9000010    2    1    2  502    0  0.57607935713E+03 -0.36817610356E+03 -0.27688661829E+03  0.12490130556E+04  0.10079416376E+04 0.  0.
   -9000010    2    1    2    0  501 -0.57607935713E+03  0.36817610356E+03 -0.23566536786E+04  0.26728642654E+04  0.10597007839E+04 0.  0.
        -13    1    3    3    0    0  0.57549560402E+02 -0.12913421630E+03 -0.58387079486E+03  0.60074346770E+03  0.10566000000E+00 0.  1.
          4    1    3    3  502    0  0.51852979673E+03 -0.23904188726E+03  0.30698417657E+03  0.64826958792E+03  0.00000000000E+00 0.  1.
         13    1    4    4    0    0  0.54095403230E+01 -0.20005011907E+03 -0.14137462471E+04  0.14278402486E+04  0.10566000000E+00 0. -1.
         -4    1    4    4    0  501 -0.58148889745E+03  0.56822622263E+03 -0.94290743151E+03  0.12450240168E+04  0.00000000000E+00 0. -1.
<mgrwt>
<rscale>  2 0.12393326E+04</rscale>
<asrwt>0</asrwt>
<pdfrwt beam="2">  1        2 0.50426289E+00 0.12393326E+04</pdfrwt>
<pdfrwt beam="1">  1       -2 0.99102849E-01 0.12393326E+04</pdfrwt>
<totfact> 0.15247347E+00</totfact>
</mgrwt>
</event>
<event>
 8    1  0.1439553E-005  0.1166086E+04  0.7818608E-02  0.8632547E-01
          1   -1    0    0  502    0  0.00000000000E+00  0.00000000000E+00  0.10452312292E+04  0.10452312292E+04  0.00000000000E+00 0.  1.
         -1   -1    0    0    0  501 -0.00000000000E+00 -0.00000000000E+00 -0.13347367580E+04  0.13347367580E+04  0.00000000000E+00 0. -1.
    9000010    2    1    2  502    0 -0.60448581502E+03 -0.23796941096E+02 -0.33408617925E+03  0.12122816714E+04  0.99601399623E+03 0.  0.
   -9000010    2    1    2    0  501  0.60448581502E+03  0.23796941096E+02  0.44580650367E+02  0.11676863158E+04  0.99776475321E+03 0.  0.
        -13    1    3    3    0    0 -0.32985526951E+03  0.17147432284E+03 -0.65101392450E+03  0.74968465589E+03  0.10566000000E+00 0.  1.
          4    1    3    3  502    0 -0.27463054551E+03 -0.19527126394E+03  0.31692774525E+03  0.46259701551E+03  0.00000000000E+00 0.  1.
         13    1    4    4    0    0  0.79310358437E+03  0.28574120918E+03  0.10152565812E+02  0.84306845507E+03  0.10566000000E+00 0. -1.
         -4    1    4    4    0  501 -0.18861776935E+03 -0.26194426809E+03  0.34428084555E+02  0.32461786073E+03  0.00000000000E+00 0. -1.
<mgrwt>
<rscale>  2 0.11660864E+04</rscale>
<asrwt>0</asrwt>
<pdfrwt beam="1">  1        1 0.16080481E+00 0.11660864E+04</pdfrwt>
<pdfrwt beam="2">  1       -1 0.20534411E+00 0.11660864E+04</pdfrwt>
<totfact> 0.23512901E+00</totfact>
</mgrwt>
</event>
<event>
 8    1  0.1439553E-005  0.1456360E+04  0.7818608E-02  0.8435066E-01
         -2   -1    0    0    0  501 -0.00000000000E+00  0.00000000000E+00  0.10901294996E+04  0.10901294996E+04  0.00000000000E+00 0.  1.
          2   -1    0    0  502    0  0.00000000000E+00 -0.00000000000E+00 -0.23055147277E+04  0.23055147277E+04  0.00000000000E+00 0. -1.
    9000010    2    1    2  502    0 -0.10290207387E+04 -0.35208961756E+03  0.69428507342E+02  0.14391954152E+04  0.94000656706E+03 0.  0.
   -9000010    2    1    2    0  501  0.10290207387E+04  0.35208961756E+03 -0.12848137354E+04  0.19564488121E+04  0.99704304824E+03 0.  0.
        -13    1    3    3    0    0 -0.64051139377E+02 -0.43007311967E+03  0.16785146141E+03  0.46608964908E+03  0.10566000000E+00 0.  1.
          4    1    3    3  502    0 -0.96496959932E+03  0.77983502112E+02 -0.98422954070E+02  0.97310576615E+03  0.00000000000E+00 0.  1.
         13    1    4    4    0    0  0.59099541401E+03  0.68411492805E+03 -0.95693586535E+03  0.13164403047E+04  0.10566000000E+00 0. -1.
         -4    1    4    4    0  501  0.43802532470E+03 -0.33202531049E+03 -0.32787787006E+03  0.64000850741E+03  0.00000000000E+00 0. -1.
<mgrwt>
<rscale>  2 0.14563602E+04</rscale>
<asrwt>0</asrwt>
<pdfrwt beam="2">  1        2 0.35469457E+00 0.14563602E+04</pdfrwt>
<pdfrwt beam="1">  1       -2 0.16771223E+00 0.14563602E+04</pdfrwt>
<totfact> 0.13024114E+00</totfact>
</mgrwt>
</event>
<event>
 8    1  0.1439553E-005  0.1119279E+04  0.7818608E-02  0.8669959E-01
         -1   -1    0    0    0  501 -0.00000000000E+00  0.00000000000E+00  0.82385691465E+03  0.82385691465E+03  0.00000000000E+00 0.  1.
          1   -1    0    0  502    0  0.00000000000E+00 -0.00000000000E+00 -0.17687776587E+04  0.17687776587E+04  0.00000000000E+00 0. -1.
    9000010    2    1    2  502    0 -0.54235344312E+02  0.49318126519E+03 -0.95967070221E+03  0.14779318993E+04  0.10085363699E+04 0.  0.
   -9000010    2    1    2    0  501  0.54235344312E+02 -0.49318126519E+03  0.14749958206E+02  0.11147026740E+04  0.99808579657E+03 0.  0.
        -13    1    3    3    0    0 -0.39744704853E+03  0.62485546082E+03 -0.75336588725E+03  0.10563941852E+04  0.10566000000E+00 0.  1.
          4    1    3    3  502    0  0.34321170422E+03 -0.13167419563E+03 -0.20630481495E+03  0.42153771407E+03  0.00000000000E+00 0.  1.
         13    1    4    4    0    0 -0.10622555432E+03  0.24452772728E+03  0.20480573898E+03  0.33618905349E+03  0.10566000000E+00 0. -1.
         -4    1    4    4    0  501  0.16046089864E+03 -0.73770899247E+03 -0.19005578078E+03  0.77851362054E+03  0.00000000000E+00 0. -1.
<mgrwt>
<rscale>  2 0.11192791E+04</rscale>
<asrwt>0</asrwt>
<pdfrwt beam="2">  1        1 0.27211964E+00 0.11192791E+04</pdfrwt>
<pdfrwt beam="1">  1       -1 0.12674722E+00 0.11192791E+04</pdfrwt>
<totfact> 0.32689837E+00</totfact>
</mgrwt>
</event>
<event>
 8    1  0.1439553E-005  0.1099425E+04  0.7818608E-02  0.8686408E-01
         -2   -1    0    0    0  501 -0.00000000000E+00  0.00000000000E+00  0.29106156910E+04  0.29106156910E+04  0.00000000000E+00 0. -1.
          2   -1    0    0  502    0  0.00000000000E+00 -0.00000000000E+00 -0.45003597451E+03  0.45003597451E+03  0.00000000000E+00 0.  1.
    9000010    2    1    2  502    0  0.53764974435E+02  0.15709889584E+03  0.68871619338E+03  0.12225574598E+04  0.99636640445E+03 0.  0.
   -9000010    2    1    2    0  501 -0.53764974435E+02 -0.15709889584E+03  0.17718635231E+04  0.21380942058E+04  0.11850636069E+04 0.  0.
        -13    1    3    3    0    0 -0.13947245484E+03  0.37992743464E+03 -0.68000221078E+02  0.41039184018E+03  0.10566000000E+00 0.  1.
          4    1    3    3  502    0  0.19323742927E+03 -0.22282853880E+03  0.75671641446E+03  0.81216561962E+03  0.00000000000E+00 0.  1.
         13    1    4    4    0    0 -0.14528255738E+03 -0.54530883682E+03  0.16128235693E+04  0.17087037853E+04  0.10566000000E+00 0. -1.
         -4    1    4    4    0  501  0.91517582941E+02  0.38820994098E+03  0.15903995382E+03  0.42939042045E+03  0.00000000000E+00 0. -1.
<mgrwt>
<rscale>  2 0.10994246E+04</rscale>
<asrwt>0</asrwt>
<pdfrwt beam="2">  1        2 0.69236306E-01 0.10994246E+04</pdfrwt>
<pdfrwt beam="1">  1       -2 0.44778702E+00 0.10994246E+04</pdfrwt>
<totfact> 0.29760494E-01</totfact>
</mgrwt>
</event>
<event>
 8    1  0.1439553E-005  0.1157642E+04  0.7818608E-02  0.8639160E-01
          1   -1    0    0  502    0  0.00000000000E+00  0.00000000000E+00  0.11634764943E+04  0.11634764943E+04  0.00000000000E+00 0. -1.
         -1   -1    0    0    0  501 -0.00000000000E+00 -0.00000000000E+00 -0.11687436072E+04  0.11687436072E+04  0.00000000000E+00 0.  1.
    9000010    2    1    2  502    0  0.57236785464E+03 -0.29391510509E+02  0.13723798270E+03  0.11552681956E+04  0.99365060158E+03 0.  0.
   -9000010    2    1    2    0  501 -0.57236785464E+03  0.29391510509E+02 -0.14250509558E+03  0.11769519058E+04  0.10180566116E+04 0.  0.
        -13    1    3    3    0    0 -0.27844532813E+03  0.82363968432E+01  0.12035756083E+03  0.30345608019E+03  0.10566000000E+00 0.  1.
          4    1    3    3  502    0  0.85081318276E+03 -0.37627907352E+02  0.16880421871E+02  0.85181211545E+03  0.00000000000E+00 0.  1.
         13    1    4    4    0    0 -0.45904706195E+03 -0.38616552917E+03 -0.35459093898E+03  0.69683768998E+03  0.10566000000E+00 0. -1.
         -4    1    4    4    0  501 -0.11332079269E+03  0.41555703968E+03  0.21208584340E+03  0.48011421585E+03  0.00000000000E+00 0. -1.
<mgrwt>
<rscale>  2 0.11576417E+04</rscale>
<asrwt>0</asrwt>
<pdfrwt beam="1">  1        1 0.17899638E+00 0.11576417E+04</pdfrwt>
<pdfrwt beam="2">  1       -1 0.17980671E+00 0.11576417E+04</pdfrwt>
<totfact> 0.31977220E+00</totfact>
</mgrwt>
</event>
<event>
 8    1  0.1439553E-005  0.1618759E+04  0.7818608E-02  0.8344251E-01
          1   -1    0    0  502    0  0.00000000000E+00  0.00000000000E+00  0.25804786248E+04  0.25804786248E+04  0.00000000000E+00 0.  1.
         -1   -1    0    0    0  501 -0.00000000000E+00 -0.00000000000E+00 -0.10365103331E+04  0.10365103331E+04  0.00000000000E+00 0. -1.
    9000010    2    1    2  502    0 -0.83295895037E+03 -0.96676598281E+03  0.10242926801E+04  0.19064056906E+04  0.97813602534E+03 0.  0.
   -9000010    2    1    2    0  501  0.83295895037E+03  0.96676598281E+03  0.51967561157E+03  0.17105832672E+04  0.10136938859E+04 0.  0.
        -13    1    3    3    0    0 -0.82031347049E+03 -0.72346965264E+03  0.28827689137E+03  0.11311171935E+04  0.10566000000E+00 0.  1.
          4    1    3    3  502    0 -0.12645479876E+02 -0.24329633017E+03  0.73601578876E+03  0.77528849710E+03  0.00000000000E+00 0.  1.
         13    1    4    4    0    0  0.28611678986E+03  0.17744805581E+03 -0.29781419480E+03  0.44949297630E+03  0.10566000000E+00 0. -1.
         -4    1    4    4    0  501  0.54684216051E+03  0.78931792700E+03  0.81748980638E+03  0.12610902909E+04  0.00000000000E+00 0. -1.
<mgrwt>
<rscale>  2 0.16187589E+04</rscale>
<asrwt>0</asrwt>
<pdfrwt beam="1">  1        1 0.39699671E+00 0.16187589E+04</pdfrwt>
<pdfrwt beam="2">  1       -1 0.15946313E+00 0.16187589E+04</pdfrwt>
<totfact> 0.34608523E-01</totfact>
</mgrwt>
</event>
<event>
 8    1  0.1439553E-005  0.1367042E+04  0.7818608E-02  0.8490383E-01
          4   -1    0    0  502    0  0.00000000000E+00  0.00000000000E+00  0.28195760331E+04  0.28195760331E+04  0.00000000000E+00 0.  1.
         -4   -1    0    0    0  501 -0.00000000000E+00 -0.00000000000E+00 -0.12494784510E+04  0.12494784510E+04  0.00000000000E+00 0. -1.
    9000010    2    1    2  502    0  0.14952658862E+03  0.91244489045E+03  0.21748945214E+04  0.25616405827E+04  0.98839385736E+03 0.  0.
   -9000010    2    1    2    0  501 -0.14952658862E+03 -0.91244489045E+03 -0.60479693930E+03  0.15074139013E+04  0.10254771832E+04 0.  0.
        -13    1    3    3    0    0  0.13269592052E+03  0.10586617563E+04  0.13351382302E+04  0.17090836804E+04  0.10566000000E+00 0.  1.
          4    1    3    3  502    0  0.16830668105E+02 -0.14621686585E+03  0.83975629116E+03  0.85255690238E+03  0.00000000000E+00 0.  1.
         13    1    4    4    0    0 -0.13654781283E+03 -0.49068509887E+02  0.25212897069E+03  0.29089869865E+03  0.10566000000E+00 0. -1.
         -4    1    4    4    0  501 -0.12978775790E+02 -0.86337638056E+03 -0.85692591000E+03  0.12165152027E+04  0.00000000000E+00 0. -1.
<mgrwt>
<rscale>  2 0.13670420E+04</rscale>
<asrwt>0</asrwt>
<pdfrwt beam="1">  1        4 0.43378093E+00 0.13670420E+04</pdfrwt>
<pdfrwt beam="2">  1       -4 0.19222745E+00 0.13670420E+04</pdfrwt>
<totfact> 0.35369957E-02</totfact>
</mgrwt>
</event>
<event>
 8    1  0.1439553E-005  0.1517800E+04  0.7818608E-02  0.8399328E-01
         -2   -1    0    0    0  501 -0.00000000000E+00  0.00000000000E+00  0.15343470411E+04  0.15343470411E+04  0.00000000000E+00 0.  1.
          2   -1    0    0  502    0  0.00000000000E+00 -0.00000000000E+00 -0.19295466456E+04  0.19295466456E+04  0.00000000000E+00 0. -1.
    9000010    2    1    2  502    0 -0.11462410580E+04 -0.10085462585E+03 -0.10139908468E+04  0.18303926973E+04  0.99905944282E+03 0.  0.
   -9000010    2    1    2    0  501  0.11462410580E+04  0.10085462585E+03  0.61879124225E+03  0.16335009894E+04  0.98050123012E+03 0.  0.
        -13    1    3    3    0    0 -0.93523940523E+03  0.35944706683E+03 -0.79358717583E+03  0.12781453578E+04  0.10566000000E+00 0.  1.
          4    1    3    3  502    0 -0.21100165278E+03 -0.46030169268E+03 -0.22040367095E+03  0.55224733945E+03  0.00000000000E+00 0.  1.
         13    1    4    4    0    0 -0.10219487951E+03  0.10482182817E+03 -0.11430242533E+03  0.18573223914E+03  0.10566000000E+00 0. -1.
         -4    1    4    4    0  501  0.12484359375E+04 -0.39672023119E+01  0.73309366758E+03  0.14477687503E+04  0.00000000000E+00 0. -1.
<mgrwt>
<rscale>  2 0.15178004E+04</rscale>
<asrwt>0</asrwt>
<pdfrwt beam="2">  1        2 0.29685333E+00 0.15178004E+04</pdfrwt>
<pdfrwt beam="1">  1       -2 0.23605339E+00 0.15178004E+04</pdfrwt>
<totfact> 0.56958145E-01</totfact>
</mgrwt>
</event>
<event>
 8    1  0.1439553E-005  0.1213611E+04  0.7818608E-02  0.8596383E-01
         -2   -1    0    0    0  501 -0.00000000000E+00  0.00000000000E+00  0.44828909109E+03  0.44828909109E+03  0.00000000000E+00 0. -1.
          2   -1    0    0  502    0  0.00000000000E+00 -0.00000000000E+00 -0.43908337701E+04  0.43908337701E+04  0.00000000000E+00 0.  1.
    9000010    2    1    2  502    0 -0.50438631539E+03 -0.45496538472E+03 -0.31889747956E+04  0.34131940366E+04  0.10094227204E+04 0.  0.
   -9000010    2    1    2    0  501  0.50438631539E+03  0.45496538472E+03 -0.75356988347E+03  0.14259288246E+04  0.10020011912E+04 0.  0.
        -13    1    3    3    0    0  0.26722279492E+03  0.46661102899E+02 -0.46977829158E+03  0.54247298094E+03  0.10566000000E+00 0.  1.
          4    1    3    3  502    0 -0.77160911031E+03 -0.50162648762E+03 -0.27191965040E+04  0.28707210557E+04  0.00000000000E+00 0.  1.
         13    1    4    4    0    0 -0.94646477314E+02  0.26431588148E+03  0.15529554404E+03  0.32083883499E+03  0.10566000000E+00 0. -1.
         -4    1    4    4    0  501  0.59903279271E+03  0.19064950324E+03 -0.90886542751E+03  0.11050899896E+04  0.00000000000E+00 0. -1.
<mgrwt>
<rscale>  2 0.12136105E+04</rscale>
<asrwt>0</asrwt>
<pdfrwt beam="2">  1        2 0.67551285E+00 0.12136105E+04</pdfrwt>
<pdfrwt beam="1">  1       -2 0.68967556E-01 0.12136105E+04</pdfrwt>
<totfact> 0.41283226E-01</totfact>
</mgrwt>
</event>
<event>
 8    1  0.1439553E-005  0.1032277E+04  0.7818608E-02  0.8744842E-01
         -1   -1    0    0    0  501 -0.00000000000E+00  0.00000000000E+00  0.28940035229E+04  0.28940035229E+04  0.00000000000E+00 0.  1.
          1   -1    0    0  502    0  0.00000000000E+00 -0.00000000000E+00 -0.36929222998E+03  0.36929222998E+03  0.00000000000E+00 0. -1.
    9000010    2    1    2  502    0  0.18913238193E+03 -0.77597119885E+02  0.12030758996E+04  0.15980546319E+04  0.10317919438E+04 0.  0.
   -9000010    2    1    2    0  501 -0.18913238193E+03  0.77597119885E+02  0.13216353933E+04  0.16652411210E+04  0.99222754815E+03 0.  0.
        -13    1    3    3    0    0 -0.37341528301E+03 -0.18255067340E+03  0.24613005071E+03  0.48305665814E+03  0.10566000000E+00 0.  1.
          4    1    3    3  502    0  0.56254766494E+03  0.10495355351E+03  0.95694584888E+03  0.11149979737E+04  0.00000000000E+00 0.  1.
         13    1    4    4    0    0  0.12559016145E+03 -0.28790317742E+03  0.10819874910E+04  0.11266579206E+04  0.10566000000E+00 0. -1.
         -4    1    4    4    0  501 -0.31472254338E+03  0.36550029731E+03  0.23964790228E+03  0.53858320036E+03  0.00000000000E+00 0. -1.
<mgrwt>
<rscale>  2 0.10322768E+04</rscale>
<asrwt>0</asrwt>
<pdfrwt beam="2">  1        1 0.56814191E-01 0.10322768E+04</pdfrwt>
<pdfrwt beam="1">  1       -1 0.44523130E+00 0.10322768E+04</pdfrwt>
<totfact> 0.10602719E+00</totfact>
</mgrwt>
</event>
<event>
 8    1  0.1439553E-005  0.1221999E+04  0.7818608E-02  0.8590178E-01
         -1   -1    0    0    0  501 -0.00000000000E+00  0.00000000000E+00  0.12256381790E+04  0.12256381790E+04  0.00000000000E+00 0.  1.
          1   -1    0    0  502    0  0.00000000000E+00 -0.00000000000E+00 -0.17849986683E+04  0.17849986683E+04  0.00000000000E+00 0. -1.
    9000010    2    1    2  502    0 -0.65814322707E+03 -0.25934217966E+03 -0.11272784379E+04  0.16601221628E+04  0.99239006711E+03 0.  0.
   -9000010    2    1    2    0  501  0.65814322707E+03  0.25934217966E+03  0.56791794870E+03  0.13505146845E+04  0.10004740092E+04 0.  0.
        -13    1    3    3    0    0 -0.56103320729E+03  0.20238905743E+03 -0.21671872534E+03  0.63457592716E+03  0.10566000000E+00 0.  1.
          4    1    3    3  502    0 -0.97110019779E+02 -0.46173123709E+03 -0.91055971260E+03  0.10255462357E+04  0.00000000000E+00 0.  1.
         13    1    4    4    0    0  0.86823845038E+02  0.88901175511E+02  0.72370486076E+03  0.73429594560E+03  0.10566000000E+00 0. -1.
         -4    1    4    4    0  501  0.57131938203E+03  0.17044100415E+03 -0.15578691206E+03  0.61621873888E+03  0.00000000000E+00 0. -1.
<mgrwt>
<rscale>  2 0.12219993E+04</rscale>
<asrwt>0</asrwt>
<pdfrwt beam="2">  1        1 0.27461518E+00 0.12219993E+04</pdfrwt>
<pdfrwt beam="1">  1       -1 0.18855972E+00 0.12219993E+04</pdfrwt>
<totfact> 0.90804726E-01</totfact>
</mgrwt>
</event>
<event>
 8    1  0.1439553E-005  0.1060158E+04  0.7818608E-02  0.8720033E-01
         -2   -1    0    0    0  501 -0.00000000000E+00  0.00000000000E+00  0.66870990147E+03  0.66870990147E+03  0.00000000000E+00 0.  1.
          2   -1    0    0  502    0  0.00000000000E+00 -0.00000000000E+00 -0.17407532181E+04  0.17407532181E+04  0.00000000000E+00 0. -1.
    9000010    2    1    2  502    0 -0.31262141775E+02  0.18988564046E+03 -0.29676317645E+03  0.10605232503E+04  0.99980363254E+03 0.  0.
   -9000010    2    1    2    0  501  0.31262141775E+02 -0.18988564046E+03 -0.77528014018E+03  0.13489398692E+04  0.10869892350E+04 0.  0.
        -13    1    3    3    0    0 -0.12507294334E+03 -0.31627959104E+03 -0.41073533924E+03  0.53327249219E+03  0.10566000000E+00 0.  1.
          4    1    3    3  502    0  0.93810801561E+02  0.50616523150E+03  0.11397216279E+03  0.52725075814E+03  0.00000000000E+00 0.  1.
         13    1    4    4    0    0 -0.36339321505E+03 -0.47632613510E+03 -0.30843060897E+03  0.67384765892E+03  0.10566000000E+00 0. -1.
         -4    1    4    4    0  501  0.39465535683E+03  0.28644049464E+03 -0.46684953121E+03  0.67509221032E+03  0.00000000000E+00 0. -1.
<mgrwt>
<rscale>  2 0.10601580E+04</rscale>
<asrwt>0</asrwt>
<pdfrwt beam="2">  1        2 0.26780818E+00 0.10601580E+04</pdfrwt>
<pdfrwt beam="1">  1       -2 0.10287845E+00 0.10601580E+04</pdfrwt>
<totfact> 0.10960199E+01</totfact>
</mgrwt>
</event>
<event>
 8    1  0.1439553E-005  0.1108299E+04  0.7818608E-02  0.8679012E-01
          2   -1    0    0  502    0  0.00000000000E+00  0.00000000000E+00  0.15983550900E+04  0.15983550900E+04  0.00000000000E+00 0.  1.
         -2   -1    0    0    0  501 -0.00000000000E+00 -0.00000000000E+00 -0.76849589188E+03  0.76849589188E+03  0.00000000000E+00 0. -1.
    9000010    2    1    2  502    0  0.39476130086E+03 -0.24338237919E+03  0.41457672380E+03  0.11817124759E+04  0.10047382985E+04 0.  0.
   -9000010    2    1    2    0  501 -0.39476130086E+03  0.24338237919E+03  0.41528247429E+03  0.11851385060E+04  0.10084752242E+04 0.  0.
        -13    1    3    3    0    0 -0.81215742752E+02 -0.51516296148E+03  0.35388737492E+03  0.63025800990E+03  0.10566000000E+00 0.  1.
          4    1    3    3  502    0  0.47597704361E+03  0.27178058229E+03  0.60689348882E+02  0.55145446595E+03  0.00000000000E+00 0.  1.
         13    1    4    4    0    0 -0.38389224234E+03 -0.54273500979E+02 -0.24648640255E+03  0.45942836704E+03  0.10566000000E+00 0. -1.
         -4    1    4    4    0  501 -0.10869058519E+02  0.29765588017E+03  0.66176887683E+03  0.72571013895E+03  0.00000000000E+00 0. -1.
<mgrwt>
<rscale>  2 0.11082989E+04</rscale>
<asrwt>0</asrwt>
<pdfrwt beam="1">  1        2 0.24590078E+00 0.11082989E+04</pdfrwt>
<pdfrwt beam="2">  1       -2 0.11823014E+00 0.11082989E+04</pdfrwt>
<totfact> 0.91846478E+00</totfact>
</mgrwt>
</event>
<event>
 8    1  0.1439553E-005  0.1004319E+04  0.7818608E-02  0.8770544E-01
          2   -1    0    0  502    0  0.00000000000E+00  0.00000000000E+00  0.10835957330E+04  0.10835957330E+04  0.00000000000E+00 0.  1.
         -2   -1    0    0    0  501 -0.00000000000E+00 -0.00000000000E+00 -0.93884179527E+03  0.93884179527E+03  0.00000000000E+00 0. -1.
    9000010    2    1    2  502    0  0.17968001970E+02  0.14861489320E+03  0.16567515085E+03  0.10172774013E+04  0.99246955619E+03 0.  0.
   -9000010    2    1    2    0  501 -0.17968001970E+02 -0.14861489320E+03 -0.20921213072E+02  0.10051601271E+04  0.99373031969E+03 0.  0.
        -13    1    3    3    0    0  0.30346318371E+03  0.43077693680E+03 -0.99431120401E+02  0.53623244215E+03  0.10566000000E+00 0.  1.
          4    1    3    3  502    0 -0.28549518174E+03 -0.28216204360E+03  0.26510627125E+03  0.48104495913E+03  0.00000000000E+00 0.  1.
         13    1    4    4    0    0 -0.39372393741E+03 -0.14054663812E+03  0.29705852287E+03  0.51285053724E+03  0.10566000000E+00 0. -1.
         -4    1    4    4    0  501  0.37575593544E+03 -0.80682550758E+01 -0.31797973594E+03  0.49230958981E+03  0.00000000000E+00 0. -1.
<mgrwt>
<rscale>  2 0.10043188E+04</rscale>
<asrwt>0</asrwt>
<pdfrwt beam="1">  1        2 0.16670704E+00 0.10043188E+04</pdfrwt>
<pdfrwt beam="2">  1       -2 0.14443720E+00 0.10043188E+04</pdfrwt>
<totfact> 0.10312416E+01</totfact>
</mgrwt>
</event>
<event>
 8    1  0.1439553E-005  0.1234592E+04  0.7818608E-02  0.8580959E-01
          1   -1    0    0  502    0  0.00000000000E+00  0.00000000000E+00  0.12815475548E+04  0.12815475548E+04  0.00000000000E+00 0.  1.
         -1   -1    0    0    0  501 -0.00000000000E+00 -0.00000000000E+00 -0.13307464130E+04  0.13307464130E+04  0.00000000000E+00 0. -1.
    9000010    2    1    2  502    0 -0.66665466189E+03  0.31119781884E+03  0.40113534273E+03  0.12987708519E+04  0.99228203750E+03 0.  0.
   -9000010    2    1    2    0  501  0.66665466189E+03 -0.31119781884E+03 -0.45033420094E+03  0.13135231158E+04  0.99059051203E+03 0.  0.
        -13    1    3    3    0    0 -0.74483631750E+03 -0.14797169870E+03  0.16734854525E+03  0.77761321379E+03  0.10566000000E+00 0.  1.
          4    1    3    3  502    0  0.78181655613E+02  0.45916951754E+03  0.23378679747E+03  0.52115763814E+03  0.00000000000E+00 0.  1.
         13    1    4    4    0    0 -0.14041910703E+03  0.10878018801E+03 -0.35724342942E+03  0.39896557991E+03  0.10566000000E+00 0. -1.
         -4    1    4    4    0  501  0.80707376892E+03 -0.41997800685E+03 -0.93090771518E+02  0.91455753589E+03  0.00000000000E+00 0. -1.
<mgrwt>
<rscale>  2 0.12345923E+04</rscale>
<asrwt>0</asrwt>
<pdfrwt beam="1">  1        1 0.19716116E+00 0.12345923E+04</pdfrwt>
<pdfrwt beam="2">  1       -1 0.20473022E+00 0.12345923E+04</pdfrwt>
<totfact> 0.15468159E+00</totfact>
</mgrwt>
</event>
<event>
 8    1  0.1439553E-005  0.1758565E+04  0.7818608E-02  0.8274477E-01
          4   -1    0    0  502    0  0.00000000000E+00  0.00000000000E+00  0.11113047762E+04  0.11113047762E+04  0.00000000000E+00 0. -1.
         -4   -1    0    0    0  501 -0.00000000000E+00 -0.00000000000E+00 -0.27847784472E+04  0.27847784472E+04  0.00000000000E+00 0.  1.
    9000010    2    1    2  502    0  0.64679148355E+02  0.14627884014E+04 -0.78167594483E+03  0.19163282545E+04  0.95779089423E+03 0.  0.
   -9000010    2    1    2    0  501 -0.64679148355E+02 -0.14627884014E+04 -0.89179772617E+03  0.19797549688E+04  0.99004709621E+03 0.  0.
        -13    1    3    3    0    0  0.20367539345E+03  0.11688700212E+04 -0.13707595422E+03  0.11943745730E+04  0.10566000000E+00 0.  1.
          4    1    3    3  502    0 -0.13899624510E+03  0.29391838017E+03 -0.64459999061E+03  0.72195368151E+03  0.00000000000E+00 0.  1.
         13    1    4    4    0    0 -0.13627277603E+03  0.10997893839E+03 -0.18260241919E+03  0.25300057516E+03  0.10566000000E+00 0. -1.
         -4    1    4    4    0  501  0.71593627676E+02 -0.15727673397E+04 -0.70919530699E+03  0.17267543936E+04  0.00000000000E+00 0. -1.
<mgrwt>
<rscale>  2 0.17585653E+04</rscale>
<asrwt>0</asrwt>
<pdfrwt beam="1">  1        4 0.17096997E+00 0.17585653E+04</pdfrwt>
<pdfrwt beam="2">  1       -4 0.42842745E+00 0.17585653E+04</pdfrwt>
<totfact> 0.42583052E-02</totfact>
</mgrwt>
</event>
<event>
 8    1  0.1439553E-005  0.1244375E+04  0.7818608E-02  0.8573875E-01
          2   -1    0    0  502    0  0.00000000000E+00  0.00000000000E+00  0.41798942281E+03  0.41798942281E+03  0.00000000000E+00 0. -1.
         -2   -1    0    0    0  501 -0.00000000000E+00 -0.00000000000E+00 -0.42138481552E+04  0.42138481552E+04  0.00000000000E+00 0.  1.
    9000010    2    1    2  502    0  0.11308376899E+03  0.73962920382E+03 -0.11161010565E+04  0.16842904758E+04  0.10155360853E+04 0.  0.
   -9000010    2    1    2    0  501 -0.11308376899E+03 -0.73962920382E+03 -0.26797576759E+04  0.29475471023E+04  0.97318724833E+03 0.  0.
        -13    1    3    3    0    0 -0.29791837455E+03 -0.20076634402E+02 -0.35196915247E+02  0.30066137622E+03  0.10566000000E+00 0.  1.
          4    1    3    3  502    0  0.41100214354E+03  0.75970583822E+03 -0.10809041412E+04  0.13836290995E+04  0.00000000000E+00 0.  1.
         13    1    4    4    0    0  0.10250931617E+03  0.10034915671E+02  0.45682029226E+02  0.11267527854E+03  0.10566000000E+00 0. -1.
         -4    1    4    4    0  501 -0.21559308516E+03 -0.74966411949E+03 -0.27254397052E+04  0.28348718237E+04  0.00000000000E+00 0. -1.
<mgrwt>
<rscale>  2 0.12443755E+04</rscale>
<asrwt>0</asrwt>
<pdfrwt beam="1">  1        2 0.64306063E-01 0.12443755E+04</pdfrwt>
<pdfrwt beam="2">  1       -2 0.64828435E+00 0.12443755E+04</pdfrwt>
<totfact> 0.38217099E-01</totfact>
</mgrwt>
</event>
<event>
 8    1  0.1439553E-005  0.1284539E+04  0.7818608E-02  0.8545484E-01
         -2   -1    0    0    0  501 -0.00000000000E+00  0.00000000000E+00  0.69422772095E+03  0.69422772095E+03  0.00000000000E+00 0.  1.
          2   -1    0    0  502    0  0.00000000000E+00 -0.00000000000E+00 -0.26242831917E+04  0.26242831917E+04  0.00000000000E+00 0. -1.
    9000010    2    1    2  502    0  0.62917031961E+03 -0.51651029717E+03 -0.14716398117E+04  0.19506021356E+04  0.98817345539E+03 0.  0.
   -9000010    2    1    2    0  501 -0.62917031961E+03  0.51651029717E+03 -0.45841565903E+03  0.13679087770E+04  0.99919534008E+03 0.  0.
        -13    1    3    3    0    0  0.68259412311E+03 -0.36874915594E+02 -0.44356275555E+03  0.81488798346E+03  0.10566000000E+00 0.  1.
          4    1    3    3  502    0 -0.53423803505E+02 -0.47963538157E+03 -0.10280770561E+04  0.11357141522E+04  0.00000000000E+00 0.  1.
         13    1    4    4    0    0  0.16445788568E+03  0.35192555106E+03  0.77672549506E+02  0.39614520792E+03  0.10566000000E+00 0. -1.
         -4    1    4    4    0  501 -0.79362820529E+03  0.16458474611E+03 -0.53608820854E+03  0.97176356909E+03  0.00000000000E+00 0. -1.
<mgrwt>
<rscale>  2 0.12845392E+04</rscale>
<asrwt>0</asrwt>
<pdfrwt beam="2">  1        2 0.40373587E+00 0.12845392E+04</pdfrwt>
<pdfrwt beam="1">  1       -2 0.10680427E+00 0.12845392E+04</pdfrwt>
<totfact> 0.31843597E+00</totfact>
</mgrwt>
</event>
<event>
 8    1  0.1439553E-005  0.1286564E+04  0.7818608E-02  0.8544081E-01
          2   -1    0    0  502    0  0.00000000000E+00  0.00000000000E+00  0.12041149258E+04  0.12041149258E+04  0.00000000000E+00 0.  1.
         -2   -1    0    0    0  501 -0.00000000000E+00 -0.00000000000E+00 -0.15605317929E+04  0.15605317929E+04  0.00000000000E+00 0. -1.
    9000010    2    1    2  502    0  0.79694230053E+03 -0.11215540755E+03 -0.65475709620E+03  0.14399464344E+04  0.99852041192E+03 0.  0.
   -9000010    2    1    2    0  501 -0.79694230053E+03  0.11215540755E+03  0.29834022911E+03  0.13247002844E+04  0.10090233324E+04 0.  0.
        -13    1    3    3    0    0  0.28137713556E+02  0.36932188956E+03 -0.13347802289E+03  0.39370900776E+03  0.10566000000E+00 0.  1.
          4    1    3    3  502    0  0.76880458697E+03 -0.48147729711E+03 -0.52127907331E+03  0.10462374266E+04  0.00000000000E+00 0.  1.
         13    1    4    4    0    0 -0.20058099555E+03  0.43048129076E+03 -0.16765991433E+03  0.50364346070E+03  0.10566000000E+00 0. -1.
         -4    1    4    4    0  501 -0.59636130497E+03 -0.31832588320E+03  0.46600014344E+03  0.82105682366E+03  0.00000000000E+00 0. -1.
<mgrwt>
<rscale>  2 0.12865644E+04</rscale>
<asrwt>0</asrwt>
<pdfrwt beam="1">  1        2 0.18524845E+00 0.12865644E+04</pdfrwt>
<pdfrwt beam="2">  1       -2 0.24008181E+00 0.12865644E+04</pdfrwt>
<totfact> 0.13635372E+00</totfact>
</mgrwt>
</event>
<event>
 8    1  0.1439553E-005  0.1409307E+04  0.7818608E-02  0.8463683E-01
          2   -1    0    0  502    0  0.00000000000E+00  0.00000000000E+00  0.10430587709E+04  0.10430587709E+04  0.00000000000E+00 0.  1.
         -2   -1    0    0    0  501 -0.00000000000E+00 -0.00000000000E+00 -0.19044203039E+04  0.19044203039E+04  0.00000000000E+00 0. -1.
    9000010    2    1    2  502    0 -0.65602919181E+02  0.99273584309E+03 -0.41763997064E+03  0.14772584009E+04  0.10089801984E+04 0.  0.
   -9000010    2    1    2    0  501  0.65602919181E+02 -0.99273584309E+03 -0.44372156238E+03  0.14702206740E+04  0.98733571195E+03 0.  0.
        -13    1    3    3    0    0 -0.51180121803E+03  0.52677720488E+03 -0.53418180387E+02  0.73640221586E+03  0.10566000000E+00 0.  1.
          4    1    3    3  502    0  0.44619829885E+03  0.46595863821E+03 -0.36422179025E+03  0.74085618504E+03  0.00000000000E+00 0.  1.
         13    1    4    4    0    0  0.49164188846E+03 -0.38179075466E+03 -0.36412886492E+03  0.72115585574E+03  0.10566000000E+00 0. -1.
         -4    1    4    4    0  501 -0.42603896928E+03 -0.61094508842E+03 -0.79592697464E+02  0.74906481823E+03  0.00000000000E+00 0. -1.
<mgrwt>
<rscale>  2 0.14093073E+04</rscale>
<asrwt>0</asrwt>
<pdfrwt beam="1">  1        2 0.16047058E+00 0.14093073E+04</pdfrwt>
<pdfrwt beam="2">  1       -2 0.29298774E+00 0.14093073E+04</pdfrwt>
<totfact> 0.66612514E-01</totfact>
</mgrwt>
</event>
<event>
 8    1  0.1439553E-005  0.1095887E+04  0.7818608E-02  0.8689378E-01
          4   -1    0    0  502    0  0.00000000000E+00  0.00000000000E+00  0.45897627081E+03  0.45897627081E+03  0.00000000000E+00 0.  1.
         -4   -1    0    0    0  501 -0.00000000000E+00 -0.00000000000E+00 -0.26579627722E+04  0.26579627722E+04  0.00000000000E+00 0. -1.
    9000010    2    1    2  502    0 -0.43059258274E+03  0.13912973544E+03 -0.12895422260E+04  0.16895447044E+04  0.99341587463E+03 0.  0.
   -9000010    2    1    2    0  501  0.43059258274E+03 -0.13912973544E+03 -0.90944427538E+03  0.14273943386E+04  0.10027954189E+04 0.  0.
        -13    1    3    3    0    0  0.29021190158E+03  0.14778607404E+03 -0.64499180513E+03  0.72254972933E+03  0.10566000000E+00 0.  1.
          4    1    3    3  502    0 -0.72080448431E+03 -0.86563386013E+01 -0.64455042091E+03  0.96699497512E+03  0.00000000000E+00 0.  1.
         13    1    4    4    0    0  0.64617797055E+03 -0.34318740915E+03 -0.85547718751E+03  0.11256841462E+04  0.10566000000E+00 0. -1.
         -4    1    4    4    0  501 -0.21558538782E+03  0.20405767371E+03 -0.53967087866E+02  0.30171019242E+03  0.00000000000E+00 0. -1.
<mgrwt>
<rscale>  2 0.10958866E+04</rscale>
<asrwt>0</asrwt>
<pdfrwt beam="1">  1        4 0.70611733E-01 0.10958866E+04</pdfrwt>
<pdfrwt beam="2">  1       -4 0.40891735E+00 0.10958866E+04</pdfrwt>
<totfact> 0.26088875E-01</totfact>
</mgrwt>
</event>
<event>
 8    1  0.1439553E-005  0.1327466E+04  0.7818608E-02  0.8516299E-01
          1   -1    0    0  502    0  0.00000000000E+00  0.00000000000E+00  0.13216271254E+04  0.13216271254E+04  0.00000000000E+00 0.  1.
         -1   -1    0    0    0  501 -0.00000000000E+00 -0.00000000000E+00 -0.17195847727E+04  0.17195847727E+04  0.00000000000E+00 0. -1.
    9000010    2    1    2  502    0  0.55061368994E+03 -0.67317733430E+03 -0.92032267798E+03  0.16202364796E+04  0.10108557064E+04 0.  0.
   -9000010    2    1    2    0  501 -0.55061368994E+03  0.67317733430E+03  0.52236503073E+03  0.14209754185E+04  0.99496872098E+03 0.  0.
        -13    1    3    3    0    0  0.70517198424E+03 -0.40443591339E+03 -0.10109458570E+04  0.12972461109E+04  0.10566000000E+00 0.  1.
          4    1    3    3  502    0 -0.15455829430E+03 -0.26874142092E+03  0.90623179015E+02  0.32299036863E+03  0.00000000000E+00 0.  1.
         13    1    4    4    0    0  0.69838401041E+02  0.10597065462E+03  0.56516668347E+03  0.57924137729E+03  0.10566000000E+00 0. -1.
         -4    1    4    4    0  501 -0.62045209098E+03  0.56720667968E+03 -0.42801652737E+02  0.84173404122E+03  0.00000000000E+00 0. -1.
<mgrwt>
<rscale>  2 0.13274664E+04</rscale>
<asrwt>0</asrwt>
<pdfrwt beam="1">  1        1 0.20332725E+00 0.13274664E+04</pdfrwt>
<pdfrwt beam="2">  1       -1 0.26455150E+00 0.13274664E+04</pdfrwt>
<totfact> 0.38483959E-01</totfact>
</mgrwt>
</event>
<event>
 8    1  0.1439553E-005  0.1245168E+04  0.7818608E-02  0.8573304E-01
         -2   -1    0    0    0  501 -0.00000000000E+00  0.00000000000E+00  0.20366889736E+04  0.20366889736E+04  0.00000000000E+00 0. -1.
          2   -1    0    0  502    0  0.00000000000E+00 -0.00000000000E+00 -0.80927918945E+03  0.80927918945E+03  0.00000000000E+00 0.  1.
    9000010    2    1    2  502    0 -0.10078579477E+03  0.73845363412E+03  0.27004310682E+03  0.12802410700E+04  0.10052971558E+04 0.  0.
   -9000010    2    1    2    0  501  0.10078579477E+03 -0.73845363412E+03  0.95736667729E+03  0.15657270930E+04  0.98968622751E+03 0.  0.
        -13    1    3    3    0    0  0.37129313457E+03  0.36745085831E+01  0.14203092678E+03  0.39754859970E+03  0.10566000000E+00 0.  1.
          4    1    3    3  502    0 -0.47207892934E+03  0.73477912554E+03  0.12801218004E+03  0.88269247028E+03  0.00000000000E+00 0.  1.
         13    1    4    4    0    0  0.19264811981E+03  0.21010716598E+03  0.24555812377E+03  0.37624077740E+03  0.10566000000E+00 0. -1.
         -4    1    4    4    0  501 -0.91862325039E+02 -0.94856080010E+03  0.71180855352E+03  0.11894863156E+04  0.00000000000E+00 0. -1.
<mgrwt>
<rscale>  2 0.12451682E+04</rscale>
<asrwt>0</asrwt>
<pdfrwt beam="2">  1        2 0.12450449E+00 0.12451682E+04</pdfrwt>
<pdfrwt beam="1">  1       -2 0.31333676E+00 0.12451682E+04</pdfrwt>
<totfact> 0.69853339E-01</totfact>
</mgrwt>
</event>
<event>
 8    1  0.1439553E-005  0.1295913E+04  0.7818608E-02  0.8537638E-01
          1   -1    0    0  502    0  0.00000000000E+00  0.00000000000E+00  0.23614465701E+04  0.23614465701E+04  0.00000000000E+00 0. -1.
         -1   -1    0    0    0  501 -0.00000000000E+00 -0.00000000000E+00 -0.72746919749E+03  0.72746919749E+03  0.00000000000E+00 0.  1.
    9000010    2    1    2  502    0 -0.77271595045E+03  0.31444233770E+03  0.59095274251E+03  0.14316187502E+04  0.10021692363E+04 0.  0.
   -9000010    2    1    2    0  501  0.77271595045E+03 -0.31444233770E+03  0.10430246301E+04  0.16572970174E+04  0.98120798053E+03 0.  0.
        -13    1    3    3    0    0 -0.29912353433E+03 -0.21948404921E+03  0.61418018262E+03  0.71754124936E+03  0.10566000000E+00 0.  1.
          4    1    3    3  502    0 -0.47359241612E+03  0.53392638691E+03 -0.23227440104E+02  0.71407750085E+03  0.00000000000E+00 0.  1.
         13    1    4    4    0    0  0.20006823440E+03 -0.16444245410E+03 -0.16844229925E+03  0.30893597794E+03  0.10566000000E+00 0. -1.
         -4    1    4    4    0  501  0.57264771605E+03 -0.14999988359E+03  0.12114669294E+04  0.13483610395E+04  0.00000000000E+00 0. -1.
<mgrwt>
<rscale>  2 0.12959134E+04</rscale>
<asrwt>0</asrwt>
<pdfrwt beam="1">  1        1 0.36329947E+00 0.12959134E+04</pdfrwt>
<pdfrwt beam="2">  1       -1 0.11191834E+00 0.12959134E+04</pdfrwt>
<totfact> 0.14841420E+00</totfact>
</mgrwt>
</event>
<event>
 8    1  0.1439553E-005  0.1152736E+04  0.7818608E-02  0.8643030E-01
          1   -1    0    0  502    0  0.00000000000E+00  0.00000000000E+00  0.12446715963E+04  0.12446715963E+04  0.00000000000E+00 0.  1.
         -1   -1    0    0    0  501 -0.00000000000E+00 -0.00000000000E+00 -0.10812178528E+04  0.10812178528E+04  0.00000000000E+00 0. -1.
    9000010    2    1    2  502    0 -0.92581108392E+02 -0.44256986693E+03  0.19613329151E+03  0.11164913209E+04  0.10018209685E+04 0.  0.
   -9000010    2    1    2    0  501  0.92581108392E+02  0.44256986693E+03 -0.32679547978E+02  0.12093981281E+04  0.11212209999E+04 0.  0.
        -13    1    3    3    0    0  0.54067695731E+02 -0.71015783722E+03  0.32795948988E+03  0.78409496086E+03  0.10566000000E+00 0.  1.
          4    1    3    3  502    0 -0.14664880412E+03  0.26758797029E+03 -0.13182619838E+03  0.33239636005E+03  0.00000000000E+00 0.  1.
         13    1    4    4    0    0 -0.49313666290E+03  0.24322652271E+03  0.13930402006E+03  0.56722881699E+03  0.10566000000E+00 0. -1.
         -4    1    4    4    0  501  0.58571777130E+03  0.19934334422E+03 -0.17198356804E+03  0.64216931114E+03  0.00000000000E+00 0. -1.
<mgrwt>
<rscale>  2 0.11527355E+04</rscale>
<asrwt>0</asrwt>
<pdfrwt beam="1">  1        1 0.19148794E+00 0.11527355E+04</pdfrwt>
<pdfrwt beam="2">  1       -1 0.16634121E+00 0.11527355E+04</pdfrwt>
<totfact> 0.36306073E+00</totfact>
</mgrwt>
</event>
<event>
 8    1  0.1439553E-005  0.1179093E+04  0.7818608E-02  0.8622474E-01
          2   -1    0    0  502    0  0.00000000000E+00  0.00000000000E+00  0.27498022542E+04  0.27498022542E+04  0.00000000000E+00 0. -1.
         -2   -1    0    0    0  501 -0.00000000000E+00 -0.00000000000E+00 -0.51464900036E+03  0.51464900036E+03  0.00000000000E+00 0.  1.
    9000010    2    1    2  502    0  0.39203309462E+03  0.34614738747E+03  0.13604286712E+04  0.18227849944E+04  0.10946556560E+04 0.  0.
   -9000010    2    1    2    0  501 -0.39203309462E+03 -0.34614738747E+03  0.87472458265E+03  0.14416662602E+04  0.10196815921E+04 0.  0.
        -13    1    3    3    0    0  0.14803651240E+03  0.38954217828E+02 -0.17820628907E+03  0.23492495125E+03  0.10566000000E+00 0.  1.
          4    1    3    3  502    0  0.24399658221E+03  0.30719316964E+03  0.15386349603E+04  0.15878600431E+04  0.00000000000E+00 0.  1.
         13    1    4    4    0    0 -0.58781079228E+03  0.79543574673E+02  0.21175014594E+03  0.62983080527E+03  0.10566000000E+00 0. -1.
         -4    1    4    4    0  501  0.19577769766E+03 -0.42569096214E+03  0.66297443671E+03  0.81183545493E+03  0.00000000000E+00 0. -1.
<mgrwt>
<rscale>  2 0.11790934E+04</rscale>
<asrwt>0</asrwt>
<pdfrwt beam="1">  1        2 0.42304649E+00 0.11790934E+04</pdfrwt>
<pdfrwt beam="2">  1       -2 0.79176770E-01 0.11790934E+04</pdfrwt>
<totfact> 0.54716067E+00</totfact>
</mgrwt>
</event>
<event>
 8    1  0.1439553E-005  0.2627101E+04  0.7818608E-02  0.7952220E-01
         -2   -1    0    0    0  501 -0.00000000000E+00  0.00000000000E+00  0.13503477019E+04  0.13503477019E+04  0.00000000000E+00 0.  1.
          2   -1    0    0  502    0  0.00000000000E+00 -0.00000000000E+00 -0.52163803068E+04  0.52163803068E+04  0.00000000000E+00 0. -1.
    9000010    2    1    2  502    0 -0.11270854764E+04 -0.21490611496E+04 -0.23969919340E+04  0.35536060715E+04  0.99687525989E+03 0.  0.
   -9000010    2    1    2    0  501  0.11270854764E+04  0.21490611496E+04 -0.14690406709E+04  0.30131219372E+04  0.10158926223E+04 0.  0.
        -13    1    3    3    0    0 -0.17329369167E+03 -0.34652942897E+02  0.48255496547E+02  0.18319425246E+03  0.10566000000E+00 0.  1.
          4    1    3    3  502    0 -0.95379178468E+03 -0.21144082067E+04 -0.24452474305E+04  0.33704118190E+04  0.00000000000E+00 0.  1.
         13    1    4    4    0    0  0.78996135893E+03  0.49920472203E+03 -0.66585756712E+03  0.11474365403E+04  0.10566000000E+00 0. -1.
         -4    1    4    4    0  501  0.33712411742E+03  0.16498564276E+04 -0.80318310382E+03  0.18656853970E+04  0.00000000000E+00 0. -1.
<mgrwt>
<rscale>  2 0.26271007E+04</rscale>
<asrwt>0</asrwt>
<pdfrwt beam="2">  1        2 0.80252006E+00 0.26271007E+04</pdfrwt>
<pdfrwt beam="1">  1       -2 0.20774580E+00 0.26271007E+04</pdfrwt>
<totfact> 0.30466128E-03</totfact>
</mgrwt>
</event>
<event>
 8    1  0.1439553E-005  0.1239731E+04  0.7818608E-02  0.8577229E-01
         -2   -1    0    0    0  501 -0.00000000000E+00  0.00000000000E+00  0.12536763970E+04  0.12536763970E+04  0.00000000000E+00 0.  1.
          2   -1    0    0  502    0  0.00000000000E+00 -0.00000000000E+00 -0.12643400807E+04  0.12643400807E+04  0.00000000000E+00 0. -1.
    9000010    2    1    2  502    0  0.69054842717E+03 -0.13339203491E+03 -0.22371189194E+03  0.12401979249E+04  0.99669118445E+03 0.  0.
   -9000010    2    1    2    0  501 -0.69054842717E+03  0.13339203491E+03  0.21304820821E+03  0.12778185527E+04  0.10453612531E+04 0.  0.
        -13    1    3    3    0    0  0.25115792036E+03  0.39863306537E+03  0.94185717770E+02  0.48047849313E+03  0.10566000000E+00 0.  1.
          4    1    3    3  502    0  0.43939050681E+03 -0.53202510027E+03 -0.31789760972E+03  0.75971943180E+03  0.00000000000E+00 0.  1.
         13    1    4    4    0    0 -0.39391167991E+03  0.34242384287E+03  0.56716852695E+03  0.77077924782E+03  0.10566000000E+00 0. -1.
         -4    1    4    4    0  501 -0.29663674726E+03 -0.20903180796E+03 -0.35412031874E+03  0.50703930489E+03  0.00000000000E+00 0. -1.
<mgrwt>
<rscale>  2 0.12397315E+04</rscale>
<asrwt>0</asrwt>
<pdfrwt beam="2">  1        2 0.19451386E+00 0.12397315E+04</pdfrwt>
<pdfrwt beam="1">  1       -2 0.19287329E+00 0.12397315E+04</pdfrwt>
<totfact> 0.30659879E+00</totfact>
</mgrwt>
</event>
<event>
 8    1  0.1439553E-005  0.1755114E+04  0.7818608E-02  0.8276118E-01
         -4   -1    0    0    0  501 -0.00000000000E+00  0.00000000000E+00  0.32471421590E+04  0.32471421590E+04  0.00000000000E+00 0. -1.
          4   -1    0    0  502    0  0.00000000000E+00 -0.00000000000E+00 -0.10172878204E+04  0.10172878204E+04  0.00000000000E+00 0.  1.
    9000010    2    1    2  502    0 -0.74193688853E+03  0.12362530196E+04  0.56275298130E+03  0.18457565722E+04  0.10056512969E+04 0.  0.
   -9000010    2    1    2    0  501  0.74193688853E+03 -0.12362530196E+04  0.16671013573E+04  0.24186734072E+04  0.99597301177E+03 0.  0.
        -13    1    3    3    0    0 -0.46163592891E+03  0.13219434598E+04  0.64454171496E+03  0.15414526510E+04  0.10566000000E+00 0.  1.
          4    1    3    3  502    0 -0.28030095961E+03 -0.85690440235E+02 -0.81788733664E+02  0.30430392121E+03  0.00000000000E+00 0.  1.
         13    1    4    4    0    0  0.27639975715E+03 -0.33994807712E+03  0.12524536825E+04  0.13268766931E+04  0.10566000000E+00 0. -1.
         -4    1    4    4    0  501  0.46553713138E+03 -0.89630494246E+03  0.41464767482E+03  0.10917967140E+04  0.00000000000E+00 0. -1.
<mgrwt>
<rscale>  2 0.17551140E+04</rscale>
<asrwt>0</asrwt>
<pdfrwt beam="2">  1        4 0.15650582E+00 0.17551140E+04</pdfrwt>
<pdfrwt beam="1">  1       -4 0.49956033E+00 0.17551140E+04</pdfrwt>
<totfact> 0.22423390E-02</totfact>
</mgrwt>
</event>
<event>
 8    1  0.1439553E-005  0.1244494E+04  0.7818608E-02  0.8573790E-01
          2   -1    0    0  502    0  0.00000000000E+00  0.00000000000E+00  0.13284768953E+04  0.13284768953E+04  0.00000000000E+00 0.  1.
         -2   -1    0    0    0  501 -0.00000000000E+00 -0.00000000000E+00 -0.12461419780E+04  0.12461419780E+04  0.00000000000E+00 0. -1.
    9000010    2    1    2  502    0  0.83679969420E+03  0.67967969796E+02  0.36356526261E+03  0.13578215497E+04  0.10033176404E+04 0.  0.
   -9000010    2    1    2    0  501 -0.83679969420E+03 -0.67967969796E+02 -0.28123034536E+03  0.12167973235E+04  0.83465672360E+03 0.  0.
        -13    1    3    3    0    0 -0.13589772433E+03 -0.28897892383E+02  0.35397569963E+03  0.38026581066E+03  0.10566000000E+00 0.  1.
          4    1    3    3  502    0  0.97269741854E+03  0.96865862179E+02  0.95895629756E+01  0.97755573908E+03  0.00000000000E+00 0.  1.
         13    1    4    4    0    0 -0.98266654737E+03 -0.15277333012E+02 -0.11506329154E+03  0.98949811140E+03  0.10566000000E+00 0. -1.
         -4    1    4    4    0  501  0.14586685317E+03 -0.52690636784E+02 -0.16616705382E+03  0.22729921213E+03  0.00000000000E+00 0. -1.
<mgrwt>
<rscale>  2 0.12444942E+04</rscale>
<asrwt>0</asrwt>
<pdfrwt beam="1">  1        2 0.20438106E+00 0.12444942E+04</pdfrwt>
<pdfrwt beam="2">  1       -2 0.19171415E+00 0.12444942E+04</pdfrwt>
<totfact> 0.28840258E+00</totfact>
</mgrwt>
</event>
<event>
 8    1  0.1439553E-005  0.1170900E+04  0.7818608E-02  0.8628804E-01
          2   -1    0    0  502    0  0.00000000000E+00  0.00000000000E+00  0.16837665680E+04  0.16837665680E+04  0.00000000000E+00 0.  1.
         -2   -1    0    0    0  501 -0.00000000000E+00 -0.00000000000E+00 -0.86151670989E+03  0.86151670989E+03  0.00000000000E+00 0. -1.
    9000010    2    1    2  502    0 -0.70550376097E+02 -0.44097326997E+03  0.70459609825E+03  0.13555468343E+04  0.10684646826E+04 0.  0.
   -9000010    2    1    2    0  501  0.70550376097E+02  0.44097326997E+03  0.11765375986E+03  0.11897364436E+04  0.10964468148E+04 0.  0.
        -13    1    3    3    0    0  0.18499131770E+03  0.15419532234E+03 -0.14962954248E+03  0.28352600622E+03  0.10566000000E+00 0.  1.
          4    1    3    3  502    0 -0.25554169380E+03 -0.59516859231E+03  0.85422564073E+03  0.10720208281E+04  0.00000000000E+00 0.  1.
         13    1    4    4    0    0 -0.29063138088E+03 -0.26114731153E+03 -0.46285642235E+01  0.39075049922E+03  0.10566000000E+00 0. -1.
         -4    1    4    4    0  501  0.36118175697E+03  0.70212058149E+03  0.12228232408E+03  0.79898594438E+03  0.00000000000E+00 0. -1.
<mgrwt>
<rscale>  2 0.11708998E+04</rscale>
<asrwt>0</asrwt>
<pdfrwt beam="1">  1        2 0.25904101E+00 0.11708998E+04</pdfrwt>
<pdfrwt beam="2">  1       -2 0.13254103E+00 0.11708998E+04</pdfrwt>
<totfact> 0.60165130E+00</totfact>
</mgrwt>
</event>
<event>
 8    1  0.1439553E-005  0.1337810E+04  0.7818608E-02  0.8509437E-01
         -1   -1    0    0    0  501 -0.00000000000E+00  0.00000000000E+00  0.91307030401E+03  0.91307030401E+03  0.00000000000E+00 0.  1.
          1   -1    0    0  502    0  0.00000000000E+00 -0.00000000000E+00 -0.20465040695E+04  0.20465040695E+04  0.00000000000E+00 0. -1.
    9000010    2    1    2  502    0  0.87506903786E+03 -0.31178125941E+02 -0.86492168528E+03  0.15818671366E+04  0.99372844354E+03 0.  0.
   -9000010    2    1    2    0  501 -0.87506903786E+03  0.31178125941E+02 -0.26851208024E+03  0.13777072370E+04  0.10292038656E+04 0.  0.
        -13    1    3    3    0    0  0.65486026037E+03 -0.45550340399E+03 -0.32675578370E+03  0.86202938756E+03  0.10566000000E+00 0.  1.
          4    1    3    3  502    0  0.22020877749E+03  0.42432527805E+03 -0.53816590158E+03  0.71983774901E+03  0.00000000000E+00 0.  1.
         13    1    4    4    0    0 -0.65016994762E+02 -0.26393922353E+03  0.25196499760E+03  0.37064470117E+03  0.10566000000E+00 0. -1.
         -4    1    4    4    0  501 -0.81005204310E+03  0.29511734947E+03 -0.52047707785E+03  0.10070625358E+04  0.00000000000E+00 0. -1.
<mgrwt>
<rscale>  2 0.13378104E+04</rscale>
<asrwt>0</asrwt>
<pdfrwt beam="2">  1        1 0.31484678E+00 0.13378104E+04</pdfrwt>
<pdfrwt beam="1">  1       -1 0.14047236E+00 0.13378104E+04</pdfrwt>
<totfact> 0.14855343E+00</totfact>
</mgrwt>
</event>
<event>
 8    1  0.1439553E-005  0.1632186E+04  0.7818608E-02  0.8337240E-01
         -2   -1    0    0    0  501 -0.00000000000E+00  0.00000000000E+00  0.10812492616E+04  0.10812492616E+04  0.00000000000E+00 0. -1.
          2   -1    0    0  502    0  0.00000000000E+00 -0.00000000000E+00 -0.26540396920E+04  0.26540396920E+04  0.00000000000E+00 0.  1.
    9000010    2    1    2  502    0  0.42725731375E+03  0.12163220360E+04 -0.12885120238E+04  0.20833344180E+04  0.10089752000E+04 0.  0.
   -9000010    2    1    2    0  501 -0.42725731375E+03 -0.12163220360E+04 -0.28427840659E+03  0.16519545356E+04  0.99305159380E+03 0.  0.
        -13    1    3    3    0    0  0.50094759300E+03  0.79301709640E+03 -0.13555799438E+04  0.16484603730E+04  0.10566000000E+00 0.  1.
          4    1    3    3  502    0 -0.73690279251E+02  0.42330493959E+03  0.67067919931E+02  0.43487404501E+03  0.00000000000E+00 0.  1.
         13    1    4    4    0    0  0.19150537161E+03 -0.38509711670E+03 -0.42684849021E+03  0.60594862934E+03  0.10566000000E+00 0. -1.
         -4    1    4    4    0  501 -0.61876268536E+03 -0.83122491930E+03  0.14257008362E+03  0.10460059063E+04  0.00000000000E+00 0. -1.
<mgrwt>
<rscale>  2 0.16321862E+04</rscale>
<asrwt>0</asrwt>
<pdfrwt beam="2">  1        2 0.40831379E+00 0.16321862E+04</pdfrwt>
<pdfrwt beam="1">  1       -2 0.16634604E+00 0.16321862E+04</pdfrwt>
<totfact> 0.83518315E-01</totfact>
</mgrwt>
</event>
<event>
 8    1  0.1439553E-005  0.1196637E+04  0.7818608E-02  0.8609099E-01
         -2   -1    0    0    0  501 -0.00000000000E+00  0.00000000000E+00  0.14780972006E+04  0.14780972006E+04  0.00000000000E+00 0.  1.
          2   -1    0    0  502    0  0.00000000000E+00 -0.00000000000E+00 -0.97691169505E+03  0.97691169505E+03  0.00000000000E+00 0. -1.
    9000010    2    1    2  502    0 -0.64822344326E+03  0.74963857827E+01  0.13695477676E+03  0.11946376845E+04  0.99405872971E+03 0.  0.
   -9000010    2    1    2    0  501  0.64822344326E+03 -0.74963857827E+01  0.36423072876E+03  0.12603712111E+04  0.10176550191E+04 0.  0.
        -13    1    3    3    0    0 -0.34744068487E+01 -0.14487938562E+02 -0.37238423677E+03  0.37268217401E+03  0.10566000000E+00 0.  1.
          4    1    3    3  502    0 -0.64474903641E+03  0.21984324345E+02  0.50933901354E+03  0.82195551046E+03  0.00000000000E+00 0.  1.
         13    1    4    4    0    0  0.28718402104E+03 -0.49338646655E+03  0.31749291018E+03  0.65322785190E+03  0.10566000000E+00 0. -1.
         -4    1    4    4    0  501  0.36103942222E+03  0.48589008077E+03  0.46737818580E+02  0.60714335924E+03  0.00000000000E+00 0. -1.
<mgrwt>
<rscale>  2 0.11966371E+04</rscale>
<asrwt>0</asrwt>
<pdfrwt beam="2">  1        2 0.15029411E+00 0.11966371E+04</pdfrwt>
<pdfrwt beam="1">  1       -2 0.22739957E+00 0.11966371E+04</pdfrwt>
<totfact> 0.23638777E+00</totfact>
</mgrwt>
</event>
<event>
 8    1  0.1439553E-005  0.1140470E+04  0.7818608E-02  0.8652791E-01
          2   -1    0    0  502    0  0.00000000000E+00  0.00000000000E+00  0.19773166473E+04  0.19773166473E+04  0.00000000000E+00 0. -1.
         -2   -1    0    0    0  501 -0.00000000000E+00 -0.00000000000E+00 -0.12893444584E+04  0.12893444584E+04  0.00000000000E+00 0.  1.
    9000010    2    1    2  502    0  0.45360116045E+03  0.28904431836E+03 -0.79928272114E+03  0.13918873389E+04  0.10045879082E+04 0.  0.
   -9000010    2    1    2    0  501 -0.45360116045E+03 -0.28904431836E+03  0.14872549100E+04  0.18747737667E+04  0.10067516467E+04 0.  0.
        -13    1    3    3    0    0 -0.26389798195E+03 -0.14355867104E+03 -0.18237636829E+03  0.35144329241E+03  0.10566000000E+00 0.  1.
          4    1    3    3  502    0  0.71749914240E+03  0.43260298940E+03 -0.61690635285E+03  0.10404440465E+04  0.00000000000E+00 0.  1.
         13    1    4    4    0    0  0.19060154637E+03  0.17514952047E+03  0.74175793170E+03  0.78562786636E+03  0.10566000000E+00 0. -1.
         -4    1    4    4    0  501 -0.64420270683E+03 -0.46419383884E+03  0.74549697834E+03  0.10891459003E+04  0.00000000000E+00 0. -1.
<mgrwt>
<rscale>  2 0.11404699E+04</rscale>
<asrwt>0</asrwt>
<pdfrwt beam="1">  1        2 0.30420256E+00 0.11404699E+04</pdfrwt>
<pdfrwt beam="2">  1       -2 0.19836069E+00 0.11404699E+04</pdfrwt>
<totfact> 0.11365333E+00</totfact>
</mgrwt>
</event>
<event>
 8    1  0.1439553E-005  0.1373969E+04  0.7818608E-02  0.8485940E-01
         -2   -1    0    0    0  501 -0.00000000000E+00  0.00000000000E+00  0.12766804961E+04  0.12766804961E+04  0.00000000000E+00 0.  1.
          2   -1    0    0  502    0  0.00000000000E+00 -0.00000000000E+00 -0.16064945499E+04  0.16064945499E+04  0.00000000000E+00 0. -1.
    9000010    2    1    2  502    0  0.40416070593E+03 -0.85967075062E+03 -0.57115055048E+03  0.14848109449E+04  0.98796301294E+03 0.  0.
   -9000010    2    1    2    0  501 -0.40416070593E+03  0.85967075062E+03  0.24133649670E+03  0.13983641011E+04  0.99739619963E+03 0.  0.
        -13    1    3    3    0    0  0.67138633948E+03 -0.84475295775E+03 -0.34053167296E+03  0.11315162429E+04  0.10566000000E+00 0.  1.
          4    1    3    3  502    0 -0.26722563355E+03 -0.14917792875E+02 -0.23061887752E+03  0.35329470197E+03  0.00000000000E+00 0.  1.
         13    1    4    4    0    0 -0.13938412664E+03  0.71270736153E+03 -0.29387740112E+03  0.78341793188E+03  0.10566000000E+00 0. -1.
         -4    1    4    4    0  501 -0.26477657929E+03  0.14696338909E+03  0.53521389781E+03  0.61494616926E+03  0.00000000000E+00 0. -1.
<mgrwt>
<rscale>  2 0.13739692E+04</rscale>
<asrwt>0</asrwt>
<pdfrwt beam="2">  1        2 0.24715301E+00 0.13739692E+04</pdfrwt>
<pdfrwt beam="1">  1       -2 0.19641238E+00 0.13739692E+04</pdfrwt>
<totfact> 0.18270336E+00</totfact>
</mgrwt>
</event>
<event>
 8    1  0.1439553E-005  0.1107733E+04  0.7818608E-02  0.8679482E-01
          2   -1    0    0  502    0  0.00000000000E+00  0.00000000000E+00  0.13876564962E+04  0.13876564962E+04  0.00000000000E+00 0.  1.
         -2   -1    0    0    0  501 -0.00000000000E+00 -0.00000000000E+00 -0.92939631689E+03  0.92939631689E+03  0.00000000000E+00 0. -1.
    9000010    2    1    2  502    0 -0.46697882641E+03  0.11792147996E+03  0.48475557776E+03  0.12108767231E+04  0.99962981579E+03 0.  0.
   -9000010    2    1    2    0  501  0.46697882641E+03 -0.11792147996E+03 -0.26495398409E+02  0.11061760900E+04  0.99546413108E+03 0.  0.
        -13    1    3    3    0    0 -0.35431606806E+03 -0.36746805279E+03  0.49698015941E+03  0.71243381160E+03  0.10566000000E+00 0.  1.
          4    1    3    3  502    0 -0.11266275835E+03  0.48538953275E+03 -0.12224581653E+02  0.49844291149E+03  0.00000000000E+00 0.  1.
         13    1    4    4    0    0  0.55573627722E+03 -0.35918796456E+03 -0.30373564300E+03  0.72808938716E+03  0.10566000000E+00 0. -1.
         -4    1    4    4    0  501 -0.88757450809E+02  0.24126648460E+03  0.27724024460E+03  0.37808670287E+03  0.00000000000E+00 0. -1.
<mgrwt>
<rscale>  2 0.11077328E+04</rscale>
<asrwt>0</asrwt>
<pdfrwt beam="1">  1        2 0.21348562E+00 0.11077328E+04</pdfrwt>
<pdfrwt beam="2">  1       -2 0.14298405E+00 0.11077328E+04</pdfrwt>
<totfact> 0.70697294E+00</totfact>
</mgrwt>
</event>
<event>
 8    1  0.1439553E-005  0.1125039E+04  0.7818608E-02  0.8665254E-01
         -1   -1    0    0    0  501 -0.00000000000E+00  0.00000000000E+00  0.56191750980E+03  0.56191750980E+03  0.00000000000E+00 0.  1.
          1   -1    0    0  502    0  0.00000000000E+00 -0.00000000000E+00 -0.22539003027E+04  0.22539003027E+04  0.00000000000E+00 0. -1.
    9000010    2    1    2  502    0 -0.29139531540E+03  0.41427493439E+03 -0.80624401948E+03  0.13777390576E+04  0.99579141437E+03 0.  0.
   -9000010    2    1    2    0  501  0.29139531540E+03 -0.41427493439E+03 -0.88573877346E+03  0.14380787549E+04  0.10134112587E+04 0.  0.
        -13    1    3    3    0    0  0.77413710350E+02  0.56350468446E+03 -0.11519600334E+03  0.58034519237E+03  0.10566000000E+00 0.  1.
          4    1    3    3  502    0 -0.36880902575E+03 -0.14922975006E+03 -0.69104801614E+03  0.79739386528E+03  0.00000000000E+00 0.  1.
         13    1    4    4    0    0  0.53723052556E+03 -0.61417973363E+03 -0.62972929247E+03  0.10307241997E+04  0.10566000000E+00 0. -1.
         -4    1    4    4    0  501 -0.24583521015E+03  0.19990479924E+03 -0.25600948098E+03  0.40735455522E+03  0.00000000000E+00 0. -1.
<mgrwt>
<rscale>  2 0.11250390E+04</rscale>
<asrwt>0</asrwt>
<pdfrwt beam="2">  1        1 0.34675389E+00 0.11250390E+04</pdfrwt>
<pdfrwt beam="1">  1       -1 0.86448848E-01 0.11250390E+04</pdfrwt>
<totfact> 0.32636015E+00</totfact>
</mgrwt>
</event>
<event>
 8    1  0.1439553E-005  0.1233415E+04  0.7818608E-02  0.8581816E-01
          1   -1    0    0  502    0  0.00000000000E+00  0.00000000000E+00  0.23004213655E+04  0.23004213655E+04  0.00000000000E+00 0.  1.
         -1   -1    0    0    0  501 -0.00000000000E+00 -0.00000000000E+00 -0.91123096484E+03  0.91123096484E+03  0.00000000000E+00 0. -1.
    9000010    2    1    2  502    0  0.54504132881E+03  0.46601892797E+03 -0.14646973404E+03  0.12418387143E+04  0.10032279492E+04 0.  0.
   -9000010    2    1    2    0  501 -0.54504132881E+03 -0.46601892797E+03  0.15356601347E+04  0.19698136160E+04  0.10038276452E+04 0.  0.
        -13    1    3    3    0    0  0.55625456374E+03 -0.15856134125E+03  0.65649528469E+02  0.58212602619E+03  0.10566000000E+00 0.  1.
          4    1    3    3  502    0 -0.11213234930E+02  0.62458026922E+03 -0.21211926251E+03  0.65971268812E+03  0.00000000000E+00 0.  1.
         13    1    4    4    0    0 -0.53186328078E+03 -0.82221918239E+02  0.14886229266E+04  0.15829204724E+04  0.10566000000E+00 0. -1.
         -4    1    4    4    0  501 -0.13178048032E+02 -0.38379700973E+03  0.47037208117E+02  0.38689314362E+03  0.00000000000E+00 0. -1.
<mgrwt>
<rscale>  2 0.12334147E+04</rscale>
<asrwt>0</asrwt>
<pdfrwt beam="1">  1        1 0.35391098E+00 0.12334147E+04</pdfrwt>
<pdfrwt beam="2">  1       -1 0.14018938E+00 0.12334147E+04</pdfrwt>
<totfact> 0.94935385E-01</totfact>
</mgrwt>
</event>
<event>
 8    1  0.1439553E-005  0.1092496E+04  0.7818608E-02  0.8692234E-01
          2   -1    0    0  502    0  0.00000000000E+00  0.00000000000E+00  0.32894856352E+04  0.32894856352E+04  0.00000000000E+00 0. -1.
         -2   -1    0    0    0  501 -0.00000000000E+00 -0.00000000000E+00 -0.49720951339E+03  0.49720951339E+03  0.00000000000E+00 0.  1.
    9000010    2    1    2  502    0 -0.18799223557E+03 -0.43360033940E+03  0.23883519027E+04  0.26299750859E+04  0.99458222697E+03 0.  0.
   -9000010    2    1    2    0  501  0.18799223557E+03  0.43360033940E+03  0.40392421910E+03  0.11567200627E+04  0.97544666371E+03 0.  0.
        -13    1    3    3    0    0  0.49324931379E+02 -0.57619696586E+03  0.65127880416E+03  0.87097645447E+03  0.10566000000E+00 0.  1.
          4    1    3    3  502    0 -0.23731716695E+03  0.14259662646E+03  0.17370730986E+04  0.17589986314E+04  0.00000000000E+00 0.  1.
         13    1    4    4    0    0 -0.23912239007E+03  0.33571558045E+03 -0.16037131848E+03  0.44227077605E+03  0.10566000000E+00 0. -1.
         -4    1    4    4    0  501  0.42711462564E+03  0.97884758947E+02  0.56429553758E+03  0.71444928666E+03  0.00000000000E+00 0. -1.
<mgrwt>
<rscale>  2 0.10924955E+04</rscale>
<asrwt>0</asrwt>
<pdfrwt beam="1">  1        2 0.50607470E+00 0.10924955E+04</pdfrwt>
<pdfrwt beam="2">  1       -2 0.76493773E-01 0.10924955E+04</pdfrwt>
<totfact> 0.27525608E+00</totfact>
</mgrwt>
</event>
<event>
 8    1  0.1439553E-005  0.1256147E+04  0.7818608E-02  0.8565440E-01
          1   -1    0    0  502    0  0.00000000000E+00  0.00000000000E+00  0.93778282062E+03  0.93778282062E+03  0.00000000000E+00 0.  1.
         -1   -1    0    0    0  501 -0.00000000000E+00 -0.00000000000E+00 -0.16963755207E+04  0.16963755207E+04  0.00000000000E+00 0. -1.
    9000010    2    1    2  502    0 -0.62783748872E+03  0.39963147796E+03 -0.50119142340E+03  0.13649271019E+04  0.10285659532E+04 0.  0.
   -9000010    2    1    2    0  501  0.62783748872E+03 -0.39963147796E+03 -0.25740127672E+03  0.12692312395E+04  0.99539303372E+03 0.  0.
        -13    1    3    3    0    0 -0.12820955641E+03 -0.11616233832E+03  0.26394467591E+03  0.31559179696E+03  0.10566000000E+00 0.  1.
          4    1    3    3  502    0 -0.49962793232E+03  0.51579381628E+03 -0.76513609932E+03  0.10493353049E+04  0.00000000000E+00 0.  1.
         13    1    4    4    0    0 -0.23067392937E+03 -0.12223541093E+03 -0.25797173956E+03  0.36701687557E+03  0.10566000000E+00 0. -1.
         -4    1    4    4    0  501  0.85851141810E+03 -0.27739606703E+03  0.57046284313E+00  0.90221436391E+03  0.00000000000E+00 0. -1.
<mgrwt>
<rscale>  2 0.12561472E+04</rscale>
<asrwt>0</asrwt>
<pdfrwt beam="1">  1        1 0.14427428E+00 0.12561472E+04</pdfrwt>
<pdfrwt beam="2">  1       -1 0.26098085E+00 0.12561472E+04</pdfrwt>
<totfact> 0.84530204E-01</totfact>
</mgrwt>
</event>
<event>
 8    1  0.1439553E-005  0.1574546E+04  0.7818608E-02  0.8367844E-01
         -2   -1    0    0    0  501 -0.00000000000E+00  0.00000000000E+00  0.14306306953E+04  0.14306306953E+04  0.00000000000E+00 0. -1.
          2   -1    0    0  502    0  0.00000000000E+00 -0.00000000000E+00 -0.18433946179E+04  0.18433946179E+04  0.00000000000E+00 0.  1.
    9000010    2    1    2  502    0 -0.11805702531E+04  0.26520728238E+03  0.19516740370E+03  0.15793203863E+04  0.99603290207E+03 0.  0.
   -9000010    2    1    2    0  501  0.11805702531E+04 -0.26520728238E+03 -0.60793132630E+03  0.16947049269E+04  0.10190011122E+04 0.  0.
        -13    1    3    3    0    0 -0.79865640369E+03  0.13557027025E+03 -0.36545162372E+03  0.88869918970E+03  0.10566000000E+00 0.  1.
          4    1    3    3  502    0 -0.38191384941E+03  0.12963701213E+03  0.56061902742E+03  0.69062119660E+03  0.00000000000E+00 0.  1.
         13    1    4    4    0    0  0.95398443739E+03 -0.32063226147E+03 -0.87959866335E+03  0.13366320263E+04  0.10566000000E+00 0. -1.
         -4    1    4    4    0  501  0.22658581571E+03  0.55424979096E+02  0.27166733704E+03  0.35807290068E+03  0.00000000000E+00 0. -1.
<mgrwt>
<rscale>  2 0.15745461E+04</rscale>
<asrwt>0</asrwt>
<pdfrwt beam="2">  1        2 0.28359917E+00 0.15745461E+04</pdfrwt>
<pdfrwt beam="1">  1       -2 0.22009703E+00 0.15745461E+04</pdfrwt>
<totfact> 0.84792468E-01</totfact>
</mgrwt>
</event>
<event>
 8    1  0.1439553E-005  0.1035908E+04  0.7818608E-02  0.8741565E-01
         -2   -1    0    0    0  501 -0.00000000000E+00  0.00000000000E+00  0.28623357516E+04  0.28623357516E+04  0.00000000000E+00 0. -1.
          2   -1    0    0  502    0  0.00000000000E+00 -0.00000000000E+00 -0.39221421313E+03  0.39221421313E+03  0.00000000000E+00 0.  1.
    9000010    2    1    2  502    0 -0.15234426452E+03  0.20886024301E+03  0.88698250092E+03  0.13595473809E+04  0.99739648486E+03 0.  0.
   -9000010    2    1    2    0  501  0.15234426452E+03 -0.20886024301E+03  0.15831390375E+04  0.18950025838E+04  0.10088975192E+04 0.  0.
        -13    1    3    3    0    0 -0.18052269104E+03  0.57773378596E+02  0.10891909677E+04  0.11055601207E+04  0.10566000000E+00 0.  1.
          4    1    3    3  502    0  0.28178426519E+02  0.15108686441E+03 -0.20220846677E+03  0.25398726022E+03  0.00000000000E+00 0.  1.
         13    1    4    4    0    0  0.54390782043E+03 -0.17390992433E+03  0.56371713470E+03  0.80240725198E+03  0.10566000000E+00 0. -1.
         -4    1    4    4    0  501 -0.39156355591E+03 -0.34950318684E+02  0.10194219028E+04  0.10925953318E+04  0.00000000000E+00 0. -1.
<mgrwt>
<rscale>  2 0.10359085E+04</rscale>
<asrwt>0</asrwt>
<pdfrwt beam="2">  1        2 0.60340650E-01 0.10359085E+04</pdfrwt>
<pdfrwt beam="1">  1       -2 0.44035933E+00 0.10359085E+04</pdfrwt>
<totfact> 0.35022746E-01</totfact>
</mgrwt>
</event>
<event>
 8    1  0.1439553E-005  0.2009719E+04  0.7818608E-02  0.8164447E-01
          2   -1    0    0  502    0  0.00000000000E+00  0.00000000000E+00  0.22690929634E+04  0.22690929634E+04  0.00000000000E+00 0. -1.
         -2   -1    0    0    0  501 -0.00000000000E+00 -0.00000000000E+00 -0.17858078007E+04  0.17858078007E+04  0.00000000000E+00 0.  1.
    9000010    2    1    2  502    0 -0.76475057069E+03  0.15639816561E+04  0.12588449768E+03  0.20130874862E+04  0.10028919504E+04 0.  0.
   -9000010    2    1    2    0  501  0.76475057069E+03 -0.15639816561E+04  0.35740066501E+03  0.20418132780E+04  0.10051786760E+04 0.  0.
        -13    1    3    3    0    0  0.66876541402E+01 -0.13915163113E+03  0.14663473630E+02  0.14008186816E+03  0.10566000000E+00 0.  1.
          4    1    3    3  502    0 -0.77143822483E+03  0.17031332873E+04  0.11122102405E+03  0.18730056180E+04  0.00000000000E+00 0.  1.
         13    1    4    4    0    0  0.99315843099E+03 -0.10495109096E+04  0.21163507952E+03  0.14603514085E+04  0.10566000000E+00 0. -1.
         -4    1    4    4    0  501 -0.22840786030E+03 -0.51447074654E+03  0.14576558549E+03  0.58146186944E+03  0.00000000000E+00 0. -1.
<mgrwt>
<rscale>  2 0.20097188E+04</rscale>
<asrwt>0</asrwt>
<pdfrwt beam="1">  1        2 0.34909123E+00 0.20097188E+04</pdfrwt>
<pdfrwt beam="2">  1       -2 0.27473966E+00 0.20097188E+04</pdfrwt>
<totfact> 0.17721923E-01</totfact>
</mgrwt>
</event>
<event>
 8    1  0.1439553E-005  0.1147898E+04  0.7818608E-02  0.8646864E-01
          1   -1    0    0  502    0  0.00000000000E+00  0.00000000000E+00  0.26267320259E+04  0.26267320259E+04  0.00000000000E+00 0.  1.
         -1   -1    0    0    0  501 -0.00000000000E+00 -0.00000000000E+00 -0.63859121046E+03  0.63859121046E+03  0.00000000000E+00 0. -1.
    9000010    2    1    2  502    0  0.40711840383E+03 -0.32007593632E+03  0.23095573809E+03  0.11606159374E+04  0.10126671721E+04 0.  0.
   -9000010    2    1    2    0  501 -0.40711840383E+03  0.32007593632E+03  0.17571850773E+04  0.21047072989E+04  0.10362911841E+04 0.  0.
        -13    1    3    3    0    0  0.70237174847E+03 -0.40342162373E+02  0.26656060174E+03  0.75233511727E+03  0.10566000000E+00 0.  1.
          4    1    3    3  502    0 -0.29525334464E+03 -0.27973377395E+03 -0.35604863645E+02  0.40828082018E+03  0.00000000000E+00 0.  1.
         13    1    4    4    0    0 -0.30300912860E+03 -0.14427254889E+03  0.15496008696E+04  0.15855257697E+04  0.10566000000E+00 0. -1.
         -4    1    4    4    0  501 -0.10410927523E+03  0.46434848521E+03  0.20758420777E+03  0.51918152916E+03  0.00000000000E+00 0. -1.
<mgrwt>
<rscale>  2 0.11478976E+04</rscale>
<asrwt>0</asrwt>
<pdfrwt beam="1">  1        1 0.40411261E+00 0.11478976E+04</pdfrwt>
<pdfrwt beam="2">  1       -1 0.98244803E-01 0.11478976E+04</pdfrwt>
<totfact> 0.11713329E+00</totfact>
</mgrwt>
</event>
<event>
 8    1  0.1439553E-005  0.1253595E+04  0.7818608E-02  0.8567261E-01
         -2   -1    0    0    0  501 -0.00000000000E+00  0.00000000000E+00  0.58716598452E+03  0.58716598452E+03  0.00000000000E+00 0. -1.
          2   -1    0    0  502    0  0.00000000000E+00 -0.00000000000E+00 -0.34457546040E+04  0.34457546040E+04  0.00000000000E+00 0.  1.
    9000010    2    1    2  502    0  0.68841830622E+03 -0.32870884793E+03 -0.47268732200E+03  0.13357225538E+04  0.98931904118E+03 0.  0.
   -9000010    2    1    2    0  501 -0.68841830622E+03  0.32870884793E+03 -0.23859012975E+04  0.26971980347E+04  0.10001914648E+04 0.  0.
        -13    1    3    3    0    0  0.22597083587E+03 -0.64679327203E+03 -0.30479879854E+03  0.74987110503E+03  0.10566000000E+00 0.  1.
          4    1    3    3  502    0  0.46244747034E+03  0.31808442410E+03 -0.16788852346E+03  0.58585144874E+03  0.00000000000E+00 0.  1.
         13    1    4    4    0    0 -0.80807162539E+03  0.54731821245E+03 -0.21136900348E+04  0.23281371419E+04  0.10566000000E+00 0. -1.
         -4    1    4    4    0  501  0.11965331918E+03 -0.21860936453E+03 -0.27221126272E+03  0.36906089281E+03  0.00000000000E+00 0. -1.
<mgrwt>
<rscale>  2 0.12535947E+04</rscale>
<asrwt>0</asrwt>
<pdfrwt beam="2">  1        2 0.53011610E+00 0.12535947E+04</pdfrwt>
<pdfrwt beam="1">  1       -2 0.90333227E-01 0.12535947E+04</pdfrwt>
<totfact> 0.14480460E+00</totfact>
</mgrwt>
</event>
<event>
 8    1  0.1439553E-005  0.1270098E+04  0.7818608E-02  0.8555567E-01
         -4   -1    0    0    0  501 -0.00000000000E+00  0.00000000000E+00  0.16403649479E+04  0.16403649479E+04  0.00000000000E+00 0. -1.
          4   -1    0    0  502    0  0.00000000000E+00 -0.00000000000E+00 -0.14095574063E+04  0.14095574063E+04  0.00000000000E+00 0.  1.
    9000010    2    1    2  502    0 -0.32040859530E+03  0.71604172649E+03 -0.72309867578E+03  0.14613511269E+04  0.99864808571E+03 0.  0.
   -9000010    2    1    2    0  501  0.32040859530E+03 -0.71604172649E+03  0.95390621744E+03  0.15885712273E+04  0.99912163955E+03 0.  0.
        -13    1    3    3    0    0  0.35597632867E+03  0.26657561927E+03 -0.15790803877E+03  0.47192866753E+03  0.10566000000E+00 0.  1.
          4    1    3    3  502    0 -0.67638492397E+03  0.44946610721E+03 -0.56519063700E+03  0.98942245935E+03  0.00000000000E+00 0.  1.
         13    1    4    4    0    0  0.49378682566E+03  0.37393103265E+02  0.32975416356E+03  0.59494663031E+03  0.10566000000E+00 0. -1.
         -4    1    4    4    0  501 -0.17337823036E+03 -0.75343482975E+03  0.62415205388E+03  0.99362459702E+03  0.00000000000E+00 0. -1.
<mgrwt>
<rscale>  2 0.12700978E+04</rscale>
<asrwt>0</asrwt>
<pdfrwt beam="2">  1        4 0.21685499E+00 0.12700978E+04</pdfrwt>
<pdfrwt beam="1">  1       -4 0.25236384E+00 0.12700978E+04</pdfrwt>
<totfact> 0.11991217E-01</totfact>
</mgrwt>
</event>
<event>
 8    1  0.1439553E-005  0.1736932E+04  0.7818608E-02  0.8284828E-01
         -1   -1    0    0    0  501 -0.00000000000E+00  0.00000000000E+00  0.35601509465E+04  0.35601509465E+04  0.00000000000E+00 0. -1.
          1   -1    0    0  502    0  0.00000000000E+00 -0.00000000000E+00 -0.93429315173E+03  0.93429315173E+03  0.00000000000E+00 0.  1.
    9000010    2    1    2  502    0 -0.39508455820E+03  0.13632169070E+04  0.62716297444E+03  0.18459958253E+04  0.99995752246E+03 0.  0.
   -9000010    2    1    2    0  501  0.39508455820E+03 -0.13632169070E+04  0.19986948203E+04  0.26484482729E+04  0.10025193893E+04 0.  0.
        -13    1    3    3    0    0 -0.24529916054E+03  0.76077853265E+03  0.86813121538E+03  0.11800879087E+04  0.10566000000E+00 0.  1.
          4    1    3    3  502    0 -0.14978539766E+03  0.60243837437E+03 -0.24096824094E+03  0.66590791661E+03  0.00000000000E+00 0.  1.
         13    1    4    4    0    0  0.58826229960E+03 -0.13906465236E+04  0.15744028716E+04  0.21814432608E+04  0.10566000000E+00 0. -1.
         -4    1    4    4    0  501 -0.19317774139E+03  0.27429616572E+02  0.42429194874E+03  0.46700501218E+03  0.00000000000E+00 0. -1.
<mgrwt>
<rscale>  2 0.17369315E+04</rscale>
<asrwt>0</asrwt>
<pdfrwt beam="2">  1        1 0.14373741E+00 0.17369315E+04</pdfrwt>
<pdfrwt beam="1">  1       -1 0.54771552E+00 0.17369315E+04</pdfrwt>
<totfact> 0.12852056E-01</totfact>
</mgrwt>
</event>
<event>
 8    1  0.1439553E-005  0.1116076E+04  0.7818608E-02  0.8672589E-01
         -4   -1    0    0    0  501 -0.00000000000E+00  0.00000000000E+00  0.21453073333E+04  0.21453073333E+04  0.00000000000E+00 0. -1.
          4   -1    0    0  502    0  0.00000000000E+00 -0.00000000000E+00 -0.68753578233E+03  0.68753578233E+03  0.00000000000E+00 0.  1.
    9000010    2    1    2  502    0  0.41355538465E+03  0.30117235159E+03  0.17160316111E+03  0.11314232610E+04  0.99445367370E+03 0.  0.
   -9000010    2    1    2    0  501 -0.41355538465E+03 -0.30117235159E+03  0.12861683899E+04  0.17014198546E+04  0.98937735626E+03 0.  0.
        -13    1    3    3    0    0 -0.29966147040E+03  0.11260733663E+03  0.22575175177E+03  0.39171580731E+03  0.10566000000E+00 0.  1.
          4    1    3    3  502    0  0.71321685505E+03  0.18856501496E+03 -0.54148590660E+02  0.73970745371E+03  0.00000000000E+00 0.  1.
         13    1    4    4    0    0  0.45473518879E+02 -0.17161554971E+03 -0.12150606585E+03  0.21513594080E+03  0.10566000000E+00 0. -1.
         -4    1    4    4    0  501 -0.45902890353E+03 -0.12955680188E+03  0.14076744557E+04  0.14862839138E+04  0.00000000000E+00 0. -1.
<mgrwt>
<rscale>  2 0.11160759E+04</rscale>
<asrwt>0</asrwt>
<pdfrwt beam="2">  1        4 0.10577474E+00 0.11160759E+04</pdfrwt>
<pdfrwt beam="1">  1       -4 0.33004728E+00 0.11160759E+04</pdfrwt>
<totfact> 0.22216244E-01</totfact>
</mgrwt>
</event>
<event>
 8    1  0.1439553E-005  0.1300062E+04  0.7818608E-02  0.8534796E-01
         -2   -1    0    0    0  501 -0.00000000000E+00  0.00000000000E+00  0.55314536399E+03  0.55314536399E+03  0.00000000000E+00 0. -1.
          2   -1    0    0  502    0  0.00000000000E+00 -0.00000000000E+00 -0.30593662194E+04  0.30593662194E+04  0.00000000000E+00 0.  1.
    9000010    2    1    2  502    0  0.58932959597E+03 -0.58800457121E+03 -0.13151677613E+04  0.18480331448E+04  0.99624370276E+03 0.  0.
   -9000010    2    1    2    0  501 -0.58932959597E+03  0.58800457121E+03 -0.11910530941E+04  0.17644784386E+04  0.10008586009E+04 0.  0.
        -13    1    3    3    0    0  0.77671246464E+03 -0.24847344985E+03 -0.53076798085E+03  0.97300358101E+03  0.10566000000E+00 0.  1.
          4    1    3    3  502    0 -0.18738286866E+03 -0.33953112136E+03 -0.78439978046E+03  0.87502956375E+03  0.00000000000E+00 0.  1.
         13    1    4    4    0    0 -0.20875985501E+03  0.70721806864E+03 -0.31485973855E+03  0.80179469928E+03  0.10566000000E+00 0. -1.
         -4    1    4    4    0  501 -0.38056974097E+03 -0.11921349743E+03 -0.87619335556E+03  0.96268373936E+03  0.00000000000E+00 0. -1.
<mgrwt>
<rscale>  2 0.13000624E+04</rscale>
<asrwt>0</asrwt>
<pdfrwt beam="2">  1        2 0.47067173E+00 0.13000624E+04</pdfrwt>
<pdfrwt beam="1">  1       -2 0.85099286E-01 0.13000624E+04</pdfrwt>
<totfact> 0.29805794E+00</totfact>
</mgrwt>
</event>
<event>
 8    1  0.1439553E-005  0.1130264E+04  0.7818608E-02  0.8661011E-01
         -2   -1    0    0    0  501 -0.00000000000E+00  0.00000000000E+00  0.82928643217E+03  0.82928643217E+03  0.00000000000E+00 0. -1.
          2   -1    0    0  502    0  0.00000000000E+00 -0.00000000000E+00 -0.15574217351E+04  0.15574217351E+04  0.00000000000E+00 0.  1.
    9000010    2    1    2  502    0 -0.46491137596E+03  0.29093094729E+03 -0.49192779726E+03  0.12446661000E+04  0.10032035383E+04 0.  0.
   -9000010    2    1    2    0  501  0.46491137596E+03 -0.29093094729E+03 -0.23620750568E+03  0.11420420673E+04  0.97348995580E+03 0.  0.
        -13    1    3    3    0    0  0.30628511564E+03  0.57239258967E+02 -0.23244041904E+02  0.31245351891E+03  0.10566000000E+00 0.  1.
          4    1    3    3  502    0 -0.77119649160E+03  0.23369168832E+03 -0.46868375536E+03  0.93221258111E+03  0.00000000000E+00 0.  1.
         13    1    4    4    0    0  0.10340443460E+02 -0.56393866234E+03 -0.23696370406E+03  0.61178880985E+03  0.10566000000E+00 0. -1.
         -4    1    4    4    0  501  0.45457093250E+03  0.27300771505E+03  0.75619838103E+00  0.53025325740E+03  0.00000000000E+00 0. -1.
<mgrwt>
<rscale>  2 0.11302636E+04</rscale>
<asrwt>0</asrwt>
<pdfrwt beam="2">  1        2 0.23960334E+00 0.11302636E+04</pdfrwt>
<pdfrwt beam="1">  1       -2 0.12758253E+00 0.11302636E+04</pdfrwt>
<totfact> 0.78691383E+00</totfact>
</mgrwt>
</event>
<event>
 8    1  0.1439553E-005  0.1278721E+04  0.7818608E-02  0.8549530E-01
         -4   -1    0    0    0  501 -0.00000000000E+00  0.00000000000E+00  0.72282254858E+03  0.72282254858E+03  0.00000000000E+00 0. -1.
          4   -1    0    0  502    0  0.00000000000E+00 -0.00000000000E+00 -0.22867886831E+04  0.22867886831E+04  0.00000000000E+00 0.  1.
    9000010    2    1    2  502    0  0.74746436113E+03  0.32865094994E+03 -0.94196789518E+03  0.15934906125E+04  0.99256959383E+03 0.  0.
   -9000010    2    1    2    0  501 -0.74746436113E+03 -0.32865094994E+03 -0.62199823929E+03  0.14161206191E+04  0.97560308535E+03 0.  0.
        -13    1    3    3    0    0 -0.61026505339E+02  0.33828557877E+03 -0.64731894745E+03  0.73292782595E+03  0.10566000000E+00 0.  1.
          4    1    3    3  502    0  0.80849086647E+03 -0.96346288318E+01 -0.29464894773E+03  0.86056278658E+03  0.00000000000E+00 0.  1.
         13    1    4    4    0    0 -0.51488909465E+03 -0.60652213812E+03 -0.68313172427E+03  0.10486414295E+04  0.10566000000E+00 0. -1.
         -4    1    4    4    0  501 -0.23257526648E+03  0.27787118819E+03  0.61133484984E+02  0.36747918960E+03  0.00000000000E+00 0. -1.
<mgrwt>
<rscale>  2 0.12787209E+04</rscale>
<asrwt>0</asrwt>
<pdfrwt beam="2">  1        4 0.35181364E+00 0.12787209E+04</pdfrwt>
<pdfrwt beam="1">  1       -4 0.11120347E+00 0.12787209E+04</pdfrwt>
<totfact> 0.17207265E-01</totfact>
</mgrwt>
</event>
<event>
 8    1  0.1439553E-005  0.1073076E+04  0.7818608E-02  0.8708806E-01
         -2   -1    0    0    0  501 -0.00000000000E+00  0.00000000000E+00  0.39170444825E+03  0.39170444825E+03  0.00000000000E+00 0. -1.
          2   -1    0    0  502    0  0.00000000000E+00 -0.00000000000E+00 -0.35411904600E+04  0.35411904600E+04  0.00000000000E+00 0.  1.
    9000010    2    1    2  502    0 -0.93374788617E+02 -0.39083598187E+03 -0.23888322958E+04  0.26200155860E+04  0.99824361645E+03 0.  0.
   -9000010    2    1    2    0  501  0.93374788617E+02  0.39083598187E+03 -0.76065371597E+03  0.13128793222E+04  0.99175925668E+03 0.  0.
        -13    1    3    3    0    0  0.44635261666E+03 -0.17831135581E+03 -0.13053464130E+04  0.13910265515E+04  0.10566000000E+00 0.  1.
          4    1    3    3  502    0 -0.53972740528E+03 -0.21252462606E+03 -0.10834858828E+04  0.12289890345E+04  0.00000000000E+00 0.  1.
         13    1    4    4    0    0  0.26120812745E+03  0.49256324989E+03 -0.32216737770E+02  0.55846769857E+03  0.10566000000E+00 0. -1.
         -4    1    4    4    0  501 -0.16783333883E+03 -0.10172726802E+03 -0.72843697820E+03  0.75441162365E+03  0.00000000000E+00 0. -1.
<mgrwt>
<rscale>  2 0.10730759E+04</rscale>
<asrwt>0</asrwt>
<pdfrwt beam="2">  1        2 0.54479854E+00 0.10730759E+04</pdfrwt>
<pdfrwt beam="1">  1       -2 0.60262222E-01 0.10730759E+04</pdfrwt>
<totfact> 0.30119001E+00</totfact>
</mgrwt>
</event>
<event>
 8    1  0.1439553E-005  0.1264616E+04  0.7818608E-02  0.8559431E-01
          4   -1    0    0  502    0  0.00000000000E+00  0.00000000000E+00  0.27633321236E+04  0.27633321236E+04  0.00000000000E+00 0.  1.
         -4   -1    0    0    0  501 -0.00000000000E+00 -0.00000000000E+00 -0.58117685027E+03  0.58117685027E+03  0.00000000000E+00 0. -1.
    9000010    2    1    2  502    0  0.45248616297E+03 -0.51594325061E+03  0.96372166126E+03  0.15470840563E+04  0.99687936657E+03 0.  0.
   -9000010    2    1    2    0  501 -0.45248616297E+03  0.51594325061E+03  0.12184336121E+04  0.17974249175E+04  0.11292540465E+04 0.  0.
        -13    1    3    3    0    0 -0.23107380110E+02 -0.68612543416E+03  0.41935562265E+03  0.80446330670E+03  0.10566000000E+00 0.  1.
          4    1    3    3  502    0  0.47559354308E+03  0.17018218355E+03  0.54436603860E+03  0.74262074964E+03  0.00000000000E+00 0.  1.
         13    1    4    4    0    0  0.63799248250E+02  0.42006593472E+03 -0.46893308146E+02  0.42746312953E+03  0.10566000000E+00 0. -1.
         -4    1    4    4    0  501 -0.51628541122E+03  0.95877315887E+02  0.12653269202E+04  0.13699617880E+04  0.00000000000E+00 0. -1.
<mgrwt>
<rscale>  2 0.12646159E+04</rscale>
<asrwt>0</asrwt>
<pdfrwt beam="1">  1        4 0.42512801E+00 0.12646159E+04</pdfrwt>
<pdfrwt beam="2">  1       -4 0.89411825E-01 0.12646159E+04</pdfrwt>
<totfact> 0.13566837E-01</totfact>
</mgrwt>
</event>
<event>
 8    1  0.1439553E-005  0.1371687E+04  0.7818608E-02  0.8487401E-01
         -2   -1    0    0    0  501 -0.00000000000E+00  0.00000000000E+00  0.11586231440E+04  0.11586231440E+04  0.00000000000E+00 0. -1.
          2   -1    0    0  502    0  0.00000000000E+00 -0.00000000000E+00 -0.16280585957E+04  0.16280585957E+04  0.00000000000E+00 0.  1.
    9000010    2    1    2  502    0 -0.18717609947E+03 -0.92161551273E+03 -0.30555238342E+03  0.14102988080E+04  0.10055697009E+04 0.  0.
   -9000010    2    1    2    0  501  0.18717609947E+03  0.92161551273E+03 -0.16388306829E+03  0.13763829316E+04  0.99154539425E+03 0.  0.
        -13    1    3    3    0    0  0.31831425280E+03 -0.75092762104E+03 -0.32110575393E+03  0.87654159739E+03  0.10566000000E+00 0.  1.
          4    1    3    3  502    0 -0.50549035226E+03 -0.17068789168E+03  0.15553370510E+02  0.53375721066E+03  0.00000000000E+00 0.  1.
         13    1    4    4    0    0  0.19166760792E+03  0.22783056156E+03 -0.51797713877E+03  0.59744754093E+03  0.10566000000E+00 0. -1.
         -4    1    4    4    0  501 -0.44915084504E+01  0.69378495117E+03  0.35409407048E+03  0.77893539069E+03  0.00000000000E+00 0. -1.
<mgrwt>
<rscale>  2 0.13716867E+04</rscale>
<asrwt>0</asrwt>
<pdfrwt beam="2">  1        2 0.25047055E+00 0.13716867E+04</pdfrwt>
<pdfrwt beam="1">  1       -2 0.17824971E+00 0.13716867E+04</pdfrwt>
<totfact> 0.25202291E+00</totfact>
</mgrwt>
</event>
<event>
 8    1  0.1439553E-005  0.1420469E+04  0.7818608E-02  0.8456792E-01
         -2   -1    0    0    0  501 -0.00000000000E+00  0.00000000000E+00  0.80965806478E+03  0.80965806478E+03  0.00000000000E+00 0.  1.
          2   -1    0    0  502    0  0.00000000000E+00 -0.00000000000E+00 -0.25934559749E+04  0.25934559749E+04  0.00000000000E+00 0. -1.
    9000010    2    1    2  502    0 -0.93330364819E+03  0.39553120371E+03 -0.12304407451E+04  0.18819928589E+04  0.10002060092E+04 0.  0.
   -9000010    2    1    2    0  501  0.93330364819E+03 -0.39553120371E+03 -0.55335716499E+03  0.15211211808E+04  0.99000245541E+03 0.  0.
        -13    1    3    3    0    0 -0.11060865657E+04  0.38638863153E+03 -0.12434543098E+04  0.17084795278E+04  0.10566000000E+00 0.  1.
          4    1    3    3  502    0  0.17278291748E+03  0.91425721852E+01  0.13013564667E+02  0.17351333108E+03  0.00000000000E+00 0.  1.
         13    1    4    4    0    0  0.43708100034E+03 -0.57889425531E+03  0.39638126664E+02  0.72644996520E+03  0.10566000000E+00 0. -1.
         -4    1    4    4    0  501  0.49622264785E+03  0.18336305160E+03 -0.59299529166E+03  0.79467121557E+03  0.00000000000E+00 0. -1.
<mgrwt>
<rscale>  2 0.14204695E+04</rscale>
<asrwt>0</asrwt>
<pdfrwt beam="2">  1        2 0.39899323E+00 0.14204695E+04</pdfrwt>
<pdfrwt beam="1">  1       -2 0.12456278E+00 0.14204695E+04</pdfrwt>
<totfact> 0.21947773E+00</totfact>
</mgrwt>
</event>
<event>
 8    1  0.1439553E-005  0.1626561E+04  0.7818608E-02  0.8340169E-01
         -2   -1    0    0    0  501 -0.00000000000E+00  0.00000000000E+00  0.43276780964E+04  0.43276780964E+04  0.00000000000E+00 0. -1.
          2   -1    0    0  502    0  0.00000000000E+00 -0.00000000000E+00 -0.62316662541E+03  0.62316662541E+03  0.00000000000E+00 0.  1.
    9000010    2    1    2  502    0 -0.10386981470E+04  0.76338054994E+03  0.21915061636E+04  0.27282684419E+04  0.98949771178E+03 0.  0.
   -9000010    2    1    2    0  501  0.10386981470E+04 -0.76338054994E+03  0.15130053075E+04  0.22225762799E+04  0.99449311467E+03 0.  0.
        -13    1    3    3    0    0 -0.14197720937E+02  0.27648756468E+03  0.19049409085E+02  0.27750646813E+03  0.10566000000E+00 0.  1.
          4    1    3    3  502    0 -0.10245004261E+04  0.48689298526E+03  0.21724567545E+04  0.24507619738E+04  0.00000000000E+00 0.  1.
         13    1    4    4    0    0  0.15332112046E+03 -0.67622187410E+03  0.92552491629E+03  0.11564513699E+04  0.10566000000E+00 0. -1.
         -4    1    4    4    0  501  0.88537702654E+03 -0.87158675842E+02  0.58748039118E+03  0.10661249101E+04  0.00000000000E+00 0. -1.
<mgrwt>
<rscale>  2 0.16265609E+04</rscale>
<asrwt>0</asrwt>
<pdfrwt beam="2">  1        2 0.95871791E-01 0.16265609E+04</pdfrwt>
<pdfrwt beam="1">  1       -2 0.66579661E+00 0.16265609E+04</pdfrwt>
<totfact> 0.16680469E-01</totfact>
</mgrwt>
</event>
<event>
 8    1  0.1439553E-005  0.1455932E+04  0.7818608E-02  0.8435321E-01
         -2   -1    0    0    0  501 -0.00000000000E+00  0.00000000000E+00  0.65975086719E+03  0.65975086719E+03  0.00000000000E+00 0.  1.
          2   -1    0    0  502    0  0.00000000000E+00 -0.00000000000E+00 -0.34383651991E+04  0.34383651991E+04  0.00000000000E+00 0. -1.
    9000010    2    1    2  502    0  0.10441226704E+04 -0.14774724271E+03 -0.19259312278E+04  0.24227172093E+04  0.10238780119E+04 0.  0.
   -9000010    2    1    2    0  501 -0.10441226704E+04  0.14774724271E+03 -0.85268310404E+03  0.16753988570E+04  0.98380458195E+03 0.  0.
        -13    1    3    3    0    0  0.12120006801E+04 -0.29294096139E+03 -0.16653505967E+04  0.20804212738E+04  0.10566000000E+00 0.  1.
          4    1    3    3  502    0 -0.16787800973E+03  0.14519371868E+03 -0.26058063112E+03  0.34229593543E+03  0.00000000000E+00 0.  1.
         13    1    4    4    0    0 -0.69392132591E+03 -0.27803196681E+03 -0.83929118877E+03  0.11239387402E+04  0.10566000000E+00 0. -1.
         -4    1    4    4    0  501 -0.35020134449E+03  0.42577920952E+03 -0.13391915272E+02  0.55146011673E+03  0.00000000000E+00 0. -1.
<mgrwt>
<rscale>  2 0.14559322E+04</rscale>
<asrwt>0</asrwt>
<pdfrwt beam="2">  1        2 0.52897925E+00 0.14559322E+04</pdfrwt>
<pdfrwt beam="1">  1       -2 0.10150014E+00 0.14559322E+04</pdfrwt>
<totfact> 0.10836726E+00</totfact>
</mgrwt>
</event>
<event>
 8    1  0.1439553E-005  0.1106723E+04  0.7818608E-02  0.8680320E-01
         -2   -1    0    0    0  501 -0.00000000000E+00  0.00000000000E+00  0.91899184398E+03  0.91899184398E+03  0.00000000000E+00 0. -1.
          2   -1    0    0  502    0  0.00000000000E+00 -0.00000000000E+00 -0.13654384025E+04  0.13654384025E+04  0.00000000000E+00 0.  1.
    9000010    2    1    2  502    0  0.96019830307E+02 -0.46646267233E+03 -0.45331148578E+02  0.11001928602E+04  0.99073820157E+03 0.  0.
   -9000010    2    1    2    0  501 -0.96019830307E+02  0.46646267233E+03 -0.40111540990E+03  0.11842373863E+04  0.10073318135E+04 0.  0.
        -13    1    3    3    0    0 -0.12278329498E+03  0.13864806885E+03 -0.34408881116E+03  0.39076354186E+03  0.10566000000E+00 0.  1.
          4    1    3    3  502    0  0.21880312529E+03 -0.60511074118E+03  0.29875766258E+03  0.70942931831E+03  0.00000000000E+00 0.  1.
         13    1    4    4    0    0 -0.16078991806E+03  0.21964925237E+03  0.31952368020E+03  0.41975538732E+03  0.10566000000E+00 0. -1.
         -4    1    4    4    0  501  0.64770087750E+02  0.24681341996E+03 -0.72063909010E+03  0.76448199895E+03  0.00000000000E+00 0. -1.
<mgrwt>
<rscale>  2 0.11067226E+04</rscale>
<asrwt>0</asrwt>
<pdfrwt beam="2">  1        2 0.21006745E+00 0.11067226E+04</pdfrwt>
<pdfrwt beam="1">  1       -2 0.14138336E+00 0.11067226E+04</pdfrwt>
<totfact> 0.75167423E+00</totfact>
</mgrwt>
</event>
<event>
 8    1  0.1439553E-005  0.1530735E+04  0.7818608E-02  0.8392027E-01
          1   -1    0    0  502    0  0.00000000000E+00  0.00000000000E+00  0.89445358387E+03  0.89445358387E+03  0.00000000000E+00 0. -1.
         -1   -1    0    0    0  501 -0.00000000000E+00 -0.00000000000E+00 -0.26992967290E+04  0.26992967290E+04  0.00000000000E+00 0.  1.
    9000010    2    1    2  502    0  0.85469091996E+03 -0.77791347600E+03 -0.12071714361E+04  0.19442416263E+04  0.99356262034E+03 0.  0.
   -9000010    2    1    2    0  501 -0.85469091996E+03  0.77791347600E+03 -0.59767170899E+03  0.16495086865E+04  0.10139139463E+04 0.  0.
        -13    1    3    3    0    0  0.12018256488E+03  0.23136755800E+03 -0.32032833613E+03  0.41301943040E+03  0.10566000000E+00 0.  1.
          4    1    3    3  502    0  0.73450835507E+03 -0.10092810340E+04 -0.88684309997E+03  0.15312221959E+04  0.00000000000E+00 0.  1.
         13    1    4    4    0    0 -0.10491691116E+04  0.76013527119E+03 -0.64689138316E+03  0.14481125398E+04  0.10566000000E+00 0. -1.
         -4    1    4    4    0  501  0.19447819163E+03  0.17778204803E+02  0.49219674170E+02  0.20139614671E+03  0.00000000000E+00 0. -1.
<mgrwt>
<rscale>  2 0.15307354E+04</rscale>
<asrwt>0</asrwt>
<pdfrwt beam="1">  1        1 0.13760824E+00 0.15307354E+04</pdfrwt>
<pdfrwt beam="2">  1       -1 0.41527642E+00 0.15307354E+04</pdfrwt>
<totfact> 0.27829239E-01</totfact>
</mgrwt>
</event>
<event>
 8    1  0.1439553E-005  0.1140861E+04  0.7818608E-02  0.8652478E-01
          1   -1    0    0  502    0  0.00000000000E+00  0.00000000000E+00  0.12207805387E+04  0.12207805387E+04  0.00000000000E+00 0. -1.
         -1   -1    0    0    0  501 -0.00000000000E+00 -0.00000000000E+00 -0.11744568835E+04  0.11744568835E+04  0.00000000000E+00 0.  1.
    9000010    2    1    2  502    0 -0.14304490110E+03  0.45912301025E+03 -0.34032161804E+03  0.11731583225E+04  0.10145076953E+04 0.  0.
   -9000010    2    1    2    0  501  0.14304490110E+03 -0.45912301025E+03  0.38664527328E+03  0.12220790996E+04  0.10548587470E+04 0.  0.
        -13    1    3    3    0    0 -0.32594157344E+03 -0.20415183651E+03 -0.29302029688E+03  0.48350469201E+03  0.10566000000E+00 0.  1.
          4    1    3    3  502    0  0.18289667234E+03  0.66327484677E+03 -0.47301321159E+02  0.68965363052E+03  0.00000000000E+00 0.  1.
         13    1    4    4    0    0 -0.38452581339E+03  0.85041500557E+02  0.19915882556E+03  0.44131214230E+03  0.10566000000E+00 0. -1.
         -4    1    4    4    0  501  0.52757071448E+03 -0.54416451081E+03  0.18748644772E+03  0.78076695734E+03  0.00000000000E+00 0. -1.
<mgrwt>
<rscale>  2 0.11408605E+04</rscale>
<asrwt>0</asrwt>
<pdfrwt beam="1">  1        1 0.18781239E+00 0.11408605E+04</pdfrwt>
<pdfrwt beam="2">  1       -1 0.18068568E+00 0.11408605E+04</pdfrwt>
<totfact> 0.28445407E+00</totfact>
</mgrwt>
</event>
<event>
 8    1  0.1439553E-005  0.1133814E+04  0.7818608E-02  0.8658141E-01
         -2   -1    0    0    0  501 -0.00000000000E+00  0.00000000000E+00  0.10074283589E+04  0.10074283589E+04  0.00000000000E+00 0. -1.
          2   -1    0    0  502    0  0.00000000000E+00 -0.00000000000E+00 -0.12910400084E+04  0.12910400084E+04  0.00000000000E+00 0.  1.
    9000010    2    1    2  502    0 -0.27391929976E+03  0.44119747684E+03 -0.21128102489E+02  0.11504648249E+04  0.10263702647E+04 0.  0.
   -9000010    2    1    2    0  501  0.27391929976E+03 -0.44119747684E+03 -0.26248354706E+03  0.11480035425E+04  0.98960978403E+03 0.  0.
        -13    1    3    3    0    0 -0.44118041257E+03  0.17251153198E+03 -0.42564564483E+03  0.63684740027E+03  0.10566000000E+00 0.  1.
          4    1    3    3  502    0  0.16726111281E+03  0.26868594486E+03  0.40451754234E+03  0.51361742463E+03  0.00000000000E+00 0.  1.
         13    1    4    4    0    0  0.62786757763E+03 -0.42631800957E+03 -0.22605421934E+03  0.79187452388E+03  0.10566000000E+00 0. -1.
         -4    1    4    4    0  501 -0.35394827787E+03 -0.14879467266E+02 -0.36429327720E+02  0.35612901857E+03  0.00000000000E+00 0. -1.
<mgrwt>
<rscale>  2 0.11338143E+04</rscale>
<asrwt>0</asrwt>
<pdfrwt beam="2">  1        2 0.19862154E+00 0.11338143E+04</pdfrwt>
<pdfrwt beam="1">  1       -2 0.15498898E+00 0.11338143E+04</pdfrwt>
<totfact> 0.62469868E+00</totfact>
</mgrwt>
</event>
<event>
 8    1  0.1439553E-005  0.1204780E+04  0.7818608E-02  0.8602972E-01
          1   -1    0    0  502    0  0.00000000000E+00  0.00000000000E+00  0.14646580209E+04  0.14646580209E+04  0.00000000000E+00 0. -1.
         -1   -1    0    0    0  501 -0.00000000000E+00 -0.00000000000E+00 -0.99101999930E+03  0.99101999930E+03  0.00000000000E+00 0.  1.
    9000010    2    1    2  502    0  0.28505991995E+03 -0.64942132873E+03  0.23851032652E+03  0.12313451657E+04  0.97791437312E+03 0.  0.
   -9000010    2    1    2    0  501 -0.28505991995E+03  0.64942132873E+03  0.23512769510E+03  0.12243328545E+04  0.96989622403E+03 0.  0.
        -13    1    3    3    0    0 -0.30074015212E+03 -0.48260741989E+03 -0.21573952351E+02  0.56905184950E+03  0.10566000000E+00 0.  1.
          4    1    3    3  502    0  0.58580007207E+03 -0.16681390884E+03  0.26008427887E+03  0.66229331624E+03  0.00000000000E+00 0.  1.
         13    1    4    4    0    0 -0.52064071044E+03  0.74539228480E+03  0.51640278484E+02  0.91068278623E+03  0.10566000000E+00 0. -1.
         -4    1    4    4    0  501  0.23558079049E+03 -0.95970956065E+02  0.18348741662E+03  0.31365006825E+03  0.00000000000E+00 0. -1.
<mgrwt>
<rscale>  2 0.12047796E+04</rscale>
<asrwt>0</asrwt>
<pdfrwt beam="1">  1        1 0.22533200E+00 0.12047796E+04</pdfrwt>
<pdfrwt beam="2">  1       -1 0.15246462E+00 0.12047796E+04</pdfrwt>
<totfact> 0.32497275E+00</totfact>
</mgrwt>
</event>
<event>
 8    1  0.1439553E-005  0.1911830E+04  0.7818608E-02  0.8205266E-01
          1   -1    0    0  502    0  0.00000000000E+00  0.00000000000E+00  0.20179423945E+04  0.20179423945E+04  0.00000000000E+00 0. -1.
         -1   -1    0    0    0  501 -0.00000000000E+00 -0.00000000000E+00 -0.18868373570E+04  0.18868373570E+04  0.00000000000E+00 0.  1.
    9000010    2    1    2  502    0 -0.15039121929E+04  0.62837328371E+03 -0.32496727349E+03  0.19426931715E+04  0.10059066370E+04 0.  0.
   -9000010    2    1    2    0  501  0.15039121929E+04 -0.62837328371E+03  0.45607231107E+03  0.19620865800E+04  0.99256079243E+03 0.  0.
        -13    1    3    3    0    0 -0.13308427891E+04  0.64138064427E+03  0.10295361114E+03  0.14809156348E+04  0.10566000000E+00 0.  1.
          4    1    3    3  502    0 -0.17306940383E+03 -0.13007360564E+02 -0.42792088463E+03  0.46177753678E+03  0.00000000000E+00 0.  1.
         13    1    4    4    0    0  0.15896574730E+03  0.42966413604E+02 -0.25156108111E+03  0.30066461415E+03  0.10566000000E+00 0. -1.
         -4    1    4    4    0  501  0.13449464456E+04 -0.67133969731E+03  0.70763339217E+03  0.16614219658E+04  0.00000000000E+00 0. -1.
<mgrwt>
<rscale>  2 0.19118298E+04</rscale>
<asrwt>0</asrwt>
<pdfrwt beam="1">  1        1 0.31045268E+00 0.19118298E+04</pdfrwt>
<pdfrwt beam="2">  1       -1 0.29028267E+00 0.19118298E+04</pdfrwt>
<totfact> 0.61651679E-02</totfact>
</mgrwt>
</event>
<event>
 8    1  0.1439553E-005  0.1334049E+04  0.7818608E-02  0.8511925E-01
         -2   -1    0    0    0  501 -0.00000000000E+00  0.00000000000E+00  0.98467204639E+03  0.98467204639E+03  0.00000000000E+00 0. -1.
          2   -1    0    0  502    0  0.00000000000E+00 -0.00000000000E+00 -0.18460986999E+04  0.18460986999E+04  0.00000000000E+00 0.  1.
    9000010    2    1    2  502    0 -0.30819587348E+03 -0.81155920959E+03 -0.22655501530E+03  0.13555695716E+04  0.10161833699E+04 0.  0.
   -9000010    2    1    2    0  501  0.30819587348E+03  0.81155920959E+03 -0.63487163816E+03  0.14752011747E+04  0.10097244484E+04 0.  0.
        -13    1    3    3    0    0 -0.25608481162E+03 -0.28664027786E+03  0.38767102030E+03  0.54592207390E+03  0.10566000000E+00 0.  1.
          4    1    3    3  502    0 -0.52111061864E+02 -0.52491893173E+03 -0.61422603560E+03  0.80964749766E+03  0.00000000000E+00 0.  1.
         13    1    4    4    0    0  0.68043960368E+03  0.48814327733E+03 -0.42784157229E+03  0.94038839614E+03  0.10566000000E+00 0. -1.
         -4    1    4    4    0  501 -0.37224373020E+03  0.32341593226E+03 -0.20703006587E+03  0.53481277853E+03  0.00000000000E+00 0. -1.
<mgrwt>
<rscale>  2 0.13340491E+04</rscale>
<asrwt>0</asrwt>
<pdfrwt beam="2">  1        2 0.28401518E+00 0.13340491E+04</pdfrwt>
<pdfrwt beam="1">  1       -2 0.15148801E+00 0.13340491E+04</pdfrwt>
<totfact> 0.32598629E+00</totfact>
</mgrwt>
</event>
<event>
 8    1  0.1439553E-005  0.1271647E+04  0.7818608E-02  0.8554479E-01
          2   -1    0    0  502    0  0.00000000000E+00  0.00000000000E+00  0.18165782951E+04  0.18165782951E+04  0.00000000000E+00 0.  1.
         -2   -1    0    0    0  501 -0.00000000000E+00 -0.00000000000E+00 -0.94958619718E+03  0.94958619718E+03  0.00000000000E+00 0. -1.
    9000010    2    1    2  502    0  0.42602449328E+03  0.69604444922E+03  0.93238667659E+02  0.12914476422E+04  0.99657855649E+03 0.  0.
   -9000010    2    1    2    0  501 -0.42602449328E+03 -0.69604444922E+03  0.77375343029E+03  0.14747168501E+04  0.95400244912E+03 0.  0.
        -13    1    3    3    0    0  0.65236618480E+03  0.79963417658E+03  0.12882490309E+03  0.10399963088E+04  0.10566000000E+00 0.  1.
          4    1    3    3  502    0 -0.22634169153E+03 -0.10358972736E+03 -0.35586235426E+02  0.25145133344E+03  0.00000000000E+00 0.  1.
         13    1    4    4    0    0  0.18185661557E+03 -0.18023937775E+03  0.60900911099E+03  0.66064375449E+03  0.10566000000E+00 0. -1.
         -4    1    4    4    0  501 -0.60788110885E+03 -0.51580507147E+03  0.16474431930E+03  0.81407309561E+03  0.00000000000E+00 0. -1.
<mgrwt>
<rscale>  2 0.12716471E+04</rscale>
<asrwt>0</asrwt>
<pdfrwt beam="1">  1        2 0.27947358E+00 0.12716471E+04</pdfrwt>
<pdfrwt beam="2">  1       -2 0.14609018E+00 0.12716471E+04</pdfrwt>
<totfact> 0.38013040E+00</totfact>
</mgrwt>
</event>
<event>
 8    1  0.1439553E-005  0.1142765E+04  0.7818608E-02  0.8650954E-01
          2   -1    0    0  502    0  0.00000000000E+00  0.00000000000E+00  0.13858317916E+04  0.13858317916E+04  0.00000000000E+00 0. -1.
         -2   -1    0    0    0  501 -0.00000000000E+00 -0.00000000000E+00 -0.94278554482E+03  0.94278554482E+03  0.00000000000E+00 0.  1.
    9000010    2    1    2  502    0  0.21121868179E+02  0.54910074527E+03  0.24731386888E+03  0.11770323769E+04  0.10110802663E+04 0.  0.
   -9000010    2    1    2    0  501 -0.21121868179E+02 -0.54910074527E+03  0.19573237786E+03  0.11515849594E+04  0.99291439373E+03 0.  0.
        -13    1    3    3    0    0  0.23385496365E+03  0.75916891515E+03  0.85453612087E+01  0.79441715749E+03  0.10566000000E+00 0.  1.
          4    1    3    3  502    0 -0.21273309547E+03 -0.21006816988E+03  0.23876850767E+03  0.38261521946E+03  0.00000000000E+00 0.  1.
         13    1    4    4    0    0 -0.23480307649E+03 -0.65852327891E+03  0.42619777435E+03  0.81879786738E+03  0.10566000000E+00 0. -1.
         -4    1    4    4    0  501  0.21368120831E+03  0.10942253364E+03 -0.23046539649E+03  0.33278709205E+03  0.00000000000E+00 0. -1.
<mgrwt>
<rscale>  2 0.11427651E+04</rscale>
<asrwt>0</asrwt>
<pdfrwt beam="1">  1        2 0.21320489E+00 0.11427651E+04</pdfrwt>
<pdfrwt beam="2">  1       -2 0.14504393E+00 0.11427651E+04</pdfrwt>
<totfact> 0.67684036E+00</totfact>
</mgrwt>
</event>
<event>
 8    1  0.1439553E-005  0.1076651E+04  0.7818608E-02  0.8705727E-01
          2   -1    0    0  502    0  0.00000000000E+00  0.00000000000E+00  0.11037928593E+04  0.11037928593E+04  0.00000000000E+00 0. -1.
         -2   -1    0    0    0  501 -0.00000000000E+00 -0.00000000000E+00 -0.12682952482E+04  0.12682952482E+04  0.00000000000E+00 0.  1.
    9000010    2    1    2  502    0 -0.14583723845E+03 -0.36514935267E+03  0.40940413495E+03  0.11546494050E+04  0.10054854315E+04 0.  0.
   -9000010    2    1    2    0  501  0.14583723845E+03  0.36514935267E+03 -0.57390652385E+03  0.12174387024E+04  0.99909246125E+03 0.  0.
        -13    1    3    3    0    0  0.34287669277E+03  0.13391422279E+03  0.57682356193E+02  0.37259188248E+03  0.10566000000E+00 0.  1.
          4    1    3    3  502    0 -0.48871393122E+03 -0.49906357546E+03  0.35172177875E+03  0.78205752254E+03  0.00000000000E+00 0.  1.
         13    1    4    4    0    0  0.15022233836E+03  0.31955689301E+03 -0.85897171308E+03  0.92871727336E+03  0.10566000000E+00 0. -1.
         -4    1    4    4    0  501 -0.43850999066E+01  0.45592459663E+02  0.28506518923E+03  0.28872142905E+03  0.00000000000E+00 0. -1.
<mgrwt>
<rscale>  2 0.10766514E+04</rscale>
<asrwt>0</asrwt>
<pdfrwt beam="1">  1        2 0.16981429E+00 0.10766514E+04</pdfrwt>
<pdfrwt beam="2">  1       -2 0.19512234E+00 0.10766514E+04</pdfrwt>
<totfact> 0.36944428E+00</totfact>
</mgrwt>
</event>
<event>
 8    1  0.1439553E-005  0.1077539E+04  0.7818608E-02  0.8704965E-01
         -1   -1    0    0    0  501 -0.00000000000E+00  0.00000000000E+00  0.10202451805E+04  0.10202451805E+04  0.00000000000E+00 0.  1.
          1   -1    0    0  502    0  0.00000000000E+00 -0.00000000000E+00 -0.12530345115E+04  0.12530345115E+04  0.00000000000E+00 0. -1.
    9000010    2    1    2  502    0 -0.29468935392E+03 -0.28734139118E+03  0.22761796898E+03  0.11042303633E+04  0.99905348458E+03 0.  0.
   -9000010    2    1    2    0  501  0.29468935392E+03  0.28734139118E+03 -0.46040729999E+03  0.11690493287E+04  0.99262004847E+03 0.  0.
        -13    1    3    3    0    0 -0.13172670328E+03 -0.10431011974E+03  0.61958173476E+03  0.64196110680E+03  0.10566000000E+00 0.  1.
          4    1    3    3  502    0 -0.16296265063E+03 -0.18303127144E+03 -0.39196376577E+03  0.46226925650E+03  0.00000000000E+00 0.  1.
         13    1    4    4    0    0  0.45269165230E+03  0.45710601322E+03 -0.61526570158E+03  0.89018398890E+03  0.10566000000E+00 0. -1.
         -4    1    4    4    0  501 -0.15800229839E+03 -0.16976462204E+03  0.15485840159E+03  0.27886533979E+03  0.00000000000E+00 0. -1.
<mgrwt>
<rscale>  2 0.10775391E+04</rscale>
<asrwt>0</asrwt>
<pdfrwt beam="2">  1        1 0.19277454E+00 0.10775391E+04</pdfrwt>
<pdfrwt beam="1">  1       -1 0.15696080E+00 0.10775391E+04</pdfrwt>
<totfact> 0.43550572E+00</totfact>
</mgrwt>
</event>
<event>
 8    1  0.1439553E-005  0.1244373E+04  0.7818608E-02  0.8573877E-01
         -1   -1    0    0    0  501 -0.00000000000E+00  0.00000000000E+00  0.11202138933E+04  0.11202138933E+04  0.00000000000E+00 0. -1.
          1   -1    0    0  502    0  0.00000000000E+00 -0.00000000000E+00 -0.14299849979E+04  0.14299849979E+04  0.00000000000E+00 0.  1.
    9000010    2    1    2  502    0 -0.57665430617E+03  0.47166676894E+03 -0.38840840642E+03  0.13095171232E+04  0.10044771157E+04 0.  0.
   -9000010    2    1    2    0  501  0.57665430617E+03 -0.47166676894E+03  0.78637301854E+02  0.12406817680E+04  0.98899327323E+03 0.  0.
        -13    1    3    3    0    0 -0.59107890281E+03 -0.13279711555E+03 -0.35893833141E+03  0.70416339025E+03  0.10566000000E+00 0.  1.
          4    1    3    3  502    0  0.14424596646E+02  0.60446388449E+03 -0.29470075015E+02  0.60535373292E+03  0.00000000000E+00 0.  1.
         13    1    4    4    0    0 -0.24644906556E+03  0.48405633501E+02 -0.57263694768E+02  0.25760316220E+03  0.10566000000E+00 0. -1.
         -4    1    4    4    0  501  0.82310337173E+03 -0.52007240244E+03  0.13590099662E+03  0.98307860582E+03  0.00000000000E+00 0. -1.
<mgrwt>
<rscale>  2 0.12443729E+04</rscale>
<asrwt>0</asrwt>
<pdfrwt beam="2">  1        1 0.21999769E+00 0.12443729E+04</pdfrwt>
<pdfrwt beam="1">  1       -1 0.17234060E+00 0.12443729E+04</pdfrwt>
<totfact> 0.23071247E+00</totfact>
</mgrwt>
</event>
<event>
 8    1  0.1439553E-005  0.1425877E+04  0.7818608E-02  0.8453477E-01
          2   -1    0    0  502    0  0.00000000000E+00  0.00000000000E+00  0.29569196296E+04  0.29569196296E+04  0.00000000000E+00 0. -1.
         -2   -1    0    0    0  501 -0.00000000000E+00 -0.00000000000E+00 -0.72958313300E+03  0.72958313300E+03  0.00000000000E+00 0.  1.
    9000010    2    1    2  502    0  0.89019474909E+03  0.52438353502E+03  0.15753943604E+04  0.21442898014E+04  0.10240539921E+04 0.  0.
   -9000010    2    1    2    0  501 -0.89019474909E+03 -0.52438353502E+03  0.65194213626E+03  0.15422129612E+04  0.94125845838E+03 0.  0.
        -13    1    3    3    0    0  0.96291853279E+03  0.16536072548E+03  0.71967516055E+03  0.12134614202E+04  0.10566000000E+00 0.  1.
          4    1    3    3  502    0 -0.72723783706E+02  0.35902280955E+03  0.85571919981E+03  0.93082838129E+03  0.00000000000E+00 0.  1.
         13    1    4    4    0    0 -0.72275442868E+03  0.35050737525E+02  0.62743246055E+03  0.95774423626E+03  0.10566000000E+00 0. -1.
         -4    1    4    4    0  501 -0.16744032041E+03 -0.55943427255E+03  0.24509675717E+02  0.58446872492E+03  0.00000000000E+00 0. -1.
<mgrwt>
<rscale>  2 0.14258768E+04</rscale>
<asrwt>0</asrwt>
<pdfrwt beam="1">  1        2 0.45491071E+00 0.14258768E+04</pdfrwt>
<pdfrwt beam="2">  1       -2 0.11224356E+00 0.14258768E+04</pdfrwt>
<totfact> 0.17533658E+00</totfact>
</mgrwt>
</event>
<event>
 8    1  0.1439553E-005  0.1284977E+04  0.7818608E-02  0.8545180E-01
          2   -1    0    0  502    0  0.00000000000E+00  0.00000000000E+00  0.15116885416E+04  0.15116885416E+04  0.00000000000E+00 0. -1.
         -2   -1    0    0    0  501 -0.00000000000E+00 -0.00000000000E+00 -0.11177321270E+04  0.11177321270E+04  0.00000000000E+00 0.  1.
    9000010    2    1    2  502    0 -0.11930821914E+02 -0.78351952998E+03 -0.28493267071E+01  0.12734195415E+04  0.10037649185E+04 0.  0.
   -9000010    2    1    2    0  501  0.11930821914E+02  0.78351952998E+03  0.39680574129E+03  0.13560011272E+04  0.10330726316E+04 0.  0.
        -13    1    3    3    0    0 -0.87159974281E+02  0.14437307538E+03  0.25655241072E+03  0.30701725786E+03  0.10566000000E+00 0.  1.
          4    1    3    3  502    0  0.75229152367E+02 -0.92789260536E+03 -0.25940173743E+03  0.96640228364E+03  0.00000000000E+00 0.  1.
         13    1    4    4    0    0 -0.26727289781E+02  0.89195783824E+03  0.63244021657E+03  0.10937475814E+04  0.10566000000E+00 0. -1.
         -4    1    4    4    0  501  0.38658111695E+02 -0.10843830826E+03 -0.23563447528E+03  0.26225354571E+03  0.00000000000E+00 0. -1.
<mgrwt>
<rscale>  2 0.12849774E+04</rscale>
<asrwt>0</asrwt>
<pdfrwt beam="1">  1        2 0.23256747E+00 0.12849774E+04</pdfrwt>
<pdfrwt beam="2">  1       -2 0.17195879E+00 0.12849774E+04</pdfrwt>
<totfact> 0.33232860E+00</totfact>
</mgrwt>
</event>
<event>
 8    1  0.1439553E-005  0.1233649E+04  0.7818608E-02  0.8581645E-01
          1   -1    0    0  502    0  0.00000000000E+00  0.00000000000E+00  0.27868868129E+04  0.27868868129E+04  0.00000000000E+00 0.  1.
         -1   -1    0    0    0  501 -0.00000000000E+00 -0.00000000000E+00 -0.54989977705E+03  0.54989977705E+03  0.00000000000E+00 0. -1.
    9000010    2    1    2  502    0 -0.59085536151E+03 -0.38632922668E+03  0.12468319879E+04  0.17464187098E+04  0.99851288148E+03 0.  0.
   -9000010    2    1    2    0  501  0.59085536151E+03  0.38632922668E+03  0.99015504793E+03  0.15903678801E+04  0.10249403131E+04 0.  0.
        -13    1    3    3    0    0 -0.17656491728E+03 -0.40452871473E+03  0.12563408706E+04  0.13316197074E+04  0.10566000000E+00 0.  1.
          4    1    3    3  502    0 -0.41429044423E+03  0.18199488054E+02 -0.95088826713E+01  0.41479900240E+03  0.00000000000E+00 0.  1.
         13    1    4    4    0    0  0.22641333141E+02 -0.99148375654E+02  0.81686926803E+03  0.82317582725E+03  0.10566000000E+00 0. -1.
         -4    1    4    4    0  501  0.56821402837E+03  0.48547760233E+03  0.17328577990E+03  0.76719205282E+03  0.00000000000E+00 0. -1.
<mgrwt>
<rscale>  2 0.12336494E+04</rscale>
<asrwt>0</asrwt>
<pdfrwt beam="1">  1        1 0.42875181E+00 0.12336494E+04</pdfrwt>
<pdfrwt beam="2">  1       -1 0.84599967E-01 0.12336494E+04</pdfrwt>
<totfact> 0.11012116E+00</totfact>
</mgrwt>
</event>
<event>
 8    1  0.1439553E-005  0.1366396E+04  0.7818608E-02  0.8490800E-01
         -1   -1    0    0    0  501 -0.00000000000E+00  0.00000000000E+00  0.25153976969E+04  0.25153976969E+04  0.00000000000E+00 0. -1.
          1   -1    0    0  502    0  0.00000000000E+00 -0.00000000000E+00 -0.90464655653E+03  0.90464655653E+03  0.00000000000E+00 0.  1.
    9000010    2    1    2  502    0  0.73443984076E+03 -0.44197083941E+03  0.58292150173E+02  0.13161295536E+04  0.99702503699E+03 0.  0.
   -9000010    2    1    2    0  501 -0.73443984076E+03  0.44197083941E+03  0.15524589902E+04  0.21039146999E+04  0.11320724560E+04 0.  0.
        -13    1    3    3    0    0 -0.16042437921E+03 -0.31647232319E+03 -0.15577114838E+03  0.38749887048E+03  0.10566000000E+00 0.  1.
          4    1    3    3  502    0  0.89486421998E+03 -0.12549851622E+03  0.21406329855E+03  0.92863068308E+03  0.00000000000E+00 0.  1.
         13    1    4    4    0    0 -0.84845984586E+03  0.20848137176E+03  0.47278975188E+03  0.99341771328E+03  0.10566000000E+00 0. -1.
         -4    1    4    4    0  501  0.11402000510E+03  0.23348946764E+03  0.10796692384E+04  0.11104969866E+04  0.00000000000E+00 0. -1.
<mgrwt>
<rscale>  2 0.13663955E+04</rscale>
<asrwt>0</asrwt>
<pdfrwt beam="2">  1        1 0.13917639E+00 0.13663955E+04</pdfrwt>
<pdfrwt beam="1">  1       -1 0.38698426E+00 0.13663955E+04</pdfrwt>
<totfact> 0.26413599E-01</totfact>
</mgrwt>
</event>
<event>
 8    1  0.1439553E-005  0.1221672E+04  0.7818608E-02  0.8590419E-01
          4   -1    0    0  502    0  0.00000000000E+00  0.00000000000E+00  0.81911770375E+03  0.81911770375E+03  0.00000000000E+00 0.  1.
         -4   -1    0    0    0  501 -0.00000000000E+00 -0.00000000000E+00 -0.18256312224E+04  0.18256312224E+04  0.00000000000E+00 0. -1.
    9000010    2    1    2  502    0 -0.68019292939E+03  0.16595804460E+03 -0.44569711212E+03  0.13024063369E+04  0.10036990868E+04 0.  0.
   -9000010    2    1    2    0  501  0.68019292939E+03 -0.16595804460E+03 -0.56081640654E+03  0.13423425893E+04  0.99858103898E+03 0.  0.
        -13    1    3    3    0    0 -0.99436491010E+02  0.12078559951E+03 -0.66260268729E+03  0.68082237710E+03  0.10566000000E+00 0.  1.
          4    1    3    3  502    0 -0.58075643838E+03  0.45172445086E+02  0.21690557517E+03  0.62158395978E+03  0.00000000000E+00 0.  1.
         13    1    4    4    0    0 -0.14161439848E+03 -0.20180701978E+03 -0.44894160948E+03  0.51218091625E+03  0.10566000000E+00 0. -1.
         -4    1    4    4    0  501  0.82180732786E+03  0.35848975177E+02 -0.11187479705E+03  0.83016167303E+03  0.00000000000E+00 0. -1.
<mgrwt>
<rscale>  2 0.12216725E+04</rscale>
<asrwt>0</asrwt>
<pdfrwt beam="1">  1        4 0.12601811E+00 0.12216725E+04</pdfrwt>
<pdfrwt beam="2">  1       -4 0.28086634E+00 0.12216725E+04</pdfrwt>
<totfact> 0.22258069E-01</totfact>
</mgrwt>
</event>
<event>
 8    1  0.1439553E-005  0.1498523E+04  0.7818608E-02  0.8410350E-01
         -2   -1    0    0    0  501 -0.00000000000E+00  0.00000000000E+00  0.24029232938E+04  0.24029232938E+04  0.00000000000E+00 0.  1.
          2   -1    0    0  502    0  0.00000000000E+00 -0.00000000000E+00 -0.11738244580E+04  0.11738244580E+04  0.00000000000E+00 0. -1.
    9000010    2    1    2  502    0 -0.51846581379E+03 -0.10215353633E+04 -0.19849726738E+03  0.14940228016E+04  0.93827590187E+03 0.  0.
   -9000010    2    1    2    0  501  0.51846581379E+03  0.10215353633E+04  0.14275961032E+04  0.20827249503E+04  0.99366558058E+03 0.  0.
        -13    1    3    3    0    0 -0.54887765620E+03 -0.59599136505E+03 -0.51743230358E+03  0.96135767987E+03  0.10566000000E+00 0.  1.
          4    1    3    3  502    0  0.30411842411E+02 -0.42554399821E+03  0.31893503620E+03  0.53266512171E+03  0.00000000000E+00 0.  1.
         13    1    4    4    0    0  0.93698513694E+01  0.97752775922E+03  0.11186058949E+04  0.14855731128E+04  0.10566000000E+00 0. -1.
         -4    1    4    4    0  501  0.50909596242E+03  0.44007604044E+02  0.30899020834E+03  0.59715183749E+03  0.00000000000E+00 0. -1.
<mgrwt>
<rscale>  2 0.14985228E+04</rscale>
<asrwt>0</asrwt>
<pdfrwt beam="2">  1        2 0.18058838E+00 0.14985228E+04</pdfrwt>
<pdfrwt beam="1">  1       -2 0.36968051E+00 0.14985228E+04</pdfrwt>
<totfact> 0.15984030E-01</totfact>
</mgrwt>
</event>
<event>
 8    1  0.1439553E-005  0.1048108E+04  0.7818608E-02  0.8730658E-01
          1   -1    0    0  502    0  0.00000000000E+00  0.00000000000E+00  0.16083610757E+04  0.16083610757E+04  0.00000000000E+00 0.  1.
         -1   -1    0    0    0  501 -0.00000000000E+00 -0.00000000000E+00 -0.68577730691E+03  0.68577730691E+03  0.00000000000E+00 0. -1.
    9000010    2    1    2  502    0 -0.12366853604E+03 -0.28386716338E+03  0.38676440399E+03  0.11132900920E+04  0.99697224210E+03 0.  0.
   -9000010    2    1    2    0  501  0.12366853604E+03  0.28386716338E+03  0.53581936477E+03  0.11808482906E+04  0.10056966841E+04 0.  0.
        -13    1    3    3    0    0  0.69478605741E+02  0.19215114605E+03  0.53987488106E+03  0.57724712034E+03  0.10566000000E+00 0.  1.
          4    1    3    3  502    0 -0.19314714178E+03 -0.47601830943E+03 -0.15311047706E+03  0.53604297167E+03  0.00000000000E+00 0.  1.
         13    1    4    4    0    0 -0.26645671474E+03 -0.26561815029E+03  0.22851547595E+03  0.44019486197E+03  0.10566000000E+00 0. -1.
         -4    1    4    4    0  501  0.39012525078E+03  0.54948531366E+03  0.30730388882E+03  0.74065342861E+03  0.00000000000E+00 0. -1.
<mgrwt>
<rscale>  2 0.10481076E+04</rscale>
<asrwt>0</asrwt>
<pdfrwt beam="1">  1        1 0.24744016E+00 0.10481076E+04</pdfrwt>
<pdfrwt beam="2">  1       -1 0.10550420E+00 0.10481076E+04</pdfrwt>
<totfact> 0.67263798E+00</totfact>
</mgrwt>
</event>
<event>
 8    1  0.1439553E-005  0.1023405E+04  0.7818608E-02  0.8752906E-01
         -2   -1    0    0    0  501 -0.00000000000E+00  0.00000000000E+00  0.59095786466E+03  0.59095786466E+03  0.00000000000E+00 0.  1.
          2   -1    0    0  502    0  0.00000000000E+00 -0.00000000000E+00 -0.17826885471E+04  0.17826885471E+04  0.00000000000E+00 0. -1.
    9000010    2    1    2  502    0 -0.27790345737E+03  0.22202470709E+03 -0.66123730923E+03  0.11930516303E+04  0.92715269034E+03 0.  0.
   -9000010    2    1    2    0  501  0.27790345737E+03 -0.22202470709E+03 -0.53049337322E+03  0.11805947815E+04  0.99290257171E+03 0.  0.
        -13    1    3    3    0    0  0.94481566635E+02  0.39002551171E+03 -0.67388719032E+03  0.78432813456E+03  0.10566000000E+00 0.  1.
          4    1    3    3  502    0 -0.37238502400E+03 -0.16800080462E+03  0.12649881089E+02  0.40872349571E+03  0.00000000000E+00 0.  1.
         13    1    4    4    0    0  0.10583216409E+03 -0.36272354368E+03  0.19260500705E+03  0.42410554818E+03  0.10566000000E+00 0. -1.
         -4    1    4    4    0  501  0.17207129328E+03  0.14069883659E+03 -0.72309838027E+03  0.75648923332E+03  0.00000000000E+00 0. -1.
<mgrwt>
<rscale>  2 0.10234055E+04</rscale>
<asrwt>0</asrwt>
<pdfrwt beam="2">  1        2 0.27425977E+00 0.10234055E+04</pdfrwt>
<pdfrwt beam="1">  1       -2 0.90916596E-01 0.10234055E+04</pdfrwt>
<totfact> 0.13993121E+01</totfact>
</mgrwt>
</event>
<event>
 8    1  0.1439553E-005  0.1125520E+04  0.7818608E-02  0.8664862E-01
         -2   -1    0    0    0  501 -0.00000000000E+00  0.00000000000E+00  0.12935263938E+04  0.12935263938E+04  0.00000000000E+00 0. -1.
          2   -1    0    0  502    0  0.00000000000E+00 -0.00000000000E+00 -0.10459523923E+04  0.10459523923E+04  0.00000000000E+00 0.  1.
    9000010    2    1    2  502    0  0.20989619774E+03 -0.46671193115E+03 -0.17096555603E+03  0.11425004231E+04  0.10070757444E+04 0.  0.
   -9000010    2    1    2    0  501 -0.20989619774E+03  0.46671193115E+03  0.41853955757E+03  0.11969783630E+04  0.99785038947E+03 0.  0.
        -13    1    3    3    0    0 -0.25742693299E+03 -0.12068179581E+02  0.25591824264E+03  0.36319199449E+03  0.10566000000E+00 0.  1.
          4    1    3    3  502    0  0.46732313073E+03 -0.45464375156E+03 -0.42688379867E+03  0.77930842862E+03  0.00000000000E+00 0.  1.
         13    1    4    4    0    0 -0.26895166311E+02  0.93760113272E+02  0.69250740426E+03  0.69934313819E+03  0.10566000000E+00 0. -1.
         -4    1    4    4    0  501 -0.18300103143E+03  0.37295181787E+03 -0.27396784669E+03  0.49763522482E+03  0.00000000000E+00 0. -1.
<mgrwt>
<rscale>  2 0.11255204E+04</rscale>
<asrwt>0</asrwt>
<pdfrwt beam="2">  1        2 0.16091575E+00 0.11255204E+04</pdfrwt>
<pdfrwt beam="1">  1       -2 0.19900406E+00 0.11255204E+04</pdfrwt>
<totfact> 0.36911346E+00</totfact>
</mgrwt>
</event>
<event>
 8    1  0.1439553E-005  0.1410477E+04  0.7818608E-02  0.8462958E-01
         -2   -1    0    0    0  501 -0.00000000000E+00  0.00000000000E+00  0.72818223742E+03  0.72818223742E+03  0.00000000000E+00 0. -1.
          2   -1    0    0  502    0  0.00000000000E+00 -0.00000000000E+00 -0.27768594783E+04  0.27768594783E+04  0.00000000000E+00 0.  1.
    9000010    2    1    2  502    0  0.90751997832E+03  0.42040499665E+03 -0.79906816506E+03  0.16177509685E+04  0.98907805130E+03 0.  0.
   -9000010    2    1    2    0  501 -0.90751997832E+03 -0.42040499665E+03 -0.12496090758E+04  0.18872907472E+04  0.10000053249E+04 0.  0.
        -13    1    3    3    0    0  0.20032731363E+03 -0.64626680794E+02 -0.72737271016E+03  0.75721774352E+03  0.10566000000E+00 0.  1.
          4    1    3    3  502    0  0.70719266469E+03  0.48503167744E+03 -0.71695454900E+02  0.86053322502E+03  0.00000000000E+00 0.  1.
         13    1    4    4    0    0 -0.92289616055E+03 -0.29938681982E+03 -0.43447650932E+03  0.10630802601E+04  0.10566000000E+00 0. -1.
         -4    1    4    4    0  501  0.15376182227E+02 -0.12101817683E+03 -0.81513256649E+03  0.82421048711E+03  0.00000000000E+00 0. -1.
<mgrwt>
<rscale>  2 0.14104773E+04</rscale>
<asrwt>0</asrwt>
<pdfrwt beam="2">  1        2 0.42720914E+00 0.14104773E+04</pdfrwt>
<pdfrwt beam="1">  1       -2 0.11202804E+00 0.14104773E+04</pdfrwt>
<totfact> 0.22693823E+00</totfact>
</mgrwt>
</event>
<event>
 8    1  0.1439553E-005  0.1180104E+04  0.7818608E-02  0.8621697E-01
          2   -1    0    0  502    0  0.00000000000E+00  0.00000000000E+00  0.23582200052E+04  0.23582200052E+04  0.00000000000E+00 0. -1.
         -2   -1    0    0    0  501 -0.00000000000E+00 -0.00000000000E+00 -0.71123613058E+03  0.71123613058E+03  0.00000000000E+00 0.  1.
    9000010    2    1    2  502    0 -0.51055973366E+03 -0.32135042109E+03  0.14591050223E+04  0.18803707911E+04  0.10212098272E+04 0.  0.
   -9000010    2    1    2    0  501  0.51055973366E+03  0.32135042109E+03  0.18787885231E+03  0.11890853447E+04  0.10073173080E+04 0.  0.
        -13    1    3    3    0    0 -0.30484828105E+03 -0.64858003368E+03  0.12501307951E+04  0.14409772901E+04  0.10566000000E+00 0.  1.
          4    1    3    3  502    0 -0.20571145261E+03  0.32722961258E+03  0.20897422721E+03  0.43939350100E+03  0.00000000000E+00 0.  1.
         13    1    4    4    0    0  0.88514688347E+02  0.46646879398E+03  0.46433139742E+03  0.66410213341E+03  0.10566000000E+00 0. -1.
         -4    1    4    4    0  501  0.42204504531E+03 -0.14511837288E+03 -0.27645254511E+03  0.52498321127E+03  0.00000000000E+00 0. -1.
<mgrwt>
<rscale>  2 0.11801038E+04</rscale>
<asrwt>0</asrwt>
<pdfrwt beam="1">  1        2 0.36280308E+00 0.11801038E+04</pdfrwt>
<pdfrwt beam="2">  1       -2 0.10942094E+00 0.11801038E+04</pdfrwt>
<totfact> 0.42801393E+00</totfact>
</mgrwt>
</event>
<event>
 8    1  0.1439553E-005  0.1405119E+04  0.7818608E-02  0.8466286E-01
         -1   -1    0    0    0  501 -0.00000000000E+00  0.00000000000E+00  0.30972649668E+04  0.30972649668E+04  0.00000000000E+00 0.  1.
          1   -1    0    0  502    0  0.00000000000E+00 -0.00000000000E+00 -0.65213806908E+03  0.65213806908E+03  0.00000000000E+00 0. -1.
    9000010    2    1    2  502    0  0.92481139406E+03  0.19175671886E+03  0.15157724294E+04  0.20770017969E+04  0.10603412907E+04 0.  0.
   -9000010    2    1    2    0  501 -0.92481139406E+03 -0.19175671886E+03  0.92935446839E+03  0.16724012391E+04  0.10203819984E+04 0.  0.
        -13    1    3    3    0    0  0.95672210039E+03 -0.17675888450E+03  0.75648795947E+03  0.12324102095E+04  0.10566000000E+00 0.  1.
          4    1    3    3  502    0 -0.31910706328E+02  0.36851560336E+03  0.75928446991E+03  0.84459158730E+03  0.00000000000E+00 0.  1.
         13    1    4    4    0    0 -0.10989052276E+04  0.41079005908E+02  0.73719885195E+03  0.13239117578E+04  0.10566000000E+00 0. -1.
         -4    1    4    4    0  501  0.17409383356E+03 -0.23283572477E+03  0.19215561644E+03  0.34848948125E+03  0.00000000000E+00 0. -1.
<mgrwt>
<rscale>  2 0.14051195E+04</rscale>
<asrwt>0</asrwt>
<pdfrwt beam="2">  1        1 0.10032894E+00 0.14051195E+04</pdfrwt>
<pdfrwt beam="1">  1       -1 0.47650229E+00 0.14051195E+04</pdfrwt>
<totfact> 0.41964623E-01</totfact>
</mgrwt>
</event>
<event>
 8    1  0.1439553E-005  0.1328306E+04  0.7818608E-02  0.8515740E-01
          1   -1    0    0  502    0  0.00000000000E+00  0.00000000000E+00  0.14102830703E+04  0.14102830703E+04  0.00000000000E+00 0. -1.
         -1   -1    0    0    0  501 -0.00000000000E+00 -0.00000000000E+00 -0.12566280490E+04  0.12566280490E+04  0.00000000000E+00 0.  1.
    9000010    2    1    2  502    0  0.34116854692E+03 -0.84895167559E+03  0.15997577105E+03  0.13126092406E+04  0.92748900063E+03 0.  0.
   -9000010    2    1    2    0  501 -0.34116854692E+03  0.84895167559E+03 -0.63207497950E+01  0.13543018787E+04  0.99848820819E+03 0.  0.
        -13    1    3    3    0    0 -0.30030810895E+03 -0.33938638057E+03  0.19333573110E+03  0.49269340537E+03  0.10566000000E+00 0.  1.
          4    1    3    3  502    0  0.64147665587E+03 -0.50956529502E+03 -0.33359960048E+02  0.81991583522E+03  0.00000000000E+00 0.  1.
         13    1    4    4    0    0 -0.58717265379E+03  0.33315180702E+03  0.26050212509E+03  0.72361814531E+03  0.10566000000E+00 0. -1.
         -4    1    4    4    0  501  0.24600410687E+03  0.51579986857E+03 -0.26682287488E+03  0.63068373340E+03  0.00000000000E+00 0. -1.
<mgrwt>
<rscale>  2 0.13283064E+04</rscale>
<asrwt>0</asrwt>
<pdfrwt beam="1">  1        1 0.21696663E+00 0.13283064E+04</pdfrwt>
<pdfrwt beam="2">  1       -1 0.19332739E+00 0.13283064E+04</pdfrwt>
<totfact> 0.15475622E+00</totfact>
</mgrwt>
</event>
<event>
 8    1  0.1439553E-005  0.1064440E+04  0.7818608E-02  0.8716293E-01
          2   -1    0    0  502    0  0.00000000000E+00  0.00000000000E+00  0.16869634721E+04  0.16869634721E+04  0.00000000000E+00 0.  1.
         -2   -1    0    0    0  501 -0.00000000000E+00 -0.00000000000E+00 -0.68060346262E+03  0.68060346262E+03  0.00000000000E+00 0. -1.
    9000010    2    1    2  502    0 -0.16491950874E+03 -0.32029034205E+03  0.63916292300E+03  0.12418439313E+04  0.10019295185E+04 0.  0.
   -9000010    2    1    2    0  501  0.16491950874E+03  0.32029034205E+03  0.36719708645E+03  0.11257230034E+04  0.10013162500E+04 0.  0.
        -13    1    3    3    0    0  0.23318135514E+03 -0.48502492344E+03  0.92901083897E+02  0.54612575777E+03  0.10566000000E+00 0.  1.
          4    1    3    3  502    0 -0.39810086388E+03  0.16473458139E+03  0.54626183910E+03  0.69571817353E+03  0.00000000000E+00 0.  1.
         13    1    4    4    0    0  0.16693273868E+03  0.12387105542E+03 -0.33627723629E+03  0.39533905502E+03  0.10566000000E+00 0. -1.
         -4    1    4    4    0  501 -0.20132299410E+01  0.19641928663E+03  0.70347432274E+03  0.73038394835E+03  0.00000000000E+00 0. -1.
<mgrwt>
<rscale>  2 0.10644401E+04</rscale>
<asrwt>0</asrwt>
<pdfrwt beam="1">  1        2 0.25953284E+00 0.10644401E+04</pdfrwt>
<pdfrwt beam="2">  1       -2 0.10470823E+00 0.10644401E+04</pdfrwt>
<totfact> 0.11228569E+01</totfact>
</mgrwt>
</event>
<event>
 8    1  0.1439553E-005  0.1505783E+04  0.7818608E-02  0.8406179E-01
         -1   -1    0    0    0  501 -0.00000000000E+00  0.00000000000E+00  0.16692199762E+04  0.16692199762E+04  0.00000000000E+00 0. -1.
          1   -1    0    0  502    0  0.00000000000E+00 -0.00000000000E+00 -0.14834510007E+04  0.14834510007E+04  0.00000000000E+00 0.  1.
    9000010    2    1    2  502    0  0.97482149182E+02 -0.11104152778E+04 -0.36399583363E+03  0.15613010806E+04  0.10308458850E+04 0.  0.
   -9000010    2    1    2    0  501 -0.97482149182E+02  0.11104152778E+04  0.54976480917E+03  0.15913698963E+04  0.99382691793E+03 0.  0.
        -13    1    3    3    0    0 -0.11875009934E+03 -0.87715597583E+03 -0.67751680469E+03  0.11146897433E+04  0.10566000000E+00 0.  1.
          4    1    3    3  502    0  0.21623224852E+03 -0.23325930200E+03  0.31352097106E+03  0.44661133725E+03  0.00000000000E+00 0.  1.
         13    1    4    4    0    0  0.18684202880E+03  0.36182420605E+02 -0.17999312811E+03  0.26194779751E+03  0.10566000000E+00 0. -1.
         -4    1    4    4    0  501 -0.28432417798E+03  0.10742328572E+04  0.72975793728E+03  0.13294220988E+04  0.00000000000E+00 0. -1.
<mgrwt>
<rscale>  2 0.15057831E+04</rscale>
<asrwt>0</asrwt>
<pdfrwt beam="2">  1        1 0.22822323E+00 0.15057831E+04</pdfrwt>
<pdfrwt beam="1">  1       -1 0.25680307E+00 0.15057831E+04</pdfrwt>
<totfact> 0.33999602E-01</totfact>
</mgrwt>
</event>
<event>
 8    1  0.1439553E-005  0.1223681E+04  0.7818608E-02  0.8588940E-01
          2   -1    0    0  502    0  0.00000000000E+00  0.00000000000E+00  0.23853427284E+04  0.23853427284E+04  0.00000000000E+00 0.  1.
         -2   -1    0    0    0  501 -0.00000000000E+00 -0.00000000000E+00 -0.73052211968E+03  0.73052211968E+03  0.00000000000E+00 0. -1.
    9000010    2    1    2  502    0  0.42506336769E+03 -0.53752553459E+03  0.14200254460E+04  0.18842381015E+04  0.10316338444E+04 0.  0.
   -9000010    2    1    2    0  501 -0.42506336769E+03  0.53752553459E+03  0.23479516276E+03  0.12316267466E+04  0.99607384651E+03 0.  0.
        -13    1    3    3    0    0  0.34753618766E+03 -0.21502617026E+03 -0.17392347566E+02  0.40904787073E+03  0.10566000000E+00 0.  1.
          4    1    3    3  502    0  0.77527180032E+02 -0.32249936433E+03  0.14374177936E+04  0.14751902307E+04  0.00000000000E+00 0.  1.
         13    1    4    4    0    0  0.62390709520E+02  0.52877527145E+03  0.45149847719E+03  0.69810226643E+03  0.10566000000E+00 0. -1.
         -4    1    4    4    0  501 -0.48745407721E+03  0.87502631468E+01 -0.21670331443E+03  0.53352448021E+03  0.00000000000E+00 0. -1.
<mgrwt>
<rscale>  2 0.12236807E+04</rscale>
<asrwt>0</asrwt>
<pdfrwt beam="1">  1        2 0.36697580E+00 0.12236807E+04</pdfrwt>
<pdfrwt beam="2">  1       -2 0.11238802E+00 0.12236807E+04</pdfrwt>
<totfact> 0.38463034E+00</totfact>
</mgrwt>
</event>
<event>
 8    1  0.1439553E-005  0.1215197E+04  0.7818608E-02  0.8595206E-01
          1   -1    0    0  502    0  0.00000000000E+00  0.00000000000E+00  0.24566954182E+04  0.24566954182E+04  0.00000000000E+00 0.  1.
         -1   -1    0    0    0  501 -0.00000000000E+00 -0.00000000000E+00 -0.64507704779E+03  0.64507704779E+03  0.00000000000E+00 0. -1.
    9000010    2    1    2  502    0  0.50181938917E+03 -0.48338578395E+03  0.13321958601E+04  0.18267331335E+04  0.10376529360E+04 0.  0.
   -9000010    2    1    2    0  501 -0.50181938917E+03  0.48338578395E+03  0.47942251026E+03  0.12750393325E+04  0.95414613170E+03 0.  0.
        -13    1    3    3    0    0 -0.16304588121E+03 -0.42509388275E+03  0.96014342320E+03  0.10626213685E+04  0.10566000000E+00 0.  1.
          4    1    3    3  502    0  0.66486527038E+03 -0.58291901197E+02  0.37205243692E+03  0.76411176494E+03  0.00000000000E+00 0.  1.
         13    1    4    4    0    0 -0.26735263676E+03  0.76745728595E+03  0.31361013470E+03  0.87110243134E+03  0.10566000000E+00 0. -1.
         -4    1    4    4    0  501 -0.23446675241E+03 -0.28407150201E+03  0.16581237556E+03  0.40393690117E+03  0.00000000000E+00 0. -1.
<mgrwt>
<rscale>  2 0.12151970E+04</rscale>
<asrwt>0</asrwt>
<pdfrwt beam="1">  1        1 0.37795314E+00 0.12151970E+04</pdfrwt>
<pdfrwt beam="2">  1       -1 0.99242624E-01 0.12151970E+04</pdfrwt>
<totfact> 0.16189014E+00</totfact>
</mgrwt>
</event>
<event>
 8    1  0.1439553E-005  0.1135297E+04  0.7818608E-02  0.8656946E-01
          2   -1    0    0  502    0  0.00000000000E+00  0.00000000000E+00  0.26894123753E+04  0.26894123753E+04  0.00000000000E+00 0.  1.
         -2   -1    0    0    0  501 -0.00000000000E+00 -0.00000000000E+00 -0.57192466017E+03  0.57192466017E+03  0.00000000000E+00 0. -1.
    9000010    2    1    2  502    0  0.87565973240E+02 -0.52852404602E+03  0.17149834030E+04  0.20565884134E+04  0.10006909427E+04 0.  0.
   -9000010    2    1    2    0  501 -0.87565973240E+02  0.52852404602E+03  0.40250431220E+03  0.12047486221E+04  0.10012013056E+04 0.  0.
        -13    1    3    3    0    0 -0.42124768566E+03 -0.14165827538E+03  0.10186003409E+04  0.11113340386E+04  0.10566000000E+00 0.  1.
          4    1    3    3  502    0  0.50881365890E+03 -0.38686577063E+03  0.69638306203E+03  0.94525437479E+03  0.00000000000E+00 0.  1.
         13    1    4    4    0    0 -0.34634499891E+03  0.63157728861E+03  0.61841325487E+01  0.72033532776E+03  0.10566000000E+00 0. -1.
         -4    1    4    4    0  501  0.25877902567E+03 -0.10305324260E+03  0.39632017965E+03  0.48441329434E+03  0.00000000000E+00 0. -1.
<mgrwt>
<rscale>  2 0.11352967E+04</rscale>
<asrwt>0</asrwt>
<pdfrwt beam="1">  1        2 0.41375574E+00 0.11352967E+04</pdfrwt>
<pdfrwt beam="2">  1       -2 0.87988411E-01 0.11352967E+04</pdfrwt>
<totfact> 0.47134413E+00</totfact>
</mgrwt>
</event>
<event>
 8    1  0.1439553E-005  0.1183441E+04  0.7818608E-02  0.8619137E-01
          2   -1    0    0  502    0  0.00000000000E+00  0.00000000000E+00  0.47261722114E+03  0.47261722114E+03  0.00000000000E+00 0. -1.
         -2   -1    0    0    0  501 -0.00000000000E+00 -0.00000000000E+00 -0.42830132428E+04  0.42830132428E+04  0.00000000000E+00 0.  1.
    9000010    2    1    2  502    0  0.45250856143E+03 -0.36087200700E+03 -0.32095567626E+04  0.34160997188E+04  0.10166071379E+04 0.  0.
   -9000010    2    1    2    0  501 -0.45250856143E+03  0.36087200700E+03 -0.60083925909E+03  0.13395307452E+04  0.10480182243E+04 0.  0.
        -13    1    3    3    0    0  0.62946497415E+03  0.52686319241E+02 -0.24785830325E+04  0.25578068461E+04  0.10566000000E+00 0.  1.
          4    1    3    3  502    0 -0.17695641272E+03 -0.41355832624E+03 -0.73097373006E+03  0.85829287265E+03  0.00000000000E+00 0.  1.
         13    1    4    4    0    0  0.64044249515E+02 -0.38042533325E+02 -0.67822464816E+03  0.68230314727E+03  0.10566000000E+00 0. -1.
         -4    1    4    4    0  501 -0.51655281094E+03  0.39891454033E+03  0.77385389079E+02  0.65722759789E+03  0.00000000000E+00 0. -1.
<mgrwt>
<rscale>  2 0.11834413E+04</rscale>
<asrwt>0</asrwt>
<pdfrwt beam="1">  1        2 0.72710340E-01 0.11834413E+04</pdfrwt>
<pdfrwt beam="2">  1       -2 0.65892513E+00 0.11834413E+04</pdfrwt>
<totfact> 0.27975145E-01</totfact>
</mgrwt>
</event>
<event>
 8    1  0.1439553E-005  0.1162440E+04  0.7818608E-02  0.8635396E-01
         -1   -1    0    0    0  501 -0.00000000000E+00  0.00000000000E+00  0.12871459841E+04  0.12871459841E+04  0.00000000000E+00 0. -1.
          1   -1    0    0  502    0  0.00000000000E+00 -0.00000000000E+00 -0.10828860015E+04  0.10828860015E+04  0.00000000000E+00 0.  1.
    9000010    2    1    2  502    0  0.54716978686E+03  0.10346621290E+02 -0.10192948629E+03  0.11886970043E+04  0.10502900169E+04 0.  0.
   -9000010    2    1    2    0  501 -0.54716978686E+03 -0.10346621290E+02  0.30618946889E+03  0.11813349813E+04  0.10011485999E+04 0.  0.
        -13    1    3    3    0    0  0.27658143410E+03  0.18263209555E+03 -0.54729674975E+03  0.63983241201E+03  0.10566000000E+00 0.  1.
          4    1    3    3  502    0  0.27058835276E+03 -0.17228547426E+03  0.44536726346E+03  0.54886459227E+03  0.00000000000E+00 0.  1.
         13    1    4    4    0    0 -0.49734910318E+03 -0.17094835497E+03  0.62746612551E+03  0.81871437042E+03  0.10566000000E+00 0. -1.
         -4    1    4    4    0  501 -0.49820683678E+02  0.16060173368E+03 -0.32127665662E+03  0.36262061093E+03  0.00000000000E+00 0. -1.
<mgrwt>
<rscale>  2 0.11624396E+04</rscale>
<asrwt>0</asrwt>
<pdfrwt beam="2">  1        1 0.16659785E+00 0.11624396E+04</pdfrwt>
<pdfrwt beam="1">  1       -1 0.19802246E+00 0.11624396E+04</pdfrwt>
<totfact> 0.25556424E+00</totfact>
</mgrwt>
</event>
<event>
 8    1  0.1439553E-005  0.1266381E+04  0.7818608E-02  0.8558185E-01
          2   -1    0    0  502    0  0.00000000000E+00  0.00000000000E+00  0.12460456599E+04  0.12460456599E+04  0.00000000000E+00 0. -1.
         -2   -1    0    0    0  501 -0.00000000000E+00 -0.00000000000E+00 -0.13396613727E+04  0.13396613727E+04  0.00000000000E+00 0.  1.
    9000010    2    1    2  502    0 -0.68403820841E+03  0.34897756827E+03  0.20954605634E+03  0.12774667245E+04  0.99915868042E+03 0.  0.
   -9000010    2    1    2    0  501  0.68403820841E+03 -0.34897756827E+03 -0.30316176922E+03  0.13082403082E+04  0.10148359630E+04 0.  0.
        -13    1    3    3    0    0  0.10695113494E+03  0.28714956349E+02 -0.27476996413E+03  0.29624590855E+03  0.10566000000E+00 0.  1.
          4    1    3    3  502    0 -0.79098934335E+03  0.32026261192E+03  0.48431602047E+03  0.98122081591E+03  0.00000000000E+00 0.  1.
         13    1    4    4    0    0 -0.21996356829E+03 -0.29141253145E+03 -0.11773868092E+03  0.38362435143E+03  0.10566000000E+00 0. -1.
         -4    1    4    4    0  501  0.90400177670E+03 -0.57565036826E+02 -0.18542308829E+03  0.92461595672E+03  0.00000000000E+00 0. -1.
<mgrwt>
<rscale>  2 0.12663810E+04</rscale>
<asrwt>0</asrwt>
<pdfrwt beam="1">  1        2 0.19169933E+00 0.12663810E+04</pdfrwt>
<pdfrwt beam="2">  1       -2 0.20610175E+00 0.12663810E+04</pdfrwt>
<totfact> 0.24340465E+00</totfact>
</mgrwt>
</event>
<event>
 8    1  0.1439553E-005  0.1295908E+04  0.7818608E-02  0.8537642E-01
          2   -1    0    0  502    0  0.00000000000E+00  0.00000000000E+00  0.34734368008E+04  0.34734368008E+04  0.00000000000E+00 0. -1.
         -2   -1    0    0    0  501 -0.00000000000E+00 -0.00000000000E+00 -0.48793440141E+03  0.48793440141E+03  0.00000000000E+00 0.  1.
    9000010    2    1    2  502    0  0.12046953319E+03  0.85114903220E+03  0.12716820683E+04  0.17913382862E+04  0.92344463238E+03 0.  0.
   -9000010    2    1    2    0  501 -0.12046953319E+03 -0.85114903220E+03  0.17138203310E+04  0.21700329160E+04  0.10163144918E+04 0.  0.
        -13    1    3    3    0    0  0.31100425201E+03  0.45357394887E+03  0.12313997898E+04  0.13486283496E+04  0.10566000000E+00 0.  1.
          4    1    3    3  502    0 -0.19053471883E+03  0.39757508333E+03  0.40282278542E+02  0.44270993656E+03  0.00000000000E+00 0.  1.
         13    1    4    4    0    0 -0.47618643957E+03 -0.78643080721E+03  0.93447616720E+03  0.13109052818E+04  0.10566000000E+00 0. -1.
         -4    1    4    4    0  501  0.35571690638E+03 -0.64718224989E+02  0.77934416381E+03  0.85912763417E+03  0.00000000000E+00 0. -1.
<mgrwt>
<rscale>  2 0.12959076E+04</rscale>
<asrwt>0</asrwt>
<pdfrwt beam="1">  1        2 0.53437488E+00 0.12959076E+04</pdfrwt>
<pdfrwt beam="2">  1       -2 0.75066833E-01 0.12959076E+04</pdfrwt>
<totfact> 0.20761348E+00</totfact>
</mgrwt>
</event>
<event>
 8    1  0.1439553E-005  0.1098489E+04  0.7818608E-02  0.8687193E-01
         -1   -1    0    0    0  501 -0.00000000000E+00  0.00000000000E+00  0.10056106476E+04  0.10056106476E+04  0.00000000000E+00 0. -1.
          1   -1    0    0  502    0  0.00000000000E+00 -0.00000000000E+00 -0.12059946490E+04  0.12059946490E+04  0.00000000000E+00 0.  1.
    9000010    2    1    2  502    0  0.27228072742E+03  0.92052152668E+02 -0.13602515570E+03  0.10434703411E+04  0.99383958289E+03 0.  0.
   -9000010    2    1    2    0  501 -0.27228072742E+03 -0.92052152668E+02 -0.64358845693E+02  0.11681349555E+04  0.11303923301E+04 0.  0.
        -13    1    3    3    0    0  0.77070776531E+02 -0.44506195573E+03 -0.13691839672E+03  0.47198168138E+03  0.10566000000E+00 0.  1.
          4    1    3    3  502    0  0.19520995089E+03  0.53711410839E+03  0.89324102142E+00  0.57148865977E+03  0.00000000000E+00 0.  1.
         13    1    4    4    0    0 -0.86251038507E+02 -0.42498013195E+03 -0.45057646139E+03  0.62535311059E+03  0.10566000000E+00 0. -1.
         -4    1    4    4    0  501 -0.18602968891E+03  0.33292797929E+03  0.38621761569E+03  0.54278184496E+03  0.00000000000E+00 0. -1.
<mgrwt>
<rscale>  2 0.10984887E+04</rscale>
<asrwt>0</asrwt>
<pdfrwt beam="2">  1        1 0.18553764E+00 0.10984887E+04</pdfrwt>
<pdfrwt beam="1">  1       -1 0.15470933E+00 0.10984887E+04</pdfrwt>
<totfact> 0.49330211E+00</totfact>
</mgrwt>
</event>
<event>
 8    1  0.1439553E-005  0.1095587E+04  0.7818608E-02  0.8689629E-01
          2   -1    0    0  502    0  0.00000000000E+00  0.00000000000E+00  0.14161808932E+04  0.14161808932E+04  0.00000000000E+00 0. -1.
         -2   -1    0    0    0  501 -0.00000000000E+00 -0.00000000000E+00 -0.99538588271E+03  0.99538588271E+03  0.00000000000E+00 0.  1.
    9000010    2    1    2  502    0  0.44192943592E+03 -0.47865628970E+02 -0.25493890628E+03  0.11206972333E+04  0.99668234557E+03 0.  0.
   -9000010    2    1    2    0  501 -0.44192943592E+03  0.47865628970E+02  0.67573391679E+03  0.12908695427E+04  0.10060492558E+04 0.  0.
        -13    1    3    3    0    0  0.52317887867E+02 -0.34405423844E+03  0.24148604722E+03  0.42358706608E+03  0.10566000000E+00 0.  1.
          4    1    3    3  502    0  0.38961154805E+03  0.29618860947E+03 -0.49642495349E+03  0.69711016720E+03  0.00000000000E+00 0.  1.
         13    1    4    4    0    0 -0.16429352540E+03  0.15907941679E+03 -0.23762217308E+03  0.32979225527E+03  0.10566000000E+00 0. -1.
         -4    1    4    4    0  501 -0.27763591052E+03 -0.11121378782E+03  0.91335608988E+03  0.96107728739E+03  0.00000000000E+00 0. -1.
<mgrwt>
<rscale>  2 0.10955873E+04</rscale>
<asrwt>0</asrwt>
<pdfrwt beam="1">  1        2 0.21787398E+00 0.10955873E+04</pdfrwt>
<pdfrwt beam="2">  1       -2 0.15313629E+00 0.10955873E+04</pdfrwt>
<totfact> 0.55504947E+00</totfact>
</mgrwt>
</event>
<event>
 8    1  0.1439553E-005  0.1303282E+04  0.7818608E-02  0.8532598E-01
          2   -1    0    0  502    0  0.00000000000E+00  0.00000000000E+00  0.14574716864E+04  0.14574716864E+04  0.00000000000E+00 0. -1.
         -2   -1    0    0    0  501 -0.00000000000E+00 -0.00000000000E+00 -0.11693376668E+04  0.11693376668E+04  0.00000000000E+00 0.  1.
    9000010    2    1    2  502    0  0.69820949506E+03  0.59766626607E+03  0.10275011254E+03  0.13673703945E+04  0.10071954853E+04 0.  0.
   -9000010    2    1    2    0  501 -0.69820949506E+03 -0.59766626607E+03  0.18538390706E+03  0.12594389586E+04  0.84090298657E+03 0.  0.
        -13    1    3    3    0    0  0.28326767467E+03  0.50372069374E+03  0.51564464410E+03  0.77450921426E+03  0.10566000000E+00 0.  1.
          4    1    3    3  502    0  0.41494182039E+03  0.93945572330E+02 -0.41289453156E+03  0.59286118026E+03  0.00000000000E+00 0.  1.
         13    1    4    4    0    0 -0.31424609158E+03 -0.80694140226E+02 -0.30864826175E+03  0.44780119583E+03  0.10566000000E+00 0. -1.
         -4    1    4    4    0  501 -0.38396340348E+03 -0.51697212584E+03  0.49403216881E+03  0.81163776276E+03  0.00000000000E+00 0. -1.
<mgrwt>
<rscale>  2 0.13032825E+04</rscale>
<asrwt>0</asrwt>
<pdfrwt beam="1">  1        2 0.22422641E+00 0.13032825E+04</pdfrwt>
<pdfrwt beam="2">  1       -2 0.17989810E+00 0.13032825E+04</pdfrwt>
<totfact> 0.30495436E+00</totfact>
</mgrwt>
</event>
<event>
 8    1  0.1439553E-005  0.1355913E+04  0.7818608E-02  0.8497579E-01
         -4   -1    0    0    0  501 -0.00000000000E+00  0.00000000000E+00  0.26008271501E+04  0.26008271501E+04  0.00000000000E+00 0. -1.
          4   -1    0    0  502    0  0.00000000000E+00 -0.00000000000E+00 -0.86615438583E+03  0.86615438583E+03  0.00000000000E+00 0.  1.
    9000010    2    1    2  502    0 -0.91044022488E+03  0.11516791665E+03  0.13505238977E+03  0.13829954565E+04  0.10258032133E+04 0.  0.
   -9000010    2    1    2    0  501  0.91044022488E+03 -0.11516791665E+03  0.15996203745E+04  0.20839860795E+04  0.97059135831E+03 0.  0.
        -13    1    3    3    0    0 -0.38374482846E+03  0.75500150552E+02 -0.44905441215E+03  0.59549159721E+03  0.10566000000E+00 0.  1.
          4    1    3    3  502    0 -0.52669539642E+03  0.39667766102E+02  0.58410680193E+03  0.78750385925E+03  0.00000000000E+00 0.  1.
         13    1    4    4    0    0  0.88588018097E+03 -0.15568334297E+03  0.59544061991E+03  0.10786892700E+04  0.10566000000E+00 0. -1.
         -4    1    4    4    0  501  0.24560043912E+02  0.40515426311E+02  0.10041797546E+04  0.10052968094E+04  0.00000000000E+00 0. -1.
<mgrwt>
<rscale>  2 0.13559126E+04</rscale>
<asrwt>0</asrwt>
<pdfrwt beam="2">  1        4 0.13325452E+00 0.13559126E+04</pdfrwt>
<pdfrwt beam="1">  1       -4 0.40012725E+00 0.13559126E+04</pdfrwt>
<totfact> 0.83192140E-02</totfact>
</mgrwt>
</event>
<event>
 8    1  0.1439553E-005  0.1064170E+04  0.7818608E-02  0.8716528E-01
          1   -1    0    0  502    0  0.00000000000E+00  0.00000000000E+00  0.10740954517E+04  0.10740954517E+04  0.00000000000E+00 0. -1.
         -1   -1    0    0    0  501 -0.00000000000E+00 -0.00000000000E+00 -0.10616661744E+04  0.10616661744E+04  0.00000000000E+00 0.  1.
    9000010    2    1    2  502    0 -0.72001914107E+02 -0.37401122272E+03 -0.82520512873E+02  0.10668096898E+04  0.99307834980E+03 0.  0.
   -9000010    2    1    2    0  501  0.72001914107E+02  0.37401122272E+03  0.94949790118E+02  0.10689519363E+04  0.99427064175E+03 0.  0.
        -13    1    3    3    0    0 -0.13507474004E+03 -0.51399274412E+02 -0.50855954268E+03  0.52869640666E+03  0.10566000000E+00 0.  1.
          4    1    3    3  502    0  0.63072825930E+02 -0.32261194831E+03  0.42603902980E+03  0.53811328313E+03  0.00000000000E+00 0.  1.
         13    1    4    4    0    0  0.13055308098E+03 -0.92456365128E+02  0.45144007125E+03  0.47894721578E+03  0.10566000000E+00 0. -1.
         -4    1    4    4    0  501 -0.58551166870E+02  0.46646758785E+03 -0.35649028114E+03  0.59000472049E+03  0.00000000000E+00 0. -1.
<mgrwt>
<rscale>  2 0.10641698E+04</rscale>
<asrwt>0</asrwt>
<pdfrwt beam="1">  1        1 0.16524545E+00 0.10641698E+04</pdfrwt>
<pdfrwt beam="2">  1       -1 0.16333326E+00 0.10641698E+04</pdfrwt>
<totfact> 0.52874927E+00</totfact>
</mgrwt>
</event>
<event>
 8    1  0.1439553E-005  0.1266532E+04  0.7818608E-02  0.8558078E-01
         -1   -1    0    0    0  501 -0.00000000000E+00  0.00000000000E+00  0.14924669321E+04  0.14924669321E+04  0.00000000000E+00 0. -1.
          1   -1    0    0  502    0  0.00000000000E+00 -0.00000000000E+00 -0.13981627278E+04  0.13981627278E+04  0.00000000000E+00 0.  1.
    9000010    2    1    2  502    0 -0.52588896350E+03 -0.55442074739E+03  0.74209648981E+03  0.14645462557E+04  0.10051104257E+04 0.  0.
   -9000010    2    1    2    0  501  0.52588896350E+03  0.55442074739E+03 -0.64779228549E+03  0.14260834042E+04  0.10149568776E+04 0.  0.
        -13    1    3    3    0    0  0.24402890912E+03 -0.34597361333E+03  0.86647423593E+02  0.43215233053E+03  0.10566000000E+00 0.  1.
          4    1    3    3  502    0 -0.76991787262E+03 -0.20844713406E+03  0.65544906622E+03  0.10323939251E+04  0.00000000000E+00 0.  1.
         13    1    4    4    0    0  0.81780058175E+03  0.40478843719E+03 -0.60602418054E+03  0.10954071339E+04  0.10566000000E+00 0. -1.
         -4    1    4    4    0  501 -0.29191161826E+03  0.14963231020E+03 -0.41768104943E+02  0.33067627027E+03  0.00000000000E+00 0. -1.
<mgrwt>
<rscale>  2 0.12665319E+04</rscale>
<asrwt>0</asrwt>
<pdfrwt beam="2">  1        1 0.21510196E+00 0.12665319E+04</pdfrwt>
<pdfrwt beam="1">  1       -1 0.22961030E+00 0.12665319E+04</pdfrwt>
<totfact> 0.74211709E-01</totfact>
</mgrwt>
</event>
<event>
 8    1  0.1439553E-005  0.1073747E+04  0.7818608E-02  0.8708227E-01
          2   -1    0    0  502    0  0.00000000000E+00  0.00000000000E+00  0.20195355108E+04  0.20195355108E+04  0.00000000000E+00 0.  1.
         -2   -1    0    0    0  501 -0.00000000000E+00 -0.00000000000E+00 -0.83339147701E+03  0.83339147701E+03  0.00000000000E+00 0. -1.
    9000010    2    1    2  502    0 -0.38022543325E+03  0.21160694359E+03 -0.21095923523E+03  0.10851270727E+04  0.97141550653E+03 0.  0.
   -9000010    2    1    2    0  501  0.38022543325E+03 -0.21160694359E+03  0.13971032690E+04  0.17677999151E+04  0.99190227183E+03 0.  0.
        -13    1    3    3    0    0 -0.23016937277E+03 -0.31087693104E+03  0.16877221470E+03  0.42202663190E+03  0.10566000000E+00 0.  1.
          4    1    3    3  502    0 -0.15005606048E+03  0.52248387463E+03 -0.37973144993E+03  0.66310044081E+03  0.00000000000E+00 0.  1.
         13    1    4    4    0    0 -0.29599552647E+03  0.11457677411E+03  0.28868227014E+03  0.42904388250E+03  0.10566000000E+00 0. -1.
         -4    1    4    4    0  501  0.67622095972E+03 -0.32618371771E+03  0.11084209989E+04  0.13387560326E+04  0.00000000000E+00 0. -1.
<mgrwt>
<rscale>  2 0.10737470E+04</rscale>
<asrwt>0</asrwt>
<pdfrwt beam="1">  1        2 0.31069777E+00 0.10737470E+04</pdfrwt>
<pdfrwt beam="2">  1       -2 0.12821407E+00 0.10737470E+04</pdfrwt>
<totfact> 0.43845019E+00</totfact>
</mgrwt>
</event>
<event>
 8    1  0.1439553E-005  0.1105051E+04  0.7818608E-02  0.8681711E-01
         -2   -1    0    0    0  501 -0.00000000000E+00  0.00000000000E+00  0.77724478911E+03  0.77724478911E+03  0.00000000000E+00 0. -1.
          2   -1    0    0  502    0  0.00000000000E+00 -0.00000000000E+00 -0.30977465830E+04  0.30977465830E+04  0.00000000000E+00 0.  1.
    9000010    2    1    2  502    0 -0.17305073449E+03  0.43220910279E+03 -0.25206897307E+04  0.27524949987E+04  0.10027964570E+04 0.  0.
   -9000010    2    1    2    0  501  0.17305073449E+03 -0.43220910279E+03  0.20018793677E+03  0.11224963734E+04  0.10015845611E+04 0.  0.
        -13    1    3    3    0    0  0.20563472158E+03 -0.19495806833E+03 -0.12856427159E+04  0.13164997119E+04  0.10566000000E+00 0.  1.
          4    1    3    3  502    0 -0.37868545607E+03  0.62716717111E+03 -0.12350470148E+04  0.14359952869E+04  0.00000000000E+00 0.  1.
         13    1    4    4    0    0 -0.11680696339E+03  0.28674604384E+03  0.15432906063E+03  0.34595466535E+03  0.10566000000E+00 0. -1.
         -4    1    4    4    0  501  0.28985769788E+03 -0.71895514663E+03  0.45858876138E+02  0.77654170809E+03  0.00000000000E+00 0. -1.
<mgrwt>
<rscale>  2 0.11050506E+04</rscale>
<asrwt>0</asrwt>
<pdfrwt beam="2">  1        2 0.47657639E+00 0.11050506E+04</pdfrwt>
<pdfrwt beam="1">  1       -2 0.11957612E+00 0.11050506E+04</pdfrwt>
<totfact> 0.12688281E+00</totfact>
</mgrwt>
</event>
<event>
 8    1  0.1439553E-005  0.1043205E+04  0.7818608E-02  0.8735023E-01
          1   -1    0    0  502    0  0.00000000000E+00  0.00000000000E+00  0.14958224851E+04  0.14958224851E+04  0.00000000000E+00 0. -1.
         -1   -1    0    0    0  501 -0.00000000000E+00 -0.00000000000E+00 -0.75808885765E+03  0.75808885765E+03  0.00000000000E+00 0.  1.
    9000010    2    1    2  502    0  0.25578216033E+03 -0.12439993741E+03  0.14039306792E+03  0.10456576300E+04  0.99638838200E+03 0.  0.
   -9000010    2    1    2    0  501 -0.25578216033E+03  0.12439993741E+03  0.59734055954E+03  0.12082537127E+04  0.10110199960E+04 0.  0.
        -13    1    3    3    0    0 -0.25891407784E+03  0.26264443191E+02 -0.26648937021E+03  0.37248210195E+03  0.10566000000E+00 0.  1.
          4    1    3    3  502    0  0.51469623817E+03 -0.15066438060E+03  0.40688243813E+03  0.67317552809E+03  0.00000000000E+00 0.  1.
         13    1    4    4    0    0 -0.63310125552E+03  0.17965171364E+03  0.46002510719E+03  0.80294149747E+03  0.10566000000E+00 0. -1.
         -4    1    4    4    0  501  0.37731909518E+03 -0.55251776228E+02  0.13731545235E+03  0.40531221524E+03  0.00000000000E+00 0. -1.
<mgrwt>
<rscale>  2 0.10432049E+04</rscale>
<asrwt>0</asrwt>
<pdfrwt beam="1">  1        1 0.23012653E+00 0.10432049E+04</pdfrwt>
<pdfrwt beam="2">  1       -1 0.11662906E+00 0.10432049E+04</pdfrwt>
<totfact> 0.64707766E+00</totfact>
</mgrwt>
</event>
<event>
 8    1  0.1439553E-005  0.1218016E+04  0.7818608E-02  0.8593118E-01
          2   -1    0    0  502    0  0.00000000000E+00  0.00000000000E+00  0.13101484848E+04  0.13101484848E+04  0.00000000000E+00 0. -1.
         -2   -1    0    0    0  501 -0.00000000000E+00 -0.00000000000E+00 -0.11613615963E+04  0.11613615963E+04  0.00000000000E+00 0.  1.
    9000010    2    1    2  502    0 -0.50081134304E+03 -0.47375834834E+03  0.26901431764E+03  0.12395432308E+04  0.99440421553E+03 0.  0.
   -9000010    2    1    2    0  501  0.50081134304E+03  0.47375834834E+03 -0.12022742919E+03  0.12319668503E+04  0.10139175073E+04 0.  0.
        -13    1    3    3    0    0 -0.46881336022E+03 -0.22170448335E+03  0.61870121334E+03  0.80729799158E+03  0.10566000000E+00 0.  1.
          4    1    3    3  502    0 -0.31997982814E+02 -0.25205386499E+03 -0.34968689570E+03  0.43224523917E+03  0.00000000000E+00 0.  1.
         13    1    4    4    0    0  0.29124264302E+03  0.57903469568E+03 -0.47718043718E+03  0.80486311675E+03  0.10566000000E+00 0. -1.
         -4    1    4    4    0  501  0.20956870002E+03 -0.10527634734E+03  0.35695300799E+03  0.42710373359E+03  0.00000000000E+00 0. -1.
<mgrwt>
<rscale>  2 0.12180163E+04</rscale>
<asrwt>0</asrwt>
<pdfrwt beam="1">  1        2 0.20156131E+00 0.12180163E+04</pdfrwt>
<pdfrwt beam="2">  1       -2 0.17867102E+00 0.12180163E+04</pdfrwt>
<totfact> 0.38015776E+00</totfact>
</mgrwt>
</event>
<event>
 8    1  0.1439553E-005  0.1647812E+04  0.7818608E-02  0.8329167E-01
          2   -1    0    0  502    0  0.00000000000E+00  0.00000000000E+00  0.19761202782E+04  0.19761202782E+04  0.00000000000E+00 0.  1.
         -2   -1    0    0    0  501 -0.00000000000E+00 -0.00000000000E+00 -0.13932052080E+04  0.13932052080E+04  0.00000000000E+00 0. -1.
    9000010    2    1    2  502    0  0.91123247827E+03 -0.95457895504E+03  0.49021707414E+03  0.17267776604E+04  0.99994134727E+03 0.  0.
   -9000010    2    1    2    0  501 -0.91123247827E+03  0.95457895504E+03  0.92697996085E+02  0.16425478257E+04  0.97355268504E+03 0.  0.
        -13    1    3    3    0    0  0.10352271405E+04 -0.99820554818E+03  0.59733290415E+03  0.15572142301E+04  0.10566000000E+00 0.  1.
          4    1    3    3  502    0 -0.12399466219E+03  0.43626593144E+02 -0.10711583001E+03  0.16956343038E+03  0.00000000000E+00 0.  1.
         13    1    4    4    0    0 -0.20604230555E+03  0.81265906434E+03 -0.20657365950E+03  0.86344708842E+03  0.10566000000E+00 0. -1.
         -4    1    4    4    0  501 -0.70519017272E+03  0.14191989069E+03  0.29927165558E+03  0.77910073733E+03  0.00000000000E+00 0. -1.
<mgrwt>
<rscale>  2 0.16478120E+04</rscale>
<asrwt>0</asrwt>
<pdfrwt beam="1">  1        2 0.30401850E+00 0.16478120E+04</pdfrwt>
<pdfrwt beam="2">  1       -2 0.21433926E+00 0.16478120E+04</pdfrwt>
<totfact> 0.79365012E-01</totfact>
</mgrwt>
</event>
<event>
 8    1  0.1439553E-005  0.1164593E+04  0.7818608E-02  0.8633712E-01
         -2   -1    0    0    0  501 -0.00000000000E+00  0.00000000000E+00  0.68995105173E+03  0.68995105173E+03  0.00000000000E+00 0. -1.
          2   -1    0    0  502    0  0.00000000000E+00 -0.00000000000E+00 -0.20078128144E+04  0.20078128144E+04  0.00000000000E+00 0.  1.
    9000010    2    1    2  502    0 -0.37036760445E+03 -0.46806900679E+03 -0.46690368238E+03  0.12598822733E+04  0.10065006390E+04 0.  0.
   -9000010    2    1    2    0  501  0.37036760445E+03  0.46806900679E+03 -0.85095808029E+03  0.14378815929E+04  0.99353563758E+03 0.  0.
        -13    1    3    3    0    0 -0.39467983478E+03  0.11705404717E+03  0.12199060063E+03  0.42936643994E+03  0.10566000000E+00 0.  1.
          4    1    3    3  502    0  0.24312230330E+02 -0.58512305396E+03 -0.58889428301E+03  0.83051583331E+03  0.00000000000E+00 0.  1.
         13    1    4    4    0    0 -0.29774408584E+03 -0.34345993863E+02 -0.35998643459E+03  0.46842441461E+03  0.10566000000E+00 0. -1.
         -4    1    4    4    0  501  0.66811169030E+03  0.50241500066E+03 -0.49097164570E+03  0.96945717826E+03  0.00000000000E+00 0. -1.
<mgrwt>
<rscale>  2 0.11645931E+04</rscale>
<asrwt>0</asrwt>
<pdfrwt beam="2">  1        2 0.30889428E+00 0.11645931E+04</pdfrwt>
<pdfrwt beam="1">  1       -2 0.10614632E+00 0.11645931E+04</pdfrwt>
<totfact> 0.71905499E+00</totfact>
</mgrwt>
</event>
<event>
 8    1  0.1439553E-005  0.1106055E+04  0.7818608E-02  0.8680875E-01
          2   -1    0    0  502    0  0.00000000000E+00  0.00000000000E+00  0.25627567980E+04  0.25627567980E+04  0.00000000000E+00 0.  1.
         -2   -1    0    0    0  501 -0.00000000000E+00 -0.00000000000E+00 -0.72090429106E+03  0.72090429106E+03  0.00000000000E+00 0. -1.
    9000010    2    1    2  502    0 -0.49398816802E+03 -0.51722508736E+02  0.18695450137E+04  0.21671271926E+04  0.97700674636E+03 0.  0.
   -9000010    2    1    2    0  501  0.49398816802E+03  0.51722508736E+02 -0.27692506730E+02  0.11165338965E+04  0.99959068579E+03 0.  0.
        -13    1    3    3    0    0 -0.75003689529E+03  0.11452847799E+03  0.15468300968E+04  0.17228916032E+04  0.10566000000E+00 0.  1.
          4    1    3    3  502    0  0.25604872728E+03 -0.16625098673E+03  0.32271491685E+03  0.44423558939E+03  0.00000000000E+00 0.  1.
         13    1    4    4    0    0  0.27858263800E+03  0.52487692086E+03 -0.48800582683E+02  0.59622611171E+03  0.10566000000E+00 0. -1.
         -4    1    4    4    0  501  0.21540553002E+03 -0.47315441212E+03  0.21108075953E+02  0.52030778482E+03  0.00000000000E+00 0. -1.
<mgrwt>
<rscale>  2 0.11060551E+04</rscale>
<asrwt>0</asrwt>
<pdfrwt beam="1">  1        2 0.39427027E+00 0.11060551E+04</pdfrwt>
<pdfrwt beam="2">  1       -2 0.11090835E+00 0.11060551E+04</pdfrwt>
<totfact> 0.32121011E+00</totfact>
</mgrwt>
</event>
<event>
 8    1  0.1439553E-005  0.1403390E+04  0.7818608E-02  0.8467363E-01
         -1   -1    0    0    0  501 -0.00000000000E+00  0.00000000000E+00  0.39086241547E+04  0.39086241547E+04  0.00000000000E+00 0.  1.
          1   -1    0    0  502    0  0.00000000000E+00 -0.00000000000E+00 -0.55150813221E+03  0.55150813221E+03  0.00000000000E+00 0. -1.
    9000010    2    1    2  502    0  0.88682901460E+03 -0.40412434233E+03  0.10238702086E+04  0.17376411688E+04  0.10105960826E+04 0.  0.
   -9000010    2    1    2    0  501 -0.88682901460E+03  0.40412434233E+03  0.23332458139E+04  0.27224911181E+04  0.10090290754E+04 0.  0.
        -13    1    3    3    0    0  0.50644115691E+03 -0.70591583670E+03  0.86693583012E+03  0.12273457372E+04  0.10566000000E+00 0.  1.
          4    1    3    3  502    0  0.38038785770E+03  0.30179149437E+03  0.15693437844E+03  0.51029543158E+03  0.00000000000E+00 0.  1.
         13    1    4    4    0    0 -0.10481814350E+04  0.12708493192E+03  0.19902974541E+04  0.22530243824E+04  0.10566000000E+00 0. -1.
         -4    1    4    4    0  501  0.16135242039E+03  0.27703941041E+03  0.34294835985E+03  0.46946673579E+03  0.00000000000E+00 0. -1.
<mgrwt>
<rscale>  2 0.14033900E+04</rscale>
<asrwt>0</asrwt>
<pdfrwt beam="2">  1        1 0.84847407E-01 0.14033900E+04</pdfrwt>
<pdfrwt beam="1">  1       -1 0.60132678E+00 0.14033900E+04</pdfrwt>
<totfact> 0.13073115E-01</totfact>
</mgrwt>
</event>
<event>
 8    1  0.1439553E-005  0.1342330E+04  0.7818608E-02  0.8506458E-01
          2   -1    0    0  502    0  0.00000000000E+00  0.00000000000E+00  0.15159104276E+04  0.15159104276E+04  0.00000000000E+00 0. -1.
         -2   -1    0    0    0  501 -0.00000000000E+00 -0.00000000000E+00 -0.12861725820E+04  0.12861725820E+04  0.00000000000E+00 0.  1.
    9000010    2    1    2  502    0  0.41665721817E+03 -0.80575430595E+03  0.50066439515E+03  0.14321312924E+04  0.98868193216E+03 0.  0.
   -9000010    2    1    2    0  501 -0.41665721817E+03  0.80575430595E+03 -0.27092654957E+03  0.13699517172E+04  0.99021375132E+03 0.  0.
        -13    1    3    3    0    0  0.71346477230E+03 -0.75704470143E+03  0.36859676794E+03  0.11036359227E+04  0.10566000000E+00 0.  1.
          4    1    3    3  502    0 -0.29680755413E+03 -0.48709604514E+02  0.13206762721E+03  0.32849536970E+03  0.00000000000E+00 0.  1.
         13    1    4    4    0    0 -0.30779787754E+03  0.45461981965E+03 -0.64395088881E+03  0.84622188119E+03  0.10566000000E+00 0. -1.
         -4    1    4    4    0  501 -0.10885934064E+03  0.35113448630E+03  0.37302433924E+03  0.52372983606E+03  0.00000000000E+00 0. -1.
<mgrwt>
<rscale>  2 0.13423301E+04</rscale>
<asrwt>0</asrwt>
<pdfrwt beam="1">  1        2 0.23321699E+00 0.13423301E+04</pdfrwt>
<pdfrwt beam="2">  1       -2 0.19787271E+00 0.13423301E+04</pdfrwt>
<totfact> 0.19984010E+00</totfact>
</mgrwt>
</event>
<event>
 8    1  0.1439553E-005  0.1463541E+04  0.7818608E-02  0.8430796E-01
         -1   -1    0    0    0  501 -0.00000000000E+00  0.00000000000E+00  0.10142374026E+04  0.10142374026E+04  0.00000000000E+00 0.  1.
          1   -1    0    0  502    0  0.00000000000E+00 -0.00000000000E+00 -0.21130057386E+04  0.21130057386E+04  0.00000000000E+00 0. -1.
    9000010    2    1    2  502    0  0.10018638517E+04 -0.48514639581E+03 -0.52932949049E+03  0.15764035494E+04  0.98273101020E+03 0.  0.
   -9000010    2    1    2    0  501 -0.10018638517E+04  0.48514639581E+03 -0.56943884546E+03  0.15508395918E+04  0.91746642339E+03 0.  0.
        -13    1    3    3    0    0  0.24453937544E+03 -0.22388107308E+03 -0.68433757880E+03  0.76042105043E+03  0.10566000000E+00 0.  1.
          4    1    3    3  502    0  0.75732447627E+03 -0.26126532273E+03  0.15500808831E+03  0.81598249899E+03  0.00000000000E+00 0.  1.
         13    1    4    4    0    0 -0.60223756088E+03  0.23417013753E+03 -0.79774924560E+03  0.10266107359E+04  0.10566000000E+00 0. -1.
         -4    1    4    4    0  501 -0.39962629084E+03  0.25097625828E+03  0.22831040014E+03  0.52422885590E+03  0.00000000000E+00 0. -1.
<mgrwt>
<rscale>  2 0.14635414E+04</rscale>
<asrwt>0</asrwt>
<pdfrwt beam="2">  1        1 0.32507780E+00 0.14635414E+04</pdfrwt>
<pdfrwt beam="1">  1       -1 0.15603653E+00 0.14635414E+04</pdfrwt>
<totfact> 0.95168469E-01</totfact>
</mgrwt>
</event>
<event>
 8    1  0.1439553E-005  0.1147090E+04  0.7818608E-02  0.8647506E-01
         -1   -1    0    0    0  501 -0.00000000000E+00  0.00000000000E+00  0.11782481967E+04  0.11782481967E+04  0.00000000000E+00 0. -1.
          1   -1    0    0  502    0  0.00000000000E+00 -0.00000000000E+00 -0.12278806280E+04  0.12278806280E+04  0.00000000000E+00 0.  1.
    9000010    2    1    2  502    0  0.36257194195E+03  0.42367275769E+03 -0.38680260116E+03  0.12171846149E+04  0.10104281844E+04 0.  0.
   -9000010    2    1    2    0  501 -0.36257194195E+03 -0.42367275769E+03  0.33717016989E+03  0.11889442098E+04  0.99445844155E+03 0.  0.
        -13    1    3    3    0    0 -0.43236878057E+02  0.48232979183E+03 -0.58693502605E+03  0.76092324953E+03  0.10566000000E+00 0.  1.
          4    1    3    3  502    0  0.40580882001E+03 -0.58657034134E+02  0.20013242489E+03  0.45626136538E+03  0.00000000000E+00 0.  1.
         13    1    4    4    0    0 -0.57018376167E+03 -0.21113121775E+03 -0.14270087010E+03  0.62453940042E+03  0.10566000000E+00 0. -1.
         -4    1    4    4    0  501  0.20761181972E+03 -0.21254153994E+03  0.47987103999E+03  0.56440480943E+03  0.00000000000E+00 0. -1.
<mgrwt>
<rscale>  2 0.11470902E+04</rscale>
<asrwt>0</asrwt>
<pdfrwt beam="2">  1        1 0.18890471E+00 0.11470902E+04</pdfrwt>
<pdfrwt beam="1">  1       -1 0.18126895E+00 0.11470902E+04</pdfrwt>
<totfact> 0.27742623E+00</totfact>
</mgrwt>
</event>
<event>
 8    1  0.1439553E-005  0.1518737E+04  0.7818608E-02  0.8398797E-01
          1   -1    0    0  502    0  0.00000000000E+00  0.00000000000E+00  0.15655781624E+04  0.15655781624E+04  0.00000000000E+00 0. -1.
         -1   -1    0    0    0  501 -0.00000000000E+00 -0.00000000000E+00 -0.14797732943E+04  0.14797732943E+04  0.00000000000E+00 0.  1.
    9000010    2    1    2  502    0 -0.33587161123E+03  0.11022058322E+04 -0.57795986367E+02  0.15208577653E+04  0.99095939891E+03 0.  0.
   -9000010    2    1    2    0  501  0.33587161123E+03 -0.11022058322E+04  0.14360085441E+03  0.15244936914E+04  0.98782203555E+03 0.  0.
        -13    1    3    3    0    0 -0.12567691538E+03  0.12473724879E+04  0.19922287429E+02  0.12538459712E+04  0.10566000000E+00 0.  1.
          4    1    3    3  502    0 -0.21019469585E+03 -0.14516665572E+03 -0.77718273796E+02  0.26701179408E+03  0.00000000000E+00 0.  1.
         13    1    4    4    0    0  0.63110730846E+03 -0.42272541960E+03  0.18731593438E+03  0.78235572831E+03  0.10566000000E+00 0. -1.
         -4    1    4    4    0  501 -0.29523569723E+03 -0.67948041263E+03 -0.43715079967E+02  0.74213796310E+03  0.00000000000E+00 0. -1.
<mgrwt>
<rscale>  2 0.15187369E+04</rscale>
<asrwt>0</asrwt>
<pdfrwt beam="1">  1        1 0.24085818E+00 0.15187369E+04</pdfrwt>
<pdfrwt beam="2">  1       -1 0.22765743E+00 0.15187369E+04</pdfrwt>
<totfact> 0.56236524E-01</totfact>
</mgrwt>
</event>
<event>
 8    1  0.1439553E-005  0.1613334E+04  0.7818608E-02  0.8347104E-01
         -2   -1    0    0    0  501 -0.00000000000E+00  0.00000000000E+00  0.28969044073E+04  0.28969044073E+04  0.00000000000E+00 0. -1.
          2   -1    0    0  502    0  0.00000000000E+00 -0.00000000000E+00 -0.10803953947E+04  0.10803953947E+04  0.00000000000E+00 0.  1.
    9000010    2    1    2  502    0  0.12758026433E+04  0.50438290811E+02  0.88396538678E+02  0.16073971987E+04  0.97246871440E+03 0.  0.
   -9000010    2    1    2    0  501 -0.12758026433E+04 -0.50438290811E+02  0.17281124739E+04  0.23699026033E+04  0.99992460782E+03 0.  0.
        -13    1    3    3    0    0  0.41762682247E+03  0.46417655002E+03 -0.11064010851E+03  0.63412402352E+03  0.10566000000E+00 0.  1.
          4    1    3    3  502    0  0.85817582079E+03 -0.41373825921E+03  0.19903664719E+03  0.97327317514E+03  0.00000000000E+00 0.  1.
         13    1    4    4    0    0  0.15526491048E+03 -0.10724953614E+03  0.22647088271E+03  0.29478590080E+03  0.10566000000E+00 0. -1.
         -4    1    4    4    0  501 -0.14310675537E+04  0.56811245333E+02  0.15016415912E+04  0.20751167026E+04  0.00000000000E+00 0. -1.
<mgrwt>
<rscale>  2 0.16133344E+04</rscale>
<asrwt>0</asrwt>
<pdfrwt beam="2">  1        2 0.16621468E+00 0.16133344E+04</pdfrwt>
<pdfrwt beam="1">  1       -2 0.44567760E+00 0.16133344E+04</pdfrwt>
<totfact> 0.97514820E-02</totfact>
</mgrwt>
</event>
<event>
 8    1  0.1439553E-005  0.2323404E+04  0.7818608E-02  0.8048132E-01
          2   -1    0    0  502    0  0.00000000000E+00  0.00000000000E+00  0.19191518479E+04  0.19191518479E+04  0.00000000000E+00 0. -1.
         -2   -1    0    0    0  501 -0.00000000000E+00 -0.00000000000E+00 -0.28171794373E+04  0.28171794373E+04  0.00000000000E+00 0.  1.
    9000010    2    1    2  502    0 -0.36517921123E+02  0.20962601015E+04 -0.35538345699E+03  0.23485780523E+04  0.99693605328E+03 0.  0.
   -9000010    2    1    2    0  501  0.36517921123E+02 -0.20962601015E+04 -0.54264413240E+03  0.23877532330E+04  0.10056156697E+04 0.  0.
        -13    1    3    3    0    0 -0.25723921360E+03  0.17046748572E+04  0.75882343508E+02  0.17256437996E+04  0.10566000000E+00 0.  1.
          4    1    3    3  502    0  0.22072129248E+03  0.39158524435E+03 -0.43126580050E+03  0.62293425273E+03  0.00000000000E+00 0.  1.
         13    1    4    4    0    0 -0.69528130203E+02 -0.19230554144E+04 -0.77910491603E+03  0.20760493176E+04  0.10566000000E+00 0. -1.
         -4    1    4    4    0  501  0.10604605133E+03 -0.17320468709E+03  0.23646078363E+03  0.31170391532E+03  0.00000000000E+00 0. -1.
<mgrwt>
<rscale>  2 0.23234038E+04</rscale>
<asrwt>0</asrwt>
<pdfrwt beam="1">  1        2 0.29525413E+00 0.23234038E+04</pdfrwt>
<pdfrwt beam="2">  1       -2 0.43341222E+00 0.23234038E+04</pdfrwt>
<totfact> 0.32575564E-02</totfact>
</mgrwt>
</event>
<event>
 8    1  0.1439553E-005  0.1260351E+04  0.7818608E-02  0.8562451E-01
         -2   -1    0    0    0  501 -0.00000000000E+00  0.00000000000E+00  0.78378826066E+03  0.78378826066E+03  0.00000000000E+00 0. -1.
          2   -1    0    0  502    0  0.00000000000E+00 -0.00000000000E+00 -0.22822943163E+04  0.22822943163E+04  0.00000000000E+00 0.  1.
    9000010    2    1    2  502    0 -0.30066879984E+03  0.73433680114E+03 -0.23124255100E+03  0.12719467758E+04  0.96681084937E+03 0.  0.
   -9000010    2    1    2    0  501  0.30066879984E+03 -0.73433680114E+03 -0.12672635047E+04  0.17941358012E+04  0.99162201369E+03 0.  0.
        -13    1    3    3    0    0  0.31640286893E+03  0.38463153058E+02 -0.90203292411E+02  0.33125041093E+03  0.10566000000E+00 0.  1.
          4    1    3    3  502    0 -0.61707166877E+03  0.69587364808E+03 -0.14103925859E+03  0.94069636491E+03  0.00000000000E+00 0.  1.
         13    1    4    4    0    0 -0.15959576314E+03 -0.59911495210E+03 -0.11402106160E+04  0.12978789595E+04  0.10566000000E+00 0. -1.
         -4    1    4    4    0  501  0.46026456298E+03 -0.13522184904E+03 -0.12705288866E+03  0.49625684167E+03  0.00000000000E+00 0. -1.
<mgrwt>
<rscale>  2 0.12603512E+04</rscale>
<asrwt>0</asrwt>
<pdfrwt beam="2">  1        2 0.35112220E+00 0.12603512E+04</pdfrwt>
<pdfrwt beam="1">  1       -2 0.12058281E+00 0.12603512E+04</pdfrwt>
<totfact> 0.36348527E+00</totfact>
</mgrwt>
</event>
<event>
 8    1  0.1439553E-005  0.1083879E+04  0.7818608E-02  0.8699542E-01
          1   -1    0    0  502    0  0.00000000000E+00  0.00000000000E+00  0.14499467050E+04  0.14499467050E+04  0.00000000000E+00 0.  1.
         -1   -1    0    0    0  501 -0.00000000000E+00 -0.00000000000E+00 -0.87449355855E+03  0.87449355855E+03  0.00000000000E+00 0. -1.
    9000010    2    1    2  502    0 -0.37444182219E+03  0.46929462264E+03 -0.32963358325E+02  0.10555742181E+04  0.86758643712E+03 0.  0.
   -9000010    2    1    2    0  501  0.37444182219E+03 -0.46929462264E+03  0.60841650480E+03  0.12688660455E+04  0.93776664315E+03 0.  0.
        -13    1    3    3    0    0 -0.35605234758E+03  0.33774326193E+03 -0.42027201397E+03  0.64612101195E+03  0.10566000000E+00 0.  1.
          4    1    3    3  502    0 -0.18389474610E+02  0.13155136071E+03  0.38730865565E+03  0.40945320614E+03  0.00000000000E+00 0.  1.
         13    1    4    4    0    0  0.10581206688E+03  0.28143562883E+03  0.76072258882E+02  0.31014384793E+03  0.10566000000E+00 0. -1.
         -4    1    4    4    0  501  0.26862975530E+03 -0.75073025147E+03  0.53234424592E+03  0.95872219754E+03  0.00000000000E+00 0. -1.
<mgrwt>
<rscale>  2 0.10838789E+04</rscale>
<asrwt>0</asrwt>
<pdfrwt beam="1">  1        1 0.22306872E+00 0.10838789E+04</pdfrwt>
<pdfrwt beam="2">  1       -1 0.13453747E+00 0.10838789E+04</pdfrwt>
<totfact> 0.48405365E+00</totfact>
</mgrwt>
</event>
<event>
 8    1  0.1439553E-005  0.1159943E+04  0.7818608E-02  0.8637352E-01
          2   -1    0    0  502    0  0.00000000000E+00  0.00000000000E+00  0.17596290372E+04  0.17596290372E+04  0.00000000000E+00 0. -1.
         -2   -1    0    0    0  501 -0.00000000000E+00 -0.00000000000E+00 -0.10359021234E+04  0.10359021234E+04  0.00000000000E+00 0.  1.
    9000010    2    1    2  502    0  0.55441185813E+03  0.21536388696E+03  0.10763186811E+04  0.15797994352E+04  0.99174101446E+03 0.  0.
   -9000010    2    1    2    0  501 -0.55441185813E+03 -0.21536388696E+03 -0.35259176733E+03  0.12157317255E+04  0.99996428023E+03 0.  0.
        -13    1    3    3    0    0  0.82801961389E+01  0.11235873726E+03  0.10143580427E+04  0.10205955602E+04  0.10566000000E+00 0.  1.
          4    1    3    3  502    0  0.54613166199E+03  0.10300514970E+03  0.61960638433E+02  0.55920387500E+03  0.00000000000E+00 0.  1.
         13    1    4    4    0    0 -0.22149311889E+03  0.36088736204E+02 -0.66025419162E+03  0.69735013251E+03  0.10566000000E+00 0. -1.
         -4    1    4    4    0  501 -0.33291873925E+03 -0.25145262316E+03  0.30766242428E+03  0.51838159299E+03  0.00000000000E+00 0. -1.
<mgrwt>
<rscale>  2 0.11599434E+04</rscale>
<asrwt>0</asrwt>
<pdfrwt beam="1">  1        2 0.27071216E+00 0.11599434E+04</pdfrwt>
<pdfrwt beam="2">  1       -2 0.15936956E+00 0.11599434E+04</pdfrwt>
<totfact> 0.31556698E+00</totfact>
</mgrwt>
</event>
<event>
 8    1  0.1439553E-005  0.1617700E+04  0.7818608E-02  0.8344807E-01
         -2   -1    0    0    0  501 -0.00000000000E+00  0.00000000000E+00  0.39327325817E+04  0.39327325817E+04  0.00000000000E+00 0. -1.
          2   -1    0    0  502    0  0.00000000000E+00 -0.00000000000E+00 -0.70530552626E+03  0.70530552626E+03  0.00000000000E+00 0.  1.
    9000010    2    1    2  502    0 -0.11874008842E+04  0.39026091080E+03  0.10824538528E+04  0.19636913316E+04  0.10593171689E+04 0.  0.
   -9000010    2    1    2    0  501  0.11874008842E+04 -0.39026091080E+03  0.21449732026E+04  0.26743467763E+04  0.99448288146E+03 0.  0.
        -13    1    3    3    0    0 -0.54493983524E+02  0.27224245847E+02 -0.20316156126E+03  0.21209758353E+03  0.10566000000E+00 0.  1.
          4    1    3    3  502    0 -0.11329069007E+04  0.36303666495E+03  0.12856154140E+04  0.17515937481E+04  0.00000000000E+00 0.  1.
         13    1    4    4    0    0  0.50633351999E+02 -0.42891512997E+03  0.83042648669E+03  0.93602354992E+03  0.10566000000E+00 0. -1.
         -4    1    4    4    0  501  0.11367675322E+04  0.38654219170E+02  0.13145467159E+04  0.17383232264E+04  0.00000000000E+00 0. -1.
<mgrwt>
<rscale>  2 0.16176997E+04</rscale>
<asrwt>0</asrwt>
<pdfrwt beam="2">  1        2 0.10850854E+00 0.16176997E+04</pdfrwt>
<pdfrwt beam="1">  1       -2 0.60503577E+00 0.16176997E+04</pdfrwt>
<totfact> 0.25625922E-01</totfact>
</mgrwt>
</event>
<event>
 8    1  0.1439553E-005  0.1090233E+04  0.7818608E-02  0.8694146E-01
         -2   -1    0    0    0  501 -0.00000000000E+00  0.00000000000E+00  0.65630360453E+03  0.65630360453E+03  0.00000000000E+00 0.  1.
          2   -1    0    0  502    0  0.00000000000E+00 -0.00000000000E+00 -0.18271804548E+04  0.18271804548E+04  0.00000000000E+00 0. -1.
    9000010    2    1    2  502    0  0.17353542335E+03  0.40693946815E+03 -0.70546690768E+03  0.13043955957E+04  0.10040169512E+04 0.  0.
   -9000010    2    1    2    0  501 -0.17353542335E+03 -0.40693946815E+03 -0.46540994262E+03  0.11790884637E+04  0.98890288532E+03 0.  0.
        -13    1    3    3    0    0 -0.24176352096E+03 -0.11072496245E+03  0.78480598507E+02  0.27725229103E+03  0.10566000000E+00 0.  1.
          4    1    3    3  502    0  0.41529894431E+03  0.51766443060E+03 -0.78394750619E+03  0.10271433047E+04  0.00000000000E+00 0.  1.
         13    1    4    4    0    0  0.26026969940E+03 -0.70032366857E+02  0.18565397425E+03  0.32728009129E+03  0.10566000000E+00 0. -1.
         -4    1    4    4    0  501 -0.43380512275E+03 -0.33690710129E+03 -0.65106391687E+03  0.85180837239E+03  0.00000000000E+00 0. -1.
<mgrwt>
<rscale>  2 0.10902332E+04</rscale>
<asrwt>0</asrwt>
<pdfrwt beam="2">  1        2 0.28110468E+00 0.10902332E+04</pdfrwt>
<pdfrwt beam="1">  1       -2 0.10096979E+00 0.10902332E+04</pdfrwt>
<totfact> 0.10266485E+01</totfact>
</mgrwt>
</event>
<event>
 8    1  0.1439553E-005  0.1031035E+04  0.7818608E-02  0.8745966E-01
         -1   -1    0    0    0  501 -0.00000000000E+00  0.00000000000E+00  0.43665055944E+03  0.43665055944E+03  0.00000000000E+00 0. -1.
          1   -1    0    0  502    0  0.00000000000E+00 -0.00000000000E+00 -0.27237222228E+04  0.27237222228E+04  0.00000000000E+00 0.  1.
    9000010    2    1    2  502    0 -0.32811453988E+02  0.24783835931E+03 -0.16614106059E+04  0.19569232772E+04  0.10033758357E+04 0.  0.
   -9000010    2    1    2    0  501  0.32811453988E+02 -0.24783835931E+03 -0.62566105747E+03  0.12034495050E+04  0.99716523630E+03 0.  0.
        -13    1    3    3    0    0  0.73215373361E+02  0.22121819112E+03  0.53049400383E+02  0.23898164997E+03  0.10566000000E+00 0.  1.
          4    1    3    3  502    0 -0.10602682735E+03  0.26620168191E+02 -0.17144600063E+04  0.17179416272E+04  0.00000000000E+00 0.  1.
         13    1    4    4    0    0  0.49228234471E+03  0.16756364064E+02 -0.24075105335E+03  0.54825519925E+03  0.10566000000E+00 0. -1.
         -4    1    4    4    0  501 -0.45947089073E+03 -0.26459472338E+03 -0.38491000412E+03  0.65519430579E+03  0.00000000000E+00 0. -1.
<mgrwt>
<rscale>  2 0.10310350E+04</rscale>
<asrwt>0</asrwt>
<pdfrwt beam="2">  1        1 0.41903419E+00 0.10310350E+04</pdfrwt>
<pdfrwt beam="1">  1       -1 0.67177009E-01 0.10310350E+04</pdfrwt>
<totfact> 0.20408448E+00</totfact>
</mgrwt>
</event>
<event>
 8    1  0.1439553E-005  0.1330746E+04  0.7818608E-02  0.8514117E-01
          2   -1    0    0  502    0  0.00000000000E+00  0.00000000000E+00  0.14765173132E+04  0.14765173132E+04  0.00000000000E+00 0. -1.
         -2   -1    0    0    0  501 -0.00000000000E+00 -0.00000000000E+00 -0.12042112145E+04  0.12042112145E+04  0.00000000000E+00 0.  1.
    9000010    2    1    2  502    0  0.17363850475E+03 -0.87194594030E+03  0.22041701303E+03  0.13433622853E+04  0.98264872498E+03 0.  0.
   -9000010    2    1    2    0  501 -0.17363850475E+03  0.87194594030E+03  0.51889085651E+02  0.13373662424E+04  0.99770533521E+03 0.  0.
        -13    1    3    3    0    0  0.48020492188E+03 -0.88960140395E+03  0.10940103160E+03  0.10168362807E+04  0.10566000000E+00 0.  1.
          4    1    3    3  502    0 -0.30656641713E+03  0.17655463654E+02  0.11101598144E+03  0.32652600455E+03  0.00000000000E+00 0.  1.
         13    1    4    4    0    0  0.40081535845E+03  0.53534654855E+03  0.60575697342E+02  0.67150450846E+03  0.10566000000E+00 0. -1.
         -4    1    4    4    0  501 -0.57445386320E+03  0.33659939175E+03 -0.86866116903E+01  0.66586173392E+03  0.00000000000E+00 0. -1.
<mgrwt>
<rscale>  2 0.13307459E+04</rscale>
<asrwt>0</asrwt>
<pdfrwt beam="1">  1        2 0.22715651E+00 0.13307459E+04</pdfrwt>
<pdfrwt beam="2">  1       -2 0.18526326E+00 0.13307459E+04</pdfrwt>
<totfact> 0.26786245E+00</totfact>
</mgrwt>
</event>
<event>
 8    1  0.1439553E-005  0.1061911E+04  0.7818608E-02  0.8718500E-01
         -2   -1    0    0    0  501 -0.00000000000E+00  0.00000000000E+00  0.94786695565E+03  0.94786695565E+03  0.00000000000E+00 0. -1.
          2   -1    0    0  502    0  0.00000000000E+00 -0.00000000000E+00 -0.11920083929E+04  0.11920083929E+04  0.00000000000E+00 0.  1.
    9000010    2    1    2  502    0  0.29544743119E+03 -0.30143460756E+03 -0.92296303109E+02  0.10270257517E+04  0.93172489496E+03 0.  0.
   -9000010    2    1    2    0  501 -0.29544743119E+03  0.30143460756E+03 -0.15184513416E+03  0.11128495969E+04  0.10184425724E+04 0.  0.
        -13    1    3    3    0    0  0.45898307229E+03 -0.25580141874E+03  0.29610261917E+03  0.60313895474E+03  0.10566000000E+00 0.  1.
          4    1    3    3  502    0 -0.16353564109E+03 -0.45633188817E+02 -0.38839892228E+03  0.42388679698E+03  0.00000000000E+00 0.  1.
         13    1    4    4    0    0  0.30196845341E+03  0.15754735445E+03  0.20960862392E+03  0.39992737107E+03  0.10566000000E+00 0. -1.
         -4    1    4    4    0  501 -0.59741588460E+03  0.14388725311E+03 -0.36145375808E+03  0.71292222578E+03  0.00000000000E+00 0. -1.
<mgrwt>
<rscale>  2 0.10619108E+04</rscale>
<asrwt>0</asrwt>
<pdfrwt beam="2">  1        2 0.18338591E+00 0.10619108E+04</pdfrwt>
<pdfrwt beam="1">  1       -2 0.14582568E+00 0.10619108E+04</pdfrwt>
<totfact> 0.86268806E+00</totfact>
</mgrwt>
</event>
<event>
 8    1  0.1439553E-005  0.1209416E+04  0.7818608E-02  0.8599505E-01
          2   -1    0    0  502    0  0.00000000000E+00  0.00000000000E+00  0.22978741844E+04  0.22978741844E+04  0.00000000000E+00 0.  1.
         -2   -1    0    0    0  501 -0.00000000000E+00 -0.00000000000E+00 -0.65042957612E+03  0.65042957612E+03  0.00000000000E+00 0. -1.
    9000010    2    1    2  502    0 -0.66929624965E+03 -0.20150400335E+02  0.60418231788E+03  0.13462395922E+04  0.99948049403E+03 0.  0.
   -9000010    2    1    2    0  501  0.66929624965E+03  0.20150400335E+02  0.10432622904E+04  0.16020641683E+04  0.10148151972E+04 0.  0.
        -13    1    3    3    0    0  0.18582291956E+03 -0.25496705839E+03  0.18002571940E+03  0.36324596228E+03  0.10566000000E+00 0.  1.
          4    1    3    3  502    0 -0.85511916921E+03  0.23481665805E+03  0.42415659847E+03  0.98299362993E+03  0.00000000000E+00 0.  1.
         13    1    4    4    0    0 -0.51789837722E+02 -0.31877034870E+03  0.46956837015E+02  0.32634594866E+03  0.10566000000E+00 0. -1.
         -4    1    4    4    0  501  0.72108608737E+03  0.33892074903E+03  0.99630545334E+03  0.12757182196E+04  0.00000000000E+00 0. -1.
<mgrwt>
<rscale>  2 0.12094162E+04</rscale>
<asrwt>0</asrwt>
<pdfrwt beam="1">  1        2 0.35351910E+00 0.12094162E+04</pdfrwt>
<pdfrwt beam="2">  1       -2 0.10006609E+00 0.12094162E+04</pdfrwt>
<totfact> 0.57321241E+00</totfact>
</mgrwt>
</event>
<event>
 8    1  0.1439553E-005  0.1842895E+04  0.7818608E-02  0.8235540E-01
         -1   -1    0    0    0  501 -0.00000000000E+00  0.00000000000E+00  0.25409289218E+04  0.25409289218E+04  0.00000000000E+00 0. -1.
          1   -1    0    0  502    0  0.00000000000E+00 -0.00000000000E+00 -0.13417011012E+04  0.13417011012E+04  0.00000000000E+00 0.  1.
    9000010    2    1    2  502    0 -0.14263641615E+04  0.62968942094E+03  0.48244603939E+03  0.19112293318E+04  0.99449479109E+03 0.  0.
   -9000010    2    1    2    0  501  0.14263641615E+04 -0.62968942094E+03  0.71678178121E+03  0.19714006913E+04  0.97037161732E+03 0.  0.
        -13    1    3    3    0    0 -0.14117126321E+04  0.72857524250E+03  0.64972110514E+03  0.17163600919E+04  0.10566000000E+00 0.  1.
          4    1    3    3  502    0 -0.14651529492E+02 -0.98885821560E+02 -0.16727506575E+03  0.19486923986E+03  0.00000000000E+00 0.  1.
         13    1    4    4    0    0 -0.25566973944E+02  0.14210953684E+02 -0.15625545079E+03  0.15896980351E+03  0.10566000000E+00 0. -1.
         -4    1    4    4    0  501  0.14519311355E+04 -0.64390037462E+03  0.87303723201E+03  0.18124308878E+04  0.00000000000E+00 0. -1.
<mgrwt>
<rscale>  2 0.18428948E+04</rscale>
<asrwt>0</asrwt>
<pdfrwt beam="2">  1        1 0.20641555E+00 0.18428948E+04</pdfrwt>
<pdfrwt beam="1">  1       -1 0.39091214E+00 0.18428948E+04</pdfrwt>
<totfact> 0.11665179E-01</totfact>
</mgrwt>
</event>
<event>
 8    1  0.1439553E-005  0.1137203E+04  0.7818608E-02  0.8655412E-01
          1   -1    0    0  502    0  0.00000000000E+00  0.00000000000E+00  0.20134270242E+04  0.20134270242E+04  0.00000000000E+00 0.  1.
         -1   -1    0    0    0  501 -0.00000000000E+00 -0.00000000000E+00 -0.78595407182E+03  0.78595407182E+03  0.00000000000E+00 0. -1.
    9000010    2    1    2  502    0 -0.29568691314E+03 -0.49903616684E+03  0.14798972234E+02  0.11360655978E+04  0.97670783071E+03 0.  0.
   -9000010    2    1    2    0  501  0.29568691314E+03  0.49903616684E+03  0.12126739801E+04  0.16633154982E+04  0.97957767328E+03 0.  0.
        -13    1    3    3    0    0  0.28528844296E+03 -0.47131273917E+03  0.51109641067E+02  0.55329684652E+03  0.10566000000E+00 0.  1.
          4    1    3    3  502    0 -0.58097535610E+03 -0.27723427667E+02 -0.36310668833E+02  0.58276875131E+03  0.00000000000E+00 0.  1.
         13    1    4    4    0    0  0.69892325493E+02  0.27244763850E+02  0.11315362492E+04  0.11340200654E+04  0.10566000000E+00 0. -1.
         -4    1    4    4    0  501  0.22579458765E+03  0.47179140299E+03  0.81137730898E+02  0.52929543274E+03  0.00000000000E+00 0. -1.
<mgrwt>
<rscale>  2 0.11372028E+04</rscale>
<asrwt>0</asrwt>
<pdfrwt beam="1">  1        1 0.30975800E+00 0.11372028E+04</pdfrwt>
<pdfrwt beam="2">  1       -1 0.12091601E+00 0.11372028E+04</pdfrwt>
<totfact> 0.24040747E+00</totfact>
</mgrwt>
</event>
<event>
 8    1  0.1439553E-005  0.1225709E+04  0.7818608E-02  0.8587450E-01
          2   -1    0    0  502    0  0.00000000000E+00  0.00000000000E+00  0.28109507188E+04  0.28109507188E+04  0.00000000000E+00 0.  1.
         -2   -1    0    0    0  501 -0.00000000000E+00 -0.00000000000E+00 -0.53810993757E+03  0.53810993757E+03  0.00000000000E+00 0. -1.
    9000010    2    1    2  502    0 -0.75202398607E+02  0.67812207685E+03  0.98616053379E+03  0.15613553428E+04  0.99990647375E+03 0.  0.
   -9000010    2    1    2    0  501  0.75202398607E+02 -0.67812207685E+03  0.12866802474E+04  0.17877053135E+04  0.10367445573E+04 0.  0.
        -13    1    3    3    0    0  0.42017594570E+01  0.65880957853E+02 -0.20736072258E+03  0.21761533912E+03  0.10566000000E+00 0.  1.
          4    1    3    3  502    0 -0.79404158064E+02  0.61224111900E+03  0.11935212564E+04  0.13437400037E+04  0.00000000000E+00 0.  1.
         13    1    4    4    0    0  0.37972958548E+03 -0.82049619622E+03  0.90840690547E+03  0.12816441328E+04  0.10566000000E+00 0. -1.
         -4    1    4    4    0  501 -0.30452718687E+03  0.14237411937E+03  0.37827334195E+03  0.50606118072E+03  0.00000000000E+00 0. -1.
<mgrwt>
<rscale>  2 0.12257091E+04</rscale>
<asrwt>0</asrwt>
<pdfrwt beam="1">  1        2 0.43245395E+00 0.12257091E+04</pdfrwt>
<pdfrwt beam="2">  1       -2 0.82786146E-01 0.12257091E+04</pdfrwt>
<totfact> 0.45404053E+00</totfact>
</mgrwt>
</event>
<event>
 8    1  0.1439553E-005  0.1166423E+04  0.7818608E-02  0.8632285E-01
         -2   -1    0    0    0  501 -0.00000000000E+00  0.00000000000E+00  0.17642790432E+04  0.17642790432E+04  0.00000000000E+00 0. -1.
          2   -1    0    0  502    0  0.00000000000E+00 -0.00000000000E+00 -0.86644190978E+03  0.86644190978E+03  0.00000000000E+00 0.  1.
    9000010    2    1    2  502    0 -0.43582917855E+03  0.34408269003E+03  0.89050716894E+03  0.14811060040E+04  0.10451468829E+04 0.  0.
   -9000010    2    1    2    0  501  0.43582917855E+03 -0.34408269003E+03  0.73299645003E+01  0.11496149490E+04  0.10065887105E+04 0.  0.
        -13    1    3    3    0    0 -0.45347910027E+03 -0.13831716438E+03  0.68031026140E+01  0.47415316693E+03  0.10566000000E+00 0.  1.
          4    1    3    3  502    0  0.17649921717E+02  0.48239985441E+03  0.88370406632E+03  0.10069528371E+04  0.00000000000E+00 0.  1.
         13    1    4    4    0    0  0.62475597516E+02 -0.54384868020E+03 -0.30202104271E+03  0.62521301062E+03  0.10566000000E+00 0. -1.
         -4    1    4    4    0  501  0.37335358103E+03  0.19976599017E+03  0.30935100721E+03  0.52440193836E+03  0.00000000000E+00 0. -1.
<mgrwt>
<rscale>  2 0.11664225E+04</rscale>
<asrwt>0</asrwt>
<pdfrwt beam="2">  1        2 0.13329876E+00 0.11664225E+04</pdfrwt>
<pdfrwt beam="1">  1       -2 0.27142754E+00 0.11664225E+04</pdfrwt>
<totfact> 0.12646808E+00</totfact>
</mgrwt>
</event>
<event>
 8    1  0.1439553E-005  0.1136501E+04  0.7818608E-02  0.8655977E-01
          1   -1    0    0  502    0  0.00000000000E+00  0.00000000000E+00  0.12901670579E+04  0.12901670579E+04  0.00000000000E+00 0. -1.
         -1   -1    0    0    0  501 -0.00000000000E+00 -0.00000000000E+00 -0.10197661256E+04  0.10197661256E+04  0.00000000000E+00 0.  1.
    9000010    2    1    2  502    0 -0.51398278055E+03  0.14970473434E+03 -0.21228937498E+02  0.11336335083E+04  0.99904176954E+03 0.  0.
   -9000010    2    1    2    0  501  0.51398278055E+03 -0.14970473434E+03  0.29162986976E+03  0.11762996751E+04  0.10060035480E+04 0.  0.
        -13    1    3    3    0    0 -0.76459770968E+03  0.14583961528E+03  0.19519188549E+03  0.80248285612E+03  0.10566000000E+00 0.  1.
          4    1    3    3  502    0  0.25061492914E+03  0.38651190696E+01 -0.21642082299E+03  0.33115065223E+03  0.00000000000E+00 0.  1.
         13    1    4    4    0    0 -0.86269093128E+02  0.25462238403E+03 -0.16981307640E+03  0.31798019901E+03  0.10566000000E+00 0. -1.
         -4    1    4    4    0  501  0.60025187368E+03 -0.40432711838E+03  0.46144294616E+03  0.85831947611E+03  0.00000000000E+00 0. -1.
<mgrwt>
<rscale>  2 0.11365011E+04</rscale>
<asrwt>0</asrwt>
<pdfrwt beam="1">  1        1 0.19848724E+00 0.11365011E+04</pdfrwt>
<pdfrwt beam="2">  1       -1 0.15688709E+00 0.11365011E+04</pdfrwt>
<totfact> 0.40569247E+00</totfact>
</mgrwt>
</event>
<event>
 8    1  0.1439553E-005  0.1357333E+04  0.7818608E-02  0.8496657E-01
          2   -1    0    0  502    0  0.00000000000E+00  0.00000000000E+00  0.14661908921E+04  0.14661908921E+04  0.00000000000E+00 0.  1.
         -2   -1    0    0    0  501 -0.00000000000E+00 -0.00000000000E+00 -0.12695087742E+04  0.12695087742E+04  0.00000000000E+00 0. -1.
    9000010    2    1    2  502    0 -0.17130382176E+03  0.89377725924E+03 -0.39915433197E+02  0.13565308537E+04  0.10051865135E+04 0.  0.
   -9000010    2    1    2    0  501  0.17130382176E+03 -0.89377725924E+03  0.23659755111E+03  0.13791688126E+04  0.10089328144E+04 0.  0.
        -13    1    3    3    0    0  0.11703885404E+03  0.16478714704E+03 -0.43425844612E+03  0.47899196901E+03  0.10566000000E+00 0.  1.
          4    1    3    3  502    0 -0.28834267580E+03  0.72899011220E+03  0.39434301292E+03  0.87753888473E+03  0.00000000000E+00 0.  1.
         13    1    4    4    0    0  0.88709525133E+02 -0.93271656366E+02 -0.35678962661E+03  0.37929913070E+03  0.10566000000E+00 0. -1.
         -4    1    4    4    0  501  0.82594296626E+02 -0.80050560288E+03  0.59338717772E+03  0.99986968188E+03  0.00000000000E+00 0. -1.
<mgrwt>
<rscale>  2 0.13573325E+04</rscale>
<asrwt>0</asrwt>
<pdfrwt beam="1">  1        2 0.22556783E+00 0.13573325E+04</pdfrwt>
<pdfrwt beam="2">  1       -2 0.19530904E+00 0.13573325E+04</pdfrwt>
<totfact> 0.22319662E+00</totfact>
</mgrwt>
</event>
<event>
 8    1  0.1439553E-005  0.1063488E+04  0.7818608E-02  0.8717123E-01
         -2   -1    0    0    0  501 -0.00000000000E+00  0.00000000000E+00  0.47564057117E+03  0.47564057117E+03  0.00000000000E+00 0. -1.
          2   -1    0    0  502    0  0.00000000000E+00 -0.00000000000E+00 -0.23905131894E+04  0.23905131894E+04  0.00000000000E+00 0.  1.
    9000010    2    1    2  502    0 -0.33483073247E+03 -0.98409557164E+02 -0.85289258186E+03  0.13629985256E+04  0.10042624977E+04 0.  0.
   -9000010    2    1    2    0  501  0.33483073247E+03  0.98409557164E+02 -0.10619800364E+04  0.15031552350E+04  0.10049268642E+04 0.  0.
        -13    1    3    3    0    0 -0.19469012789E+03 -0.20548923199E+03  0.16653537786E+03  0.32842672487E+03  0.10566000000E+00 0.  1.
          4    1    3    3  502    0 -0.14014060458E+03  0.10707967483E+03 -0.10194279597E+04  0.10345718007E+04  0.00000000000E+00 0.  1.
         13    1    4    4    0    0  0.20772755261E+03 -0.39195678159E+03 -0.84030042672E+03  0.95020296414E+03  0.10566000000E+00 0. -1.
         -4    1    4    4    0  501  0.12710317986E+03  0.49036633875E+03 -0.22167960967E+03  0.55295227086E+03  0.00000000000E+00 0. -1.
<mgrwt>
<rscale>  2 0.10634879E+04</rscale>
<asrwt>0</asrwt>
<pdfrwt beam="2">  1        2 0.36777125E+00 0.10634879E+04</pdfrwt>
<pdfrwt beam="1">  1       -2 0.73175474E-01 0.10634879E+04</pdfrwt>
<totfact> 0.10504334E+01</totfact>
</mgrwt>
</event>
<event>
 8    1  0.1439553E-005  0.1845510E+04  0.7818608E-02  0.8234367E-01
         -2   -1    0    0    0  501 -0.00000000000E+00  0.00000000000E+00  0.12887597650E+04  0.12887597650E+04  0.00000000000E+00 0. -1.
          2   -1    0    0  502    0  0.00000000000E+00 -0.00000000000E+00 -0.26506974964E+04  0.26506974964E+04  0.00000000000E+00 0.  1.
    9000010    2    1    2  502    0 -0.20183100760E+03  0.15382797024E+04 -0.57534927964E+03  0.19380295673E+04  0.10089061460E+04 0.  0.
   -9000010    2    1    2    0  501  0.20183100760E+03 -0.15382797024E+04 -0.78658845177E+03  0.20014276942E+04  0.98992485778E+03 0.  0.
        -13    1    3    3    0    0 -0.39168353629E+03  0.12137014182E+04 -0.30102229729E+02  0.12756932549E+04  0.10566000000E+00 0.  1.
          4    1    3    3  502    0  0.18985252869E+03  0.32457828423E+03 -0.54524704991E+03  0.66233631237E+03  0.00000000000E+00 0.  1.
         13    1    4    4    0    0 -0.30919340160E+02 -0.15915471296E+04 -0.75069238718E+03  0.17599765177E+04  0.10566000000E+00 0. -1.
         -4    1    4    4    0  501  0.23275034776E+03  0.53267427207E+02 -0.35896064597E+02  0.24145117651E+03  0.00000000000E+00 0. -1.
<mgrwt>
<rscale>  2 0.18455104E+04</rscale>
<asrwt>0</asrwt>
<pdfrwt beam="2">  1        2 0.40779961E+00 0.18455104E+04</pdfrwt>
<pdfrwt beam="1">  1       -2 0.19827073E+00 0.18455104E+04</pdfrwt>
<totfact> 0.44354602E-01</totfact>
</mgrwt>
</event>
<event>
 8    1  0.1439553E-005  0.1566399E+04  0.7818608E-02  0.8372279E-01
          1   -1    0    0  502    0  0.00000000000E+00  0.00000000000E+00  0.15767548951E+04  0.15767548951E+04  0.00000000000E+00 0. -1.
         -1   -1    0    0    0  501 -0.00000000000E+00 -0.00000000000E+00 -0.28518261490E+04  0.28518261490E+04  0.00000000000E+00 0.  1.
    9000010    2    1    2  502    0 -0.12070210569E+04  0.98013550983E+02 -0.21318527320E+04  0.26502836841E+04  0.10063304861E+04 0.  0.
   -9000010    2    1    2    0  501  0.12070210569E+04 -0.98013550983E+02  0.85678147808E+03  0.17782973601E+04  0.98069389297E+03 0.  0.
        -13    1    3    3    0    0 -0.71847657555E+03  0.52043111382E+03 -0.15238059791E+04  0.17632475172E+04  0.10566000000E+00 0.  1.
          4    1    3    3  502    0 -0.48854448134E+03 -0.42241756283E+03 -0.60804675286E+03  0.88703616685E+03  0.00000000000E+00 0.  1.
         13    1    4    4    0    0  0.80744361435E+03 -0.53221952186E+03  0.56492444633E+03  0.11199832369E+04  0.10566000000E+00 0. -1.
         -4    1    4    4    0  501  0.39957744254E+03  0.43420597088E+03  0.29185703175E+03  0.65831412313E+03  0.00000000000E+00 0. -1.
<mgrwt>
<rscale>  2 0.15663988E+04</rscale>
<asrwt>0</asrwt>
<pdfrwt beam="1">  1        1 0.24257768E+00 0.15663988E+04</pdfrwt>
<pdfrwt beam="2">  1       -1 0.43874248E+00 0.15663988E+04</pdfrwt>
<totfact> 0.80425316E-02</totfact>
</mgrwt>
</event>
<event>
 8    1  0.1439553E-005  0.1740947E+04  0.7818608E-02  0.8282895E-01
         -2   -1    0    0    0  501 -0.00000000000E+00  0.00000000000E+00  0.99953936192E+03  0.99953936192E+03  0.00000000000E+00 0.  1.
          2   -1    0    0  502    0  0.00000000000E+00 -0.00000000000E+00 -0.32193839411E+04  0.32193839411E+04  0.00000000000E+00 0. -1.
    9000010    2    1    2  502    0  0.12938968378E+04 -0.59072802735E+03 -0.60285914379E+03  0.18446573647E+04  0.10080639944E+04 0.  0.
   -9000010    2    1    2    0  501 -0.12938968378E+04  0.59072802735E+03 -0.16169854354E+04  0.23742659383E+04  0.99968405919E+03 0.  0.
        -13    1    3    3    0    0  0.80896404497E+03 -0.81638559607E+03 -0.62706647640E+03  0.13092443028E+04  0.10566000000E+00 0.  1.
          4    1    3    3  502    0  0.48493279285E+03  0.22565756872E+03  0.24207332609E+02  0.53541306190E+03  0.00000000000E+00 0.  1.
         13    1    4    4    0    0 -0.10538703143E+04  0.82993318957E+03 -0.10101896900E+04  0.16792602417E+04  0.10566000000E+00 0. -1.
         -4    1    4    4    0  501 -0.24002652352E+03 -0.23920516221E+03 -0.60679574538E+03  0.69500569654E+03  0.00000000000E+00 0. -1.
<mgrwt>
<rscale>  2 0.17409473E+04</rscale>
<asrwt>0</asrwt>
<pdfrwt beam="2">  1        2 0.49528984E+00 0.17409473E+04</pdfrwt>
<pdfrwt beam="1">  1       -2 0.15377529E+00 0.17409473E+04</pdfrwt>
<totfact> 0.47603194E-01</totfact>
</mgrwt>
</event>
<event>
 8    1  0.1439553E-005  0.1291143E+04  0.7818608E-02  0.8540918E-01
          2   -1    0    0  502    0  0.00000000000E+00  0.00000000000E+00  0.15042467744E+04  0.15042467744E+04  0.00000000000E+00 0. -1.
         -2   -1    0    0    0  501 -0.00000000000E+00 -0.00000000000E+00 -0.11587062568E+04  0.11587062568E+04  0.00000000000E+00 0.  1.
    9000010    2    1    2  502    0 -0.78184391297E+03 -0.24807258645E+03 -0.10476195311E+03  0.12981617531E+04  0.10007142240E+04 0.  0.
   -9000010    2    1    2    0  501  0.78184391297E+03  0.24807258645E+03  0.45030247077E+03  0.13647912781E+04  0.99351044538E+03 0.  0.
        -13    1    3    3    0    0 -0.30749569866E+03 -0.55174518502E+03  0.19378457261E+03  0.66070328108E+03  0.10566000000E+00 0.  1.
          4    1    3    3  502    0 -0.47434821432E+03  0.30367259858E+03 -0.29854652572E+03  0.63745847203E+03  0.00000000000E+00 0.  1.
         13    1    4    4    0    0  0.82914591727E+03  0.46239905258E+03  0.57739890489E+03  0.11111639584E+04  0.10566000000E+00 0. -1.
         -4    1    4    4    0  501 -0.47302004299E+02 -0.21432646613E+03 -0.12709643412E+03  0.25362731963E+03  0.00000000000E+00 0. -1.
<mgrwt>
<rscale>  2 0.12911431E+04</rscale>
<asrwt>0</asrwt>
<pdfrwt beam="1">  1        2 0.23142258E+00 0.12911431E+04</pdfrwt>
<pdfrwt beam="2">  1       -2 0.17826250E+00 0.12911431E+04</pdfrwt>
<totfact> 0.29691794E+00</totfact>
</mgrwt>
</event>
<event>
 8    1  0.1439553E-005  0.1231875E+04  0.7818608E-02  0.8582939E-01
          2   -1    0    0  502    0  0.00000000000E+00  0.00000000000E+00  0.21263376768E+04  0.21263376768E+04  0.00000000000E+00 0.  1.
         -2   -1    0    0    0  501 -0.00000000000E+00 -0.00000000000E+00 -0.83991975655E+03  0.83991975655E+03  0.00000000000E+00 0. -1.
    9000010    2    1    2  502    0  0.70471937469E+03  0.27172238539E+03  0.12073191575E+04  0.17086195972E+04  0.94408629280E+03 0.  0.
   -9000010    2    1    2    0  501 -0.70471937469E+03 -0.27172238539E+03  0.79098762727E+02  0.12576378361E+04  0.10024638949E+04 0.  0.
        -13    1    3    3    0    0  0.40356699790E+03 -0.33811619033E+03  0.58048021896E+03  0.78367478951E+03  0.10566000000E+00 0.  1.
          4    1    3    3  502    0  0.30115237679E+03  0.60983857572E+03  0.62683893852E+03  0.92494480772E+03  0.00000000000E+00 0.  1.
         13    1    4    4    0    0 -0.60388380700E+03  0.29587021904E+03  0.10479386400E+03  0.68058548616E+03  0.10566000000E+00 0. -1.
         -4    1    4    4    0  501 -0.10083556769E+03 -0.56759260442E+03 -0.25695101275E+02  0.57705234991E+03  0.00000000000E+00 0. -1.
<mgrwt>
<rscale>  2 0.12318748E+04</rscale>
<asrwt>0</asrwt>
<pdfrwt beam="1">  1        2 0.32712887E+00 0.12318748E+04</pdfrwt>
<pdfrwt beam="2">  1       -2 0.12921843E+00 0.12318748E+04</pdfrwt>
<totfact> 0.36818868E+00</totfact>
</mgrwt>
</event>
<event>
 8    1  0.1439553E-005  0.1508252E+04  0.7818608E-02  0.8404765E-01
         -2   -1    0    0    0  501 -0.00000000000E+00  0.00000000000E+00  0.10067154966E+04  0.10067154966E+04  0.00000000000E+00 0.  1.
          2   -1    0    0  502    0  0.00000000000E+00 -0.00000000000E+00 -0.25052960473E+04  0.25052960473E+04  0.00000000000E+00 0. -1.
    9000010    2    1    2  502    0 -0.60199532688E+03  0.91191441065E+03 -0.13026594928E+04  0.19990094958E+04  0.10512520841E+04 0.  0.
   -9000010    2    1    2    0  501  0.60199532688E+03 -0.91191441065E+03 -0.19592105793E+03  0.15130020480E+04  0.10280096645E+04 0.  0.
        -13    1    3    3    0    0 -0.48835243329E+03  0.81990307865E+03 -0.32151030118E+03  0.10070243505E+04  0.10566000000E+00 0.  1.
          4    1    3    3  502    0 -0.11364289358E+03  0.92011332004E+02 -0.98114919161E+03  0.99198514539E+03  0.00000000000E+00 0.  1.
         13    1    4    4    0    0  0.66505359190E+02  0.73099503497E+02 -0.36591620475E+03  0.37902662212E+03  0.10566000000E+00 0. -1.
         -4    1    4    4    0  501  0.53548996769E+03 -0.98501391415E+03  0.16999514682E+03  0.11339754259E+04  0.00000000000E+00 0. -1.
<mgrwt>
<rscale>  2 0.15082524E+04</rscale>
<asrwt>0</asrwt>
<pdfrwt beam="2">  1        2 0.38543016E+00 0.15082524E+04</pdfrwt>
<pdfrwt beam="1">  1       -2 0.15487931E+00 0.15082524E+04</pdfrwt>
<totfact> 0.12947486E+00</totfact>
</mgrwt>
</event>
<event>
 8    1  0.1439553E-005  0.1224684E+04  0.7818608E-02  0.8588203E-01
         -2   -1    0    0    0  501 -0.00000000000E+00  0.00000000000E+00  0.10771706225E+04  0.10771706225E+04  0.00000000000E+00 0. -1.
          2   -1    0    0  502    0  0.00000000000E+00 -0.00000000000E+00 -0.17880592064E+04  0.17880592064E+04  0.00000000000E+00 0.  1.
    9000010    2    1    2  502    0 -0.61631793684E+02 -0.67690861490E+03  0.32087901572E+03  0.12552094857E+04  0.10052779513E+04 0.  0.
   -9000010    2    1    2    0  501  0.61631793684E+02  0.67690861490E+03 -0.10317675997E+04  0.16100203431E+04  0.10322874477E+04 0.  0.
        -13    1    3    3    0    0 -0.10084647153E+03  0.25830170416E+03  0.64281784310E+02  0.28464353172E+03  0.10566000000E+00 0.  1.
          4    1    3    3  502    0  0.39214677846E+02 -0.93521031906E+03  0.25659723141E+03  0.97056595397E+03  0.00000000000E+00 0.  1.
         13    1    4    4    0    0  0.23879810478E+03  0.58619624600E+03 -0.80400707501E+02  0.63805552940E+03  0.10566000000E+00 0. -1.
         -4    1    4    4    0  501 -0.17716631109E+03  0.90712368900E+02 -0.95136689216E+03  0.97196481374E+03  0.00000000000E+00 0. -1.
<mgrwt>
<rscale>  2 0.12246844E+04</rscale>
<asrwt>0</asrwt>
<pdfrwt beam="2">  1        2 0.27508603E+00 0.12246844E+04</pdfrwt>
<pdfrwt beam="1">  1       -2 0.16571856E+00 0.12246844E+04</pdfrwt>
<totfact> 0.26671767E+00</totfact>
</mgrwt>
</event>
<event>
 8    1  0.1439553E-005  0.1700285E+04  0.7818608E-02  0.8302721E-01
         -1   -1    0    0    0  501 -0.00000000000E+00  0.00000000000E+00  0.14227053425E+04  0.14227053425E+04  0.00000000000E+00 0.  1.
          1   -1    0    0  502    0  0.00000000000E+00 -0.00000000000E+00 -0.20884345139E+04  0.20884345139E+04  0.00000000000E+00 0. -1.
    9000010    2    1    2  502    0 -0.99450709549E+03  0.96157419833E+03 -0.43504969492E+02  0.16963110466E+04  0.98076968888E+03 0.  0.
   -9000010    2    1    2    0  501  0.99450709549E+03 -0.96157419833E+03 -0.62222420192E+03  0.18148288097E+04  0.99637911924E+03 0.  0.
        -13    1    3    3    0    0 -0.65866395819E+03 -0.14946900745E+02 -0.75578176060E+02  0.66315434970E+03  0.10566000000E+00 0.  1.
          4    1    3    3  502    0 -0.33584313730E+03  0.97652109908E+03  0.32073206568E+02  0.10331566969E+04  0.00000000000E+00 0.  1.
         13    1    4    4    0    0 -0.12457277692E+03 -0.46201244991E+03 -0.14994065990E+03  0.50145397922E+03  0.10566000000E+00 0. -1.
         -4    1    4    4    0  501  0.11190798724E+04 -0.49956174842E+03 -0.47228354202E+03  0.13133748305E+04  0.00000000000E+00 0. -1.
<mgrwt>
<rscale>  2 0.17002848E+04</rscale>
<asrwt>0</asrwt>
<pdfrwt beam="2">  1        1 0.32129762E+00 0.17002848E+04</pdfrwt>
<pdfrwt beam="1">  1       -1 0.21887775E+00 0.17002848E+04</pdfrwt>
<totfact> 0.26691937E-01</totfact>
</mgrwt>
</event>
<event>
 8    1  0.1439553E-005  0.1728532E+04  0.7818608E-02  0.8288889E-01
          2   -1    0    0  502    0  0.00000000000E+00  0.00000000000E+00  0.26581637360E+04  0.26581637360E+04  0.00000000000E+00 0. -1.
         -2   -1    0    0    0  501 -0.00000000000E+00 -0.00000000000E+00 -0.11449133393E+04  0.11449133393E+04  0.00000000000E+00 0.  1.
    9000010    2    1    2  502    0 -0.12057211319E+04 -0.72317505818E+03  0.10134127518E+04  0.20034925876E+04  0.10051027461E+04 0.  0.
   -9000010    2    1    2    0  501  0.12057211319E+04  0.72317505818E+03  0.49983764489E+03  0.17995844877E+04  0.10059428634E+04 0.  0.
        -13    1    3    3    0    0 -0.12053465102E+04 -0.66974508530E+03  0.46904690125E+03  0.14565107949E+04  0.10566000000E+00 0.  1.
          4    1    3    3  502    0 -0.37462179424E+00 -0.53429972881E+02  0.54436585052E+03  0.54698179271E+03  0.00000000000E+00 0.  1.
         13    1    4    4    0    0  0.46709690002E+03 -0.14045140605E+03  0.44755795940E+03  0.66197752957E+03  0.10566000000E+00 0. -1.
         -4    1    4    4    0  501  0.73862423193E+03  0.86362646423E+03  0.52279685490E+02  0.11376069581E+04  0.00000000000E+00 0. -1.
<mgrwt>
<rscale>  2 0.17285317E+04</rscale>
<asrwt>0</asrwt>
<pdfrwt beam="1">  1        2 0.40894827E+00 0.17285317E+04</pdfrwt>
<pdfrwt beam="2">  1       -2 0.17614051E+00 0.17285317E+04</pdfrwt>
<totfact> 0.68004207E-01</totfact>
</mgrwt>
</event>
<event>
 8    1  0.1439553E-005  0.1504533E+04  0.7818608E-02  0.8406895E-01
         -2   -1    0    0    0  501 -0.00000000000E+00  0.00000000000E+00  0.57682357678E+03  0.57682357678E+03  0.00000000000E+00 0.  1.
          2   -1    0    0  502    0  0.00000000000E+00 -0.00000000000E+00 -0.42166511992E+04  0.42166511992E+04  0.00000000000E+00 0. -1.
    9000010    2    1    2  502    0 -0.17006237353E+03 -0.11194617137E+04 -0.24438793857E+04  0.28665956413E+04  0.98117703799E+03 0.  0.
   -9000010    2    1    2    0  501  0.17006237353E+03  0.11194617137E+04 -0.11959482367E+04  0.19268791346E+04  0.10002276116E+04 0.  0.
        -13    1    3    3    0    0 -0.17662928437E+03 -0.60651975326E+03 -0.37406304045E+03  0.73415753391E+03  0.10566000000E+00 0.  1.
          4    1    3    3  502    0  0.65669108347E+01 -0.51294196046E+03 -0.20698163452E+04  0.21324381074E+04  0.00000000000E+00 0.  1.
         13    1    4    4    0    0 -0.84902467325E+02  0.85403827972E+03 -0.12877641552E+04  0.15475549563E+04  0.10566000000E+00 0. -1.
         -4    1    4    4    0  501  0.25496484086E+03  0.26542343401E+03  0.91815918433E+02  0.37932417834E+03  0.00000000000E+00 0. -1.
<mgrwt>
<rscale>  2 0.15045328E+04</rscale>
<asrwt>0</asrwt>
<pdfrwt beam="2">  1        2 0.64871556E+00 0.15045328E+04</pdfrwt>
<pdfrwt beam="1">  1       -2 0.88742090E-01 0.15045328E+04</pdfrwt>
<totfact> 0.33038396E-01</totfact>
</mgrwt>
</event>
<event>
 8    1  0.1439553E-005  0.1201691E+04  0.7818608E-02  0.8605290E-01
         -2   -1    0    0    0  501 -0.00000000000E+00  0.00000000000E+00  0.53340649060E+03  0.53340649060E+03  0.00000000000E+00 0. -1.
          2   -1    0    0  502    0  0.00000000000E+00 -0.00000000000E+00 -0.27280868889E+04  0.27280868889E+04  0.00000000000E+00 0.  1.
    9000010    2    1    2  502    0  0.47447071846E+03  0.69212195897E+03 -0.11214803350E+04  0.17171015132E+04  0.99325938015E+03 0.  0.
   -9000010    2    1    2    0  501 -0.47447071846E+03 -0.69212195897E+03 -0.10732000633E+04  0.15443918663E+04  0.72748373998E+03 0.  0.
        -13    1    3    3    0    0  0.29965110871E+02 -0.25165363323E+03 -0.17017013408E+03  0.30526274697E+03  0.10566000000E+00 0.  1.
          4    1    3    3  502    0  0.44450560758E+03  0.94377559220E+03 -0.95131020088E+03  0.14118387663E+04  0.00000000000E+00 0.  1.
         13    1    4    4    0    0 -0.51988318110E+03 -0.11694794807E+03 -0.54349993305E+03  0.76114882443E+03  0.10566000000E+00 0. -1.
         -4    1    4    4    0  501  0.45412462647E+02 -0.57517401090E+03 -0.52970013027E+03  0.78324304183E+03  0.00000000000E+00 0. -1.
<mgrwt>
<rscale>  2 0.12016910E+04</rscale>
<asrwt>0</asrwt>
<pdfrwt beam="2">  1        2 0.41970567E+00 0.12016910E+04</pdfrwt>
<pdfrwt beam="1">  1       -2 0.82062538E-01 0.12016910E+04</pdfrwt>
<totfact> 0.51945360E+00</totfact>
</mgrwt>
</event>
<event>
 8    1  0.1439553E-005  0.2202845E+04  0.7818608E-02  0.8090467E-01
         -1   -1    0    0    0  501 -0.00000000000E+00  0.00000000000E+00  0.29253860061E+04  0.29253860061E+04  0.00000000000E+00 0.  1.
          1   -1    0    0  502    0  0.00000000000E+00 -0.00000000000E+00 -0.17975646697E+04  0.17975646697E+04  0.00000000000E+00 0. -1.
    9000010    2    1    2  502    0  0.19012758571E+04 -0.47765479022E+03 -0.91701743376E+02  0.22072158397E+04  0.10101428462E+04 0.  0.
   -9000010    2    1    2    0  501 -0.19012758571E+04  0.47765479022E+03  0.12195230798E+04  0.25157348362E+04  0.99934040272E+03 0.  0.
        -13    1    3    3    0    0  0.84052588985E+02  0.23305259577E+03 -0.63498622107E+02  0.25575464079E+03  0.10566000000E+00 0.  1.
          4    1    3    3  502    0  0.18172232681E+04 -0.71070738600E+03 -0.28203121269E+02  0.19514611989E+04  0.00000000000E+00 0.  1.
         13    1    4    4    0    0 -0.99579686283E+03  0.58969246447E+03  0.24919730758E+03  0.11838276496E+04  0.10566000000E+00 0. -1.
         -4    1    4    4    0  501 -0.90547899427E+03 -0.11203767424E+03  0.97032577221E+03  0.13319071866E+04  0.00000000000E+00 0. -1.
<mgrwt>
<rscale>  2 0.22028451E+04</rscale>
<asrwt>0</asrwt>
<pdfrwt beam="2">  1        1 0.27654841E+00 0.22028451E+04</pdfrwt>
<pdfrwt beam="1">  1       -1 0.45005938E+00 0.22028451E+04</pdfrwt>
<totfact> 0.50554765E-02</totfact>
</mgrwt>
</event>
<event>
 8    1  0.1439553E-005  0.1330616E+04  0.7818608E-02  0.8514203E-01
         -2   -1    0    0    0  501 -0.00000000000E+00  0.00000000000E+00  0.96122677861E+03  0.96122677861E+03  0.00000000000E+00 0. -1.
          2   -1    0    0  502    0  0.00000000000E+00 -0.00000000000E+00 -0.39676982813E+04  0.39676982813E+04  0.00000000000E+00 0.  1.
    9000010    2    1    2  502    0 -0.63377457857E+03 -0.60755239686E+03 -0.33006731682E+04  0.35543042399E+04  0.98379120492E+03 0.  0.
   -9000010    2    1    2    0  501  0.63377457857E+03  0.60755239686E+03  0.29420166552E+03  0.13746208200E+04  0.10159909682E+04 0.  0.
        -13    1    3    3    0    0 -0.39755208757E+03 -0.33341514295E+03 -0.30947485792E+04  0.31379423353E+04  0.10566000000E+00 0.  1.
          4    1    3    3  502    0 -0.23622249100E+03 -0.27413725391E+03 -0.20592458899E+03  0.41636190459E+03  0.00000000000E+00 0.  1.
         13    1    4    4    0    0  0.40001617140E+03  0.11155343185E+03  0.61295059382E+03  0.74038202785E+03  0.10566000000E+00 0. -1.
         -4    1    4    4    0  501  0.23375840718E+03  0.49599896501E+03 -0.31874892830E+03  0.63423879218E+03  0.00000000000E+00 0. -1.
<mgrwt>
<rscale>  2 0.13306160E+04</rscale>
<asrwt>0</asrwt>
<pdfrwt beam="2">  1        2 0.61041512E+00 0.13306160E+04</pdfrwt>
<pdfrwt beam="1">  1       -2 0.14788104E+00 0.13306160E+04</pdfrwt>
<totfact> 0.15039756E-01</totfact>
</mgrwt>
</event>
<event>
 8    1  0.1439553E-005  0.1060316E+04  0.7818608E-02  0.8719895E-01
         -2   -1    0    0    0  501 -0.00000000000E+00  0.00000000000E+00  0.40761574968E+03  0.40761574968E+03  0.00000000000E+00 0. -1.
          2   -1    0    0  502    0  0.00000000000E+00 -0.00000000000E+00 -0.29163677474E+04  0.29163677474E+04  0.00000000000E+00 0.  1.
    9000010    2    1    2  502    0  0.21840574048E+03 -0.21614856415E+03 -0.16178979708E+04  0.19236318399E+04  0.99415508963E+03 0.  0.
   -9000010    2    1    2    0  501 -0.21840574048E+03  0.21614856415E+03 -0.89085402696E+03  0.14003516572E+04  0.10358294248E+04 0.  0.
        -13    1    3    3    0    0  0.17106914454E+03 -0.61522595287E+03 -0.97880894639E+03  0.11686892615E+04  0.10566000000E+00 0.  1.
          4    1    3    3  502    0  0.47336595943E+02  0.39907738872E+03 -0.63908902440E+03  0.75494257835E+03  0.00000000000E+00 0.  1.
         13    1    4    4    0    0 -0.43249520908E+03 -0.28729650494E+03 -0.32118947425E+03  0.61053589342E+03  0.10566000000E+00 0. -1.
         -4    1    4    4    0  501  0.21408946860E+03  0.50344506909E+03 -0.56966455272E+03  0.78981576382E+03  0.00000000000E+00 0. -1.
<mgrwt>
<rscale>  2 0.10603157E+04</rscale>
<asrwt>0</asrwt>
<pdfrwt beam="2">  1        2 0.44867197E+00 0.10603157E+04</pdfrwt>
<pdfrwt beam="1">  1       -2 0.62710114E-01 0.10603157E+04</pdfrwt>
<totfact> 0.72081685E+00</totfact>
</mgrwt>
</event>
<event>
 8    1  0.1439553E-005  0.1181149E+04  0.7818608E-02  0.8620894E-01
         -2   -1    0    0    0  501 -0.00000000000E+00  0.00000000000E+00  0.13124219024E+04  0.13124219024E+04  0.00000000000E+00 0.  1.
          2   -1    0    0  502    0  0.00000000000E+00 -0.00000000000E+00 -0.10718100690E+04  0.10718100690E+04  0.00000000000E+00 0. -1.
    9000010    2    1    2  502    0  0.59442184305E+03  0.51717675972E+02  0.11726189093E+02  0.11712767114E+04  0.10078390674E+04 0.  0.
   -9000010    2    1    2    0  501 -0.59442184305E+03 -0.51717675972E+02  0.22888564431E+03  0.12129552599E+04  0.10309509100E+04 0.  0.
        -13    1    3    3    0    0  0.59078381380E+03  0.41409253518E+02 -0.42844995228E+03  0.73096485120E+03  0.10566000000E+00 0.  1.
          4    1    3    3  502    0  0.36380292562E+01  0.10308422454E+02  0.44017614137E+03  0.44031186023E+03  0.00000000000E+00 0.  1.
         13    1    4    4    0    0 -0.46103975121E+03  0.19418227068E+03  0.57875476435E+03  0.76499770905E+03  0.10566000000E+00 0. -1.
         -4    1    4    4    0  501 -0.13338209185E+03 -0.24589994665E+03 -0.34986912003E+03  0.44795755083E+03  0.00000000000E+00 0. -1.
<mgrwt>
<rscale>  2 0.11811489E+04</rscale>
<asrwt>0</asrwt>
<pdfrwt beam="2">  1        2 0.16489386E+00 0.11811489E+04</pdfrwt>
<pdfrwt beam="1">  1       -2 0.20191106E+00 0.11811489E+04</pdfrwt>
<totfact> 0.33519156E+00</totfact>
</mgrwt>
</event>
<event>
 8    1  0.1439553E-005  0.1231814E+04  0.7818608E-02  0.8582983E-01
          2   -1    0    0  502    0  0.00000000000E+00  0.00000000000E+00  0.31371176380E+04  0.31371176380E+04  0.00000000000E+00 0.  1.
         -2   -1    0    0    0  501 -0.00000000000E+00 -0.00000000000E+00 -0.55735438860E+03  0.55735438860E+03  0.00000000000E+00 0. -1.
    9000010    2    1    2  502    0  0.31970627562E+03  0.69051989134E+03  0.19414764382E+04  0.22880911676E+04  0.94180709721E+03 0.  0.
   -9000010    2    1    2    0  501 -0.31970627562E+03 -0.69051989134E+03  0.63828681128E+03  0.14063808590E+04  0.99572448208E+03 0.  0.
        -13    1    3    3    0    0  0.39005927104E+03 -0.11062622945E+03  0.69786420482E+03  0.80709284293E+03  0.10566000000E+00 0.  1.
          4    1    3    3  502    0 -0.70352995422E+02  0.80114612078E+03  0.12436122333E+04  0.14809983247E+04  0.00000000000E+00 0.  1.
         13    1    4    4    0    0 -0.61125279840E+02 -0.74876720747E+03  0.40365090027E+02  0.75234166605E+03  0.10566000000E+00 0. -1.
         -4    1    4    4    0  501 -0.25858099578E+03  0.58247316135E+02  0.59792172126E+03  0.65403919299E+03  0.00000000000E+00 0. -1.
<mgrwt>
<rscale>  2 0.12318137E+04</rscale>
<asrwt>0</asrwt>
<pdfrwt beam="1">  1        2 0.48263347E+00 0.12318137E+04</pdfrwt>
<pdfrwt beam="2">  1       -2 0.85746831E-01 0.12318137E+04</pdfrwt>
<totfact> 0.26396242E+00</totfact>
</mgrwt>
</event>
<event>
 8    1  0.1439553E-005  0.1083734E+04  0.7818608E-02  0.8699666E-01
          2   -1    0    0  502    0  0.00000000000E+00  0.00000000000E+00  0.10688962474E+04  0.10688962474E+04  0.00000000000E+00 0.  1.
         -2   -1    0    0    0  501 -0.00000000000E+00 -0.00000000000E+00 -0.12504723419E+04  0.12504723419E+04  0.00000000000E+00 0. -1.
    9000010    2    1    2  502    0  0.79929979330E+02 -0.38459999486E+03 -0.49563373484E+03  0.12112017932E+04  0.10329816199E+04 0.  0.
   -9000010    2    1    2    0  501 -0.79929979330E+02  0.38459999486E+03  0.31405764039E+03  0.11081667961E+04  0.98746923435E+03 0.  0.
        -13    1    3    3    0    0  0.16029283170E+03 -0.33599779015E+03 -0.80552658166E+03  0.88739021395E+03  0.10566000000E+00 0.  1.
          4    1    3    3  502    0 -0.80362852372E+02 -0.48602204712E+02  0.30989284682E+03  0.32381157925E+03  0.00000000000E+00 0.  1.
         13    1    4    4    0    0  0.71984951665E+00  0.71883510777E+03  0.21837820113E+03  0.75127457048E+03  0.10566000000E+00 0. -1.
         -4    1    4    4    0  501 -0.80649828847E+02 -0.33423511291E+03  0.95679439254E+02  0.35689222560E+03  0.00000000000E+00 0. -1.
<mgrwt>
<rscale>  2 0.10837341E+04</rscale>
<asrwt>0</asrwt>
<pdfrwt beam="1">  1        2 0.16444558E+00 0.10837341E+04</pdfrwt>
<pdfrwt beam="2">  1       -2 0.19238036E+00 0.10837341E+04</pdfrwt>
<totfact> 0.40780140E+00</totfact>
</mgrwt>
</event>
<event>
 8    1  0.1439553E-005  0.1510406E+04  0.7818608E-02  0.8403535E-01
          2   -1    0    0  502    0  0.00000000000E+00  0.00000000000E+00  0.13308877999E+04  0.13308877999E+04  0.00000000000E+00 0.  1.
         -2   -1    0    0    0  501 -0.00000000000E+00 -0.00000000000E+00 -0.22099925419E+04  0.22099925419E+04  0.00000000000E+00 0. -1.
    9000010    2    1    2  502    0 -0.57236590800E+03 -0.98120213484E+03 -0.12774364658E+04  0.19757329711E+04  0.99061419669E+03 0.  0.
   -9000010    2    1    2    0  501  0.57236590800E+03  0.98120213484E+03  0.39833172379E+03  0.15651473707E+04  0.10003288299E+04 0.  0.
        -13    1    3    3    0    0 -0.18311101629E+03 -0.52996157112E+03  0.59498248594E+01  0.56073551941E+03  0.10566000000E+00 0.  1.
          4    1    3    3  502    0 -0.38925489171E+03 -0.45124056372E+03 -0.12833862907E+04  0.14149974517E+04  0.00000000000E+00 0.  1.
         13    1    4    4    0    0  0.21044259758E+03  0.10967825840E+04  0.39688019963E+03  0.11852139163E+04  0.10566000000E+00 0. -1.
         -4    1    4    4    0  501  0.36192331042E+03 -0.11558044915E+03  0.14515241623E+01  0.37993345440E+03  0.00000000000E+00 0. -1.
<mgrwt>
<rscale>  2 0.15104062E+04</rscale>
<asrwt>0</asrwt>
<pdfrwt beam="1">  1        2 0.20475197E+00 0.15104062E+04</pdfrwt>
<pdfrwt beam="2">  1       -2 0.33999885E+00 0.15104062E+04</pdfrwt>
<totfact> 0.21929497E-01</totfact>
</mgrwt>
</event>
<event>
 8    1  0.1439553E-005  0.1327316E+04  0.7818608E-02  0.8516400E-01
          5   -1    0    0  502    0  0.00000000000E+00  0.00000000000E+00  0.81959171565E+03  0.81959171565E+03  0.00000000000E+00 0.  1.
         -5   -1    0    0    0  501 -0.00000000000E+00 -0.00000000000E+00 -0.22020865495E+04  0.22020865495E+04  0.00000000000E+00 0. -1.
    9000010    2    1    2  502    0  0.82858299478E+03 -0.23524563339E+03 -0.92469205248E+03  0.16178507288E+04  0.10101956749E+04 0.  0.
   -9000010    2    1    2    0  501 -0.82858299478E+03  0.23524563339E+03 -0.45780278141E+03  0.14038275364E+04  0.10095831209E+04 0.  0.
        -13    1    3    3    0    0  0.96584639313E+03 -0.23612131665E+03 -0.39369126117E+03  0.10693948530E+04  0.10566000000E+00 0.  1.
          4    1    3    3  502    0 -0.13726339835E+03  0.87568326116E+00 -0.53100079131E+03  0.54845587582E+03  0.00000000000E+00 0.  1.
         13    1    4    4    0    0 -0.36292574646E+02 -0.20316196848E+03  0.19783769673E+03  0.28588756850E+03  0.10566000000E+00 0. -1.
         -4    1    4    4    0  501 -0.79229042014E+03  0.43840760187E+03 -0.65564047814E+03  0.11179399679E+04  0.00000000000E+00 0. -1.
<mgrwt>
<rscale>  2 0.13273157E+04</rscale>
<asrwt>0</asrwt>
<pdfrwt beam="1">  1        5 0.12609103E+00 0.13273157E+04</pdfrwt>
<pdfrwt beam="2">  1       -5 0.33878254E+00 0.13273157E+04</pdfrwt>
<totfact> 0.13458905E-03</totfact>
</mgrwt>
</event>
<event>
 8    1  0.1439553E-005  0.1194602E+04  0.7818608E-02  0.8610638E-01
          2   -1    0    0  502    0  0.00000000000E+00  0.00000000000E+00  0.42319862617E+03  0.42319862617E+03  0.00000000000E+00 0. -1.
         -2   -1    0    0    0  501 -0.00000000000E+00 -0.00000000000E+00 -0.33772650423E+04  0.33772650423E+04  0.00000000000E+00 0.  1.
    9000010    2    1    2  502    0 -0.14786203602E+03  0.64541812952E+03 -0.13959758310E+04  0.18334160081E+04  0.98703495100E+03 0.  0.
   -9000010    2    1    2    0  501  0.14786203602E+03 -0.64541812952E+03 -0.15580905851E+04  0.19670476604E+04  0.10015999616E+04 0.  0.
        -13    1    3    3    0    0  0.20632860456E+03 -0.18288934156E+03 -0.44499613393E+03  0.52348980381E+03  0.10566000000E+00 0.  1.
          4    1    3    3  502    0 -0.35419064058E+03  0.82830747107E+03 -0.95097969710E+03  0.13099262043E+04  0.00000000000E+00 0.  1.
         13    1    4    4    0    0  0.29451225250E+03 -0.87680917300E+03 -0.12457996564E+04  0.15516277220E+04  0.10566000000E+00 0. -1.
         -4    1    4    4    0  501 -0.14665021648E+03  0.23139104348E+03 -0.31229092878E+03  0.41541993837E+03  0.00000000000E+00 0. -1.
<mgrwt>
<rscale>  2 0.11946022E+04</rscale>
<asrwt>0</asrwt>
<pdfrwt beam="1">  1        2 0.65107483E-01 0.11946022E+04</pdfrwt>
<pdfrwt beam="2">  1       -2 0.51957922E+00 0.11946022E+04</pdfrwt>
<totfact> 0.31119321E-01</totfact>
</mgrwt>
</event>
<event>
 8    1  0.1439553E-005  0.1053418E+04  0.7818608E-02  0.8725957E-01
         -2   -1    0    0    0  501 -0.00000000000E+00  0.00000000000E+00  0.92679544313E+03  0.92679544313E+03  0.00000000000E+00 0. -1.
          2   -1    0    0  502    0  0.00000000000E+00 -0.00000000000E+00 -0.12002573217E+04  0.12002573217E+04  0.00000000000E+00 0.  1.
    9000010    2    1    2  502    0  0.42257017691E+02  0.33273421763E+03 -0.18818098797E+03  0.10648049287E+04  0.99292483945E+03 0.  0.
   -9000010    2    1    2    0  501 -0.42257017691E+02 -0.33273421763E+03 -0.85280890628E+02  0.10622478362E+04  0.10042907547E+04 0.  0.
        -13    1    3    3    0    0 -0.43128370925E+01  0.55132089246E+03  0.22465859476E+03  0.59535268740E+03  0.10566000000E+00 0.  1.
          4    1    3    3  502    0  0.46569854783E+02 -0.21858667483E+03 -0.41283958272E+03  0.46945224129E+03  0.00000000000E+00 0.  1.
         13    1    4    4    0    0 -0.32138318380E+03  0.11582987118E+02 -0.40395687367E+03  0.51633563054E+03  0.10566000000E+00 0. -1.
         -4    1    4    4    0  501  0.27912616611E+03 -0.34431720475E+03  0.31867598304E+03  0.54591220563E+03  0.00000000000E+00 0. -1.
<mgrwt>
<rscale>  2 0.10534180E+04</rscale>
<asrwt>0</asrwt>
<pdfrwt beam="2">  1        2 0.18465497E+00 0.10534180E+04</pdfrwt>
<pdfrwt beam="1">  1       -2 0.14258391E+00 0.10534180E+04</pdfrwt>
<totfact> 0.91274771E+00</totfact>
</mgrwt>
</event>
<event>
 8    1  0.1439553E-005  0.1343419E+04  0.7818608E-02  0.8505742E-01
          2   -1    0    0  502    0  0.00000000000E+00  0.00000000000E+00  0.26804587516E+04  0.26804587516E+04  0.00000000000E+00 0.  1.
         -2   -1    0    0    0  501 -0.00000000000E+00 -0.00000000000E+00 -0.74505843214E+03  0.74505843214E+03  0.00000000000E+00 0. -1.
    9000010    2    1    2  502    0  0.80926164580E+03 -0.33642156819E+03  0.44391329680E+03  0.14258838986E+04  0.10334418195E+04 0.  0.
   -9000010    2    1    2    0  501 -0.80926164580E+03  0.33642156819E+03  0.14914870227E+04  0.19996332852E+04  0.10029535649E+04 0.  0.
        -13    1    3    3    0    0 -0.20941290588E+03  0.11811875558E+02 -0.85129036832E+02  0.22636309246E+03  0.10566000000E+00 0.  1.
          4    1    3    3  502    0  0.10186745517E+04 -0.34823344375E+03  0.52904233363E+03  0.11995208061E+04  0.00000000000E+00 0.  1.
         13    1    4    4    0    0 -0.34047946425E+02  0.52925875681E+03  0.65833402779E+03  0.84538618254E+03  0.10566000000E+00 0. -1.
         -4    1    4    4    0  501 -0.77521369937E+03 -0.19283718862E+03  0.83315299489E+03  0.11542471026E+04  0.00000000000E+00 0. -1.
<mgrwt>
<rscale>  2 0.13434195E+04</rscale>
<asrwt>0</asrwt>
<pdfrwt beam="1">  1        2 0.41237826E+00 0.13434195E+04</pdfrwt>
<pdfrwt beam="2">  1       -2 0.11462438E+00 0.13434195E+04</pdfrwt>
<totfact> 0.24551621E+00</totfact>
</mgrwt>
</event>
<event>
 8    1  0.1439553E-005  0.1270082E+04  0.7818608E-02  0.8555578E-01
         -1   -1    0    0    0  501 -0.00000000000E+00  0.00000000000E+00  0.92001841153E+03  0.92001841153E+03  0.00000000000E+00 0.  1.
          1   -1    0    0  502    0  0.00000000000E+00 -0.00000000000E+00 -0.21023325440E+04  0.21023325440E+04  0.00000000000E+00 0. -1.
    9000010    2    1    2  502    0  0.60668750866E+03  0.51934275283E+03 -0.12061253453E+04  0.17501686214E+04  0.98517268870E+03 0.  0.
   -9000010    2    1    2    0  501 -0.60668750866E+03 -0.51934275283E+03  0.23811212858E+02  0.12721823341E+04  0.98999711584E+03 0.  0.
        -13    1    3    3    0    0  0.88641652939E+02  0.67039189534E+03 -0.41792964950E+03  0.79495146963E+03  0.10566000000E+00 0.  1.
          4    1    3    3  502    0  0.51804585572E+03 -0.15104914252E+03 -0.78819569583E+03  0.95521715175E+03  0.00000000000E+00 0.  1.
         13    1    4    4    0    0 -0.44656342081E+03 -0.68211666450E+03  0.33901390345E+03  0.88296798962E+03  0.10566000000E+00 0. -1.
         -4    1    4    4    0  501 -0.16012408784E+03  0.16277391167E+03 -0.31520269059E+03  0.38921434452E+03  0.00000000000E+00 0. -1.
<mgrwt>
<rscale>  2 0.12700824E+04</rscale>
<asrwt>0</asrwt>
<pdfrwt beam="2">  1        1 0.32343577E+00 0.12700824E+04</pdfrwt>
<pdfrwt beam="1">  1       -1 0.14154130E+00 0.12700824E+04</pdfrwt>
<totfact> 0.13278194E+00</totfact>
</mgrwt>
</event>
<event>
 8    1  0.1439553E-005  0.1160780E+04  0.7818608E-02  0.8636696E-01
          2   -1    0    0  502    0  0.00000000000E+00  0.00000000000E+00  0.44739663680E+04  0.44739663680E+04  0.00000000000E+00 0.  1.
         -2   -1    0    0    0  501 -0.00000000000E+00 -0.00000000000E+00 -0.30128483948E+03  0.30128483948E+03  0.00000000000E+00 0. -1.
    9000010    2    1    2  502    0  0.33153290040E+03 -0.48183705587E+03  0.21248066580E+04  0.24191022219E+04  0.99758268532E+03 0.  0.
   -9000010    2    1    2    0  501 -0.33153290040E+03  0.48183705587E+03  0.20478748705E+04  0.23561489855E+04  0.10077527197E+04 0.  0.
        -13    1    3    3    0    0 -0.21098888450E+03 -0.15441023695E+03  0.72681607856E+02  0.27136959657E+03  0.10566000000E+00 0.  1.
          4    1    3    3  502    0  0.54252178490E+03 -0.32742681892E+03  0.20521250501E+04  0.21477326254E+04  0.00000000000E+00 0.  1.
         13    1    4    4    0    0  0.10360600630E+03 -0.26801486704E+03  0.38003117794E+03  0.47643455046E+03  0.10566000000E+00 0. -1.
         -4    1    4    4    0  501 -0.43513890670E+03  0.74985192291E+03  0.16678436926E+04  0.18797144350E+04  0.00000000000E+00 0. -1.
<mgrwt>
<rscale>  2 0.11607803E+04</rscale>
<asrwt>0</asrwt>
<pdfrwt beam="1">  1        2 0.68830247E+00 0.11607803E+04</pdfrwt>
<pdfrwt beam="2">  1       -2 0.46351517E-01 0.11607803E+04</pdfrwt>
<totfact> 0.76632656E-01</totfact>
</mgrwt>
</event>
<event>
 8    1  0.1439553E-005  0.1499762E+04  0.7818608E-02  0.8409636E-01
          4   -1    0    0  502    0  0.00000000000E+00  0.00000000000E+00  0.17017942897E+04  0.17017942897E+04  0.00000000000E+00 0.  1.
         -4   -1    0    0    0  501 -0.00000000000E+00 -0.00000000000E+00 -0.13249923534E+04  0.13249923534E+04  0.00000000000E+00 0. -1.
    9000010    2    1    2  502    0  0.10238312695E+04 -0.45651325781E+03  0.26163587814E+03  0.15122062044E+04  0.98065256270E+03 0.  0.
   -9000010    2    1    2    0  501 -0.10238312695E+04  0.45651325781E+03  0.11516605811E+03  0.15145804387E+04  0.10119564523E+04 0.  0.
        -13    1    3    3    0    0  0.19080906839E+03 -0.23319918409E+03  0.52941503057E+03  0.60915535440E+03  0.10566000000E+00 0.  1.
          4    1    3    3  502    0  0.83302220115E+03 -0.22331407372E+03 -0.26777915243E+03  0.90305084996E+03  0.00000000000E+00 0.  1.
         13    1    4    4    0    0 -0.73244105724E+03  0.47967647397E+03 -0.36811675655E+03  0.94977333065E+03  0.10566000000E+00 0. -1.
         -4    1    4    4    0  501 -0.29139021231E+03 -0.23163216161E+02  0.48328281466E+03  0.56480710809E+03  0.00000000000E+00 0. -1.
<mgrwt>
<rscale>  2 0.14997621E+04</rscale>
<asrwt>0</asrwt>
<pdfrwt beam="1">  1        4 0.26181451E+00 0.14997621E+04</pdfrwt>
<pdfrwt beam="2">  1       -4 0.20384498E+00 0.14997621E+04</pdfrwt>
<totfact> 0.12181783E-01</totfact>
</mgrwt>
</event>
<event>
 8    1  0.1439553E-005  0.1068508E+04  0.7818608E-02  0.8712757E-01
         -1   -1    0    0    0  501 -0.00000000000E+00  0.00000000000E+00  0.92064095575E+03  0.92064095575E+03  0.00000000000E+00 0.  1.
          1   -1    0    0  502    0  0.00000000000E+00 -0.00000000000E+00 -0.13197225900E+04  0.13197225900E+04  0.00000000000E+00 0. -1.
    9000010    2    1    2  502    0  0.56654666317E+03  0.59542817012E+02 -0.45485493482E+03  0.11038682357E+04  0.82892195131E+03 0.  0.
   -9000010    2    1    2    0  501 -0.56654666317E+03 -0.59542817012E+02  0.55773300545E+02  0.11364953101E+04  0.98183015854E+03 0.  0.
        -13    1    3    3    0    0  0.66841468037E+03  0.30819325694E+03 -0.31069961734E+03  0.79893399723E+03  0.10566000000E+00 0.  1.
          4    1    3    3  502    0 -0.10186801720E+03 -0.24865043993E+03 -0.14415531748E+03  0.30493423843E+03  0.00000000000E+00 0.  1.
         13    1    4    4    0    0 -0.69333399465E+03  0.29390377147E+03  0.94691679298E+02  0.75898483536E+03  0.10566000000E+00 0. -1.
         -4    1    4    4    0  501  0.12678733148E+03 -0.35344658848E+03 -0.38918378753E+02  0.37751047474E+03  0.00000000000E+00 0. -1.
<mgrwt>
<rscale>  2 0.10685077E+04</rscale>
<asrwt>0</asrwt>
<pdfrwt beam="2">  1        1 0.20303424E+00 0.10685077E+04</pdfrwt>
<pdfrwt beam="1">  1       -1 0.14163707E+00 0.10685077E+04</pdfrwt>
<totfact> 0.52630434E+00</totfact>
</mgrwt>
</event>
<event>
 8    1  0.1439553E-005  0.1142312E+04  0.7818608E-02  0.8651316E-01
          1   -1    0    0  502    0  0.00000000000E+00  0.00000000000E+00  0.11337690134E+04  0.11337690134E+04  0.00000000000E+00 0.  1.
         -1   -1    0    0    0  501 -0.00000000000E+00 -0.00000000000E+00 -0.12555278135E+04  0.12555278135E+04  0.00000000000E+00 0. -1.
    9000010    2    1    2  502    0  0.47525342136E+03  0.13482138176E+03 -0.40551390966E+03  0.12453274656E+04  0.10688107158E+04 0.  0.
   -9000010    2    1    2    0  501 -0.47525342136E+03 -0.13482138176E+03  0.28375510950E+03  0.11439693613E+04  0.99202132934E+03 0.  0.
        -13    1    3    3    0    0  0.37692881316E+03  0.59549172325E+03 -0.21066373095E+03  0.73557116675E+03  0.10566000000E+00 0.  1.
          4    1    3    3  502    0  0.98324608197E+02 -0.46067034149E+03 -0.19485017871E+03  0.50975629888E+03  0.00000000000E+00 0.  1.
         13    1    4    4    0    0 -0.17354972951E+03 -0.29121690025E+03 -0.31030187697E+03  0.45958030595E+03  0.10566000000E+00 0. -1.
         -4    1    4    4    0  501 -0.30170369186E+03  0.15639551849E+03  0.59405698646E+03  0.68438905532E+03  0.00000000000E+00 0. -1.
<mgrwt>
<rscale>  2 0.11423122E+04</rscale>
<asrwt>0</asrwt>
<pdfrwt beam="1">  1        1 0.17442600E+00 0.11423122E+04</pdfrwt>
<pdfrwt beam="2">  1       -1 0.19315812E+00 0.11423122E+04</pdfrwt>
<totfact> 0.25813815E+00</totfact>
</mgrwt>
</event>
<event>
 8    1  0.1439553E-005  0.1362681E+04  0.7818608E-02  0.8493195E-01
          2   -1    0    0  502    0  0.00000000000E+00  0.00000000000E+00  0.19883002505E+04  0.19883002505E+04  0.00000000000E+00 0.  1.
         -2   -1    0    0    0  501 -0.00000000000E+00 -0.00000000000E+00 -0.93391391672E+03  0.93391391672E+03  0.00000000000E+00 0. -1.
    9000010    2    1    2  502    0  0.65159019747E+03 -0.65686677363E+03  0.52628796993E+03  0.14597552590E+04  0.99893075096E+03 0.  0.
   -9000010    2    1    2    0  501 -0.65159019747E+03  0.65686677363E+03  0.52809836386E+03  0.14624589082E+04  0.10019253628E+04 0.  0.
        -13    1    3    3    0    0 -0.37917295252E+01 -0.65933670033E+03  0.74073151709E+02  0.66349536892E+03  0.10566000000E+00 0.  1.
          4    1    3    3  502    0  0.65538192699E+03  0.24699267013E+01  0.45221481822E+03  0.79625989010E+03  0.00000000000E+00 0.  1.
         13    1    4    4    0    0 -0.49636113123E+03  0.40669012017E+02 -0.16262046333E+03  0.52390244072E+03  0.10566000000E+00 0. -1.
         -4    1    4    4    0  501 -0.15522906624E+03  0.61619776161E+03  0.69071882719E+03  0.93855646748E+03  0.00000000000E+00 0. -1.
<mgrwt>
<rscale>  2 0.13626811E+04</rscale>
<asrwt>0</asrwt>
<pdfrwt beam="1">  1        2 0.30589234E+00 0.13626811E+04</pdfrwt>
<pdfrwt beam="2">  1       -2 0.14367906E+00 0.13626811E+04</pdfrwt>
<totfact> 0.31887744E+00</totfact>
</mgrwt>
</event>
<event>
 8    1  0.1439553E-005  0.1243512E+04  0.7818608E-02  0.8574498E-01
          2   -1    0    0  502    0  0.00000000000E+00  0.00000000000E+00  0.18830224472E+04  0.18830224472E+04  0.00000000000E+00 0.  1.
         -2   -1    0    0    0  501 -0.00000000000E+00 -0.00000000000E+00 -0.84204296920E+03  0.84204296920E+03  0.00000000000E+00 0. -1.
    9000010    2    1    2  502    0  0.38776510257E+03 -0.68142316860E+03  0.29372299078E+03  0.12365073086E+04  0.90993286540E+03 0.  0.
   -9000010    2    1    2    0  501 -0.38776510257E+03  0.68142316860E+03  0.74725648725E+03  0.14885581078E+04  0.10211335236E+04 0.  0.
        -13    1    3    3    0    0 -0.90934847452E+02 -0.40002098768E+03 -0.23246464844E+03  0.47151432746E+03  0.10566000000E+00 0.  1.
          4    1    3    3  502    0  0.47869995002E+03 -0.28140218092E+03  0.52618763922E+03  0.76499298117E+03  0.00000000000E+00 0.  1.
         13    1    4    4    0    0 -0.39321171463E+03 -0.15395461015E+03  0.10587792204E+03  0.43534770017E+03  0.10566000000E+00 0. -1.
         -4    1    4    4    0  501  0.54466120578E+01  0.83537777875E+03  0.64137856520E+03  0.10532104076E+04  0.00000000000E+00 0. -1.
<mgrwt>
<rscale>  2 0.12435120E+04</rscale>
<asrwt>0</asrwt>
<pdfrwt beam="1">  1        2 0.28969576E+00 0.12435120E+04</pdfrwt>
<pdfrwt beam="2">  1       -2 0.12954507E+00 0.12435120E+04</pdfrwt>
<totfact> 0.49584793E+00</totfact>
</mgrwt>
</event>
<event>
 8    1  0.1439553E-005  0.1314245E+04  0.7818608E-02  0.8525165E-01
         -1   -1    0    0    0  501 -0.00000000000E+00  0.00000000000E+00  0.10778364284E+04  0.10778364284E+04  0.00000000000E+00 0. -1.
          1   -1    0    0  502    0  0.00000000000E+00 -0.00000000000E+00 -0.16847793285E+04  0.16847793285E+04  0.00000000000E+00 0.  1.
    9000010    2    1    2  502    0 -0.75818027804E+03 -0.39872108826E+03  0.15718683673E+01  0.13151522642E+04  0.99790138137E+03 0.  0.
   -9000010    2    1    2    0  501  0.75818027804E+03  0.39872108826E+03 -0.60851476851E+03  0.14474634928E+04  0.99551217931E+03 0.  0.
        -13    1    3    3    0    0 -0.66054727626E+03 -0.79736694384E+02 -0.41294517794E+03  0.78307367198E+03  0.10566000000E+00 0.  1.
          4    1    3    3  502    0 -0.97633001779E+02 -0.31898439388E+03  0.41451704631E+03  0.53207859218E+03  0.00000000000E+00 0.  1.
         13    1    4    4    0    0  0.53541964955E+03 -0.16721097903E+03 -0.62402381298E+03  0.83907058283E+03  0.10566000000E+00 0. -1.
         -4    1    4    4    0  501  0.22276062848E+03  0.56593206730E+03  0.15509044472E+02  0.60839290994E+03  0.00000000000E+00 0. -1.
<mgrwt>
<rscale>  2 0.13142450E+04</rscale>
<asrwt>0</asrwt>
<pdfrwt beam="2">  1        1 0.25919682E+00 0.13142450E+04</pdfrwt>
<pdfrwt beam="1">  1       -1 0.16582099E+00 0.13142450E+04</pdfrwt>
<totfact> 0.16849079E+00</totfact>
</mgrwt>
</event>
<event>
 8    1  0.1439553E-005  0.2155323E+04  0.7818608E-02  0.8107927E-01
          4   -1    0    0  502    0  0.00000000000E+00  0.00000000000E+00  0.30585846844E+04  0.30585846844E+04  0.00000000000E+00 0.  1.
         -4   -1    0    0    0  501 -0.00000000000E+00 -0.00000000000E+00 -0.18761504543E+04  0.18761504543E+04  0.00000000000E+00 0. -1.
    9000010    2    1    2  502    0  0.82661438892E+03  0.17216443814E+04  0.16682468888E+04  0.27263050007E+04  0.10011695915E+04 0.  0.
   -9000010    2    1    2    0  501 -0.82661438892E+03 -0.17216443814E+04 -0.48581265864E+03  0.22084301380E+04  0.99689468395E+03 0.  0.
        -13    1    3    3    0    0  0.74378766049E+03  0.50895066938E+03  0.97187786531E+03  0.13254423654E+04  0.10566000000E+00 0.  1.
          4    1    3    3  502    0  0.82826728439E+02  0.12126937120E+04  0.69636902347E+03  0.14008626353E+04  0.00000000000E+00 0.  1.
         13    1    4    4    0    0 -0.32197806853E+02  0.12949101851E+03 -0.73251818854E+02  0.15221847053E+03  0.10566000000E+00 0. -1.
         -4    1    4    4    0  501 -0.79441658207E+03 -0.18511353999E+04 -0.41256083978E+03  0.20562116674E+04  0.00000000000E+00 0. -1.
<mgrwt>
<rscale>  2 0.21553233E+04</rscale>
<asrwt>0</asrwt>
<pdfrwt beam="1">  1        4 0.47055149E+00 0.21553233E+04</pdfrwt>
<pdfrwt beam="2">  1       -4 0.28863853E+00 0.21553233E+04</pdfrwt>
<totfact> 0.12453558E-02</totfact>
</mgrwt>
</event>
<event>
 8    1  0.1439553E-005  0.1456201E+04  0.7818608E-02  0.8435161E-01
         -1   -1    0    0    0  501 -0.00000000000E+00  0.00000000000E+00  0.10063317423E+04  0.10063317423E+04  0.00000000000E+00 0.  1.
          1   -1    0    0  502    0  0.00000000000E+00 -0.00000000000E+00 -0.23786313386E+04  0.23786313386E+04  0.00000000000E+00 0. -1.
    9000010    2    1    2  502    0 -0.70466689862E+03  0.80110051791E+03 -0.11339891055E+03  0.14582075869E+04  0.98751839261E+03 0.  0.
   -9000010    2    1    2    0  501  0.70466689862E+03 -0.80110051791E+03 -0.12589006858E+04  0.19267554939E+04  0.99460460434E+03 0.  0.
        -13    1    3    3    0    0 -0.57483545980E+03  0.23657090109E+02 -0.29908822340E+03  0.64842057363E+03  0.10566000000E+00 0.  1.
          4    1    3    3  502    0 -0.12983143882E+03  0.77744342781E+03  0.18568931286E+03  0.80978701327E+03  0.00000000000E+00 0.  1.
         13    1    4    4    0    0  0.33778394402E+03  0.27513453309E+02 -0.88277916564E+03  0.94559719194E+03  0.10566000000E+00 0. -1.
         -4    1    4    4    0  501  0.36688295460E+03 -0.82861397122E+03 -0.37612152015E+03  0.98115830201E+03  0.00000000000E+00 0. -1.
<mgrwt>
<rscale>  2 0.14562010E+04</rscale>
<asrwt>0</asrwt>
<pdfrwt beam="2">  1        1 0.36594328E+00 0.14562010E+04</pdfrwt>
<pdfrwt beam="1">  1       -1 0.15482027E+00 0.14562010E+04</pdfrwt>
<totfact> 0.58815003E-01</totfact>
</mgrwt>
</event>
<event>
 8    1  0.1439553E-005  0.1042520E+04  0.7818608E-02  0.8735635E-01
         -2   -1    0    0    0  501 -0.00000000000E+00  0.00000000000E+00  0.74997701030E+03  0.74997701030E+03  0.00000000000E+00 0. -1.
          2   -1    0    0  502    0  0.00000000000E+00 -0.00000000000E+00 -0.14494503642E+04  0.14494503642E+04  0.00000000000E+00 0.  1.
    9000010    2    1    2  502    0 -0.18010497310E+03  0.27566066443E+03 -0.36559801251E+03  0.11077009106E+04  0.99242772900E+03 0.  0.
   -9000010    2    1    2    0  501  0.18010497310E+03 -0.27566066443E+03 -0.33387534143E+03  0.10917264640E+04  0.98588403237E+03 0.  0.
        -13    1    3    3    0    0  0.32559522101E+03  0.40607340781E+03 -0.14130538660E+03  0.53932836373E+03  0.10566000000E+00 0.  1.
          4    1    3    3  502    0 -0.50570019412E+03 -0.13041274338E+03 -0.22429262591E+03  0.56837254684E+03  0.00000000000E+00 0.  1.
         13    1    4    4    0    0  0.93860727327E+01 -0.57063118479E+03  0.56516949114E+02  0.57349997744E+03  0.10566000000E+00 0. -1.
         -4    1    4    4    0  501  0.17071890037E+03  0.29497052037E+03 -0.39039229055E+03  0.51822648654E+03  0.00000000000E+00 0. -1.
<mgrwt>
<rscale>  2 0.10425197E+04</rscale>
<asrwt>0</asrwt>
<pdfrwt beam="2">  1        2 0.22299236E+00 0.10425197E+04</pdfrwt>
<pdfrwt beam="1">  1       -2 0.11538108E+00 0.10425197E+04</pdfrwt>
<totfact> 0.11877624E+01</totfact>
</mgrwt>
</event>
<event>
 8    1  0.1439553E-005  0.1059836E+04  0.7818608E-02  0.8720315E-01
         -2   -1    0    0    0  501 -0.00000000000E+00  0.00000000000E+00  0.72470217444E+03  0.72470217444E+03  0.00000000000E+00 0.  1.
          2   -1    0    0  502    0  0.00000000000E+00 -0.00000000000E+00 -0.19666995338E+04  0.19666995338E+04  0.00000000000E+00 0. -1.
    9000010    2    1    2  502    0 -0.34770538078E+03  0.82486950082E+02 -0.12394990419E+04  0.16294833405E+04  0.99556765394E+03 0.  0.
   -9000010    2    1    2    0  501  0.34770538078E+03 -0.82486950082E+02 -0.24983174595E+01  0.10619183677E+04  0.99998062443E+03 0.  0.
        -13    1    3    3    0    0  0.20988197807E+02 -0.41351499977E+03 -0.32801820639E+03  0.52823395799E+03  0.10566000000E+00 0.  1.
          4    1    3    3  502    0 -0.36869357859E+03  0.49600194985E+03 -0.91148083547E+03  0.11012493826E+04  0.00000000000E+00 0.  1.
         13    1    4    4    0    0 -0.24516101788E+03 -0.13990544349E+03  0.28447343846E+03  0.40075254978E+03  0.10566000000E+00 0. -1.
         -4    1    4    4    0  501  0.59286639866E+03  0.57418493408E+02 -0.28697175592E+03  0.66116581788E+03  0.00000000000E+00 0. -1.
<mgrwt>
<rscale>  2 0.10598361E+04</rscale>
<asrwt>0</asrwt>
<pdfrwt beam="2">  1        2 0.30256915E+00 0.10598361E+04</pdfrwt>
<pdfrwt beam="1">  1       -2 0.11149265E+00 0.10598361E+04</pdfrwt>
<totfact> 0.67762562E+00</totfact>
</mgrwt>
</event>
<event>
 8    1  0.1439553E-005  0.1042642E+04  0.7818608E-02  0.8735526E-01
         -2   -1    0    0    0  501 -0.00000000000E+00  0.00000000000E+00  0.56687147634E+03  0.56687147634E+03  0.00000000000E+00 0. -1.
          2   -1    0    0  502    0  0.00000000000E+00 -0.00000000000E+00 -0.19321859501E+04  0.19321859501E+04  0.00000000000E+00 0.  1.
    9000010    2    1    2  502    0 -0.25447354341E+03  0.44404347037E+02 -0.57641456320E+03  0.11938181479E+04  0.10130249213E+04 0.  0.
   -9000010    2    1    2    0  501  0.25447354341E+03 -0.44404347037E+02 -0.78889991053E+03  0.13052392785E+04  0.10072526868E+04 0.  0.
        -13    1    3    3    0    0  0.26667303653E+03 -0.12991371529E+03 -0.57192184590E+03  0.64427221794E+03  0.10566000000E+00 0.  1.
          4    1    3    3  502    0 -0.52114657994E+03  0.17431806233E+03 -0.44927173048E+01  0.54954592997E+03  0.00000000000E+00 0.  1.
         13    1    4    4    0    0  0.51190638235E+02  0.66465828571E-01 -0.10043802815E+04  0.10056839697E+04  0.10566000000E+00 0. -1.
         -4    1    4    4    0  501  0.20328290518E+03 -0.44470812865E+02  0.21548037100E+03  0.29955530879E+03  0.00000000000E+00 0. -1.
<mgrwt>
<rscale>  2 0.10426417E+04</rscale>
<asrwt>0</asrwt>
<pdfrwt beam="2">  1        2 0.29725938E+00 0.10426417E+04</pdfrwt>
<pdfrwt beam="1">  1       -2 0.87210995E-01 0.10426417E+04</pdfrwt>
<totfact> 0.12755542E+01</totfact>
</mgrwt>
</event>
<event>
 8    1  0.1439553E-005  0.1333158E+04  0.7818608E-02  0.8512516E-01
          2   -1    0    0  502    0  0.00000000000E+00  0.00000000000E+00  0.12023821575E+04  0.12023821575E+04  0.00000000000E+00 0. -1.
         -2   -1    0    0    0  501 -0.00000000000E+00 -0.00000000000E+00 -0.18237327964E+04  0.18237327964E+04  0.00000000000E+00 0.  1.
    9000010    2    1    2  502    0 -0.72492956267E+02 -0.86333286991E+03 -0.97075924717E+03  0.16556200134E+04  0.10237701108E+04 0.  0.
   -9000010    2    1    2    0  501  0.72492956267E+02  0.86333286991E+03  0.34940860826E+03  0.13704949404E+04  0.10027816977E+04 0.  0.
        -13    1    3    3    0    0  0.38197662895E+03 -0.69113116357E+03 -0.34101950325E+03  0.86015274405E+03  0.10566000000E+00 0.  1.
          4    1    3    3  502    0 -0.45446958522E+03 -0.17220170634E+03 -0.62973974392E+03  0.79546726936E+03  0.00000000000E+00 0.  1.
         13    1    4    4    0    0  0.39090962282E+03  0.19265696546E+03 -0.16637917091E+03  0.46648588321E+03  0.10566000000E+00 0. -1.
         -4    1    4    4    0  501 -0.31841666656E+03  0.67067590445E+03  0.51578777917E+03  0.90400905719E+03  0.00000000000E+00 0. -1.
<mgrwt>
<rscale>  2 0.13331578E+04</rscale>
<asrwt>0</asrwt>
<pdfrwt beam="1">  1        2 0.18498187E+00 0.13331578E+04</pdfrwt>
<pdfrwt beam="2">  1       -2 0.28057428E+00 0.13331578E+04</pdfrwt>
<totfact> 0.66546853E-01</totfact>
</mgrwt>
</event>
<event>
 8    1  0.1439553E-005  0.1107915E+04  0.7818608E-02  0.8679330E-01
         -2   -1    0    0    0  501 -0.00000000000E+00  0.00000000000E+00  0.13697083674E+04  0.13697083674E+04  0.00000000000E+00 0.  1.
          2   -1    0    0  502    0  0.00000000000E+00 -0.00000000000E+00 -0.10030929081E+04  0.10030929081E+04  0.00000000000E+00 0. -1.
    9000010    2    1    2  502    0  0.47513664717E+03  0.47713799992E+02  0.56905964044E+03  0.12367255211E+04  0.98875158663E+03 0.  0.
   -9000010    2    1    2    0  501 -0.47513664717E+03 -0.47713799992E+02 -0.20244418110E+03  0.11360757544E+04  0.10107685359E+04 0.  0.
        -13    1    3    3    0    0  0.36082417780E+03 -0.23784836955E+03 -0.14773689161E+03  0.45671887906E+03  0.10566000000E+00 0.  1.
          4    1    3    3  502    0  0.11431246936E+03  0.28556216954E+03  0.71679653205E+03  0.78000664208E+03  0.00000000000E+00 0.  1.
         13    1    4    4    0    0 -0.31530911032E+03 -0.30114665159E+03  0.31517007978E+03  0.53799751967E+03  0.10566000000E+00 0. -1.
         -4    1    4    4    0  501 -0.15982753684E+03  0.25343285159E+03 -0.51761426088E+03  0.59807823474E+03  0.00000000000E+00 0. -1.
<mgrwt>
<rscale>  2 0.11079149E+04</rscale>
<asrwt>0</asrwt>
<pdfrwt beam="2">  1        2 0.15432199E+00 0.11079149E+04</pdfrwt>
<pdfrwt beam="1">  1       -2 0.21072436E+00 0.11079149E+04</pdfrwt>
<totfact> 0.31426624E+00</totfact>
</mgrwt>
</event>
<event>
 8    1  0.1439553E-005  0.1352675E+04  0.7818608E-02  0.8499686E-01
          2   -1    0    0  502    0  0.00000000000E+00  0.00000000000E+00  0.20541870301E+04  0.20541870301E+04  0.00000000000E+00 0.  1.
         -2   -1    0    0    0  501 -0.00000000000E+00 -0.00000000000E+00 -0.10398830588E+04  0.10398830588E+04  0.00000000000E+00 0. -1.
    9000010    2    1    2  502    0 -0.89427372006E+03  0.33480560143E+02  0.10928955009E+04  0.17386339232E+04  0.10136966552E+04 0.  0.
   -9000010    2    1    2    0  501  0.89427372006E+03 -0.33480560143E+02 -0.78591529703E+02  0.13554361657E+04  0.10149798699E+04 0.  0.
        -13    1    3    3    0    0 -0.83593395477E+03  0.62601702168E+02  0.22453005920E+03  0.86782389256E+03  0.10566000000E+00 0.  1.
          4    1    3    3  502    0 -0.58339765292E+02 -0.29121142025E+02  0.86836544174E+03  0.87081003068E+03  0.00000000000E+00 0.  1.
         13    1    4    4    0    0 -0.19498583603E+02  0.44006412037E+02  0.34282747170E+03  0.34618989814E+03  0.10566000000E+00 0. -1.
         -4    1    4    4    0  501  0.91377230367E+03 -0.77486972179E+02 -0.42141900140E+03  0.10092462675E+04  0.00000000000E+00 0. -1.
<mgrwt>
<rscale>  2 0.13526746E+04</rscale>
<asrwt>0</asrwt>
<pdfrwt beam="1">  1        2 0.31602877E+00 0.13526746E+04</pdfrwt>
<pdfrwt beam="2">  1       -2 0.15998201E+00 0.13526746E+04</pdfrwt>
<totfact> 0.21086310E+00</totfact>
</mgrwt>
</event>
<event>
 8    1  0.1439553E-005  0.1303919E+04  0.7818608E-02  0.8532165E-01
          4   -1    0    0  502    0  0.00000000000E+00  0.00000000000E+00  0.25817579352E+04  0.25817579352E+04  0.00000000000E+00 0. -1.
         -4   -1    0    0    0  501 -0.00000000000E+00 -0.00000000000E+00 -0.65912098924E+03  0.65912098924E+03  0.00000000000E+00 0.  1.
    9000010    2    1    2  502    0  0.29507946353E+03 -0.79589529318E+03  0.92364942668E+03  0.16070373410E+04  0.10044498715E+04 0.  0.
   -9000010    2    1    2    0  501 -0.29507946353E+03  0.79589529318E+03  0.99898751929E+03  0.16338415835E+04  0.97516206280E+03 0.  0.
        -13    1    3    3    0    0 -0.15392282356E+03  0.16755050617E+03  0.29347295470E+03  0.37133784353E+03  0.10566000000E+00 0.  1.
          4    1    3    3  502    0  0.44900228710E+03 -0.96344579935E+03  0.63017647198E+03  0.12356994974E+04  0.00000000000E+00 0.  1.
         13    1    4    4    0    0 -0.36199374927E+03  0.66215868187E+03  0.11789896010E+04  0.13998250194E+04  0.10566000000E+00 0. -1.
         -4    1    4    4    0  501  0.66914285739E+02  0.13373661130E+03 -0.18000208172E+03  0.23401656408E+03  0.00000000000E+00 0. -1.
<mgrwt>
<rscale>  2 0.13039189E+04</rscale>
<asrwt>0</asrwt>
<pdfrwt beam="1">  1        4 0.39719352E+00 0.13039189E+04</pdfrwt>
<pdfrwt beam="2">  1       -4 0.10140323E+00 0.13039189E+04</pdfrwt>
<totfact> 0.13781604E-01</totfact>
</mgrwt>
</event>
<event>
 8    1  0.1439553E-005  0.2037959E+04  0.7818608E-02  0.8153110E-01
          2   -1    0    0  502    0  0.00000000000E+00  0.00000000000E+00  0.35005955202E+04  0.35005955202E+04  0.00000000000E+00 0. -1.
         -2   -1    0    0    0  501 -0.00000000000E+00 -0.00000000000E+00 -0.13602000216E+04  0.13602000216E+04  0.00000000000E+00 0.  1.
    9000010    2    1    2  502    0 -0.32216223160E+03  0.17406090228E+04  0.19370343481E+04  0.28088200558E+04  0.10019280246E+04 0.  0.
   -9000010    2    1    2    0  501  0.32216223160E+03 -0.17406090228E+04  0.20336115056E+03  0.20519754860E+04  0.10177128100E+04 0.  0.
        -13    1    3    3    0    0 -0.46913989633E+03  0.16646820121E+04  0.19886499128E+04  0.26355240334E+04  0.10566000000E+00 0.  1.
          4    1    3    3  502    0  0.14697766472E+03  0.75927010723E+02 -0.51615564671E+02  0.17329602246E+03  0.00000000000E+00 0.  1.
         13    1    4    4    0    0  0.51317217197E+03 -0.17732946350E+04  0.21076506256E+03  0.18580477559E+04  0.10566000000E+00 0. -1.
         -4    1    4    4    0  501 -0.19100994037E+03  0.32685612156E+02 -0.74039119988E+01  0.19392773003E+03  0.00000000000E+00 0. -1.
<mgrwt>
<rscale>  2 0.20379591E+04</rscale>
<asrwt>0</asrwt>
<pdfrwt beam="1">  1        2 0.53855315E+00 0.20379591E+04</pdfrwt>
<pdfrwt beam="2">  1       -2 0.20926154E+00 0.20379591E+04</pdfrwt>
<totfact> 0.99832721E-02</totfact>
</mgrwt>
</event>
<event>
 8    1  0.1439553E-005  0.1464535E+04  0.7818608E-02  0.8430207E-01
         -2   -1    0    0    0  501 -0.00000000000E+00  0.00000000000E+00  0.17140831030E+04  0.17140831030E+04  0.00000000000E+00 0.  1.
          2   -1    0    0  502    0  0.00000000000E+00 -0.00000000000E+00 -0.12790084718E+04  0.12790084718E+04  0.00000000000E+00 0. -1.
    9000010    2    1    2  502    0  0.42560728571E+03  0.10009850650E+04 -0.20853679410E+01  0.14682905851E+04  0.98628607995E+03 0.  0.
   -9000010    2    1    2    0  501 -0.42560728571E+03 -0.10009850650E+04  0.43715999916E+03  0.15248009897E+04  0.97508796087E+03 0.  0.
        -13    1    3    3    0    0 -0.16943534969E+03  0.82964862819E+03 -0.41756189290E+02  0.84780232041E+03  0.10566000000E+00 0.  1.
          4    1    3    3  502    0  0.59504263540E+03  0.17133643677E+03  0.39670821349E+02  0.62048826466E+03  0.00000000000E+00 0.  1.
         13    1    4    4    0    0  0.51904129936E+02 -0.22312266320E+03  0.55885868163E+03  0.60398741604E+03  0.10566000000E+00 0. -1.
         -4    1    4    4    0  501 -0.47751141565E+03 -0.77786240176E+03 -0.12169868247E+03  0.92081357368E+03  0.00000000000E+00 0. -1.
<mgrwt>
<rscale>  2 0.14645351E+04</rscale>
<asrwt>0</asrwt>
<pdfrwt beam="2">  1        2 0.19677053E+00 0.14645351E+04</pdfrwt>
<pdfrwt beam="1">  1       -2 0.26370509E+00 0.14645351E+04</pdfrwt>
<totfact> 0.79800421E-01</totfact>
</mgrwt>
</event>
<event>
 8    1  0.1439553E-005  0.1269283E+04  0.7818608E-02  0.8556140E-01
         -2   -1    0    0    0  501 -0.00000000000E+00  0.00000000000E+00  0.89165165640E+03  0.89165165640E+03  0.00000000000E+00 0.  1.
          2   -1    0    0  502    0  0.00000000000E+00 -0.00000000000E+00 -0.18261321875E+04  0.18261321875E+04  0.00000000000E+00 0. -1.
    9000010    2    1    2  502    0 -0.31033181498E+01 -0.78152407299E+03 -0.60673661837E+03  0.14064904453E+04  0.99964820888E+03 0.  0.
   -9000010    2    1    2    0  501  0.31033181498E+01  0.78152407299E+03 -0.32774391273E+03  0.13112933986E+04  0.10006421925E+04 0.  0.
        -13    1    3    3    0    0 -0.42096779331E+03 -0.73035367377E+03 -0.46219835537E+03  0.96138322362E+03  0.10566000000E+00 0.  1.
          4    1    3    3  502    0  0.41786447516E+03 -0.51170399227E+02 -0.14453826301E+03  0.44510722173E+03  0.00000000000E+00 0.  1.
         13    1    4    4    0    0 -0.10307516563E+03  0.94539260678E+03 -0.47851514241E+03  0.10645977754E+04  0.10566000000E+00 0. -1.
         -4    1    4    4    0  501  0.10617848378E+03 -0.16386853378E+03  0.15077122968E+03  0.24669562315E+03  0.00000000000E+00 0. -1.
<mgrwt>
<rscale>  2 0.12692832E+04</rscale>
<asrwt>0</asrwt>
<pdfrwt beam="2">  1        2 0.28094341E+00 0.12692832E+04</pdfrwt>
<pdfrwt beam="1">  1       -2 0.13717718E+00 0.12692832E+04</pdfrwt>
<totfact> 0.45170667E+00</totfact>
</mgrwt>
</event>
<event>
 8    1  0.1439553E-005  0.1183808E+04  0.7818608E-02  0.8618856E-01
         -2   -1    0    0    0  501 -0.00000000000E+00  0.00000000000E+00  0.51370868970E+03  0.51370868970E+03  0.00000000000E+00 0.  1.
          2   -1    0    0  502    0  0.00000000000E+00 -0.00000000000E+00 -0.27291255769E+04  0.27291255769E+04  0.00000000000E+00 0. -1.
    9000010    2    1    2  502    0  0.23565051219E+03  0.59498363101E+03 -0.10733745823E+04  0.15967045335E+04  0.99387911146E+03 0.  0.
   -9000010    2    1    2    0  501 -0.23565051219E+03 -0.59498363101E+03 -0.11420423049E+04  0.16461297331E+04  0.99797083476E+03 0.  0.
        -13    1    3    3    0    0  0.38439413845E+02  0.75567592358E+02 -0.10364204884E+04  0.10398824402E+04  0.10566000000E+00 0.  1.
          4    1    3    3  502    0  0.19721109835E+03  0.51941603865E+03 -0.36954093958E+02  0.55682209330E+03  0.00000000000E+00 0.  1.
         13    1    4    4    0    0 -0.55581648217E+03 -0.65181556744E+03 -0.88459144424E+03  0.12313803353E+04  0.10566000000E+00 0. -1.
         -4    1    4    4    0  501  0.32016596998E+03  0.56831936423E+02 -0.25745086065E+03  0.41474939781E+03  0.00000000000E+00 0. -1.
<mgrwt>
<rscale>  2 0.11838080E+04</rscale>
<asrwt>0</asrwt>
<pdfrwt beam="2">  1        2 0.41986548E+00 0.11838080E+04</pdfrwt>
<pdfrwt beam="1">  1       -2 0.79032105E-01 0.11838080E+04</pdfrwt>
<totfact> 0.56451176E+00</totfact>
</mgrwt>
</event>
<event>
 8    1  0.1439553E-005  0.9997323E+03  0.7818608E-02  0.8774843E-01
          2   -1    0    0  502    0  0.00000000000E+00  0.00000000000E+00  0.26450523005E+04  0.26450523005E+04  0.00000000000E+00 0.  1.
         -2   -1    0    0    0  501 -0.00000000000E+00 -0.00000000000E+00 -0.40300372075E+03  0.40300372075E+03  0.00000000000E+00 0. -1.
    9000010    2    1    2  502    0 -0.53885850378E+02 -0.13027372873E+03  0.73035783767E+03  0.12302408171E+04  0.97989538609E+03 0.  0.
   -9000010    2    1    2    0  501  0.53885850378E+02  0.13027372873E+03  0.15116907421E+04  0.18178152042E+04  0.99968409390E+03 0.  0.
        -13    1    3    3    0    0  0.24715417092E+03  0.21840987223E+03 -0.40418747255E+02  0.33229767195E+03  0.10566000000E+00 0.  1.
          4    1    3    3  502    0 -0.30104002130E+03 -0.34868360096E+03  0.77077658492E+03  0.89794314512E+03  0.00000000000E+00 0.  1.
         13    1    4    4    0    0  0.32078703021E+03 -0.35641903341E+02  0.14649574682E+04  0.15000916834E+04  0.10566000000E+00 0. -1.
         -4    1    4    4    0  501 -0.26690117984E+03  0.16591563207E+03  0.46733273960E+02  0.31772352078E+03  0.00000000000E+00 0. -1.
<mgrwt>
<rscale>  2 0.99973229E+03</rscale>
<asrwt>0</asrwt>
<pdfrwt beam="1">  1        2 0.40693111E+00 0.99973229E+03</pdfrwt>
<pdfrwt beam="2">  1       -2 0.62000574E-01 0.99973229E+03</pdfrwt>
<totfact> 0.10742453E+01</totfact>
</mgrwt>
</event>
<event>
 8    1  0.1439553E-005  0.1047967E+04  0.7818608E-02  0.8730783E-01
         -1   -1    0    0    0  501 -0.00000000000E+00  0.00000000000E+00  0.20357646244E+04  0.20357646244E+04  0.00000000000E+00 0. -1.
          1   -1    0    0  502    0  0.00000000000E+00 -0.00000000000E+00 -0.60506052191E+03  0.60506052191E+03  0.00000000000E+00 0.  1.
    9000010    2    1    2  502    0  0.23054323488E+03 -0.17803902473E+03  0.11520559445E+04  0.15595886584E+04  0.10100672287E+04 0.  0.
   -9000010    2    1    2    0  501 -0.23054323488E+03  0.17803902473E+03  0.27864815797E+03  0.10812364879E+04  0.10032843413E+04 0.  0.
        -13    1    3    3    0    0 -0.34225896418E+03  0.14839821910E+03  0.28038087596E+03  0.46666548700E+03  0.10566000000E+00 0.  1.
          4    1    3    3  502    0  0.57280219906E+03 -0.32643724382E+03  0.87167506857E+03  0.10929231714E+04  0.00000000000E+00 0.  1.
         13    1    4    4    0    0  0.24344288066E+03 -0.10084039522E+03 -0.21664952928E+03  0.34113084169E+03  0.10566000000E+00 0. -1.
         -4    1    4    4    0  501 -0.47398611554E+03  0.27887941994E+03  0.49529768725E+03  0.74010564623E+03  0.00000000000E+00 0. -1.
<mgrwt>
<rscale>  2 0.10479668E+04</rscale>
<asrwt>0</asrwt>
<pdfrwt beam="2">  1        1 0.93086235E-01 0.10479668E+04</pdfrwt>
<pdfrwt beam="1">  1       -1 0.31319455E+00 0.10479668E+04</pdfrwt>
<totfact> 0.59030467E-01</totfact>
</mgrwt>
</event>
<event>
 8    1  0.1439553E-005  0.1109522E+04  0.7818608E-02  0.8677998E-01
          4   -1    0    0  502    0  0.00000000000E+00  0.00000000000E+00  0.19766033794E+04  0.19766033794E+04  0.00000000000E+00 0.  1.
         -4   -1    0    0    0  501 -0.00000000000E+00 -0.00000000000E+00 -0.13934993860E+04  0.13934993860E+04  0.00000000000E+00 0. -1.
    9000010    2    1    2  502    0 -0.46248748666E+03 -0.15133834604E+03  0.15443225477E+04  0.18997542151E+04  0.99364781285E+03 0.  0.
   -9000010    2    1    2    0  501  0.46248748666E+03  0.15133834604E+03 -0.96121855434E+03  0.14703485503E+04  0.10005927143E+04 0.  0.
        -13    1    3    3    0    0  0.16894561820E+03  0.29022533002E+03  0.45843733913E+03  0.56827649008E+03  0.10566000000E+00 0.  1.
          4    1    3    3  502    0 -0.63143310486E+03 -0.44156367606E+03  0.10858852086E+04  0.13314777250E+04  0.00000000000E+00 0.  1.
         13    1    4    4    0    0  0.28810653261E+03  0.21768509400E+03 -0.11497395851E+04  0.12051113223E+04  0.10566000000E+00 0. -1.
         -4    1    4    4    0  501  0.17438095405E+03 -0.66346747954E+02  0.18852103078E+03  0.26523722805E+03  0.00000000000E+00 0. -1.
<mgrwt>
<rscale>  2 0.11095221E+04</rscale>
<asrwt>0</asrwt>
<pdfrwt beam="1">  1        4 0.30409283E+00 0.11095221E+04</pdfrwt>
<pdfrwt beam="2">  1       -4 0.21438452E+00 0.11095221E+04</pdfrwt>
<totfact> 0.91042851E-02</totfact>
</mgrwt>
</event>
<event>
 8    1  0.1439553E-005  0.1179684E+04  0.7818608E-02  0.8622019E-01
         -2   -1    0    0    0  501 -0.00000000000E+00  0.00000000000E+00  0.75457658115E+03  0.75457658115E+03  0.00000000000E+00 0. -1.
          2   -1    0    0  502    0  0.00000000000E+00 -0.00000000000E+00 -0.18944590885E+04  0.18944590885E+04  0.00000000000E+00 0.  1.
    9000010    2    1    2  502    0 -0.49707403646E+03 -0.38707866281E+03 -0.79247948221E+03  0.14350301639E+04  0.10170424537E+04 0.  0.
   -9000010    2    1    2    0  501  0.49707403646E+03  0.38707866281E+03 -0.34740302518E+03  0.12140055058E+04  0.97785889439E+03 0.  0.
        -13    1    3    3    0    0 -0.68490141507E+03 -0.20401589032E+03 -0.90201040558E+03  0.11507976429E+04  0.10566000000E+00 0.  1.
          4    1    3    3  502    0  0.18782737861E+03 -0.18306277249E+03  0.10953092337E+03  0.28423252101E+03  0.00000000000E+00 0.  1.
         13    1    4    4    0    0 -0.29012404115E+03  0.74988139016E+02 -0.25414474150E+01  0.29966923494E+03  0.10566000000E+00 0. -1.
         -4    1    4    4    0  501  0.78719807761E+03  0.31209052380E+03 -0.34486157777E+03  0.91433627089E+03  0.00000000000E+00 0. -1.
<mgrwt>
<rscale>  2 0.11796845E+04</rscale>
<asrwt>0</asrwt>
<pdfrwt beam="2">  1        2 0.29145524E+00 0.11796845E+04</pdfrwt>
<pdfrwt beam="1">  1       -2 0.11608871E+00 0.11796845E+04</pdfrwt>
<totfact> 0.66000026E+00</totfact>
</mgrwt>
</event>
<event>
 8    1  0.1439553E-005  0.1072908E+04  0.7818608E-02  0.8708951E-01
         -2   -1    0    0    0  501 -0.00000000000E+00  0.00000000000E+00  0.72028913989E+03  0.72028913989E+03  0.00000000000E+00 0.  1.
          2   -1    0    0  502    0  0.00000000000E+00 -0.00000000000E+00 -0.16063124121E+04  0.16063124121E+04  0.00000000000E+00 0. -1.
    9000010    2    1    2  502    0 -0.35753881506E+03  0.40937732230E+03 -0.46020850434E+03  0.11098108593E+04  0.85115479180E+03 0.  0.
   -9000010    2    1    2    0  501  0.35753881506E+03 -0.40937732230E+03 -0.42581476783E+03  0.12167906927E+04  0.10019169512E+04 0.  0.
        -13    1    3    3    0    0  0.14929833457E+03  0.10521190469E+03  0.16733726303E+03  0.24771214818E+03  0.10566000000E+00 0.  1.
          4    1    3    3  502    0 -0.50683714963E+03  0.30416541761E+03 -0.62754576737E+03  0.86209871109E+03  0.00000000000E+00 0.  1.
         13    1    4    4    0    0  0.40957942459E+03 -0.60144867638E+03 -0.60705114780E+03  0.94763227181E+03  0.10566000000E+00 0. -1.
         -4    1    4    4    0  501 -0.52040609524E+02  0.19207135408E+03  0.18123637997E+03  0.26915842087E+03  0.00000000000E+00 0. -1.
<mgrwt>
<rscale>  2 0.10729075E+04</rscale>
<asrwt>0</asrwt>
<pdfrwt beam="2">  1        2 0.24712498E+00 0.10729075E+04</pdfrwt>
<pdfrwt beam="1">  1       -2 0.11081372E+00 0.10729075E+04</pdfrwt>
<totfact> 0.10777010E+01</totfact>
</mgrwt>
</event>
<event>
 8    1  0.1439553E-005  0.1332062E+04  0.7818608E-02  0.8513243E-01
          2   -1    0    0  502    0  0.00000000000E+00  0.00000000000E+00  0.31268576131E+04  0.31268576131E+04  0.00000000000E+00 0.  1.
         -2   -1    0    0    0  501 -0.00000000000E+00 -0.00000000000E+00 -0.91151167942E+03  0.91151167942E+03  0.00000000000E+00 0. -1.
    9000010    2    1    2  502    0  0.70374747727E+02  0.83992842003E+03 -0.14366527679E+03  0.13184684062E+04  0.10036368220E+04 0.  0.
   -9000010    2    1    2    0  501 -0.70374747727E+02 -0.83992842003E+03  0.23590112105E+04  0.27199008863E+04  0.10594784492E+04 0.  0.
        -13    1    3    3    0    0 -0.20868902182E+03  0.16299283229E+02  0.28124178868E+03  0.35059054370E+03  0.10566000000E+00 0.  1.
          4    1    3    3  502    0  0.27906376955E+03  0.82362913681E+03 -0.42490706547E+03  0.96787786252E+03  0.00000000000E+00 0.  1.
         13    1    4    4    0    0 -0.44224032443E+03 -0.14746615170E+02  0.65548351751E+03  0.79085562532E+03  0.10566000000E+00 0. -1.
         -4    1    4    4    0  501  0.37186557671E+03 -0.82518180486E+03  0.17035276929E+04  0.19290452610E+04  0.00000000000E+00 0. -1.
<mgrwt>
<rscale>  2 0.13320617E+04</rscale>
<asrwt>0</asrwt>
<pdfrwt beam="1">  1        2 0.48105501E+00 0.13320617E+04</pdfrwt>
<pdfrwt beam="2">  1       -2 0.14023257E+00 0.13320617E+04</pdfrwt>
<totfact> 0.75688339E-01</totfact>
</mgrwt>
</event>
<event>
 8    1  0.1439553E-005  0.1881657E+04  0.7818608E-02  0.8218353E-01
         -1   -1    0    0    0  501 -0.00000000000E+00  0.00000000000E+00  0.36287648610E+04  0.36287648610E+04  0.00000000000E+00 0.  1.
          1   -1    0    0  502    0  0.00000000000E+00 -0.00000000000E+00 -0.10041180753E+04  0.10041180753E+04  0.00000000000E+00 0. -1.
    9000010    2    1    2  502    0 -0.11174170829E+04  0.11450859282E+04  0.92003209919E+03  0.20909409590E+04  0.98271680058E+03 0.  0.
   -9000010    2    1    2    0  501  0.11174170829E+04 -0.11450859282E+04  0.17046146866E+04  0.25419419774E+04  0.99795544314E+03 0.  0.
        -13    1    3    3    0    0 -0.50268291859E+03  0.23759777232E+03  0.81940049170E+03  0.99023229347E+03  0.10566000000E+00 0.  1.
          4    1    3    3  502    0 -0.61473416430E+03  0.90748815590E+03  0.10063160749E+03  0.11007086655E+04  0.00000000000E+00 0.  1.
         13    1    4    4    0    0 -0.33855140739E+01 -0.56599002045E+03  0.83860472892E+03  0.10117381418E+04  0.10566000000E+00 0. -1.
         -4    1    4    4    0  501  0.11208025970E+04 -0.57909590776E+03  0.86600995764E+03  0.15302038356E+04  0.00000000000E+00 0. -1.
<mgrwt>
<rscale>  2 0.18816573E+04</rscale>
<asrwt>0</asrwt>
<pdfrwt beam="2">  1        1 0.15447971E+00 0.18816573E+04</pdfrwt>
<pdfrwt beam="1">  1       -1 0.55827151E+00 0.18816573E+04</pdfrwt>
<totfact> 0.94580213E-02</totfact>
</mgrwt>
</event>
<event>
 8    1  0.1439553E-005  0.1433466E+04  0.7818608E-02  0.8448850E-01
         -2   -1    0    0    0  501 -0.00000000000E+00  0.00000000000E+00  0.15396694670E+04  0.15396694670E+04  0.00000000000E+00 0.  1.
          2   -1    0    0  502    0  0.00000000000E+00 -0.00000000000E+00 -0.15879819237E+04  0.15879819237E+04  0.00000000000E+00 0. -1.
    9000010    2    1    2  502    0 -0.84678805180E+03  0.55910515710E+03 -0.64887235957E+03  0.15755611220E+04  0.10157307363E+04 0.  0.
   -9000010    2    1    2    0  501  0.84678805180E+03 -0.55910515710E+03  0.60055990286E+03  0.15520902688E+04  0.10092885733E+04 0.  0.
        -13    1    3    3    0    0 -0.35786739017E+03 -0.28436976455E+03 -0.15489312900E+03  0.48262524231E+03  0.10566000000E+00 0.  1.
          4    1    3    3  502    0 -0.48892066163E+03  0.84347492164E+03 -0.49397923056E+03  0.10929358797E+04  0.00000000000E+00 0.  1.
         13    1    4    4    0    0  0.93282078987E+03 -0.60135997235E+03  0.77457529818E+03  0.13534235649E+04  0.10566000000E+00 0. -1.
         -4    1    4    4    0  501 -0.86032738071E+02  0.42254815249E+02 -0.17401539532E+03  0.19866670390E+03  0.00000000000E+00 0. -1.
<mgrwt>
<rscale>  2 0.14334659E+04</rscale>
<asrwt>0</asrwt>
<pdfrwt beam="2">  1        2 0.24430491E+00 0.14334659E+04</pdfrwt>
<pdfrwt beam="1">  1       -2 0.23687223E+00 0.14334659E+04</pdfrwt>
<totfact> 0.87045500E-01</totfact>
</mgrwt>
</event>
<event>
 8    1  0.1439553E-005  0.1335176E+04  0.7818608E-02  0.8511179E-01
         -1   -1    0    0    0  501 -0.00000000000E+00  0.00000000000E+00  0.20836761247E+04  0.20836761247E+04  0.00000000000E+00 0. -1.
          1   -1    0    0  502    0  0.00000000000E+00 -0.00000000000E+00 -0.85997777374E+03  0.85997777374E+03  0.00000000000E+00 0.  1.
    9000010    2    1    2  502    0  0.45517037752E+03 -0.79502836674E+03  0.72409646007E+03  0.15361216036E+04  0.99804995922E+03 0.  0.
   -9000010    2    1    2    0  501 -0.45517037752E+03  0.79502836674E+03  0.49960189090E+03  0.14075322948E+04  0.94461364332E+03 0.  0.
        -13    1    3    3    0    0  0.56253265394E+03 -0.41485509750E+02  0.46834251801E+03  0.73314988891E+03  0.10566000000E+00 0.  1.
          4    1    3    3  502    0 -0.10736227643E+03 -0.75354285699E+03  0.25575394206E+03  0.80297171470E+03  0.00000000000E+00 0.  1.
         13    1    4    4    0    0 -0.29356136044E+03  0.16572898678E+03  0.65751499631E+03  0.73889806532E+03  0.10566000000E+00 0. -1.
         -4    1    4    4    0  501 -0.16160901708E+03  0.62929937997E+03 -0.15791310541E+03  0.66863422952E+03  0.00000000000E+00 0. -1.
<mgrwt>
<rscale>  2 0.13351757E+04</rscale>
<asrwt>0</asrwt>
<pdfrwt beam="2">  1        1 0.13230427E+00 0.13351757E+04</pdfrwt>
<pdfrwt beam="1">  1       -1 0.32056556E+00 0.13351757E+04</pdfrwt>
<totfact> 0.29817631E-01</totfact>
</mgrwt>
</event>
<event>
 8    1  0.1439553E-005  0.1418356E+04  0.7818608E-02  0.8458092E-01
          2   -1    0    0  502    0  0.00000000000E+00  0.00000000000E+00  0.21336751996E+04  0.21336751996E+04  0.00000000000E+00 0. -1.
         -2   -1    0    0    0  501 -0.00000000000E+00 -0.00000000000E+00 -0.94869378017E+03  0.94869378017E+03  0.00000000000E+00 0.  1.
    9000010    2    1    2  502    0 -0.10098962141E+04 -0.18844141687E+03  0.46791357393E+03  0.14842596673E+04  0.96368206194E+03 0.  0.
   -9000010    2    1    2    0  501  0.10098962141E+04  0.18844141687E+03  0.71706784546E+03  0.15981093124E+04  0.99215248255E+03 0.  0.
        -13    1    3    3    0    0 -0.85311419378E+03 -0.53068035490E+03  0.46672452033E+03  0.11078164359E+04  0.10566000000E+00 0.  1.
          4    1    3    3  502    0 -0.15678202031E+03  0.34223893802E+03  0.11890536006E+01  0.37644323136E+03  0.00000000000E+00 0.  1.
         13    1    4    4    0    0 -0.76114382693E+02  0.11738549290E+03  0.45865632810E+03  0.47951891690E+03  0.10566000000E+00 0. -1.
         -4    1    4    4    0  501  0.10860105968E+04  0.71055923976E+02  0.25841151736E+03  0.11185903955E+04  0.00000000000E+00 0. -1.
<mgrwt>
<rscale>  2 0.14183556E+04</rscale>
<asrwt>0</asrwt>
<pdfrwt beam="1">  1        2 0.32825772E+00 0.14183556E+04</pdfrwt>
<pdfrwt beam="2">  1       -2 0.14595289E+00 0.14183556E+04</pdfrwt>
<totfact> 0.25187385E+00</totfact>
</mgrwt>
</event>
<event>
 8    1  0.1439553E-005  0.1290671E+04  0.7818608E-02  0.8541243E-01
          1   -1    0    0  502    0  0.00000000000E+00  0.00000000000E+00  0.65148202024E+03  0.65148202024E+03  0.00000000000E+00 0. -1.
         -1   -1    0    0    0  501 -0.00000000000E+00 -0.00000000000E+00 -0.25627404177E+04  0.25627404177E+04  0.00000000000E+00 0.  1.
    9000010    2    1    2  502    0 -0.48740161392E+03 -0.72896688335E+03 -0.10333573297E+04  0.16551119098E+04  0.95006053107E+03 0.  0.
   -9000010    2    1    2    0  501  0.48740161392E+03  0.72896688335E+03 -0.87790106775E+03  0.15591105282E+04  0.94401393216E+03 0.  0.
        -13    1    3    3    0    0 -0.66725488890E+03 -0.14995179017E+03 -0.49436490678E+03  0.84386687241E+03  0.10566000000E+00 0.  1.
          4    1    3    3  502    0  0.17985327498E+03 -0.57901509317E+03 -0.53899242296E+03  0.81124503737E+03  0.00000000000E+00 0.  1.
         13    1    4    4    0    0  0.30415363160E+03  0.45525317316E+03  0.73391312794E+02  0.55240490517E+03  0.10566000000E+00 0. -1.
         -4    1    4    4    0  501  0.18324798231E+03  0.27371371018E+03 -0.95129238054E+03  0.10067056230E+04  0.00000000000E+00 0. -1.
<mgrwt>
<rscale>  2 0.12906711E+04</rscale>
<asrwt>0</asrwt>
<pdfrwt beam="1">  1        1 0.10022800E+00 0.12906711E+04</pdfrwt>
<pdfrwt beam="2">  1       -1 0.39426776E+00 0.12906711E+04</pdfrwt>
<totfact> 0.46058999E-01</totfact>
</mgrwt>
</event>
<event>
 8    1  0.1439553E-005  0.1727007E+04  0.7818608E-02  0.8289628E-01
          4   -1    0    0  502    0  0.00000000000E+00  0.00000000000E+00  0.15780021633E+04  0.15780021633E+04  0.00000000000E+00 0.  1.
         -4   -1    0    0    0  501 -0.00000000000E+00 -0.00000000000E+00 -0.24685387584E+04  0.24685387584E+04  0.00000000000E+00 0. -1.
    9000010    2    1    2  502    0 -0.69538893286E+03  0.12305374350E+04  0.53468249788E+03  0.18052972110E+04  0.98763581338E+03 0.  0.
   -9000010    2    1    2    0  501  0.69538893286E+03 -0.12305374350E+04 -0.14252190929E+04  0.22412437107E+04  0.99706356920E+03 0.  0.
        -13    1    3    3    0    0  0.25464274834E+03  0.31216090871E+03  0.13307924709E+03  0.42426107455E+03  0.10566000000E+00 0.  1.
          4    1    3    3  502    0 -0.95003168120E+03  0.91837652626E+03  0.40160325079E+03  0.13810361365E+04  0.00000000000E+00 0.  1.
         13    1    4    4    0    0  0.14396262102E+03 -0.11500842317E+04 -0.82812644793E+03  0.14245042651E+04  0.10566000000E+00 0. -1.
         -4    1    4    4    0  501  0.55142631184E+03 -0.80453203258E+02 -0.59709264500E+03  0.81673944561E+03  0.00000000000E+00 0. -1.
<mgrwt>
<rscale>  2 0.17270071E+04</rscale>
<asrwt>0</asrwt>
<pdfrwt beam="1">  1        4 0.24276956E+00 0.17270071E+04</pdfrwt>
<pdfrwt beam="2">  1       -4 0.37977519E+00 0.17270071E+04</pdfrwt>
<totfact> 0.41907461E-02</totfact>
</mgrwt>
</event>
<event>
 8    1  0.1439553E-005  0.1295315E+04  0.7818608E-02  0.8538048E-01
         -2   -1    0    0    0  501 -0.00000000000E+00  0.00000000000E+00  0.16279858151E+04  0.16279858151E+04  0.00000000000E+00 0.  1.
          2   -1    0    0  502    0  0.00000000000E+00 -0.00000000000E+00 -0.10563970000E+04  0.10563970000E+04  0.00000000000E+00 0. -1.
    9000010    2    1    2  502    0  0.82747894657E+03  0.16408782445E+03  0.75210425040E+02  0.12928889644E+04  0.97686183522E+03 0.  0.
   -9000010    2    1    2    0  501 -0.82747894657E+03 -0.16408782445E+03  0.49637839003E+03  0.13914938507E+04  0.98904873960E+03 0.  0.
        -13    1    3    3    0    0  0.57366456296E+03 -0.36526687712E+03  0.16289438432E+03  0.69931789190E+03  0.10566000000E+00 0.  1.
          4    1    3    3  502    0  0.25381438361E+03  0.52935470158E+03 -0.87683959279E+02  0.59357107251E+03  0.00000000000E+00 0.  1.
         13    1    4    4    0    0 -0.64704212169E+03 -0.56533148887E+03  0.30541700194E+03  0.91188966207E+03  0.10566000000E+00 0. -1.
         -4    1    4    4    0  501 -0.18043682488E+03  0.40124366442E+03  0.19096138809E+03  0.47960418863E+03  0.00000000000E+00 0. -1.
<mgrwt>
<rscale>  2 0.12953153E+04</rscale>
<asrwt>0</asrwt>
<pdfrwt beam="2">  1        2 0.16252262E+00 0.12953153E+04</pdfrwt>
<pdfrwt beam="1">  1       -2 0.25045935E+00 0.12953153E+04</pdfrwt>
<totfact> 0.13793953E+00</totfact>
</mgrwt>
</event>
<event>
 8    1  0.1439553E-005  0.1239064E+04  0.7818608E-02  0.8577713E-01
          1   -1    0    0  502    0  0.00000000000E+00  0.00000000000E+00  0.13453519373E+04  0.13453519373E+04  0.00000000000E+00 0.  1.
         -1   -1    0    0    0  501 -0.00000000000E+00 -0.00000000000E+00 -0.11450498255E+04  0.11450498255E+04  0.00000000000E+00 0. -1.
    9000010    2    1    2  502    0  0.73154150023E+03  0.26133034177E+03  0.16595299711E+03  0.12861037530E+04  0.10114721707E+04 0.  0.
   -9000010    2    1    2    0  501 -0.73154150023E+03 -0.26133034177E+03  0.34349114696E+02  0.12042980098E+04  0.91962346676E+03 0.  0.
        -13    1    3    3    0    0 -0.79572488201E+02 -0.20505019998E+03 -0.18440177340E+03  0.28702158558E+03  0.10566000000E+00 0.  1.
          4    1    3    3  502    0  0.81111398843E+03  0.46638054176E+03  0.35035477051E+03  0.99908216738E+03  0.00000000000E+00 0.  1.
         13    1    4    4    0    0 -0.52962544800E+03  0.11430298725E+03 -0.33762607489E+03  0.63840399879E+03  0.10566000000E+00 0. -1.
         -4    1    4    4    0  501 -0.20191605223E+03 -0.37563332902E+03  0.37197518958E+03  0.56589401100E+03  0.00000000000E+00 0. -1.
<mgrwt>
<rscale>  2 0.12390637E+04</rscale>
<asrwt>0</asrwt>
<pdfrwt beam="1">  1        1 0.20697722E+00 0.12390637E+04</pdfrwt>
<pdfrwt beam="2">  1       -1 0.17616151E+00 0.12390637E+04</pdfrwt>
<totfact> 0.24746519E+00</totfact>
</mgrwt>
</event>
<event>
 8    1  0.1439553E-005  0.1304252E+04  0.7818608E-02  0.8531938E-01
          1   -1    0    0  502    0  0.00000000000E+00  0.00000000000E+00  0.19359512606E+04  0.19359512606E+04  0.00000000000E+00 0.  1.
         -1   -1    0    0    0  501 -0.00000000000E+00 -0.00000000000E+00 -0.88829571255E+03  0.88829571255E+03  0.00000000000E+00 0. -1.
    9000010    2    1    2  502    0 -0.11875550059E+03  0.82161834449E+03  0.36887226364E+03  0.13285842369E+04  0.96948942999E+03 0.  0.
   -9000010    2    1    2    0  501  0.11875550059E+03 -0.82161834449E+03  0.67878328436E+03  0.14956627362E+04  0.10426412136E+04 0.  0.
        -13    1    3    3    0    0  0.51311721449E+02  0.32535893249E+03  0.65345351091E+03  0.73177375588E+03  0.10566000000E+00 0.  1.
          4    1    3    3  502    0 -0.17006722204E+03  0.49625941200E+03 -0.28458124727E+03  0.59681048106E+03  0.00000000000E+00 0.  1.
         13    1    4    4    0    0 -0.28828739653E+03  0.43251498069E+02 -0.47260189216E+02  0.29531991422E+03  0.10566000000E+00 0. -1.
         -4    1    4    4    0  501  0.40704289712E+03 -0.86486984256E+03  0.72604347357E+03  0.12003428219E+04  0.00000000000E+00 0. -1.
<mgrwt>
<rscale>  2 0.13042521E+04</rscale>
<asrwt>0</asrwt>
<pdfrwt beam="1">  1        1 0.29783865E+00 0.13042521E+04</pdfrwt>
<pdfrwt beam="2">  1       -1 0.13666088E+00 0.13042521E+04</pdfrwt>
<totfact> 0.19560361E+00</totfact>
</mgrwt>
</event>
<event>
 8    1  0.1439553E-005  0.1098012E+04  0.7818608E-02  0.8687592E-01
          1   -1    0    0  502    0  0.00000000000E+00  0.00000000000E+00  0.59920896543E+03  0.59920896543E+03  0.00000000000E+00 0. -1.
         -1   -1    0    0    0  501 -0.00000000000E+00 -0.00000000000E+00 -0.24323482622E+04  0.24323482622E+04  0.00000000000E+00 0.  1.
    9000010    2    1    2  502    0 -0.64117165512E+03  0.22070497689E+02 -0.35221516181E+03  0.12333548293E+04  0.99273380955E+03 0.  0.
   -9000010    2    1    2    0  501  0.64117165512E+03 -0.22070497689E+02 -0.14809241350E+04  0.17982023983E+04  0.79297375340E+03 0.  0.
        -13    1    3    3    0    0 -0.50691612593E+03 -0.52933934245E+02 -0.69255496297E+03  0.85988275248E+03  0.10566000000E+00 0.  1.
          4    1    3    3  502    0 -0.13425552919E+03  0.75004431934E+02  0.34033980116E+03  0.37347207685E+03  0.00000000000E+00 0.  1.
         13    1    4    4    0    0  0.52950233634E+03 -0.30791949145E+03 -0.13118938351E+04  0.14478441156E+04  0.10566000000E+00 0. -1.
         -4    1    4    4    0  501  0.11166931878E+03  0.28584899376E+03 -0.16903029991E+03  0.35035828273E+03  0.00000000000E+00 0. -1.
<mgrwt>
<rscale>  2 0.10980122E+04</rscale>
<asrwt>0</asrwt>
<pdfrwt beam="1">  1        1 0.92185996E-01 0.10980122E+04</pdfrwt>
<pdfrwt beam="2">  1       -1 0.37420742E+00 0.10980122E+04</pdfrwt>
<totfact> 0.49734857E-01</totfact>
</mgrwt>
</event>
<event>
 8    1  0.1439553E-005  0.1088493E+04  0.7818608E-02  0.8695620E-01
         -2   -1    0    0    0  501 -0.00000000000E+00  0.00000000000E+00  0.12460792080E+04  0.12460792080E+04  0.00000000000E+00 0.  1.
          2   -1    0    0  502    0  0.00000000000E+00 -0.00000000000E+00 -0.97892082598E+03  0.97892082598E+03  0.00000000000E+00 0. -1.
    9000010    2    1    2  502    0  0.36395308564E+02 -0.40270386995E+03 -0.53567792004E+02  0.10987871862E+04  0.10202787594E+04 0.  0.
   -9000010    2    1    2    0  501 -0.36395308564E+02  0.40270386995E+03  0.32072617403E+03  0.11262128478E+04  0.10009970402E+04 0.  0.
        -13    1    3    3    0    0 -0.20695188221E+03 -0.66757991996E+03  0.10305020477E+03  0.70647815745E+03  0.10566000000E+00 0.  1.
          4    1    3    3  502    0  0.24334719077E+03  0.26487605001E+03 -0.15661799677E+03  0.39230902875E+03  0.00000000000E+00 0.  1.
         13    1    4    4    0    0  0.41562565947E+03 -0.23262805678E+02 -0.21939163716E+02  0.41685391327E+03  0.10566000000E+00 0. -1.
         -4    1    4    4    0  501 -0.45202096804E+03  0.42596667563E+03  0.34266533775E+03  0.70935893452E+03  0.00000000000E+00 0. -1.
<mgrwt>
<rscale>  2 0.10884929E+04</rscale>
<asrwt>0</asrwt>
<pdfrwt beam="2">  1        2 0.15060320E+00 0.10884929E+04</pdfrwt>
<pdfrwt beam="1">  1       -2 0.19170449E+00 0.10884929E+04</pdfrwt>
<totfact> 0.46752582E+00</totfact>
</mgrwt>
</event>
<event>
 8    1  0.1439553E-005  0.1075411E+04  0.7818608E-02  0.8706794E-01
          1   -1    0    0  502    0  0.00000000000E+00  0.00000000000E+00  0.95476276108E+03  0.95476276108E+03  0.00000000000E+00 0.  1.
         -1   -1    0    0    0  501 -0.00000000000E+00 -0.00000000000E+00 -0.14847532800E+04  0.14847532800E+04  0.00000000000E+00 0. -1.
    9000010    2    1    2  502    0 -0.38813207105E+03 -0.89118147636E+02 -0.78780971768E+03  0.13305549082E+04  0.99556198379E+03 0.  0.
   -9000010    2    1    2    0  501  0.38813207105E+03  0.89118147636E+02  0.25781919878E+03  0.11089611329E+04  0.10023649566E+04 0.  0.
        -13    1    3    3    0    0  0.32926726926E+03 -0.40809639227E+01 -0.13167931335E+03  0.35464495147E+03  0.10566000000E+00 0.  1.
          4    1    3    3  502    0 -0.71739934031E+03 -0.85037183713E+02 -0.65613040434E+03  0.97590995670E+03  0.00000000000E+00 0.  1.
         13    1    4    4    0    0 -0.18185429580E+03 -0.11768945055E+03 -0.24082660560E+03  0.32391242149E+03  0.10566000000E+00 0. -1.
         -4    1    4    4    0  501  0.56998636684E+03  0.20680759819E+03  0.49864580438E+03  0.78504871141E+03  0.00000000000E+00 0. -1.
<mgrwt>
<rscale>  2 0.10754107E+04</rscale>
<asrwt>0</asrwt>
<pdfrwt beam="1">  1        1 0.14688658E+00 0.10754107E+04</pdfrwt>
<pdfrwt beam="2">  1       -1 0.22842358E+00 0.10754107E+04</pdfrwt>
<totfact> 0.17294952E+00</totfact>
</mgrwt>
</event>
<event>
 8    1  0.1439553E-005  0.1574085E+04  0.7818608E-02  0.8368095E-01
          1   -1    0    0  502    0  0.00000000000E+00  0.00000000000E+00  0.25025497399E+04  0.25025497399E+04  0.00000000000E+00 0.  1.
         -1   -1    0    0    0  501 -0.00000000000E+00 -0.00000000000E+00 -0.14194304943E+04  0.14194304943E+04  0.00000000000E+00 0. -1.
    9000010    2    1    2  502    0 -0.10952751178E+04 -0.53718915345E+03  0.16221923116E+04  0.22667364048E+04  0.10091512586E+04 0.  0.
   -9000010    2    1    2    0  501  0.10952751178E+04  0.53718915345E+03 -0.53907306601E+03  0.16552438294E+04  0.98032269883E+03 0.  0.
        -13    1    3    3    0    0 -0.31460194133E+03  0.23226969561E+03  0.81982162542E+03  0.90831222697E+03  0.10566000000E+00 0.  1.
          4    1    3    3  502    0 -0.78067317650E+03 -0.76945884906E+03  0.80237068617E+03  0.13584241778E+04  0.00000000000E+00 0.  1.
         13    1    4    4    0    0 -0.16194360553E+03 -0.25824666508E+02 -0.15386237649E+03  0.22486948845E+03  0.10566000000E+00 0. -1.
         -4    1    4    4    0  501  0.12572187234E+04  0.56301381996E+03 -0.38521068952E+03  0.14303743409E+04  0.00000000000E+00 0. -1.
<mgrwt>
<rscale>  2 0.15740849E+04</rscale>
<asrwt>0</asrwt>
<pdfrwt beam="1">  1        1 0.38500765E+00 0.15740849E+04</pdfrwt>
<pdfrwt beam="2">  1       -1 0.21837392E+00 0.15740849E+04</pdfrwt>
<totfact> 0.12237520E-01</totfact>
</mgrwt>
</event>
<event>
 8    1  0.1439553E-005  0.1268031E+04  0.7818608E-02  0.8557021E-01
         -2   -1    0    0    0  501 -0.00000000000E+00  0.00000000000E+00  0.65301768486E+03  0.65301768486E+03  0.00000000000E+00 0.  1.
          2   -1    0    0  502    0  0.00000000000E+00 -0.00000000000E+00 -0.25298775448E+04  0.25298775448E+04  0.00000000000E+00 0. -1.
    9000010    2    1    2  502    0  0.91694899376E+02 -0.76153671738E+03 -0.11936917386E+04  0.17366896975E+04  0.10014214958E+04 0.  0.
   -9000010    2    1    2    0  501 -0.91694899376E+02  0.76153671738E+03 -0.68316812137E+03  0.14462055322E+04  0.10180597393E+04 0.  0.
        -13    1    3    3    0    0 -0.28070879922E+03  0.11735935873E+03 -0.24176377741E+03  0.38861341237E+03  0.10566000000E+00 0.  1.
          4    1    3    3  502    0  0.37240369860E+03 -0.87889607611E+03 -0.95192796119E+03  0.13480762852E+04  0.00000000000E+00 0.  1.
         13    1    4    4    0    0 -0.51607141445E+03  0.20316183071E+03 -0.42546933273E+03  0.69901974116E+03  0.10566000000E+00 0. -1.
         -4    1    4    4    0  501  0.42437651508E+03  0.55837488666E+03 -0.25769878863E+03  0.74718579100E+03  0.00000000000E+00 0. -1.
<mgrwt>
<rscale>  2 0.12680314E+04</rscale>
<asrwt>0</asrwt>
<pdfrwt beam="2">  1        2 0.38921193E+00 0.12680314E+04</pdfrwt>
<pdfrwt beam="1">  1       -2 0.10046426E+00 0.12680314E+04</pdfrwt>
<totfact> 0.41952964E+00</totfact>
</mgrwt>
</event>
<event>
 8    1  0.1439553E-005  0.1041201E+04  0.7818608E-02  0.8736814E-01
          2   -1    0    0  502    0  0.00000000000E+00  0.00000000000E+00  0.16974190465E+04  0.16974190465E+04  0.00000000000E+00 0.  1.
         -2   -1    0    0    0  501 -0.00000000000E+00 -0.00000000000E+00 -0.64981090666E+03  0.64981090666E+03  0.00000000000E+00 0. -1.
    9000010    2    1    2  502    0 -0.34468636947E+03 -0.32741830719E+02  0.37167834204E+03  0.11083598745E+04  0.98510715188E+03 0.  0.
   -9000010    2    1    2    0  501  0.34468636947E+03  0.32741830719E+02  0.67592979785E+03  0.12388700787E+04  0.97879377784E+03 0.  0.
        -13    1    3    3    0    0 -0.17589613441E+03  0.18804148335E+03  0.65967045192E+03  0.70814134596E+03  0.10566000000E+00 0.  1.
          4    1    3    3  502    0 -0.16879023506E+03 -0.22078331407E+03 -0.28799210989E+03  0.40021852853E+03  0.00000000000E+00 0.  1.
         13    1    4    4    0    0  0.38824649465E+03  0.19263047996E+03  0.87703717673E+03  0.97828220006E+03  0.10566000000E+00 0. -1.
         -4    1    4    4    0  501 -0.43560125177E+02 -0.15988864924E+03 -0.20110737888E+03  0.26058787866E+03  0.00000000000E+00 0. -1.
<mgrwt>
<rscale>  2 0.10412011E+04</rscale>
<asrwt>0</asrwt>
<pdfrwt beam="1">  1        2 0.26114139E+00 0.10412011E+04</pdfrwt>
<pdfrwt beam="2">  1       -2 0.99970909E-01 0.10412011E+04</pdfrwt>
<totfact> 0.12430059E+01</totfact>
</mgrwt>
</event>
<event>
 8    1  0.1439553E-005  0.1167762E+04  0.7818608E-02  0.8631242E-01
         -1   -1    0    0    0  501 -0.00000000000E+00  0.00000000000E+00  0.57265346338E+03  0.57265346338E+03  0.00000000000E+00 0. -1.
          1   -1    0    0  502    0  0.00000000000E+00 -0.00000000000E+00 -0.25148896082E+04  0.25148896082E+04  0.00000000000E+00 0.  1.
    9000010    2    1    2  502    0  0.42070437357E+03  0.36272042702E+03 -0.63521628255E+03  0.13502666621E+04  0.10541167180E+04 0.  0.
   -9000010    2    1    2    0  501 -0.42070437357E+03 -0.36272042702E+03 -0.13070198623E+04  0.17372764094E+04  0.10006348606E+04 0.  0.
        -13    1    3    3    0    0  0.50081748763E+03  0.38113123822E+03 -0.88576313670E+03  0.10865797358E+04  0.10566000000E+00 0.  1.
          4    1    3    3  502    0 -0.80113114053E+02 -0.18410811202E+02  0.25054685416E+03  0.26368692637E+03  0.00000000000E+00 0.  1.
         13    1    4    4    0    0 -0.12461049302E+03 -0.91488971339E+02 -0.13262906768E+04  0.13352696272E+04  0.10566000000E+00 0. -1.
         -4    1    4    4    0  501 -0.29609388056E+03 -0.27123145568E+03  0.19270814541E+02  0.40200678221E+03  0.00000000000E+00 0. -1.
<mgrwt>
<rscale>  2 0.11677619E+04</rscale>
<asrwt>0</asrwt>
<pdfrwt beam="2">  1        1 0.38690610E+00 0.11677619E+04</pdfrwt>
<pdfrwt beam="1">  1       -1 0.88100531E-01 0.11677619E+04</pdfrwt>
<totfact> 0.18547155E+00</totfact>
</mgrwt>
</event>
<event>
 8    1  0.1439553E-005  0.1557733E+04  0.7818608E-02  0.8377027E-01
          1   -1    0    0  502    0  0.00000000000E+00  0.00000000000E+00  0.15781233401E+04  0.15781233401E+04  0.00000000000E+00 0. -1.
         -1   -1    0    0    0  501 -0.00000000000E+00 -0.00000000000E+00 -0.15400219716E+04  0.15400219716E+04  0.00000000000E+00 0.  1.
    9000010    2    1    2  502    0 -0.11670449272E+04  0.28294701391E+03 -0.42493359148E+02  0.15525521461E+04  0.98313763341E+03 0.  0.
   -9000010    2    1    2    0  501  0.11670449272E+04 -0.28294701391E+03  0.80594727648E+02  0.15655931655E+04  0.10012659861E+04 0.  0.
        -13    1    3    3    0    0 -0.51485162500E+03 -0.19938237850E+03  0.34763913596E+03  0.65244042536E+03  0.10566000000E+00 0.  1.
          4    1    3    3  502    0 -0.65219330216E+03  0.48232939240E+03 -0.39013249511E+03  0.90011172078E+03  0.00000000000E+00 0.  1.
         13    1    4    4    0    0  0.73045595014E+03  0.28477535746E+03 -0.17835053244E+03  0.80403471498E+03  0.10566000000E+00 0. -1.
         -4    1    4    4    0  501  0.43658897702E+03 -0.56772237137E+03  0.25894526009E+03  0.76155845050E+03  0.00000000000E+00 0. -1.
<mgrwt>
<rscale>  2 0.15577332E+04</rscale>
<asrwt>0</asrwt>
<pdfrwt beam="1">  1        1 0.24278820E+00 0.15577332E+04</pdfrwt>
<pdfrwt beam="2">  1       -1 0.23692646E+00 0.15577332E+04</pdfrwt>
<totfact> 0.44781453E-01</totfact>
</mgrwt>
</event>
<event>
 8    1  0.1439553E-005  0.1320835E+04  0.7818608E-02  0.8520733E-01
         -4   -1    0    0    0  501 -0.00000000000E+00  0.00000000000E+00  0.31174769764E+04  0.31174769764E+04  0.00000000000E+00 0. -1.
          4   -1    0    0  502    0  0.00000000000E+00 -0.00000000000E+00 -0.61090948016E+03  0.61090948016E+03  0.00000000000E+00 0.  1.
    9000010    2    1    2  502    0  0.20131923832E+02  0.86735908282E+03  0.17988387964E+04  0.22354329595E+04  0.10043019605E+04 0.  0.
   -9000010    2    1    2    0  501 -0.20131923832E+02 -0.86735908282E+03  0.70772869985E+03  0.14929534971E+04  0.98757944441E+03 0.  0.
        -13    1    3    3    0    0  0.13846203488E+03  0.10443659723E+04  0.11843620843E+04  0.15851137426E+04  0.10566000000E+00 0.  1.
          4    1    3    3  502    0 -0.11833011105E+03 -0.17700688945E+03  0.61447671213E+03  0.65031921688E+03  0.00000000000E+00 0.  1.
         13    1    4    4    0    0 -0.24442753090E+02 -0.18356269928E+03 -0.25311544287E+03  0.31362421993E+03  0.10566000000E+00 0. -1.
         -4    1    4    4    0  501  0.43108292584E+01 -0.68379638354E+03  0.96084414272E+03  0.11793292772E+04  0.00000000000E+00 0. -1.
<mgrwt>
<rscale>  2 0.13208351E+04</rscale>
<asrwt>0</asrwt>
<pdfrwt beam="2">  1        4 0.93986076E-01 0.13208351E+04</pdfrwt>
<pdfrwt beam="1">  1       -4 0.47961183E+00 0.13208351E+04</pdfrwt>
<totfact> 0.68348987E-02</totfact>
</mgrwt>
</event>
<event>
 8    1  0.1439553E-005  0.1466675E+04  0.7818608E-02  0.8428940E-01
         -2   -1    0    0    0  501 -0.00000000000E+00  0.00000000000E+00  0.91257072100E+03  0.91257072100E+03  0.00000000000E+00 0. -1.
          2   -1    0    0  502    0  0.00000000000E+00 -0.00000000000E+00 -0.26001646181E+04  0.26001646181E+04  0.00000000000E+00 0.  1.
    9000010    2    1    2  502    0 -0.96006732765E+03 -0.48165572754E+03 -0.13812864364E+04  0.20155958988E+04  0.10004764337E+04 0.  0.
   -9000010    2    1    2    0  501  0.96006732765E+03  0.48165572754E+03 -0.30630746067E+03  0.14971394403E+04  0.99693566977E+03 0.  0.
        -13    1    3    3    0    0  0.15798904367E+03 -0.25647240721E+03 -0.45814932399E+03  0.54830598010E+03  0.10566000000E+00 0.  1.
          4    1    3    3  502    0 -0.11180563713E+04 -0.22518332033E+03 -0.92313711242E+03  0.14672899187E+04  0.00000000000E+00 0.  1.
         13    1    4    4    0    0  0.10525438019E+04  0.65811290989E+03 -0.16362065925E+03  0.12520913658E+04  0.10566000000E+00 0. -1.
         -4    1    4    4    0  501 -0.92476474248E+02 -0.17645718234E+03 -0.14268680143E+03  0.24504807445E+03  0.00000000000E+00 0. -1.
<mgrwt>
<rscale>  2 0.14666750E+04</rscale>
<asrwt>0</asrwt>
<pdfrwt beam="2">  1        2 0.40002532E+00 0.14666750E+04</pdfrwt>
<pdfrwt beam="1">  1       -2 0.14039550E+00 0.14666750E+04</pdfrwt>
<totfact> 0.15450060E+00</totfact>
</mgrwt>
</event>
<event>
 8    1  0.1439553E-005  0.1080009E+04  0.7818608E-02  0.8702848E-01
         -1   -1    0    0    0  501 -0.00000000000E+00  0.00000000000E+00  0.26860611816E+04  0.26860611816E+04  0.00000000000E+00 0.  1.
          1   -1    0    0  502    0  0.00000000000E+00 -0.00000000000E+00 -0.53413707323E+03  0.53413707323E+03  0.00000000000E+00 0. -1.
    9000010    2    1    2  502    0 -0.42328700016E+03 -0.68586550814E+02  0.38730829031E+03  0.11561069768E+04  0.10013489056E+04 0.  0.
   -9000010    2    1    2    0  501  0.42328700016E+03  0.68586550814E+02  0.17646158181E+04  0.20640912780E+04  0.98118694405E+03 0.  0.
        -13    1    3    3    0    0 -0.59180294485E+03 -0.25063997489E+03 -0.59097950953E+02  0.64540196894E+03  0.10566000000E+00 0.  1.
          4    1    3    3  502    0  0.16851594469E+03  0.18205342408E+03  0.44640624127E+03  0.51070500788E+03  0.00000000000E+00 0.  1.
         13    1    4    4    0    0 -0.50579711232E+02  0.41753387790E+03  0.41087516028E+03  0.58797215485E+03  0.10566000000E+00 0. -1.
         -4    1    4    4    0  501  0.47386671139E+03 -0.34894732708E+03  0.13537406578E+04  0.14761191232E+04  0.00000000000E+00 0. -1.
<mgrwt>
<rscale>  2 0.10800086E+04</rscale>
<asrwt>0</asrwt>
<pdfrwt beam="2">  1        1 0.82174936E-01 0.10800086E+04</pdfrwt>
<pdfrwt beam="1">  1       -1 0.41324017E+00 0.10800086E+04</pdfrwt>
<totfact> 0.64293276E-01</totfact>
</mgrwt>
</event>
<event>
 8    1  0.1439553E-005  0.1068613E+04  0.7818608E-02  0.8712665E-01
         -2   -1    0    0    0  501 -0.00000000000E+00  0.00000000000E+00  0.12344467661E+04  0.12344467661E+04  0.00000000000E+00 0. -1.
          2   -1    0    0  502    0  0.00000000000E+00 -0.00000000000E+00 -0.95039769855E+03  0.95039769855E+03  0.00000000000E+00 0.  1.
    9000010    2    1    2  502    0 -0.28784072022E+03  0.29849923328E+03 -0.37578539626E+02  0.10556152361E+04  0.97002953958E+03 0.  0.
   -9000010    2    1    2    0  501  0.28784072022E+03 -0.29849923328E+03  0.32162760713E+03  0.11292292285E+04  0.99988012293E+03 0.  0.
        -13    1    3    3    0    0  0.35747762257E+03  0.17435131349E+03 -0.84896807246E+01  0.39781995550E+03  0.10566000000E+00 0.  1.
          4    1    3    3  502    0 -0.64531834279E+03  0.12414791979E+03 -0.29088858901E+02  0.65779528065E+03  0.00000000000E+00 0.  1.
         13    1    4    4    0    0 -0.16557926241E+03  0.26268544001E+03 -0.55033127022E+02  0.31535502021E+03  0.10566000000E+00 0. -1.
         -4    1    4    4    0  501  0.45341998263E+03 -0.56118467329E+03  0.37666073416E+03  0.81387420824E+03  0.00000000000E+00 0. -1.
<mgrwt>
<rscale>  2 0.10686133E+04</rscale>
<asrwt>0</asrwt>
<pdfrwt beam="2">  1        2 0.14621503E+00 0.10686133E+04</pdfrwt>
<pdfrwt beam="1">  1       -2 0.18991489E+00 0.10686133E+04</pdfrwt>
<totfact> 0.50489649E+00</totfact>
</mgrwt>
</event>
<event>
 8    1  0.1439553E-005  0.1518043E+04  0.7818608E-02  0.8399190E-01
         -2   -1    0    0    0  501 -0.00000000000E+00  0.00000000000E+00  0.70049029699E+03  0.70049029699E+03  0.00000000000E+00 0. -1.
          2   -1    0    0  502    0  0.00000000000E+00 -0.00000000000E+00 -0.35722396070E+04  0.35722396070E+04  0.00000000000E+00 0.  1.
    9000010    2    1    2  502    0 -0.14213455613E+03 -0.11200602837E+04 -0.20564343947E+04  0.25703738973E+04  0.10503153243E+04 0.  0.
   -9000010    2    1    2    0  501  0.14213455613E+03  0.11200602837E+04 -0.81531491527E+03  0.17023560067E+04  0.97905070931E+03 0.  0.
        -13    1    3    3    0    0  0.29388823735E+03 -0.14148212221E+03 -0.10229894266E+03  0.34183705445E+03  0.10566000000E+00 0.  1.
          4    1    3    3  502    0 -0.43602279349E+03 -0.97857816152E+03 -0.19541354521E+04  0.22285368428E+04  0.00000000000E+00 0.  1.
         13    1    4    4    0    0 -0.22355635692E+03  0.74808623435E+03 -0.88033743610E+03  0.11766921736E+04  0.10566000000E+00 0. -1.
         -4    1    4    4    0  501  0.36569091306E+03  0.37197404938E+03  0.65022520831E+02  0.52566383318E+03  0.00000000000E+00 0. -1.
<mgrwt>
<rscale>  2 0.15180429E+04</rscale>
<asrwt>0</asrwt>
<pdfrwt beam="2">  1        2 0.54957532E+00 0.15180429E+04</pdfrwt>
<pdfrwt beam="1">  1       -2 0.10776774E+00 0.15180429E+04</pdfrwt>
<totfact> 0.73822152E-01</totfact>
</mgrwt>
</event>
<event>
 8    1  0.1439553E-005  0.1287503E+04  0.7818608E-02  0.8543431E-01
          1   -1    0    0  502    0  0.00000000000E+00  0.00000000000E+00  0.11199107698E+04  0.11199107698E+04  0.00000000000E+00 0. -1.
         -1   -1    0    0    0  501 -0.00000000000E+00 -0.00000000000E+00 -0.28484769815E+04  0.28484769815E+04  0.00000000000E+00 0.  1.
    9000010    2    1    2  502    0 -0.15093395872E+02 -0.80757144094E+03 -0.22409139121E+04  0.25864985012E+04  0.10079086726E+04 0.  0.
   -9000010    2    1    2    0  501  0.15093395872E+02  0.80757144094E+03  0.51234770042E+03  0.13818892502E+04  0.99735564914E+03 0.  0.
        -13    1    3    3    0    0 -0.28129357033E+03 -0.88451235173E+03 -0.12459310318E+04  0.15536512866E+04  0.10566000000E+00 0.  1.
          4    1    3    3  502    0  0.26620017446E+03  0.76940910783E+02 -0.99498288027E+03  0.10328472146E+04  0.00000000000E+00 0.  1.
         13    1    4    4    0    0 -0.31907709835E+03  0.17228360861E+03 -0.16185446534E+03  0.39710038479E+03  0.10566000000E+00 0. -1.
         -4    1    4    4    0  501  0.33417049423E+03  0.63528783233E+03  0.67420216576E+03  0.98478886541E+03  0.00000000000E+00 0. -1.
<mgrwt>
<rscale>  2 0.12875033E+04</rscale>
<asrwt>0</asrwt>
<pdfrwt beam="1">  1        1 0.17229396E+00 0.12875033E+04</pdfrwt>
<pdfrwt beam="2">  1       -1 0.43822723E+00 0.12875033E+04</pdfrwt>
<totfact> 0.18375928E-01</totfact>
</mgrwt>
</event>
<event>
 8    1  0.1439553E-005  0.1091308E+04  0.7818608E-02  0.8693237E-01
         -2   -1    0    0    0  501 -0.00000000000E+00  0.00000000000E+00  0.40771720281E+03  0.40771720281E+03  0.00000000000E+00 0. -1.
          2   -1    0    0  502    0  0.00000000000E+00 -0.00000000000E+00 -0.30601769672E+04  0.30601769672E+04  0.00000000000E+00 0.  1.
    9000010    2    1    2  502    0  0.24431720658E+03 -0.40774965844E+03 -0.16736237331E+04  0.19881479658E+04  0.96216695659E+03 0.  0.
   -9000010    2    1    2    0  501 -0.24431720658E+03  0.40774965844E+03 -0.97883603127E+03  0.14797462042E+04  0.10027852070E+04 0.  0.
        -13    1    3    3    0    0 -0.24335477853E+02 -0.23861401731E+03  0.41912239921E+02  0.24348616338E+03  0.10566000000E+00 0.  1.
          4    1    3    3  502    0  0.26865268444E+03 -0.16913564114E+03 -0.17155359730E+04  0.17446618024E+04  0.00000000000E+00 0.  1.
         13    1    4    4    0    0  0.58520115748E+02 -0.21035615575E+03  0.66414249120E+02  0.22822177779E+03  0.10566000000E+00 0. -1.
         -4    1    4    4    0  501 -0.30283732233E+03  0.61810581419E+03 -0.10452502804E+04  0.12515244264E+04  0.00000000000E+00 0. -1.
<mgrwt>
<rscale>  2 0.10913084E+04</rscale>
<asrwt>0</asrwt>
<pdfrwt beam="2">  1        2 0.47079645E+00 0.10913084E+04</pdfrwt>
<pdfrwt beam="1">  1       -2 0.62725724E-01 0.10913084E+04</pdfrwt>
<totfact> 0.58503832E+00</totfact>
</mgrwt>
</event>
<event>
 8    1  0.1439553E-005  0.1170327E+04  0.7818608E-02  0.8629248E-01
          2   -1    0    0  502    0  0.00000000000E+00  0.00000000000E+00  0.26908283490E+04  0.26908283490E+04  0.00000000000E+00 0. -1.
         -2   -1    0    0    0  501 -0.00000000000E+00 -0.00000000000E+00 -0.60171228883E+03  0.60171228883E+03  0.00000000000E+00 0.  1.
    9000010    2    1    2  502    0  0.66052154872E+02  0.62952186355E+03  0.16901362115E+04  0.20553332324E+04  0.98344985585E+03 0.  0.
   -9000010    2    1    2    0  501 -0.66052154872E+02 -0.62952186355E+03  0.39897984867E+03  0.12372074054E+04  0.98531039805E+03 0.  0.
        -13    1    3    3    0    0  0.21754870728E+03 -0.67174285446E+02  0.11186523702E+04  0.11415879121E+04  0.10566000000E+00 0.  1.
          4    1    3    3  502    0 -0.15149655241E+03  0.69669614899E+03  0.57148384128E+03  0.91374532024E+03  0.00000000000E+00 0.  1.
         13    1    4    4    0    0  0.45981851123E+03 -0.29123276728E+03  0.15409658989E+03  0.56568132211E+03  0.10566000000E+00 0. -1.
         -4    1    4    4    0  501 -0.52587066610E+03 -0.33828909626E+03  0.24488325878E+03  0.67152608330E+03  0.00000000000E+00 0. -1.
<mgrwt>
<rscale>  2 0.11703267E+04</rscale>
<asrwt>0</asrwt>
<pdfrwt beam="1">  1        2 0.41397358E+00 0.11703267E+04</pdfrwt>
<pdfrwt beam="2">  1       -2 0.92571123E-01 0.11703267E+04</pdfrwt>
<totfact> 0.41651927E+00</totfact>
</mgrwt>
</event>
<event>
 8    1  0.1439553E-005  0.1337171E+04  0.7818608E-02  0.8509859E-01
         -2   -1    0    0    0  501 -0.00000000000E+00  0.00000000000E+00  0.11102209060E+04  0.11102209060E+04  0.00000000000E+00 0.  1.
          2   -1    0    0  502    0  0.00000000000E+00 -0.00000000000E+00 -0.16200268263E+04  0.16200268263E+04  0.00000000000E+00 0. -1.
    9000010    2    1    2  502    0  0.59190588993E+03  0.63580188299E+03 -0.15232217127E+03  0.13544934489E+04  0.10280339694E+04 0.  0.
   -9000010    2    1    2    0  501 -0.59190588993E+03 -0.63580188299E+03 -0.35748374901E+03  0.13757542834E+04  0.10051410848E+04 0.  0.
        -13    1    3    3    0    0 -0.98500954525E+02  0.64776720573E+03 -0.85152056291E+02  0.66072359933E+03  0.10566000000E+00 0.  1.
          4    1    3    3  502    0  0.69040684445E+03 -0.11965322738E+02 -0.67170114978E+02  0.69376984956E+03  0.00000000000E+00 0.  1.
         13    1    4    4    0    0 -0.24690501606E+03 -0.21644531918E+03 -0.67220554273E+03  0.74811159996E+03  0.10566000000E+00 0. -1.
         -4    1    4    4    0  501 -0.34500087386E+03 -0.41935656381E+03  0.31472179373E+03  0.62764268340E+03  0.00000000000E+00 0. -1.
<mgrwt>
<rscale>  2 0.13371710E+04</rscale>
<asrwt>0</asrwt>
<pdfrwt beam="2">  1        2 0.24923490E+00 0.13371710E+04</pdfrwt>
<pdfrwt beam="1">  1       -2 0.17080322E+00 0.13371710E+04</pdfrwt>
<totfact> 0.29492434E+00</totfact>
</mgrwt>
</event>
<event>
 8    1  0.1439553E-005  0.1215435E+04  0.7818608E-02  0.8595029E-01
         -1   -1    0    0    0  501 -0.00000000000E+00  0.00000000000E+00  0.10289781598E+04  0.10289781598E+04  0.00000000000E+00 0.  1.
          1   -1    0    0  502    0  0.00000000000E+00 -0.00000000000E+00 -0.14920531008E+04  0.14920531008E+04  0.00000000000E+00 0. -1.
    9000010    2    1    2  502    0 -0.52717698458E+03 -0.44821853408E+03 -0.47599486049E+03  0.13025871984E+04  0.99566403716E+03 0.  0.
   -9000010    2    1    2    0  501  0.52717698458E+03  0.44821853408E+03  0.12919919512E+02  0.12184440622E+04  0.10028078486E+04 0.  0.
        -13    1    3    3    0    0 -0.64325540340E+03  0.88114218122E+02 -0.35753254977E+03  0.74119576682E+03  0.10566000000E+00 0.  1.
          4    1    3    3  502    0  0.11607841882E+03 -0.53633275221E+03 -0.11846231073E+03  0.56139143160E+03  0.00000000000E+00 0.  1.
         13    1    4    4    0    0  0.81723669183E+03  0.26643555619E+03  0.99605365325E+02  0.86532361347E+03  0.10566000000E+00 0. -1.
         -4    1    4    4    0  501 -0.29005970725E+03  0.18178297789E+03 -0.86685445813E+02  0.35312044877E+03  0.00000000000E+00 0. -1.
<mgrwt>
<rscale>  2 0.12154355E+04</rscale>
<asrwt>0</asrwt>
<pdfrwt beam="2">  1        1 0.22954663E+00 0.12154355E+04</pdfrwt>
<pdfrwt beam="1">  1       -1 0.15830433E+00 0.12154355E+04</pdfrwt>
<totfact> 0.27576261E+00</totfact>
</mgrwt>
</event>
<event>
 8    1  0.1439553E-005  0.1251543E+04  0.7818608E-02  0.8568728E-01
         -2   -1    0    0    0  501 -0.00000000000E+00  0.00000000000E+00  0.10025640373E+04  0.10025640373E+04  0.00000000000E+00 0. -1.
          2   -1    0    0  502    0  0.00000000000E+00 -0.00000000000E+00 -0.17365152466E+04  0.17365152466E+04  0.00000000000E+00 0.  1.
    9000010    2    1    2  502    0 -0.58025926999E+03  0.48281724013E+03  0.67767560947E+02  0.12494342575E+04  0.99331778085E+03 0.  0.
   -9000010    2    1    2    0  501  0.58025926999E+03 -0.48281724013E+03 -0.80171877034E+03  0.14896450264E+04  0.10032327796E+04 0.  0.
        -13    1    3    3    0    0 -0.28334284070E+03 -0.88484023627E+02 -0.36738853683E+03  0.47232079773E+03  0.10566000000E+00 0.  1.
          4    1    3    3  502    0 -0.29691642929E+03  0.57130126376E+03  0.43515609777E+03  0.77711345979E+03  0.00000000000E+00 0.  1.
         13    1    4    4    0    0  0.83382821410E+03 -0.41499966427E+03 -0.79900065530E+03  0.12271496528E+04  0.10566000000E+00 0. -1.
         -4    1    4    4    0  501 -0.25356894411E+03 -0.67817575859E+02 -0.27181150333E+01  0.26249537360E+03  0.00000000000E+00 0. -1.
<mgrwt>
<rscale>  2 0.12515431E+04</rscale>
<asrwt>0</asrwt>
<pdfrwt beam="2">  1        2 0.26715619E+00 0.12515431E+04</pdfrwt>
<pdfrwt beam="1">  1       -2 0.15424062E+00 0.12515431E+04</pdfrwt>
<totfact> 0.35656406E+00</totfact>
</mgrwt>
</event>
<event>
 8    1  0.1439553E-005  0.1685185E+04  0.7818608E-02  0.8310229E-01
         -2   -1    0    0    0  501 -0.00000000000E+00  0.00000000000E+00  0.93125081711E+03  0.93125081711E+03  0.00000000000E+00 0.  1.
          2   -1    0    0  502    0  0.00000000000E+00 -0.00000000000E+00 -0.31016298367E+04  0.31016298367E+04  0.00000000000E+00 0. -1.
    9000010    2    1    2  502    0  0.13734550121E+03 -0.13414335794E+04 -0.82227281166E+03  0.18729457723E+04  0.10067201470E+04 0.  0.
   -9000010    2    1    2    0  501 -0.13734550121E+03  0.13414335794E+04 -0.13481062080E+04  0.21599348816E+04  0.10147021780E+04 0.  0.
        -13    1    3    3    0    0  0.11766000714E+03  0.13366042999E+03  0.11435771514E+02  0.17843703612E+03  0.10566000000E+00 0.  1.
          4    1    3    3  502    0  0.19685494064E+02 -0.14750940094E+04 -0.83370858318E+03  0.16945087362E+04  0.00000000000E+00 0.  1.
         13    1    4    4    0    0  0.38791231736E+03  0.89821415342E+03 -0.95969442809E+03  0.13705028412E+04  0.10566000000E+00 0. -1.
         -4    1    4    4    0  501 -0.52525781857E+03  0.44321942600E+03 -0.38841177987E+03  0.78943204033E+03  0.00000000000E+00 0. -1.
<mgrwt>
<rscale>  2 0.16851853E+04</rscale>
<asrwt>0</asrwt>
<pdfrwt beam="2">  1        2 0.47717381E+00 0.16851853E+04</pdfrwt>
<pdfrwt beam="1">  1       -2 0.14326936E+00 0.16851853E+04</pdfrwt>
<totfact> 0.70754868E-01</totfact>
</mgrwt>
</event>
<event>
 8    1  0.1439553E-005  0.1160852E+04  0.7818608E-02  0.8636640E-01
         -2   -1    0    0    0  501 -0.00000000000E+00  0.00000000000E+00  0.18976047166E+04  0.18976047166E+04  0.00000000000E+00 0. -1.
          2   -1    0    0  502    0  0.00000000000E+00 -0.00000000000E+00 -0.71639854349E+03  0.71639854349E+03  0.00000000000E+00 0.  1.
    9000010    2    1    2  502    0 -0.46360218035E+03  0.37480509818E+03  0.71472029495E+03  0.13668000447E+04  0.10009552532E+04 0.  0.
   -9000010    2    1    2    0  501  0.46360218035E+03 -0.37480509818E+03  0.46648587815E+03  0.12472032154E+04  0.99121185562E+03 0.  0.
        -13    1    3    3    0    0 -0.22010871338E+03  0.18680167584E+03 -0.23262947154E+03  0.37075489746E+03  0.10566000000E+00 0.  1.
          4    1    3    3  502    0 -0.24349346697E+03  0.18800342234E+03  0.94734976649E+03  0.99604514724E+03  0.00000000000E+00 0.  1.
         13    1    4    4    0    0  0.35645827181E+03  0.25556303871E+03 -0.27106572794E+02  0.43944253748E+03  0.10566000000E+00 0. -1.
         -4    1    4    4    0  501  0.10714390854E+03 -0.63036813689E+03  0.49359245095E+03  0.80776067791E+03  0.00000000000E+00 0. -1.
<mgrwt>
<rscale>  2 0.11608519E+04</rscale>
<asrwt>0</asrwt>
<pdfrwt beam="2">  1        2 0.11021516E+00 0.11608519E+04</pdfrwt>
<pdfrwt beam="1">  1       -2 0.29193919E+00 0.11608519E+04</pdfrwt>
<totfact> 0.11390146E+00</totfact>
</mgrwt>
</event>
<event>
 8    1  0.1439553E-005  0.1132773E+04  0.7818608E-02  0.8658982E-01
         -2   -1    0    0    0  501 -0.00000000000E+00  0.00000000000E+00  0.54307249241E+03  0.54307249241E+03  0.00000000000E+00 0.  1.
          2   -1    0    0  502    0  0.00000000000E+00 -0.00000000000E+00 -0.28010629335E+04  0.28010629335E+04  0.00000000000E+00 0. -1.
    9000010    2    1    2  502    0 -0.47271476212E+03 -0.21848994751E+03 -0.17870943743E+04  0.21137899444E+04  0.10016009798E+04 0.  0.
   -9000010    2    1    2    0  501  0.47271476212E+03  0.21848994751E+03 -0.47089606681E+03  0.12303454816E+04  0.10103513224E+04 0.  0.
        -13    1    3    3    0    0 -0.48024646516E+03 -0.32095076333E+03 -0.18852174130E+04  0.19717227911E+04  0.10566000000E+00 0.  1.
          4    1    3    3  502    0  0.75317030434E+01  0.10246081582E+03  0.98123038629E+02  0.14206715328E+03  0.00000000000E+00 0.  1.
         13    1    4    4    0    0  0.54684678302E+03  0.18927336895E+03 -0.74588812652E+03  0.94404180032E+03  0.10566000000E+00 0. -1.
         -4    1    4    4    0  501 -0.74132020904E+02  0.29216578556E+02  0.27499205971E+03  0.28630368124E+03  0.00000000000E+00 0. -1.
<mgrwt>
<rscale>  2 0.11327727E+04</rscale>
<asrwt>0</asrwt>
<pdfrwt beam="2">  1        2 0.43093276E+00 0.11327727E+04</pdfrwt>
<pdfrwt beam="1">  1       -2 0.83549614E-01 0.11327727E+04</pdfrwt>
<totfact> 0.45604410E+00</totfact>
</mgrwt>
</event>
<event>
 8    1  0.1439553E-005  0.1230442E+04  0.7818608E-02  0.8583984E-01
         -2   -1    0    0    0  501 -0.00000000000E+00  0.00000000000E+00  0.71049110284E+03  0.71049110284E+03  0.00000000000E+00 0. -1.
          2   -1    0    0  502    0  0.00000000000E+00 -0.00000000000E+00 -0.25516533598E+04  0.25516533598E+04  0.00000000000E+00 0.  1.
    9000010    2    1    2  502    0 -0.73374296085E+03  0.51272702723E+02 -0.15934127689E+04  0.20239742216E+04  0.10082161350E+04 0.  0.
   -9000010    2    1    2    0  501  0.73374296085E+03 -0.51272702723E+02 -0.24774948801E+03  0.12381702410E+04  0.96471659791E+03 0.  0.
        -13    1    3    3    0    0 -0.97801906836E+03  0.82517988670E+02 -0.11117749156E+04  0.14830286547E+04  0.10566000000E+00 0.  1.
          4    1    3    3  502    0  0.24427610751E+03 -0.31245285947E+02 -0.48163785336E+03  0.54094556693E+03  0.00000000000E+00 0.  1.
         13    1    4    4    0    0 -0.15883724964E+03  0.19594708710E+03 -0.17927624284E+03  0.30945842245E+03  0.10566000000E+00 0. -1.
         -4    1    4    4    0  501  0.89258021049E+03 -0.24721978982E+03 -0.68473245162E+02  0.92871181856E+03  0.00000000000E+00 0. -1.
<mgrwt>
<rscale>  2 0.12304424E+04</rscale>
<asrwt>0</asrwt>
<pdfrwt beam="2">  1        2 0.39256205E+00 0.12304424E+04</pdfrwt>
<pdfrwt beam="1">  1       -2 0.10930632E+00 0.12304424E+04</pdfrwt>
<totfact> 0.33282435E+00</totfact>
</mgrwt>
</event>
<event>
 8    1  0.1439553E-005  0.1682881E+04  0.7818608E-02  0.8311382E-01
          1   -1    0    0  502    0  0.00000000000E+00  0.00000000000E+00  0.15346367945E+04  0.15346367945E+04  0.00000000000E+00 0.  1.
         -1   -1    0    0    0  501 -0.00000000000E+00 -0.00000000000E+00 -0.19496137917E+04  0.19496137917E+04  0.00000000000E+00 0. -1.
    9000010    2    1    2  502    0 -0.13200938562E+04  0.32812541378E+03  0.19447731806E+03  0.16998721839E+04  0.10007147136E+04 0.  0.
   -9000010    2    1    2    0  501  0.13200938562E+04 -0.32812541378E+03 -0.60945431526E+03  0.17843784024E+04  0.98094731979E+03 0.  0.
        -13    1    3    3    0    0 -0.26875212375E+00  0.21893552415E+03  0.29994097059E+03  0.37134543617E+03  0.10566000000E+00 0.  1.
          4    1    3    3  502    0 -0.13198251041E+04  0.10918988963E+03 -0.10546365253E+03  0.13285267477E+04  0.00000000000E+00 0.  1.
         13    1    4    4    0    0 -0.18334631166E+02 -0.92377323526E+02 -0.39800410810E+03  0.40899512201E+03  0.10566000000E+00 0. -1.
         -4    1    4    4    0  501  0.13384284874E+04 -0.23574809026E+03 -0.21145020717E+03  0.13753832804E+04  0.00000000000E+00 0. -1.
<mgrwt>
<rscale>  2 0.16828815E+04</rscale>
<asrwt>0</asrwt>
<pdfrwt beam="1">  1        1 0.23609797E+00 0.16828815E+04</pdfrwt>
<pdfrwt beam="2">  1       -1 0.29994058E+00 0.16828815E+04</pdfrwt>
<totfact> 0.12034911E-01</totfact>
</mgrwt>
</event>
<event>
 8    1  0.1439553E-005  0.1603236E+04  0.7818608E-02  0.8352445E-01
         -2   -1    0    0    0  501 -0.00000000000E+00  0.00000000000E+00  0.76933119114E+03  0.76933119114E+03  0.00000000000E+00 0.  1.
          2   -1    0    0  502    0  0.00000000000E+00 -0.00000000000E+00 -0.49868411588E+04  0.49868411588E+04  0.00000000000E+00 0. -1.
    9000010    2    1    2  502    0  0.12520708502E+04  0.11324413030E+03 -0.45239267671E+03  0.16626060969E+04  0.98949191630E+03 0.  0.
   -9000010    2    1    2    0  501 -0.12520708502E+04 -0.11324413030E+03 -0.37651172909E+04  0.40935662531E+04  0.10003353472E+04 0.  0.
        -13    1    3    3    0    0  0.20567351075E+02  0.24049264908E+03  0.15164291154E+03  0.28505317746E+03  0.10566000000E+00 0.  1.
          4    1    3    3  502    0  0.12315034991E+04 -0.12724851878E+03 -0.60403558826E+03  0.13775529194E+04  0.00000000000E+00 0.  1.
         13    1    4    4    0    0 -0.22329548541E+03 -0.39576898987E+03 -0.59457666026E+03  0.74834175565E+03  0.10566000000E+00 0. -1.
         -4    1    4    4    0  501 -0.10287753648E+04  0.28252485957E+03 -0.31705406307E+04  0.33452244974E+04  0.00000000000E+00 0. -1.
<mgrwt>
<rscale>  2 0.16032360E+04</rscale>
<asrwt>0</asrwt>
<pdfrwt beam="2">  1        2 0.76720634E+00 0.16032360E+04</pdfrwt>
<pdfrwt beam="1">  1       -2 0.11835864E+00 0.16032360E+04</pdfrwt>
<totfact> 0.33412699E-02</totfact>
</mgrwt>
</event>
<event>
 8    1  0.1439553E-005  0.1375567E+04  0.7818608E-02  0.8484919E-01
         -2   -1    0    0    0  501 -0.00000000000E+00  0.00000000000E+00  0.11137578929E+04  0.11137578929E+04  0.00000000000E+00 0. -1.
          2   -1    0    0  502    0  0.00000000000E+00 -0.00000000000E+00 -0.18301946708E+04  0.18301946708E+04  0.00000000000E+00 0.  1.
    9000010    2    1    2  502    0 -0.89692523615E+03  0.18472898502E+03  0.33041728638E+02  0.13874830196E+04  0.10418338143E+04 0.  0.
   -9000010    2    1    2    0  501  0.89692523615E+03 -0.18472898502E+03 -0.74947850662E+03  0.15564695441E+04  0.10110784998E+04 0.  0.
        -13    1    3    3    0    0  0.16001585273E+03 -0.11815430829E+03 -0.17917009838E+03  0.26770776793E+03  0.10566000000E+00 0.  1.
          4    1    3    3  502    0 -0.10569410889E+04  0.30288329331E+03  0.21221182702E+03  0.11197752517E+04  0.00000000000E+00 0.  1.
         13    1    4    4    0    0  0.87153058360E+03  0.22106543293E+03 -0.71436172902E+03  0.11483676131E+04  0.10566000000E+00 0. -1.
         -4    1    4    4    0  501  0.25394652548E+02 -0.40579441796E+03 -0.35116777599E+02  0.40810193101E+03  0.00000000000E+00 0. -1.
<mgrwt>
<rscale>  2 0.13755672E+04</rscale>
<asrwt>0</asrwt>
<pdfrwt beam="2">  1        2 0.28156841E+00 0.13755672E+04</pdfrwt>
<pdfrwt beam="1">  1       -2 0.17134737E+00 0.13755672E+04</pdfrwt>
<totfact> 0.22320532E+00</totfact>
</mgrwt>
</event>
<event>
 8    1  0.1439553E-005  0.1824191E+04  0.7818608E-02  0.8243989E-01
          2   -1    0    0  502    0  0.00000000000E+00  0.00000000000E+00  0.26268457344E+04  0.26268457344E+04  0.00000000000E+00 0. -1.
         -2   -1    0    0    0  501 -0.00000000000E+00 -0.00000000000E+00 -0.12833665334E+04  0.12833665334E+04  0.00000000000E+00 0.  1.
    9000010    2    1    2  502    0 -0.15107397419E+04 -0.23216705149E+03  0.89425182436E+03  0.20324424842E+04  0.99744674991E+03 0.  0.
   -9000010    2    1    2    0  501  0.15107397419E+04  0.23216705149E+03  0.44922737671E+03  0.18777697835E+04  0.99397083286E+03 0.  0.
        -13    1    3    3    0    0 -0.11162148514E+03  0.10690844046E+03 -0.17921672729E+03  0.23665886227E+03  0.10566000000E+00 0.  1.
          4    1    3    3  502    0 -0.13991182567E+04 -0.33907549195E+03  0.10734685516E+04  0.17957836220E+04  0.00000000000E+00 0.  1.
         13    1    4    4    0    0  0.67128973708E+03 -0.34711925267E+03  0.40378098680E+03  0.85683182898E+03  0.10566000000E+00 0. -1.
         -4    1    4    4    0  501  0.83945000478E+03  0.57928630417E+03  0.45446389908E+02  0.10209379546E+04  0.00000000000E+00 0. -1.
<mgrwt>
<rscale>  2 0.18241911E+04</rscale>
<asrwt>0</asrwt>
<pdfrwt beam="1">  1        2 0.40413011E+00 0.18241911E+04</pdfrwt>
<pdfrwt beam="2">  1       -2 0.19744101E+00 0.18241911E+04</pdfrwt>
<totfact> 0.46622646E-01</totfact>
</mgrwt>
</event>
<event>
 8    1  0.1439553E-005  0.1130437E+04  0.7818608E-02  0.8660871E-01
         -1   -1    0    0    0  501 -0.00000000000E+00  0.00000000000E+00  0.75974057927E+03  0.75974057927E+03  0.00000000000E+00 0. -1.
          1   -1    0    0  502    0  0.00000000000E+00 -0.00000000000E+00 -0.16871022428E+04  0.16871022428E+04  0.00000000000E+00 0.  1.
    9000010    2    1    2  502    0 -0.48605597541E+03  0.26497647614E+03 -0.52658256449E+03  0.12390111363E+04  0.97539553745E+03 0.  0.
   -9000010    2    1    2    0  501  0.48605597541E+03 -0.26497647614E+03 -0.40077909904E+03  0.12078316858E+04  0.99587677492E+03 0.  0.
        -13    1    3    3    0    0  0.25077067980E+03 -0.12966095917E+03 -0.17553781621E+03  0.33243260109E+03  0.10566000000E+00 0.  1.
          4    1    3    3  502    0 -0.73682665521E+03  0.39463743531E+03 -0.35104474829E+03  0.90657853520E+03  0.00000000000E+00 0.  1.
         13    1    4    4    0    0 -0.22035202750E+02  0.33709525515E+03 -0.36194393623E+02  0.33974815158E+03  0.10566000000E+00 0. -1.
         -4    1    4    4    0  501  0.50809117816E+03 -0.60207173129E+03 -0.36458470542E+03  0.86808353421E+03  0.00000000000E+00 0. -1.
<mgrwt>
<rscale>  2 0.11304366E+04</rscale>
<asrwt>0</asrwt>
<pdfrwt beam="2">  1        1 0.25955419E+00 0.11304366E+04</pdfrwt>
<pdfrwt beam="1">  1       -1 0.11688317E+00 0.11304366E+04</pdfrwt>
<totfact> 0.45938691E+00</totfact>
</mgrwt>
</event>
<event>
 8    1  0.1439553E-005  0.1905797E+04  0.7818608E-02  0.8207863E-01
         -1   -1    0    0    0  501 -0.00000000000E+00  0.00000000000E+00  0.97857443812E+03  0.97857443812E+03  0.00000000000E+00 0.  1.
          1   -1    0    0  502    0  0.00000000000E+00 -0.00000000000E+00 -0.37210306347E+04  0.37210306347E+04  0.00000000000E+00 0. -1.
    9000010    2    1    2  502    0  0.16077658223E+04  0.65759748194E+02 -0.14865214133E+04  0.24137026321E+04  0.10133998224E+04 0.  0.
   -9000010    2    1    2    0  501 -0.16077658223E+04 -0.65759748194E+02 -0.12559347833E+04  0.22859024408E+04  0.10289521393E+04 0.  0.
        -13    1    3    3    0    0  0.22755366958E+03  0.41002295465E+03 -0.26454582571E+03  0.53840876753E+03  0.10566000000E+00 0.  1.
          4    1    3    3  502    0  0.13802121527E+04 -0.34426320646E+03 -0.12219755876E+04  0.18752938645E+04  0.00000000000E+00 0.  1.
         13    1    4    4    0    0 -0.79542020374E+03 -0.30935027534E+03 -0.11035656768E+03  0.86056346458E+03  0.10566000000E+00 0. -1.
         -4    1    4    4    0  501 -0.81234561854E+03  0.24359052714E+03 -0.11455782156E+04  0.14253389762E+04  0.00000000000E+00 0. -1.
<mgrwt>
<rscale>  2 0.19057968E+04</rscale>
<asrwt>0</asrwt>
<pdfrwt beam="2">  1        1 0.57246626E+00 0.19057968E+04</pdfrwt>
<pdfrwt beam="1">  1       -1 0.15054991E+00 0.19057968E+04</pdfrwt>
<totfact> 0.27816617E-02</totfact>
</mgrwt>
</event>
<event>
 8    1  0.1439553E-005  0.1175008E+04  0.7818608E-02  0.8625623E-01
          2   -1    0    0  502    0  0.00000000000E+00  0.00000000000E+00  0.39779303816E+03  0.39779303816E+03  0.00000000000E+00 0.  1.
         -2   -1    0    0    0  501 -0.00000000000E+00 -0.00000000000E+00 -0.34873752562E+04  0.34873752562E+04  0.00000000000E+00 0. -1.
    9000010    2    1    2  502    0  0.30675199484E+03 -0.51228796251E+03 -0.16881853465E+04  0.20611844108E+04  0.10207720942E+04 0.  0.
   -9000010    2    1    2    0  501 -0.30675199484E+03  0.51228796251E+03 -0.14013968716E+04  0.18239838836E+04  0.10032289236E+04 0.  0.
        -13    1    3    3    0    0  0.30440526080E+03 -0.75439791382E+03 -0.80139109294E+03  0.11419310269E+04  0.10566000000E+00 0.  1.
          4    1    3    3  502    0  0.23467340430E+01  0.24210995131E+03 -0.88679425356E+03  0.91925338391E+03  0.00000000000E+00 0.  1.
         13    1    4    4    0    0 -0.42786737229E+03 -0.17772776256E+03 -0.62882870734E+03  0.78107822924E+03  0.10566000000E+00 0. -1.
         -4    1    4    4    0  501  0.12111537745E+03  0.69001572507E+03 -0.77256816424E+03  0.10429056544E+04  0.00000000000E+00 0. -1.
<mgrwt>
<rscale>  2 0.11750079E+04</rscale>
<asrwt>0</asrwt>
<pdfrwt beam="1">  1        2 0.61198926E-01 0.11750079E+04</pdfrwt>
<pdfrwt beam="2">  1       -2 0.53651930E+00 0.11750079E+04</pdfrwt>
<totfact> 0.36918473E-01</totfact>
</mgrwt>
</event>
<event>
 8    1  0.1439553E-005  0.1151778E+04  0.7818608E-02  0.8643787E-01
         -1   -1    0    0    0  501 -0.00000000000E+00  0.00000000000E+00  0.65456377463E+03  0.65456377463E+03  0.00000000000E+00 0. -1.
          1   -1    0    0  502    0  0.00000000000E+00 -0.00000000000E+00 -0.23508994516E+04  0.23508994516E+04  0.00000000000E+00 0.  1.
    9000010    2    1    2  502    0  0.50378823979E+03  0.16247770125E+03 -0.30865283173E+03  0.12192511769E+04  0.10540897817E+04 0.  0.
   -9000010    2    1    2    0  501 -0.50378823979E+03 -0.16247770125E+03 -0.13876828452E+04  0.17862120493E+04  0.99231457323E+03 0.  0.
        -13    1    3    3    0    0  0.31344706348E+03  0.46199767652E+03 -0.55501969683E+03  0.78723426612E+03  0.10566000000E+00 0.  1.
          4    1    3    3  502    0  0.19034117631E+03 -0.29951997527E+03  0.24636686510E+03  0.43201691078E+03  0.00000000000E+00 0.  1.
         13    1    4    4    0    0 -0.63896928539E+02  0.47807734656E+02  0.15172739255E+03  0.17143398084E+03  0.10566000000E+00 0. -1.
         -4    1    4    4    0  501 -0.43989131125E+03 -0.21028543591E+03 -0.15394102378E+04  0.16147780685E+04  0.00000000000E+00 0. -1.
<mgrwt>
<rscale>  2 0.11517783E+04</rscale>
<asrwt>0</asrwt>
<pdfrwt beam="2">  1        1 0.36167684E+00 0.11517783E+04</pdfrwt>
<pdfrwt beam="1">  1       -1 0.10070212E+00 0.11517783E+04</pdfrwt>
<totfact> 0.19611411E+00</totfact>
</mgrwt>
</event>
<event>
 8    1  0.1439553E-005  0.1078931E+04  0.7818608E-02  0.8703771E-01
          1   -1    0    0  502    0  0.00000000000E+00  0.00000000000E+00  0.13441335856E+04  0.13441335856E+04  0.00000000000E+00 0.  1.
         -1   -1    0    0    0  501 -0.00000000000E+00 -0.00000000000E+00 -0.89206320069E+03  0.89206320069E+03  0.00000000000E+00 0. -1.
    9000010    2    1    2  502    0  0.14957549727E+03 -0.34038030390E+03  0.34054202883E+02  0.10738070064E+04  0.10068119077E+04 0.  0.
   -9000010    2    1    2    0  501 -0.14957549727E+03  0.34038030390E+03  0.41801618200E+03  0.11623897799E+04  0.10189116210E+04 0.  0.
        -13    1    3    3    0    0 -0.24987720426E+03  0.22988315955E+03 -0.12108892192E+03  0.36048220820E+03  0.10566000000E+00 0.  1.
          4    1    3    3  502    0  0.39945270152E+03 -0.57026346345E+03  0.15514312480E+03  0.71332479817E+03  0.00000000000E+00 0.  1.
         13    1    4    4    0    0 -0.17995113122E+03  0.35874336731E+03 -0.26339259129E+03  0.48005716485E+03  0.10566000000E+00 0. -1.
         -4    1    4    4    0  501  0.30375633951E+02 -0.18363063414E+02  0.68140877329E+03  0.68233261504E+03  0.00000000000E+00 0. -1.
<mgrwt>
<rscale>  2 0.10789312E+04</rscale>
<asrwt>0</asrwt>
<pdfrwt beam="1">  1        1 0.20678978E+00 0.10789312E+04</pdfrwt>
<pdfrwt beam="2">  1       -1 0.13724049E+00 0.10789312E+04</pdfrwt>
<totfact> 0.55023528E+00</totfact>
</mgrwt>
</event>
<event>
 8    1  0.1439553E-005  0.1046132E+04  0.7818608E-02  0.8732414E-01
         -2   -1    0    0    0  501 -0.00000000000E+00  0.00000000000E+00  0.15407358300E+04  0.15407358300E+04  0.00000000000E+00 0.  1.
          2   -1    0    0  502    0  0.00000000000E+00 -0.00000000000E+00 -0.71869942374E+03  0.71869942374E+03  0.00000000000E+00 0. -1.
    9000010    2    1    2  502    0  0.30407751766E+03  0.62061820293E+02  0.28810546839E+03  0.10829896497E+04  0.99676828506E+03 0.  0.
   -9000010    2    1    2    0  501 -0.30407751766E+03 -0.62061820293E+02  0.53393093785E+03  0.11764456040E+04  0.10013127417E+04 0.  0.
        -13    1    3    3    0    0  0.52213037872E+03  0.23612226436E+03  0.47738774159E+03  0.74583706203E+03  0.10566000000E+00 0.  1.
          4    1    3    3  502    0 -0.21805286106E+03 -0.17406044407E+03 -0.18928227320E+03  0.33715258764E+03  0.00000000000E+00 0.  1.
         13    1    4    4    0    0  0.13935396714E+03 -0.13114509455E+03 -0.22462010126E+03  0.29508094658E+03  0.10566000000E+00 0. -1.
         -4    1    4    4    0  501 -0.44343148480E+03  0.69083274256E+02  0.75855103911E+03  0.88136465747E+03  0.00000000000E+00 0. -1.
<mgrwt>
<rscale>  2 0.10461322E+04</rscale>
<asrwt>0</asrwt>
<pdfrwt beam="2">  1        2 0.11056914E+00 0.10461322E+04</pdfrwt>
<pdfrwt beam="1">  1       -2 0.23703628E+00 0.10461322E+04</pdfrwt>
<totfact> 0.29975667E+00</totfact>
</mgrwt>
</event>
<event>
 8    1  0.1439553E-005  0.1250219E+04  0.7818608E-02  0.8569676E-01
          4   -1    0    0  502    0  0.00000000000E+00  0.00000000000E+00  0.55393378372E+03  0.55393378372E+03  0.00000000000E+00 0. -1.
         -4   -1    0    0    0  501 -0.00000000000E+00 -0.00000000000E+00 -0.28403571081E+04  0.28403571081E+04  0.00000000000E+00 0.  1.
    9000010    2    1    2  502    0  0.52614014511E+02 -0.76667776685E+03 -0.99449911898E+03  0.15868150780E+04  0.96870561128E+03 0.  0.
   -9000010    2    1    2    0  501 -0.52614014511E+02  0.76667776685E+03 -0.12919242054E+04  0.18074758138E+04  0.10036621107E+04 0.  0.
        -13    1    3    3    0    0  0.16752489461E+03 -0.72879695315E+03 -0.11610034859E+04  0.13809919242E+04  0.10566000000E+00 0.  1.
          4    1    3    3  502    0 -0.11491088010E+03 -0.37880813700E+02  0.16650436695E+03  0.20582315376E+03  0.00000000000E+00 0.  1.
         13    1    4    4    0    0  0.33714387967E+03  0.42435291234E+03 -0.16443329798E+03  0.56637417884E+03  0.10566000000E+00 0. -1.
         -4    1    4    4    0  501 -0.38975789418E+03  0.34232485450E+03 -0.11274909074E+04  0.12411016350E+04  0.00000000000E+00 0. -1.
<mgrwt>
<rscale>  2 0.12502188E+04</rscale>
<asrwt>0</asrwt>
<pdfrwt beam="1">  1        4 0.85220583E-01 0.12502188E+04</pdfrwt>
<pdfrwt beam="2">  1       -4 0.43697801E+00 0.12502188E+04</pdfrwt>
<totfact> 0.13309529E-01</totfact>
</mgrwt>
</event>
<event>
 8    1  0.1439553E-005  0.1163583E+04  0.7818608E-02  0.8634501E-01
          1   -1    0    0  502    0  0.00000000000E+00  0.00000000000E+00  0.15060204958E+04  0.15060204958E+04  0.00000000000E+00 0. -1.
         -1   -1    0    0    0  501 -0.00000000000E+00 -0.00000000000E+00 -0.11126611453E+04  0.11126611453E+04  0.00000000000E+00 0.  1.
    9000010    2    1    2  502    0 -0.44160898634E+03 -0.36718804951E+03 -0.37586926000E+03  0.12306966652E+04  0.10215140825E+04 0.  0.
   -9000010    2    1    2    0  501  0.44160898634E+03  0.36718804951E+03  0.76922861047E+03  0.13879849758E+04  0.10024689908E+04 0.  0.
        -13    1    3    3    0    0 -0.39959230581E+03 -0.66714975368E+03 -0.47588864338E+03  0.91171970296E+03  0.10566000000E+00 0.  1.
          4    1    3    3  502    0 -0.42016680530E+02  0.29996170418E+03  0.10001938338E+03  0.31897696228E+03  0.00000000000E+00 0.  1.
         13    1    4    4    0    0 -0.31425877867E+03  0.94668451909E+02  0.35689977182E+03  0.48486921335E+03  0.10566000000E+00 0. -1.
         -4    1    4    4    0  501  0.75586776501E+03  0.27251959760E+03  0.41232883864E+03  0.90311576248E+03  0.00000000000E+00 0. -1.
<mgrwt>
<rscale>  2 0.11635832E+04</rscale>
<asrwt>0</asrwt>
<pdfrwt beam="1">  1        1 0.23169546E+00 0.11635832E+04</pdfrwt>
<pdfrwt beam="2">  1       -1 0.17117864E+00 0.11635832E+04</pdfrwt>
<totfact> 0.20945152E+00</totfact>
</mgrwt>
</event>
<event>
 8    1  0.1439553E-005  0.1337864E+04  0.7818608E-02  0.8509401E-01
         -2   -1    0    0    0  501 -0.00000000000E+00  0.00000000000E+00  0.61285831071E+03  0.61285831071E+03  0.00000000000E+00 0.  1.
          2   -1    0    0  502    0  0.00000000000E+00 -0.00000000000E+00 -0.29233340566E+04  0.29233340566E+04  0.00000000000E+00 0. -1.
    9000010    2    1    2  502    0  0.10296076662E+01  0.89071718879E+03 -0.12095906749E+04  0.18033846609E+04  0.99785192483E+03 0.  0.
   -9000010    2    1    2    0  501 -0.10296076662E+01 -0.89071718879E+03 -0.11008850710E+04  0.17328077064E+04  0.99864730379E+03 0.  0.
        -13    1    3    3    0    0  0.99336411164E+02 -0.13459551144E+03 -0.56279485980E+03  0.58713008751E+03  0.10566000000E+00 0.  1.
          4    1    3    3  502    0 -0.98306803498E+02  0.10253127002E+04 -0.64679581511E+03  0.12162545734E+04  0.00000000000E+00 0.  1.
         13    1    4    4    0    0 -0.27076850595E+03 -0.10237568174E+03  0.67996302211E+02  0.29735479196E+03  0.10566000000E+00 0. -1.
         -4    1    4    4    0  501  0.26973889828E+03 -0.78834150705E+03 -0.11688813732E+04  0.14354529145E+04  0.00000000000E+00 0. -1.
<mgrwt>
<rscale>  2 0.13378641E+04</rscale>
<asrwt>0</asrwt>
<pdfrwt beam="2">  1        2 0.44974371E+00 0.13378641E+04</pdfrwt>
<pdfrwt beam="1">  1       -2 0.94285893E-01 0.13378641E+04</pdfrwt>
<totfact> 0.28440334E+00</totfact>
</mgrwt>
</event>
<event>
 8    1  0.1439553E-005  0.1371920E+04  0.7818608E-02  0.8487252E-01
         -2   -1    0    0    0  501 -0.00000000000E+00  0.00000000000E+00  0.10142026815E+04  0.10142026815E+04  0.00000000000E+00 0.  1.
          2   -1    0    0  502    0  0.00000000000E+00 -0.00000000000E+00 -0.19467850233E+04  0.19467850233E+04  0.00000000000E+00 0. -1.
    9000010    2    1    2  502    0  0.86340822938E+03  0.26413756534E+03 -0.13751299888E+03  0.13462891617E+04  0.98911185319E+03 0.  0.
   -9000010    2    1    2    0  501 -0.86340822938E+03 -0.26413756534E+03 -0.79506934295E+03  0.16146985431E+04  0.10769743270E+04 0.  0.
        -13    1    3    3    0    0  0.32317462817E+03  0.49579319435E+03  0.24976920409E+03  0.64236858448E+03  0.10566000000E+00 0.  1.
          4    1    3    3  502    0  0.54023360121E+03 -0.23165562901E+03 -0.38728220296E+03  0.70392057724E+03  0.00000000000E+00 0.  1.
         13    1    4    4    0    0 -0.47953967827E+03  0.37169724347E+03 -0.58504528376E+03  0.84284941659E+03  0.10566000000E+00 0. -1.
         -4    1    4    4    0  501 -0.38386855111E+03 -0.63583480881E+03 -0.21002405919E+03  0.77184912649E+03  0.00000000000E+00 0. -1.
<mgrwt>
<rscale>  2 0.13719195E+04</rscale>
<asrwt>0</asrwt>
<pdfrwt beam="2">  1        2 0.29950539E+00 0.13719195E+04</pdfrwt>
<pdfrwt beam="1">  1       -2 0.15603118E+00 0.13719195E+04</pdfrwt>
<totfact> 0.26084191E+00</totfact>
</mgrwt>
</event>
<event>
 8    1  0.1439553E-005  0.1253767E+04  0.7818608E-02  0.8567138E-01
         -1   -1    0    0    0  501 -0.00000000000E+00  0.00000000000E+00  0.81361914760E+03  0.81361914760E+03  0.00000000000E+00 0.  1.
          1   -1    0    0  502    0  0.00000000000E+00 -0.00000000000E+00 -0.19770833865E+04  0.19770833865E+04  0.00000000000E+00 0. -1.
    9000010    2    1    2  502    0 -0.51157291058E+03 -0.43227000483E+03 -0.80844728170E+03  0.15407004454E+04  0.11276553797E+04 0.  0.
   -9000010    2    1    2    0  501  0.51157291058E+03  0.43227000483E+03 -0.35501695718E+03  0.12500020887E+04  0.99393359028E+03 0.  0.
        -13    1    3    3    0    0  0.35669186158E+03 -0.46884134094E+02 -0.25903245697E+03  0.44331143801E+03  0.10566000000E+00 0.  1.
          4    1    3    3  502    0 -0.86826477216E+03 -0.38538587073E+03 -0.54941482473E+03  0.10973890074E+04  0.00000000000E+00 0.  1.
         13    1    4    4    0    0 -0.30142261526E+03  0.94801220116E+02 -0.59994131027E+02  0.32162427030E+03  0.10566000000E+00 0. -1.
         -4    1    4    4    0  501  0.81299552584E+03  0.33746878471E+03 -0.29502282616E+03  0.92837781837E+03  0.00000000000E+00 0. -1.
<mgrwt>
<rscale>  2 0.12537672E+04</rscale>
<asrwt>0</asrwt>
<pdfrwt beam="2">  1        1 0.30416667E+00 0.12537672E+04</pdfrwt>
<pdfrwt beam="1">  1       -1 0.12517218E+00 0.12537672E+04</pdfrwt>
<totfact> 0.23137846E+00</totfact>
</mgrwt>
</event>
<event>
 8    1  0.1439553E-005  0.1193105E+04  0.7818608E-02  0.8611772E-01
          2   -1    0    0  502    0  0.00000000000E+00  0.00000000000E+00  0.14454326596E+04  0.14454326596E+04  0.00000000000E+00 0. -1.
         -2   -1    0    0    0  501 -0.00000000000E+00 -0.00000000000E+00 -0.10388331438E+04  0.10388331438E+04  0.00000000000E+00 0.  1.
    9000010    2    1    2  502    0  0.50560651170E+03 -0.42403727232E+03  0.48626206859E+03  0.12869613766E+04  0.99215585090E+03 0.  0.
   -9000010    2    1    2    0  501 -0.50560651170E+03  0.42403727232E+03 -0.79662552839E+02  0.11973044268E+04  0.99586455660E+03 0.  0.
        -13    1    3    3    0    0 -0.10305789292E+03 -0.43458984438E+03 -0.82097890889E+02  0.45412480332E+03  0.10566000000E+00 0.  1.
          4    1    3    3  502    0  0.60866440462E+03  0.10552572065E+02  0.56835995948E+03  0.83283657326E+03  0.00000000000E+00 0.  1.
         13    1    4    4    0    0  0.28484688403E+03  0.69903130605E+02 -0.14787091952E+03  0.32846615505E+03  0.10566000000E+00 0. -1.
         -4    1    4    4    0  501 -0.79045339573E+03  0.35413414171E+03  0.68208366680E+02  0.86883827173E+03  0.00000000000E+00 0. -1.
<mgrwt>
<rscale>  2 0.11931054E+04</rscale>
<asrwt>0</asrwt>
<pdfrwt beam="1">  1        2 0.22237426E+00 0.11931054E+04</pdfrwt>
<pdfrwt beam="2">  1       -2 0.15982048E+00 0.11931054E+04</pdfrwt>
<totfact> 0.46254299E+00</totfact>
</mgrwt>
</event>
<event>
 8    1  0.1439553E-005  0.1189164E+04  0.7818608E-02  0.8614767E-01
         -2   -1    0    0    0  501 -0.00000000000E+00  0.00000000000E+00  0.22231061117E+04  0.22231061117E+04  0.00000000000E+00 0. -1.
          2   -1    0    0  502    0  0.00000000000E+00 -0.00000000000E+00 -0.68966983904E+03  0.68966983904E+03  0.00000000000E+00 0.  1.
    9000010    2    1    2  502    0 -0.46485292585E+03 -0.44632048764E+03  0.35305038100E+03  0.12274910168E+04  0.98325958137E+03 0.  0.
   -9000010    2    1    2    0  501  0.46485292585E+03  0.44632048764E+03  0.11803858917E+04  0.16852849340E+04  0.10156693532E+04 0.  0.
        -13    1    3    3    0    0 -0.20700814629E+03 -0.52649873878E+03  0.62585317285E+03  0.84365010502E+03  0.10566000000E+00 0.  1.
          4    1    3    3  502    0 -0.25784477955E+03  0.80178251135E+02 -0.27280279184E+03  0.38384091175E+03  0.00000000000E+00 0.  1.
         13    1    4    4    0    0  0.50914716366E+03  0.46788391499E+02  0.11770369126E+04  0.12832910397E+04  0.10566000000E+00 0. -1.
         -4    1    4    4    0  501 -0.44294237809E+02  0.39953209614E+03  0.33489790545E+01  0.40199389425E+03  0.00000000000E+00 0. -1.
<mgrwt>
<rscale>  2 0.11891640E+04</rscale>
<asrwt>0</asrwt>
<pdfrwt beam="2">  1        2 0.10610305E+00 0.11891640E+04</pdfrwt>
<pdfrwt beam="1">  1       -2 0.34201632E+00 0.11891640E+04</pdfrwt>
<totfact> 0.55134797E-01</totfact>
</mgrwt>
</event>
<event>
 8    1  0.1439553E-005  0.1159064E+04  0.7818608E-02  0.8638043E-01
         -2   -1    0    0    0  501 -0.00000000000E+00  0.00000000000E+00  0.12347001332E+04  0.12347001332E+04  0.00000000000E+00 0.  1.
          2   -1    0    0  502    0  0.00000000000E+00 -0.00000000000E+00 -0.15255621340E+04  0.15255621340E+04  0.00000000000E+00 0. -1.
    9000010    2    1    2  502    0  0.26075151403E+03  0.52076280054E+03  0.59376636654E+03  0.13011860988E+04  0.10006705348E+04 0.  0.
   -9000010    2    1    2    0  501 -0.26075151403E+03 -0.52076280054E+03 -0.88462836731E+03  0.14590761684E+04  0.10035689665E+04 0.  0.
        -13    1    3    3    0    0 -0.92337239570E+02  0.72674986552E+03  0.27385626853E+03  0.78210536363E+03  0.10566000000E+00 0.  1.
          4    1    3    3  502    0  0.35308875360E+03 -0.20598706498E+03  0.31991009800E+03  0.51908073521E+03  0.00000000000E+00 0.  1.
         13    1    4    4    0    0 -0.42864445262E+02 -0.77365657505E+03 -0.80205949646E+03  0.11152046018E+04  0.10566000000E+00 0. -1.
         -4    1    4    4    0  501 -0.21788706877E+03  0.25289377451E+03 -0.82568870845E+02  0.34387156666E+03  0.00000000000E+00 0. -1.
<mgrwt>
<rscale>  2 0.11590635E+04</rscale>
<asrwt>0</asrwt>
<pdfrwt beam="2">  1        2 0.23470187E+00 0.11590635E+04</pdfrwt>
<pdfrwt beam="1">  1       -2 0.18995387E+00 0.11590635E+04</pdfrwt>
<totfact> 0.23444973E+00</totfact>
</mgrwt>
</event>
<event>
 8    1  0.1439553E-005  0.1193325E+04  0.7818608E-02  0.8611606E-01
         -2   -1    0    0    0  501 -0.00000000000E+00  0.00000000000E+00  0.10400958501E+04  0.10400958501E+04  0.00000000000E+00 0. -1.
          2   -1    0    0  502    0  0.00000000000E+00 -0.00000000000E+00 -0.14553852915E+04  0.14553852915E+04  0.00000000000E+00 0.  1.
    9000010    2    1    2  502    0  0.35285237103E+03 -0.64664425838E+03  0.81618556466E+02  0.12523219050E+04  0.10094528084E+04 0.  0.
   -9000010    2    1    2    0  501 -0.35285237103E+03  0.64664425838E+03 -0.49690799791E+03  0.12431592365E+04  0.86940999327E+03 0.  0.
        -13    1    3    3    0    0 -0.30982886882E+03 -0.30194107748E+03  0.23119176915E+03  0.49052215803E+03  0.10566000000E+00 0.  1.
          4    1    3    3  502    0  0.66268123985E+03 -0.34470318090E+03 -0.14957321269E+03  0.76179974700E+03  0.00000000000E+00 0.  1.
         13    1    4    4    0    0 -0.33011549943E+03  0.85938584682E+03 -0.44733826229E+03  0.10235388653E+04  0.10566000000E+00 0. -1.
         -4    1    4    4    0  501 -0.22736871595E+02 -0.21274158844E+03 -0.49569735620E+02  0.21962037126E+03  0.00000000000E+00 0. -1.
<mgrwt>
<rscale>  2 0.11933246E+04</rscale>
<asrwt>0</asrwt>
<pdfrwt beam="2">  1        2 0.22390543E+00 0.11933246E+04</pdfrwt>
<pdfrwt beam="1">  1       -2 0.16001475E+00 0.11933246E+04</pdfrwt>
<totfact> 0.45497209E+00</totfact>
</mgrwt>
</event>
<event>
 8    1  0.1439553E-005  0.1047450E+04  0.7818608E-02  0.8731242E-01
         -2   -1    0    0    0  501 -0.00000000000E+00  0.00000000000E+00  0.73770632010E+03  0.73770632010E+03  0.00000000000E+00 0.  1.
          2   -1    0    0  502    0  0.00000000000E+00 -0.00000000000E+00 -0.21902024721E+04  0.21902024721E+04  0.00000000000E+00 0. -1.
    9000010    2    1    2  502    0  0.97318737114E+02 -0.32350645137E+03 -0.15483623355E+04  0.18611210157E+04  0.97581665932E+03 0.  0.
   -9000010    2    1    2    0  501 -0.97318737114E+02  0.32350645137E+03  0.95866183459E+02  0.10667877765E+04  0.10073323554E+04 0.  0.
        -13    1    3    3    0    0 -0.20272760974E+03 -0.59389390458E+03 -0.89793995868E+03  0.10954928727E+04  0.10566000000E+00 0.  1.
          4    1    3    3  502    0  0.30004634685E+03  0.27038745322E+03 -0.65042237679E+03  0.76562814299E+03  0.00000000000E+00 0.  1.
         13    1    4    4    0    0 -0.26445182273E+03  0.64495482230E+03  0.24327526658E+02  0.69749073763E+03  0.10566000000E+00 0. -1.
         -4    1    4    4    0  501  0.16713308562E+03 -0.32144837094E+03  0.71538656802E+02  0.36929703885E+03  0.00000000000E+00 0. -1.
<mgrwt>
<rscale>  2 0.10474496E+04</rscale>
<asrwt>0</asrwt>
<pdfrwt beam="2">  1        2 0.33695423E+00 0.10474496E+04</pdfrwt>
<pdfrwt beam="1">  1       -2 0.11349328E+00 0.10474496E+04</pdfrwt>
<totfact> 0.49020436E+00</totfact>
</mgrwt>
</event>
<event>
 8    1  0.1439553E-005  0.1268960E+04  0.7818608E-02  0.8556368E-01
         -4   -1    0    0    0  501 -0.00000000000E+00  0.00000000000E+00  0.20128696000E+04  0.20128696000E+04  0.00000000000E+00 0. -1.
          4   -1    0    0  502    0  0.00000000000E+00 -0.00000000000E+00 -0.81524347739E+03  0.81524347739E+03  0.00000000000E+00 0.  1.
    9000010    2    1    2  502    0  0.41116256651E+03 -0.64757256991E+03  0.40461329594E+03  0.13304003852E+04  0.10088847190E+04 0.  0.
   -9000010    2    1    2    0  501 -0.41116256651E+03  0.64757256991E+03  0.79301282668E+03  0.14977126922E+04  0.10128519515E+04 0.  0.
        -13    1    3    3    0    0  0.55400662079E+03  0.48925958647E+02  0.18995596245E+03  0.58770771999E+03  0.10566000000E+00 0.  1.
          4    1    3    3  502    0 -0.14284405428E+03 -0.69649852855E+03  0.21465733349E+03  0.74269266520E+03  0.00000000000E+00 0.  1.
         13    1    4    4    0    0  0.12477270988E+03  0.89880580260E+02 -0.19157024875E+03  0.24565406410E+03  0.10566000000E+00 0. -1.
         -4    1    4    4    0  501 -0.53593527639E+03  0.55769198965E+03  0.98458307543E+03  0.12520586281E+04  0.00000000000E+00 0. -1.
<mgrwt>
<rscale>  2 0.12689597E+04</rscale>
<asrwt>0</asrwt>
<pdfrwt beam="2">  1        4 0.12542207E+00 0.12689597E+04</pdfrwt>
<pdfrwt beam="1">  1       -4 0.30967224E+00 0.12689597E+04</pdfrwt>
<totfact> 0.18709259E-01</totfact>
</mgrwt>
</event>
<event>
 8    1  0.1439553E-005  0.1077629E+04  0.7818608E-02  0.8704888E-01
          1   -1    0    0  502    0  0.00000000000E+00  0.00000000000E+00  0.25596453345E+04  0.25596453345E+04  0.00000000000E+00 0.  1.
         -1   -1    0    0    0  501 -0.00000000000E+00 -0.00000000000E+00 -0.46386599555E+03  0.46386599555E+03  0.00000000000E+00 0. -1.
    9000010    2    1    2  502    0 -0.29295710255E+03  0.24832897186E+03  0.82973548654E+03  0.13647441780E+04  0.10132001538E+04 0.  0.
   -9000010    2    1    2    0  501  0.29295710255E+03 -0.24832897186E+03  0.12660438524E+04  0.16587671520E+04  0.10005749778E+04 0.  0.
        -13    1    3    3    0    0  0.15216723258E+03  0.33622126966E+03  0.83291497833E+03  0.91101425957E+03  0.10566000000E+00 0.  1.
          4    1    3    3  502    0 -0.44512433514E+03 -0.87892297800E+02 -0.31794917989E+01  0.45372991847E+03  0.00000000000E+00 0.  1.
         13    1    4    4    0    0  0.91625050904E+02  0.80821642974E+02 -0.14864032854E+03  0.19240905997E+03  0.10566000000E+00 0. -1.
         -4    1    4    4    0  501  0.20133205165E+03 -0.32915061483E+03  0.14146841809E+04  0.14663580920E+04  0.00000000000E+00 0. -1.
<mgrwt>
<rscale>  2 0.10776289E+04</rscale>
<asrwt>0</asrwt>
<pdfrwt beam="1">  1        1 0.39379158E+00 0.10776289E+04</pdfrwt>
<pdfrwt beam="2">  1       -1 0.71364000E-01 0.10776289E+04</pdfrwt>
<totfact> 0.25825237E+00</totfact>
</mgrwt>
</event>
<event>
 8    1  0.1439553E-005  0.1365153E+04  0.7818608E-02  0.8491600E-01
         -4   -1    0    0    0  501 -0.00000000000E+00  0.00000000000E+00  0.11253292441E+04  0.11253292441E+04  0.00000000000E+00 0. -1.
          4   -1    0    0  502    0  0.00000000000E+00 -0.00000000000E+00 -0.44334503062E+04  0.44334503062E+04  0.00000000000E+00 0.  1.
    9000010    2    1    2  502    0 -0.81504660019E+03  0.47499944696E+03 -0.38593442529E+04  0.40977693568E+04  0.10036185552E+04 0.  0.
   -9000010    2    1    2    0  501  0.81504660019E+03 -0.47499944696E+03  0.55122319080E+03  0.14610101935E+04  0.96993728885E+03 0.  0.
        -13    1    3    3    0    0 -0.69909505445E+03  0.68369767768E+03 -0.20335941695E+04  0.22564754966E+04  0.10566000000E+00 0.  1.
          4    1    3    3  502    0 -0.11595154574E+03 -0.20869823072E+03 -0.18257500834E+04  0.18412938602E+04  0.00000000000E+00 0.  1.
         13    1    4    4    0    0  0.87538602132E+02 -0.60487560345E+03  0.29678684607E+03  0.67942618854E+03  0.10566000000E+00 0. -1.
         -4    1    4    4    0  501  0.72750799806E+03  0.12987615649E+03  0.25443634473E+03  0.78158400494E+03  0.00000000000E+00 0. -1.
<mgrwt>
<rscale>  2 0.13651532E+04</rscale>
<asrwt>0</asrwt>
<pdfrwt beam="2">  1        4 0.68206930E+00 0.13651532E+04</pdfrwt>
<pdfrwt beam="1">  1       -4 0.17312757E+00 0.13651532E+04</pdfrwt>
<totfact> 0.22467775E-03</totfact>
</mgrwt>
</event>
<event>
 8    1  0.1439553E-005  0.1371362E+04  0.7818608E-02  0.8487609E-01
         -2   -1    0    0    0  501 -0.00000000000E+00  0.00000000000E+00  0.11351742882E+04  0.11351742882E+04  0.00000000000E+00 0.  1.
          2   -1    0    0  502    0  0.00000000000E+00 -0.00000000000E+00 -0.21555764526E+04  0.21555764526E+04  0.00000000000E+00 0. -1.
    9000010    2    1    2  502    0  0.45127478221E+03  0.84245881040E+03  0.28482349428E+03  0.13883524750E+04  0.96592566783E+03 0.  0.
   -9000010    2    1    2    0  501 -0.45127478221E+03 -0.84245881040E+03 -0.13052256586E+04  0.19023982658E+04  0.10010591219E+04 0.  0.
        -13    1    3    3    0    0  0.32304427202E+03  0.13659887733E+03 -0.30096211862E+03  0.46216345916E+03  0.10566000000E+00 0.  1.
          4    1    3    3  502    0  0.12823051019E+03  0.70585993307E+03  0.58578561290E+03  0.92618901588E+03  0.00000000000E+00 0.  1.
         13    1    4    4    0    0 -0.22487300292E+02 -0.71291838614E+03 -0.24962334644E+03  0.75569182225E+03  0.10566000000E+00 0. -1.
         -4    1    4    4    0  501 -0.42878748192E+03 -0.12954042426E+03 -0.10556023122E+04  0.11467064435E+04  0.00000000000E+00 0. -1.
<mgrwt>
<rscale>  2 0.13713622E+04</rscale>
<asrwt>0</asrwt>
<pdfrwt beam="2">  1        2 0.33162715E+00 0.13713622E+04</pdfrwt>
<pdfrwt beam="1">  1       -2 0.17464220E+00 0.13713622E+04</pdfrwt>
<totfact> 0.13901402E+00</totfact>
</mgrwt>
</event>
<event>
 8    1  0.1439553E-005  0.1106417E+04  0.7818608E-02  0.8680574E-01
          2   -1    0    0  502    0  0.00000000000E+00  0.00000000000E+00  0.24483771124E+04  0.24483771124E+04  0.00000000000E+00 0. -1.
         -2   -1    0    0    0  501 -0.00000000000E+00 -0.00000000000E+00 -0.56836814224E+03  0.56836814224E+03  0.00000000000E+00 0.  1.
    9000010    2    1    2  502    0 -0.27119528100E+03 -0.40114428909E+03  0.42033302460E+03  0.11879331331E+04  0.10000208279E+04 0.  0.
   -9000010    2    1    2    0  501  0.27119528100E+03  0.40114428909E+03  0.14596759455E+04  0.18288121215E+04  0.98966473542E+03 0.  0.
        -13    1    3    3    0    0 -0.51346515439E+03  0.11765872691E+03  0.11559778637E+03  0.53930779724E+03  0.10566000000E+00 0.  1.
          4    1    3    3  502    0  0.24226987339E+03 -0.51880301600E+03  0.30473523824E+03  0.64862533591E+03  0.00000000000E+00 0.  1.
         13    1    4    4    0    0  0.13630912446E+03  0.73084895083E+03  0.93315016386E+03  0.11931008364E+04  0.10566000000E+00 0. -1.
         -4    1    4    4    0  501  0.13488615654E+03 -0.32970466173E+03  0.52652578166E+03  0.63571128505E+03  0.00000000000E+00 0. -1.
<mgrwt>
<rscale>  2 0.11064173E+04</rscale>
<asrwt>0</asrwt>
<pdfrwt beam="1">  1        2 0.37667340E+00 0.11064173E+04</pdfrwt>
<pdfrwt beam="2">  1       -2 0.87441254E-01 0.11064173E+04</pdfrwt>
<totfact> 0.65765839E+00</totfact>
</mgrwt>
</event>
<event>
 8    1  0.1439553E-005  0.1613776E+04  0.7818608E-02  0.8346871E-01
         -2   -1    0    0    0  501 -0.00000000000E+00  0.00000000000E+00  0.83602983738E+03  0.83602983738E+03  0.00000000000E+00 0. -1.
          2   -1    0    0  502    0  0.00000000000E+00 -0.00000000000E+00 -0.32083796537E+04  0.32083796537E+04  0.00000000000E+00 0.  1.
    9000010    2    1    2  502    0 -0.10924091782E+04 -0.63792788868E+03 -0.84127607941E+03  0.18199036720E+04  0.10019950747E+04 0.  0.
   -9000010    2    1    2    0  501  0.10924091782E+04  0.63792788868E+03 -0.15310737370E+04  0.22245058192E+04  0.10019628475E+04 0.  0.
        -13    1    3    3    0    0 -0.49374195021E+03 -0.41119140473E+03  0.13104109984E+03  0.65576769190E+03  0.10566000000E+00 0.  1.
          4    1    3    3  502    0 -0.59866722798E+03 -0.22673648395E+03 -0.97231717925E+03  0.11641359801E+04  0.00000000000E+00 0.  1.
         13    1    4    4    0    0  0.94385231790E+00  0.51424481141E+03 -0.45085113244E+03  0.68389719381E+03  0.10566000000E+00 0. -1.
         -4    1    4    4    0  501  0.10914653259E+04  0.12368307726E+03 -0.10802226045E+04  0.15406086253E+04  0.00000000000E+00 0. -1.
<mgrwt>
<rscale>  2 0.16137756E+04</rscale>
<asrwt>0</asrwt>
<pdfrwt beam="2">  1        2 0.49359687E+00 0.16137756E+04</pdfrwt>
<pdfrwt beam="1">  1       -2 0.12861998E+00 0.16137756E+04</pdfrwt>
<totfact> 0.82943556E-01</totfact>
</mgrwt>
</event>
<event>
 8    1  0.1439553E-005  0.1414835E+04  0.7818608E-02  0.8460262E-01
         -2   -1    0    0    0  501 -0.00000000000E+00  0.00000000000E+00  0.14253282421E+04  0.14253282421E+04  0.00000000000E+00 0.  1.
          2   -1    0    0  502    0  0.00000000000E+00 -0.00000000000E+00 -0.14419762260E+04  0.14419762260E+04  0.00000000000E+00 0. -1.
    9000010    2    1    2  502    0  0.63188008702E+03 -0.74617342761E+03  0.22263177804E+03  0.14445826544E+04  0.10398109965E+04 0.  0.
   -9000010    2    1    2    0  501 -0.63188008702E+03  0.74617342761E+03 -0.23927976192E+03  0.14227218137E+04  0.10054030666E+04 0.  0.
        -13    1    3    3    0    0  0.69170442361E+03 -0.74990445047E+03 -0.18133584931E+03  0.10361922582E+04  0.10566000000E+00 0.  1.
          4    1    3    3  502    0 -0.59824336593E+02  0.37310228610E+01  0.40396762735E+03  0.40839039622E+03  0.00000000000E+00 0.  1.
         13    1    4    4    0    0 -0.32171659979E+03  0.94811129482E+03 -0.30540726199E+03  0.10467522175E+04  0.10566000000E+00 0. -1.
         -4    1    4    4    0  501 -0.31016348723E+03 -0.20193786721E+03  0.66127500069E+02  0.37596959623E+03  0.00000000000E+00 0. -1.
<mgrwt>
<rscale>  2 0.14148354E+04</rscale>
<asrwt>0</asrwt>
<pdfrwt beam="2">  1        2 0.22184250E+00 0.14148354E+04</pdfrwt>
<pdfrwt beam="1">  1       -2 0.21928127E+00 0.14148354E+04</pdfrwt>
<totfact> 0.14523897E+00</totfact>
</mgrwt>
</event>
<event>
 8    1  0.1439553E-005  0.1063965E+04  0.7818608E-02  0.8716707E-01
          2   -1    0    0  502    0  0.00000000000E+00  0.00000000000E+00  0.82479630985E+03  0.82479630985E+03  0.00000000000E+00 0.  1.
         -2   -1    0    0    0  501 -0.00000000000E+00 -0.00000000000E+00 -0.13878307315E+04  0.13878307315E+04  0.00000000000E+00 0. -1.
    9000010    2    1    2  502    0 -0.12454459647E+03  0.33662178497E+03 -0.16692752714E+03  0.10829355354E+04  0.10079975159E+04 0.  0.
   -9000010    2    1    2    0  501  0.12454459647E+03 -0.33662178497E+03 -0.39610689448E+03  0.11296915059E+04  0.99522693088E+03 0.  0.
        -13    1    3    3    0    0 -0.27997315794E+03  0.21502444805E+03 -0.54911863304E+03  0.65280300761E+03  0.10566000000E+00 0.  1.
          4    1    3    3  502    0  0.15542856147E+03  0.12159733692E+03  0.38219110591E+03  0.43013252784E+03  0.00000000000E+00 0.  1.
         13    1    4    4    0    0 -0.13463621395E+03  0.32078875821E+03 -0.17378531915E+03  0.38888775477E+03  0.10566000000E+00 0. -1.
         -4    1    4    4    0  501  0.25918081042E+03 -0.65741054318E+03 -0.22232157533E+03  0.74080375109E+03  0.00000000000E+00 0. -1.
<mgrwt>
<rscale>  2 0.10639648E+04</rscale>
<asrwt>0</asrwt>
<pdfrwt beam="1">  1        2 0.12689174E+00 0.10639648E+04</pdfrwt>
<pdfrwt beam="2">  1       -2 0.21351242E+00 0.10639648E+04</pdfrwt>
<totfact> 0.38909561E+00</totfact>
</mgrwt>
</event>
<event>
 8    1  0.1439553E-005  0.1340008E+04  0.7818608E-02  0.8507987E-01
         -2   -1    0    0    0  501 -0.00000000000E+00  0.00000000000E+00  0.38994832862E+04  0.38994832862E+04  0.00000000000E+00 0.  1.
          2   -1    0    0  502    0  0.00000000000E+00 -0.00000000000E+00 -0.48269637731E+03  0.48269637731E+03  0.00000000000E+00 0. -1.
    9000010    2    1    2  502    0  0.84135426302E+03 -0.31995541494E+03  0.12409486704E+04  0.18279511993E+04  0.99559204533E+03 0.  0.
   -9000010    2    1    2    0  501 -0.84135426302E+03  0.31995541494E+03  0.21758382385E+04  0.25542284643E+04  0.98972852053E+03 0.  0.
        -13    1    3    3    0    0  0.37782823604E+03  0.17210899255E+03  0.10444825375E+04  0.11239748501E+04  0.10566000000E+00 0.  1.
          4    1    3    3  502    0  0.46352602698E+03 -0.49206440749E+03  0.19646613292E+03  0.70397634917E+03  0.00000000000E+00 0.  1.
         13    1    4    4    0    0 -0.25892379965E+03 -0.24802990835E+03  0.13428016763E+04  0.13898477336E+04  0.10566000000E+00 0. -1.
         -4    1    4    4    0  501 -0.58243046337E+03  0.56798532329E+03  0.83303656211E+03  0.11643807307E+04  0.00000000000E+00 0. -1.
<mgrwt>
<rscale>  2 0.13400082E+04</rscale>
<asrwt>0</asrwt>
<pdfrwt beam="2">  1        2 0.74260984E-01 0.13400082E+04</pdfrwt>
<pdfrwt beam="1">  1       -2 0.59992048E+00 0.13400082E+04</pdfrwt>
<totfact> 0.42420652E-01</totfact>
</mgrwt>
</event>
<event>
 8    1  0.1439553E-005  0.1190817E+04  0.7818608E-02  0.8613510E-01
          2   -1    0    0  502    0  0.00000000000E+00  0.00000000000E+00  0.11432788793E+04  0.11432788793E+04  0.00000000000E+00 0.  1.
         -2   -1    0    0    0  501 -0.00000000000E+00 -0.00000000000E+00 -0.14788609035E+04  0.14788609035E+04  0.00000000000E+00 0. -1.
    9000010    2    1    2  502    0 -0.32107453433E+03  0.59797327313E+03 -0.69512655313E+03  0.13850974700E+04  0.98723512118E+03 0.  0.
   -9000010    2    1    2    0  501  0.32107453433E+03 -0.59797327313E+03  0.35954452894E+03  0.12370423129E+04  0.96971156724E+03 0.  0.
        -13    1    3    3    0    0  0.91342789789E+02  0.75170200588E+03 -0.46182308567E+03  0.88694982074E+03  0.10566000000E+00 0.  1.
          4    1    3    3  502    0 -0.41241732412E+03 -0.15372873275E+03 -0.23330346745E+03  0.49814764923E+03  0.00000000000E+00 0.  1.
         13    1    4    4    0    0  0.57237369375E+03 -0.69623556229E+03  0.35050941058E+03  0.96706383531E+03  0.10566000000E+00 0. -1.
         -4    1    4    4    0  501 -0.25129915942E+03  0.98262289161E+02  0.90351183636E+01  0.26997847759E+03  0.00000000000E+00 0. -1.
<mgrwt>
<rscale>  2 0.11908166E+04</rscale>
<asrwt>0</asrwt>
<pdfrwt beam="1">  1        2 0.17588906E+00 0.11908166E+04</pdfrwt>
<pdfrwt beam="2">  1       -2 0.22751706E+00 0.11908166E+04</pdfrwt>
<totfact> 0.18796325E+00</totfact>
</mgrwt>
</event>
<event>
 8    1  0.1439553E-005  0.1200128E+04  0.7818608E-02  0.8606466E-01
         -2   -1    0    0    0  501 -0.00000000000E+00  0.00000000000E+00  0.35172386777E+03  0.35172386777E+03  0.00000000000E+00 0. -1.
          2   -1    0    0  502    0  0.00000000000E+00 -0.00000000000E+00 -0.41263174343E+04  0.41263174343E+04  0.00000000000E+00 0.  1.
    9000010    2    1    2  502    0 -0.20289440971E+03  0.61182423979E+03 -0.21073835082E+04  0.24341108064E+04  0.10336029825E+04 0.  0.
   -9000010    2    1    2    0  501  0.20289440971E+03 -0.61182423979E+03 -0.16672100583E+04  0.20439304956E+04  0.99124540381E+03 0.  0.
        -13    1    3    3    0    0 -0.48859310995E+02  0.47686165819E+03 -0.20602918989E+03  0.52175886343E+03  0.10566000000E+00 0.  1.
          4    1    3    3  502    0 -0.15403509871E+03  0.13496258161E+03 -0.19013543183E+04  0.19123519430E+04  0.00000000000E+00 0.  1.
         13    1    4    4    0    0 -0.35381146462E+03 -0.36608358094E+03 -0.43498759158E+03  0.66963718290E+03  0.10566000000E+00 0. -1.
         -4    1    4    4    0  501  0.55670587433E+03 -0.24574065885E+03 -0.12322224667E+04  0.13742933127E+04  0.00000000000E+00 0. -1.
<mgrwt>
<rscale>  2 0.12001284E+04</rscale>
<asrwt>0</asrwt>
<pdfrwt beam="2">  1        2 0.63481806E+00 0.12001284E+04</pdfrwt>
<pdfrwt beam="1">  1       -2 0.54111365E-01 0.12001284E+04</pdfrwt>
<totfact> 0.11786965E+00</totfact>
</mgrwt>
</event>
<event>
 8    1  0.1439553E-005  0.1080007E+04  0.7818608E-02  0.8702849E-01
         -2   -1    0    0    0  501 -0.00000000000E+00  0.00000000000E+00  0.11747604084E+04  0.11747604084E+04  0.00000000000E+00 0.  1.
          2   -1    0    0  502    0  0.00000000000E+00 -0.00000000000E+00 -0.99843497349E+03  0.99843497349E+03  0.00000000000E+00 0. -1.
    9000010    2    1    2  502    0 -0.31055314516E+02  0.35047367933E+03  0.16158548094E+03  0.10643328531E+04  0.99141228661E+03 0.  0.
   -9000010    2    1    2    0  501  0.31055314516E+02 -0.35047367933E+03  0.14739953994E+02  0.11088625288E+04  0.10514573739E+04 0.  0.
        -13    1    3    3    0    0  0.35655098722E+03  0.28532431977E+03  0.39792199258E+03  0.60570660990E+03  0.10566000000E+00 0.  1.
          4    1    3    3  502    0 -0.38760630174E+03  0.65149359559E+02 -0.23633651164E+03  0.45862624318E+03  0.00000000000E+00 0.  1.
         13    1    4    4    0    0 -0.13996237692E+03 -0.68539444981E+03 -0.11928443397E+03  0.70963639008E+03  0.10566000000E+00 0. -1.
         -4    1    4    4    0  501  0.17101769144E+03  0.33492077048E+03  0.13402438797E+03  0.39922613874E+03  0.00000000000E+00 0. -1.
<mgrwt>
<rscale>  2 0.10800071E+04</rscale>
<asrwt>0</asrwt>
<pdfrwt beam="2">  1        2 0.15360538E+00 0.10800071E+04</pdfrwt>
<pdfrwt beam="1">  1       -2 0.18073237E+00 0.10800071E+04</pdfrwt>
<totfact> 0.56163040E+00</totfact>
</mgrwt>
</event>
<event>
 8    1  0.1439553E-005  0.1332650E+04  0.7818608E-02  0.8512853E-01
          2   -1    0    0  502    0  0.00000000000E+00  0.00000000000E+00  0.57950042956E+03  0.57950042956E+03  0.00000000000E+00 0.  1.
         -2   -1    0    0    0  501 -0.00000000000E+00 -0.00000000000E+00 -0.39793899678E+04  0.39793899678E+04  0.00000000000E+00 0. -1.
    9000010    2    1    2  502    0  0.66049082249E+03  0.36451289066E+03 -0.75808041102E+03  0.16539263383E+04  0.12616135101E+04 0.  0.
   -9000010    2    1    2    0  501 -0.66049082249E+03 -0.36451289066E+03 -0.26418091272E+04  0.29049640591E+04  0.94368583003E+03 0.  0.
        -13    1    3    3    0    0  0.19395295906E+03 -0.25684308022E+03  0.23098297880E+03  0.39615560813E+03  0.10566000000E+00 0.  1.
          4    1    3    3  502    0  0.46653786342E+03  0.62135597089E+03 -0.98906338982E+03  0.12577707302E+04  0.00000000000E+00 0.  1.
         13    1    4    4    0    0 -0.30436968122E+03  0.18605365820E+03 -0.18149298841E+04  0.18496560118E+04  0.10566000000E+00 0. -1.
         -4    1    4    4    0  501 -0.35612114126E+03 -0.55056654886E+03 -0.82687924316E+03  0.10553080473E+04  0.00000000000E+00 0. -1.
<mgrwt>
<rscale>  2 0.13326495E+04</rscale>
<asrwt>0</asrwt>
<pdfrwt beam="1">  1        2 0.89153909E-01 0.13326495E+04</pdfrwt>
<pdfrwt beam="2">  1       -2 0.61221386E+00 0.13326495E+04</pdfrwt>
<totfact> 0.32389001E-01</totfact>
</mgrwt>
</event>
<event>
 8    1  0.1439553E-005  0.1064228E+04  0.7818608E-02  0.8716477E-01
         -1   -1    0    0    0  501 -0.00000000000E+00  0.00000000000E+00  0.40779544949E+03  0.40779544949E+03  0.00000000000E+00 0.  1.
          1   -1    0    0  502    0  0.00000000000E+00 -0.00000000000E+00 -0.27872834743E+04  0.27872834743E+04  0.00000000000E+00 0. -1.
    9000010    2    1    2  502    0 -0.39149014817E+03  0.15932868089E+03 -0.13054877913E+04  0.17005305474E+04  0.10044180428E+04 0.  0.
   -9000010    2    1    2    0  501  0.39149014817E+03 -0.15932868089E+03 -0.10740002335E+04  0.14945483764E+04  0.94949891157E+03 0.  0.
        -13    1    3    3    0    0 -0.10393246643E+03 -0.27814180091E+03 -0.10979262001E+04  0.11373683532E+04  0.10566000000E+00 0.  1.
          4    1    3    3  502    0 -0.28755768175E+03  0.43747048180E+03 -0.20756159120E+03  0.56316219415E+03  0.00000000000E+00 0.  1.
         13    1    4    4    0    0 -0.22390341208E+03 -0.31909931550E+03 -0.29402947605E+03  0.48827293089E+03  0.10566000000E+00 0. -1.
         -4    1    4    4    0  501  0.61539356025E+03  0.15977063461E+03 -0.77997075749E+03  0.10062754455E+04  0.00000000000E+00 0. -1.
<mgrwt>
<rscale>  2 0.10642283E+04</rscale>
<asrwt>0</asrwt>
<pdfrwt beam="2">  1        1 0.42881283E+00 0.10642283E+04</pdfrwt>
<pdfrwt beam="1">  1       -1 0.62737763E-01 0.10642283E+04</pdfrwt>
<totfact> 0.19934824E+00</totfact>
</mgrwt>
</event>
<event>
 8    1  0.1439553E-005  0.1798619E+04  0.7818608E-02  0.8255710E-01
         -1   -1    0    0    0  501 -0.00000000000E+00  0.00000000000E+00  0.32169492134E+04  0.32169492134E+04  0.00000000000E+00 0.  1.
          1   -1    0    0  502    0  0.00000000000E+00 -0.00000000000E+00 -0.10166323845E+04  0.10166323845E+04  0.00000000000E+00 0. -1.
    9000010    2    1    2  502    0  0.67918702097E+03 -0.13494503548E+04  0.88675556957E+03  0.20150630677E+04  0.99590785569E+03 0.  0.
   -9000010    2    1    2    0  501 -0.67918702097E+03  0.13494503548E+04  0.13135612593E+04  0.22185185302E+04  0.95607009009E+03 0.  0.
        -13    1    3    3    0    0  0.19794336888E+03  0.12868335833E+03  0.22307383754E+03  0.32481214902E+03  0.10566000000E+00 0.  1.
          4    1    3    3  502    0  0.48124365209E+03 -0.14781337132E+04  0.66368173203E+03  0.16902509187E+04  0.00000000000E+00 0.  1.
         13    1    4    4    0    0  0.10433923510E+03  0.76229575488E+03  0.81121511516E+03  0.11180570058E+04  0.10566000000E+00 0. -1.
         -4    1    4    4    0  501 -0.78352625606E+03  0.58715459996E+03  0.50234614416E+03  0.11004615244E+04  0.00000000000E+00 0. -1.
<mgrwt>
<rscale>  2 0.17986186E+04</rscale>
<asrwt>0</asrwt>
<pdfrwt beam="2">  1        1 0.15640498E+00 0.17986186E+04</pdfrwt>
<pdfrwt beam="1">  1       -1 0.49491526E+00 0.17986186E+04</pdfrwt>
<totfact> 0.17771445E-01</totfact>
</mgrwt>
</event>
<event>
 8    1  0.1439553E-005  0.1480191E+04  0.7818608E-02  0.8420991E-01
          2   -1    0    0  502    0  0.00000000000E+00  0.00000000000E+00  0.23142064826E+04  0.23142064826E+04  0.00000000000E+00 0. -1.
         -2   -1    0    0    0  501 -0.00000000000E+00 -0.00000000000E+00 -0.10240162474E+04  0.10240162474E+04  0.00000000000E+00 0.  1.
    9000010    2    1    2  502    0 -0.10449647772E+04  0.28512921989E+03  0.11043934733E+04  0.18483982288E+04  0.10117514570E+04 0.  0.
   -9000010    2    1    2    0  501  0.10449647772E+04 -0.28512921989E+03  0.18579676188E+03  0.14898245011E+04  0.10058859526E+04 0.  0.
        -13    1    3    3    0    0 -0.19222830428E+03  0.52083148128E+03  0.64667771330E+03  0.85229644426E+03  0.10566000000E+00 0.  1.
          4    1    3    3  502    0 -0.85273647292E+03 -0.23570226138E+03  0.45771576004E+03  0.99610178458E+03  0.00000000000E+00 0.  1.
         13    1    4    4    0    0  0.68096131809E+03 -0.56914698064E+03  0.40877235178E+03  0.97710360200E+03  0.10566000000E+00 0. -1.
         -4    1    4    4    0  501  0.36400345911E+03  0.28401776074E+03 -0.22297558989E+03  0.51272089908E+03  0.00000000000E+00 0. -1.
<mgrwt>
<rscale>  2 0.14801912E+04</rscale>
<asrwt>0</asrwt>
<pdfrwt beam="1">  1        2 0.35603177E+00 0.14801912E+04</pdfrwt>
<pdfrwt beam="2">  1       -2 0.15754096E+00 0.14801912E+04</pdfrwt>
<totfact> 0.15714824E+00</totfact>
</mgrwt>
</event>
<event>
 8    1  0.1439553E-005  0.1325278E+04  0.7818608E-02  0.8517760E-01
         -2   -1    0    0    0  501 -0.00000000000E+00  0.00000000000E+00  0.65208431780E+03  0.65208431780E+03  0.00000000000E+00 0. -1.
          2   -1    0    0  502    0  0.00000000000E+00 -0.00000000000E+00 -0.26940457595E+04  0.26940457595E+04  0.00000000000E+00 0.  1.
    9000010    2    1    2  502    0 -0.52422129076E+03  0.64436243341E+03 -0.10150050955E+04  0.16548007061E+04  0.10090188928E+04 0.  0.
   -9000010    2    1    2    0  501  0.52422129076E+03 -0.64436243341E+03 -0.10269563462E+04  0.16913293712E+04  0.10563828839E+04 0.  0.
        -13    1    3    3    0    0  0.24393107413E+03  0.44374489847E+03 -0.47782628996E+03  0.69622545084E+03  0.10566000000E+00 0.  1.
          4    1    3    3  502    0 -0.76815236489E+03  0.20061753494E+03 -0.53717880550E+03  0.95857525531E+03  0.00000000000E+00 0.  1.
         13    1    4    4    0    0  0.52855550637E+03 -0.51584869459E+03 -0.12395352746E+04  0.14428854796E+04  0.10566000000E+00 0. -1.
         -4    1    4    4    0  501 -0.43342156023E+01 -0.12851373883E+03  0.21257892835E+03  0.24844389159E+03  0.00000000000E+00 0. -1.
<mgrwt>
<rscale>  2 0.13252781E+04</rscale>
<asrwt>0</asrwt>
<pdfrwt beam="2">  1        2 0.41446857E+00 0.13252781E+04</pdfrwt>
<pdfrwt beam="1">  1       -2 0.10032067E+00 0.13252781E+04</pdfrwt>
<totfact> 0.33667719E+00</totfact>
</mgrwt>
</event>
<event>
 8    1  0.1439553E-005  0.1105871E+04  0.7818608E-02  0.8681028E-01
          1   -1    0    0  502    0  0.00000000000E+00  0.00000000000E+00  0.23986154710E+04  0.23986154710E+04  0.00000000000E+00 0.  1.
         -1   -1    0    0    0  501 -0.00000000000E+00 -0.00000000000E+00 -0.81258055002E+03  0.81258055002E+03  0.00000000000E+00 0. -1.
    9000010    2    1    2  502    0  0.46930438205E+03 -0.27423281725E+03 -0.18395488092E+03  0.11276384293E+04  0.97071045521E+03 0.  0.
   -9000010    2    1    2    0  501 -0.46930438205E+03  0.27423281725E+03  0.17699898019E+04  0.20835575917E+04  0.95545701016E+03 0.  0.
        -13    1    3    3    0    0 -0.54807464539E+02 -0.74917439672E+02  0.34470741770E+03  0.35698696883E+03  0.10566000000E+00 0.  1.
          4    1    3    3  502    0  0.52411184659E+03 -0.19931537758E+03 -0.52866229862E+03  0.77065146043E+03  0.00000000000E+00 0.  1.
         13    1    4    4    0    0 -0.63338006255E+03  0.49748982411E+03  0.14629012178E+04  0.16699540152E+04  0.10566000000E+00 0. -1.
         -4    1    4    4    0  501  0.16407568050E+03 -0.22325700686E+03  0.30708858409E+03  0.41360357653E+03  0.00000000000E+00 0. -1.
<mgrwt>
<rscale>  2 0.11058709E+04</rscale>
<asrwt>0</asrwt>
<pdfrwt beam="1">  1        1 0.36901776E+00 0.11058709E+04</pdfrwt>
<pdfrwt beam="2">  1       -1 0.12501239E+00 0.11058709E+04</pdfrwt>
<totfact> 0.10819789E+00</totfact>
</mgrwt>
</event>
<event>
 8    1  0.1439553E-005  0.1174132E+04  0.7818608E-02  0.8626300E-01
          2   -1    0    0  502    0  0.00000000000E+00  0.00000000000E+00  0.49914672790E+04  0.49914672790E+04  0.00000000000E+00 0. -1.
         -2   -1    0    0    0  501 -0.00000000000E+00 -0.00000000000E+00 -0.30488634544E+03  0.30488634544E+03  0.00000000000E+00 0.  1.
    9000010    2    1    2  502    0  0.50306533051E+03 -0.38269741597E+03  0.15131803839E+04  0.19092343973E+04  0.97771625271E+03 0.  0.
   -9000010    2    1    2    0  501 -0.50306533051E+03  0.38269741597E+03  0.31734005496E+04  0.33871192271E+04  0.10012859587E+04 0.  0.
        -13    1    3    3    0    0  0.61228641482E+02 -0.16170937286E+03  0.13891669957E+04  0.13998870744E+04  0.10566000000E+00 0.  1.
          4    1    3    3  502    0  0.44183668902E+03 -0.22098804311E+03  0.12401338817E+03  0.50934732296E+03  0.00000000000E+00 0.  1.
         13    1    4    4    0    0  0.13256712557E+02 -0.22535360359E+03  0.16701112970E+04  0.16852987102E+04  0.10566000000E+00 0. -1.
         -4    1    4    4    0  501 -0.51632204306E+03  0.60805101956E+03  0.15032892526E+04  0.17018205168E+04  0.00000000000E+00 0. -1.
<mgrwt>
<rscale>  2 0.11741321E+04</rscale>
<asrwt>0</asrwt>
<pdfrwt beam="1">  1        2 0.76791798E+00 0.11741321E+04</pdfrwt>
<pdfrwt beam="2">  1       -2 0.46905595E-01 0.11741321E+04</pdfrwt>
<totfact> 0.26687125E-01</totfact>
</mgrwt>
</event>
<event>
 8    1  0.1439553E-005  0.1773604E+04  0.7818608E-02  0.8267370E-01
          2   -1    0    0  502    0  0.00000000000E+00  0.00000000000E+00  0.16979687386E+04  0.16979687386E+04  0.00000000000E+00 0.  1.
         -2   -1    0    0    0  501 -0.00000000000E+00 -0.00000000000E+00 -0.23482144691E+04  0.23482144691E+04  0.00000000000E+00 0. -1.
    9000010    2    1    2  502    0 -0.12455502805E+04  0.77622749830E+03 -0.12545320098E+04  0.21723540397E+04  0.99566403981E+03 0.  0.
   -9000010    2    1    2    0  501  0.12455502805E+04 -0.77622749830E+03  0.60428627925E+03  0.18738291679E+04  0.99606687173E+03 0.  0.
        -13    1    3    3    0    0 -0.93847964509E+02  0.58455983012E+03 -0.55371125346E+03  0.81062556018E+03  0.10566000000E+00 0.  1.
          4    1    3    3  502    0 -0.11517023159E+04  0.19166766818E+03 -0.70082075632E+03  0.13617284796E+04  0.00000000000E+00 0.  1.
         13    1    4    4    0    0  0.46765716473E+03 -0.34331880801E+03 -0.25756341193E+03  0.63475188064E+03  0.10566000000E+00 0. -1.
         -4    1    4    4    0  501  0.77789311573E+03 -0.43290869030E+03  0.86184969118E+03  0.12390772873E+04  0.00000000000E+00 0. -1.
<mgrwt>
<rscale>  2 0.17736044E+04</rscale>
<asrwt>0</asrwt>
<pdfrwt beam="1">  1        2 0.26122596E+00 0.17736044E+04</pdfrwt>
<pdfrwt beam="2">  1       -2 0.36126376E+00 0.17736044E+04</pdfrwt>
<totfact> 0.94743086E-02</totfact>
</mgrwt>
</event>
<event>
 8    1  0.1439553E-005  0.1185372E+04  0.7818608E-02  0.8617659E-01
          4   -1    0    0  502    0  0.00000000000E+00  0.00000000000E+00  0.12798592621E+04  0.12798592621E+04  0.00000000000E+00 0.  1.
         -4   -1    0    0    0  501 -0.00000000000E+00 -0.00000000000E+00 -0.12927236646E+04  0.12927236646E+04  0.00000000000E+00 0. -1.
    9000010    2    1    2  502    0  0.49062037630E+03  0.39187690839E+03  0.49295527827E+03  0.12781441560E+04  0.99818420759E+03 0.  0.
   -9000010    2    1    2    0  501 -0.49062037630E+03 -0.39187690839E+03 -0.50581968078E+03  0.12944387706E+04  0.10126412575E+04 0.  0.
        -13    1    3    3    0    0 -0.62038111084E+02  0.38350654102E+02 -0.26548786556E+03  0.27532402333E+03  0.10566000000E+00 0.  1.
          4    1    3    3  502    0  0.55265848738E+03  0.35352625429E+03  0.75844314383E+03  0.10028201327E+04  0.00000000000E+00 0.  1.
         13    1    4    4    0    0 -0.59982634012E+03 -0.56514132472E+03 -0.64525114118E+03  0.10466734933E+04  0.10566000000E+00 0. -1.
         -4    1    4    4    0  501  0.10920596383E+03  0.17326441633E+03  0.13943146040E+03  0.24776527733E+03  0.00000000000E+00 0. -1.
<mgrwt>
<rscale>  2 0.11853724E+04</rscale>
<asrwt>0</asrwt>
<pdfrwt beam="1">  1        4 0.19690142E+00 0.11853724E+04</pdfrwt>
<pdfrwt beam="2">  1       -4 0.19888057E+00 0.11853724E+04</pdfrwt>
<totfact> 0.18641585E-01</totfact>
</mgrwt>
</event>
<event>
 8    1  0.1439553E-005  0.2076494E+04  0.7818608E-02  0.8137939E-01
          2   -1    0    0  502    0  0.00000000000E+00  0.00000000000E+00  0.11751411415E+04  0.11751411415E+04  0.00000000000E+00 0. -1.
         -2   -1    0    0    0  501 -0.00000000000E+00 -0.00000000000E+00 -0.37405776151E+04  0.37405776151E+04  0.00000000000E+00 0.  1.
    9000010    2    1    2  502    0 -0.16912779824E+04 -0.65265462831E+03 -0.16185381671E+04  0.26280575365E+04  0.10003206183E+04 0.  0.
   -9000010    2    1    2    0  501  0.16912779824E+04  0.65265462831E+03 -0.94689830648E+03  0.22876612201E+04  0.10248893489E+04 0.  0.
        -13    1    3    3    0    0 -0.23461546395E+03 -0.50999662280E+03 -0.71096669697E+03  0.90587782099E+03  0.10566000000E+00 0.  1.
          4    1    3    3  502    0 -0.14566625185E+04 -0.14265800551E+03 -0.90757147014E+03  0.17221797156E+04  0.00000000000E+00 0.  1.
         13    1    4    4    0    0  0.50283594013E+03  0.68032276257E+03 -0.15709215990E+03  0.86044232916E+03  0.10566000000E+00 0. -1.
         -4    1    4    4    0  501  0.11884420423E+04 -0.27668134257E+02 -0.78980614658E+03  0.14272188910E+04  0.00000000000E+00 0. -1.
<mgrwt>
<rscale>  2 0.20764940E+04</rscale>
<asrwt>0</asrwt>
<pdfrwt beam="1">  1        2 0.18079095E+00 0.20764940E+04</pdfrwt>
<pdfrwt beam="2">  1       -2 0.57547348E+00 0.20764940E+04</pdfrwt>
<totfact> 0.13094437E-01</totfact>
</mgrwt>
</event>
<event>
 8    1  0.1439553E-005  0.1315349E+04  0.7818608E-02  0.8524421E-01
         -1   -1    0    0    0  501 -0.00000000000E+00  0.00000000000E+00  0.31639905991E+04  0.31639905991E+04  0.00000000000E+00 0. -1.
          1   -1    0    0  502    0  0.00000000000E+00 -0.00000000000E+00 -0.56527632022E+03  0.56527632022E+03  0.00000000000E+00 0.  1.
    9000010    2    1    2  502    0 -0.35616075615E+03 -0.77298056101E+03  0.16246955888E+04  0.20831087466E+04  0.98760157044E+03 0.  0.
   -9000010    2    1    2    0  501  0.35616075615E+03  0.77298056101E+03  0.97401869000E+03  0.16461581727E+04  0.10182214342E+04 0.  0.
        -13    1    3    3    0    0 -0.47142581562E+03 -0.71747191526E+03  0.59270808717E+03  0.10432215185E+04  0.10566000000E+00 0.  1.
          4    1    3    3  502    0  0.11526505947E+03 -0.55508645749E+02  0.10319875017E+04  0.10398872282E+04  0.00000000000E+00 0.  1.
         13    1    4    4    0    0  0.36045360556E+03  0.46242580084E+03 -0.38008598402E+02  0.58754496659E+03  0.10566000000E+00 0. -1.
         -4    1    4    4    0  501 -0.42928494112E+01  0.31055476017E+03  0.10120272884E+04  0.10586132061E+04  0.00000000000E+00 0. -1.
<mgrwt>
<rscale>  2 0.13153489E+04</rscale>
<asrwt>0</asrwt>
<pdfrwt beam="2">  1        1 0.86965589E-01 0.13153489E+04</pdfrwt>
<pdfrwt beam="1">  1       -1 0.48676778E+00 0.13153489E+04</pdfrwt>
<totfact> 0.50648240E-01</totfact>
</mgrwt>
</event>
<event>
 8    1  0.1439553E-005  0.1075247E+04  0.7818608E-02  0.8706935E-01
          1   -1    0    0  502    0  0.00000000000E+00  0.00000000000E+00  0.29018126484E+04  0.29018126484E+04  0.00000000000E+00 0. -1.
         -1   -1    0    0    0  501 -0.00000000000E+00 -0.00000000000E+00 -0.47740740868E+03  0.47740740868E+03  0.00000000000E+00 0.  1.
    9000010    2    1    2  502    0 -0.83767104087E+02 -0.43893780282E+03  0.18846500752E+04  0.21623281913E+04  0.96128766667E+03 0.  0.
   -9000010    2    1    2    0  501  0.83767104087E+02  0.43893780282E+03  0.53975516443E+03  0.12168918658E+04  0.99489037237E+03 0.  0.
        -13    1    3    3    0    0  0.42548374080E+03 -0.98885290882E+02  0.63538355064E+03  0.77105575805E+03  0.10566000000E+00 0.  1.
          4    1    3    3  502    0 -0.50925084489E+03 -0.34005251194E+03  0.12492665246E+04  0.13912724332E+04  0.00000000000E+00 0.  1.
         13    1    4    4    0    0 -0.42230432052E+03  0.38090770492E+03  0.19252552034E+03  0.60041461170E+03  0.10566000000E+00 0. -1.
         -4    1    4    4    0  501  0.50607142461E+03  0.58030097902E+02  0.34722964409E+03  0.61647725409E+03  0.00000000000E+00 0. -1.
<mgrwt>
<rscale>  2 0.10752473E+04</rscale>
<asrwt>0</asrwt>
<pdfrwt beam="1">  1        1 0.44643270E+00 0.10752473E+04</pdfrwt>
<pdfrwt beam="2">  1       -1 0.73447295E-01 0.10752473E+04</pdfrwt>
<totfact> 0.11368821E+00</totfact>
</mgrwt>
</event>
<event>
 8    1  0.1439553E-005  0.1530655E+04  0.7818608E-02  0.8392072E-01
          2   -1    0    0  502    0  0.00000000000E+00  0.00000000000E+00  0.20498725482E+04  0.20498725482E+04  0.00000000000E+00 0. -1.
         -2   -1    0    0    0  501 -0.00000000000E+00 -0.00000000000E+00 -0.11508309344E+04  0.11508309344E+04  0.00000000000E+00 0.  1.
    9000010    2    1    2  502    0 -0.10073705151E+04  0.56481611836E+03  0.31532660252E+03  0.15562287275E+04  0.99428586618E+03 0.  0.
   -9000010    2    1    2    0  501  0.10073705151E+04 -0.56481611836E+03  0.58371501134E+03  0.16444747551E+04  0.10147716016E+04 0.  0.
        -13    1    3    3    0    0 -0.52165368100E+03  0.44809940315E+03  0.65694295662E+03  0.95104663262E+03  0.10566000000E+00 0.  1.
          4    1    3    3  502    0 -0.48571683411E+03  0.11671671521E+03 -0.34161635410E+03  0.60518209486E+03  0.00000000000E+00 0.  1.
         13    1    4    4    0    0  0.87945547663E+03 -0.10303780439E+03 -0.48975993826E+01  0.88548445619E+03  0.10566000000E+00 0. -1.
         -4    1    4    4    0  501  0.12791503848E+03 -0.46177831397E+03  0.58861261072E+03  0.75899029890E+03  0.00000000000E+00 0. -1.
<mgrwt>
<rscale>  2 0.15306551E+04</rscale>
<asrwt>0</asrwt>
<pdfrwt beam="1">  1        2 0.31536501E+00 0.15306551E+04</pdfrwt>
<pdfrwt beam="2">  1       -2 0.17705091E+00 0.15306551E+04</pdfrwt>
<totfact> 0.14921548E+00</totfact>
</mgrwt>
</event>
<event>
 8    1  0.1439553E-005  0.1293749E+04  0.7818608E-02  0.8539124E-01
          2   -1    0    0  502    0  0.00000000000E+00  0.00000000000E+00  0.13219474148E+04  0.13219474148E+04  0.00000000000E+00 0. -1.
         -2   -1    0    0    0  501 -0.00000000000E+00 -0.00000000000E+00 -0.12853270960E+04  0.12853270960E+04  0.00000000000E+00 0.  1.
    9000010    2    1    2  502    0  0.31225258343E+03 -0.80201585347E+03  0.17743881497E+03  0.13020244377E+04  0.96075595149E+03 0.  0.
   -9000010    2    1    2    0  501 -0.31225258343E+03  0.80201585347E+03 -0.14081849618E+03  0.13052500731E+04  0.97114200779E+03 0.  0.
        -13    1    3    3    0    0  0.23655310933E+00 -0.91813884659E+03  0.26900917226E+03  0.95673661135E+03  0.10566000000E+00 0.  1.
          4    1    3    3  502    0  0.31201603033E+03  0.11612299312E+03 -0.91570357295E+02  0.34528782638E+03  0.00000000000E+00 0.  1.
         13    1    4    4    0    0  0.80732142354E+02  0.20141907489E+03 -0.46844841362E+03  0.51626664615E+03  0.10566000000E+00 0. -1.
         -4    1    4    4    0  501 -0.39298472579E+03  0.60059677858E+03  0.32762991744E+03  0.78898342691E+03  0.00000000000E+00 0. -1.
<mgrwt>
<rscale>  2 0.12937486E+04</rscale>
<asrwt>0</asrwt>
<pdfrwt beam="1">  1        2 0.20337653E+00 0.12937486E+04</pdfrwt>
<pdfrwt beam="2">  1       -2 0.19774263E+00 0.12937486E+04</pdfrwt>
<totfact> 0.25782877E+00</totfact>
</mgrwt>
</event>
<event>
 8    1  0.1439553E-005  0.1718385E+04  0.7818608E-02  0.8293826E-01
         -1   -1    0    0    0  501 -0.00000000000E+00  0.00000000000E+00  0.14873240059E+04  0.14873240059E+04  0.00000000000E+00 0. -1.
          1   -1    0    0  502    0  0.00000000000E+00 -0.00000000000E+00 -0.22162258500E+04  0.22162258500E+04  0.00000000000E+00 0.  1.
    9000010    2    1    2  502    0  0.17403472564E+03 -0.13793756291E+04  0.23305776802E+03  0.17350675106E+04  0.10115226796E+04 0.  0.
   -9000010    2    1    2    0  501 -0.17403472564E+03  0.13793756291E+04 -0.96195961214E+03  0.19684823453E+04  0.10082614922E+04 0.  0.
        -13    1    3    3    0    0 -0.30304170493E+03 -0.29823571239E+03  0.34570679202E+03  0.54798906219E+03  0.10566000000E+00 0.  1.
          4    1    3    3  502    0  0.47707643057E+03 -0.10811399167E+04 -0.11264902400E+03  0.11870784484E+04  0.00000000000E+00 0.  1.
         13    1    4    4    0    0  0.28534345382E+03  0.20762129401E+03  0.46205129143E+02  0.35589663315E+03  0.10566000000E+00 0. -1.
         -4    1    4    4    0  501 -0.45937817946E+03  0.11717543351E+04 -0.10081647413E+04  0.16125857122E+04  0.00000000000E+00 0. -1.
<mgrwt>
<rscale>  2 0.17183853E+04</rscale>
<asrwt>0</asrwt>
<pdfrwt beam="2">  1        1 0.34095782E+00 0.17183853E+04</pdfrwt>
<pdfrwt beam="1">  1       -1 0.22881908E+00 0.17183853E+04</pdfrwt>
<totfact> 0.16994845E-01</totfact>
</mgrwt>
</event>
<event>
 8    1  0.1439553E-005  0.1452184E+04  0.7818608E-02  0.8437561E-01
         -2   -1    0    0    0  501 -0.00000000000E+00  0.00000000000E+00  0.77940792143E+03  0.77940792143E+03  0.00000000000E+00 0. -1.
          2   -1    0    0  502    0  0.00000000000E+00 -0.00000000000E+00 -0.33482096266E+04  0.33482096266E+04  0.00000000000E+00 0.  1.
    9000010    2    1    2  502    0  0.91896228949E+03  0.49136075727E+03 -0.39321385784E+03  0.15215451603E+04  0.10366076662E+04 0.  0.
   -9000010    2    1    2    0  501 -0.91896228949E+03 -0.49136075727E+03 -0.21755878473E+04  0.26060723877E+04  0.98615603498E+03 0.  0.
        -13    1    3    3    0    0  0.69842289947E+03 -0.16242466046E+03  0.19916934781E+02  0.71733744659E+03  0.10566000000E+00 0.  1.
          4    1    3    3  502    0  0.22053939002E+03  0.65378541773E+03 -0.41313079262E+03  0.80420771371E+03  0.00000000000E+00 0.  1.
         13    1    4    4    0    0 -0.67379148409E+03 -0.14598227185E+03 -0.43613106118E+03  0.81579170222E+03  0.10566000000E+00 0. -1.
         -4    1    4    4    0  501 -0.24517080540E+03 -0.34537848542E+03 -0.17394567861E+04  0.17902806855E+04  0.00000000000E+00 0. -1.
<mgrwt>
<rscale>  2 0.14521844E+04</rscale>
<asrwt>0</asrwt>
<pdfrwt beam="2">  1        2 0.51510916E+00 0.14521844E+04</pdfrwt>
<pdfrwt beam="1">  1       -2 0.11990891E+00 0.14521844E+04</pdfrwt>
<totfact> 0.82238533E-01</totfact>
</mgrwt>
</event>
<event>
 8    1  0.1439553E-005  0.1289930E+04  0.7818608E-02  0.8541755E-01
         -1   -1    0    0    0  501 -0.00000000000E+00  0.00000000000E+00  0.13117394979E+04  0.13117394979E+04  0.00000000000E+00 0. -1.
          1   -1    0    0  502    0  0.00000000000E+00 -0.00000000000E+00 -0.18067003779E+04  0.18067003779E+04  0.00000000000E+00 0.  1.
    9000010    2    1    2  502    0  0.48483502655E+02 -0.81472157378E+03 -0.10975657350E+04  0.16885827536E+04  0.99022183394E+03 0.  0.
   -9000010    2    1    2    0  501 -0.48483502655E+02  0.81472157378E+03  0.60260485498E+03  0.14298571221E+04  0.10075896415E+04 0.  0.
        -13    1    3    3    0    0  0.38124093547E+03 -0.13364049302E+03 -0.67379001590E+02  0.40956607925E+03  0.10566000000E+00 0.  1.
          4    1    3    3  502    0 -0.33275743281E+03 -0.68108108076E+03 -0.10301867334E+04  0.12790166744E+04  0.00000000000E+00 0.  1.
         13    1    4    4    0    0  0.12664063681E+03  0.56360476665E+03  0.85584028867E+03  0.10325457834E+04  0.10566000000E+00 0. -1.
         -4    1    4    4    0  501 -0.17512413946E+03  0.25111680714E+03 -0.25323543369E+03  0.39731133878E+03  0.00000000000E+00 0. -1.
<mgrwt>
<rscale>  2 0.12899301E+04</rscale>
<asrwt>0</asrwt>
<pdfrwt beam="2">  1        1 0.27795391E+00 0.12899301E+04</pdfrwt>
<pdfrwt beam="1">  1       -1 0.20180608E+00 0.12899301E+04</pdfrwt>
<totfact> 0.66060787E-01</totfact>
</mgrwt>
</event>
<event>
 8    1  0.1439553E-005  0.1063790E+04  0.7818608E-02  0.8716859E-01
         -2   -1    0    0    0  501 -0.00000000000E+00  0.00000000000E+00  0.13308217577E+04  0.13308217577E+04  0.00000000000E+00 0. -1.
          2   -1    0    0  502    0  0.00000000000E+00 -0.00000000000E+00 -0.96044449407E+03  0.96044449407E+03  0.00000000000E+00 0.  1.
    9000010    2    1    2  502    0  0.31120700095E+03  0.16613972234E+03 -0.20618648626E+03  0.10517065978E+04  0.96908291495E+03 0.  0.
   -9000010    2    1    2    0  501 -0.31120700095E+03 -0.16613972234E+03  0.57656374986E+03  0.12395596539E+04  0.10390525363E+04 0.  0.
        -13    1    3    3    0    0  0.15124496008E+03 -0.29260545705E+03 -0.40908326727E+03  0.52520674231E+03  0.10566000000E+00 0.  1.
          4    1    3    3  502    0  0.15996204087E+03  0.45874517939E+03  0.20289678101E+03  0.52649985554E+03  0.00000000000E+00 0.  1.
         13    1    4    4    0    0 -0.44458683182E+03 -0.23644353398E+03  0.81466952202E+03  0.95773140131E+03  0.10566000000E+00 0. -1.
         -4    1    4    4    0  501  0.13337983087E+03  0.70303811641E+02 -0.23810577216E+03  0.28182825258E+03  0.00000000000E+00 0. -1.
<mgrwt>
<rscale>  2 0.10637902E+04</rscale>
<asrwt>0</asrwt>
<pdfrwt beam="2">  1        2 0.14776069E+00 0.10637902E+04</pdfrwt>
<pdfrwt beam="1">  1       -2 0.20474181E+00 0.10637902E+04</pdfrwt>
<totfact> 0.37548578E+00</totfact>
</mgrwt>
</event>
<event>
 8    1  0.1439553E-005  0.1058992E+04  0.7818608E-02  0.8721054E-01
         -2   -1    0    0    0  501 -0.00000000000E+00  0.00000000000E+00  0.63840398845E+03  0.63840398845E+03  0.00000000000E+00 0. -1.
          2   -1    0    0  502    0  0.00000000000E+00 -0.00000000000E+00 -0.18056498850E+04  0.18056498850E+04  0.00000000000E+00 0.  1.
    9000010    2    1    2  502    0  0.37069758227E+03  0.28816894097E+03 -0.80402907491E+03  0.13741669984E+04  0.10106503600E+04 0.  0.
   -9000010    2    1    2    0  501 -0.37069758227E+03 -0.28816894097E+03 -0.36321682168E+03  0.10698868751E+04  0.89009742717E+03 0.  0.
        -13    1    3    3    0    0  0.68924271367E+03  0.12548082690E+03 -0.31460300147E+03  0.76796875976E+03  0.10566000000E+00 0.  1.
          4    1    3    3  502    0 -0.31854513140E+03  0.16268811408E+03 -0.48942607344E+03  0.60619823867E+03  0.00000000000E+00 0.  1.
         13    1    4    4    0    0 -0.56339113829E+03  0.66606836833E+02 -0.34867192109E+03  0.66589651233E+03  0.10566000000E+00 0. -1.
         -4    1    4    4    0  501  0.19269355602E+03 -0.35477577781E+03 -0.14544900586E+02  0.40399036273E+03  0.00000000000E+00 0. -1.
<mgrwt>
<rscale>  2 0.10589923E+04</rscale>
<asrwt>0</asrwt>
<pdfrwt beam="2">  1        2 0.27779229E+00 0.10589923E+04</pdfrwt>
<pdfrwt beam="1">  1       -2 0.98215998E-01 0.10589923E+04</pdfrwt>
<totfact> 0.11305748E+01</totfact>
</mgrwt>
</event>
<event>
 8    1  0.1439553E-005  0.1294833E+04  0.7818608E-02  0.8538379E-01
         -1   -1    0    0    0  501 -0.00000000000E+00  0.00000000000E+00  0.61816982704E+03  0.61816982704E+03  0.00000000000E+00 0.  1.
          1   -1    0    0  502    0  0.00000000000E+00 -0.00000000000E+00 -0.27148316493E+04  0.27148316493E+04  0.00000000000E+00 0. -1.
    9000010    2    1    2  502    0 -0.81056573780E+03  0.39268129099E+02 -0.10057503076E+04  0.16472833452E+04  0.10214939730E+04 0.  0.
   -9000010    2    1    2    0  501  0.81056573780E+03 -0.39268129099E+02 -0.10909115147E+04  0.16857181312E+04  0.99649329330E+03 0.  0.
        -13    1    3    3    0    0 -0.44492120917E+03  0.44033569308E+03 -0.89690613767E+03  0.10937509021E+04  0.10566000000E+00 0.  1.
          4    1    3    3  502    0 -0.36564452863E+03 -0.40106756398E+03 -0.10884416991E+03  0.55353244306E+03  0.00000000000E+00 0.  1.
         13    1    4    4    0    0  0.45571194951E+03  0.13568493797E+02 -0.12215898597E+04  0.13038938920E+04  0.10566000000E+00 0. -1.
         -4    1    4    4    0  501  0.35485378829E+03 -0.52836622895E+02  0.13067834504E+03  0.38182423920E+03  0.00000000000E+00 0. -1.
<mgrwt>
<rscale>  2 0.12948334E+04</rscale>
<asrwt>0</asrwt>
<pdfrwt beam="2">  1        1 0.41766640E+00 0.12948334E+04</pdfrwt>
<pdfrwt beam="1">  1       -1 0.95103053E-01 0.12948334E+04</pdfrwt>
<totfact> 0.10117187E+00</totfact>
</mgrwt>
</event>
<event>
 8    1  0.1439553E-005  0.1050301E+04  0.7818608E-02  0.8728712E-01
          2   -1    0    0  502    0  0.00000000000E+00  0.00000000000E+00  0.12562328960E+04  0.12562328960E+04  0.00000000000E+00 0. -1.
         -2   -1    0    0    0  501 -0.00000000000E+00 -0.00000000000E+00 -0.95434766944E+03  0.95434766944E+03  0.00000000000E+00 0.  1.
    9000010    2    1    2  502    0  0.27843909920E+03  0.17959687890E+03  0.46363419253E+03  0.11504492979E+04  0.99939659382E+03 0.  0.
   -9000010    2    1    2    0  501 -0.27843909920E+03 -0.17959687890E+03 -0.16174896601E+03  0.10601312675E+04  0.99394778808E+03 0.  0.
        -13    1    3    3    0    0 -0.30470172798E+03  0.17187243854E+03 -0.73634566233E+02  0.35749872541E+03  0.10566000000E+00 0.  1.
          4    1    3    3  502    0  0.58314082718E+03  0.77244403511E+01  0.53726875876E+03  0.79295057251E+03  0.00000000000E+00 0.  1.
         13    1    4    4    0    0 -0.34593606564E+03  0.34115523115E+03  0.61113821697E+02  0.48968720998E+03  0.10566000000E+00 0. -1.
         -4    1    4    4    0  501  0.67496966444E+02 -0.52075211005E+03 -0.22286278771E+03  0.57044405751E+03  0.00000000000E+00 0. -1.
<mgrwt>
<rscale>  2 0.10503013E+04</rscale>
<asrwt>0</asrwt>
<pdfrwt beam="1">  1        2 0.19326660E+00 0.10503013E+04</pdfrwt>
<pdfrwt beam="2">  1       -2 0.14682272E+00 0.10503013E+04</pdfrwt>
<totfact> 0.77836839E+00</totfact>
</mgrwt>
</event>
<event>
 8    1  0.1439553E-005  0.1189062E+04  0.7818608E-02  0.8614845E-01
         -2   -1    0    0    0  501 -0.00000000000E+00  0.00000000000E+00  0.92124461106E+03  0.92124461106E+03  0.00000000000E+00 0.  1.
          2   -1    0    0  502    0  0.00000000000E+00 -0.00000000000E+00 -0.15617881240E+04  0.15617881240E+04  0.00000000000E+00 0. -1.
    9000010    2    1    2  502    0  0.63985201385E+03  0.19307356748E+03 -0.48370427626E+03  0.12838224733E+04  0.98363728787E+03 0.  0.
   -9000010    2    1    2    0  501 -0.63985201385E+03 -0.19307356748E+03 -0.15683923668E+03  0.11992102617E+04  0.98326939523E+03 0.  0.
        -13    1    3    3    0    0  0.68654287614E+03  0.48865623632E+03 -0.50736851839E+03  0.98364061663E+03  0.10566000000E+00 0.  1.
          4    1    3    3  502    0 -0.46690862293E+02 -0.29558266884E+03  0.23664242129E+02  0.30018185670E+03  0.00000000000E+00 0.  1.
         13    1    4    4    0    0 -0.60597819284E+02  0.28055355967E+03  0.21980848109E+03  0.36152202570E+03  0.10566000000E+00 0. -1.
         -4    1    4    4    0  501 -0.57925419457E+03 -0.47362712715E+03 -0.37664771777E+03  0.83768823604E+03  0.00000000000E+00 0. -1.
<mgrwt>
<rscale>  2 0.11890620E+04</rscale>
<asrwt>0</asrwt>
<pdfrwt beam="2">  1        2 0.24027509E+00 0.11890620E+04</pdfrwt>
<pdfrwt beam="1">  1       -2 0.14172994E+00 0.11890620E+04</pdfrwt>
<totfact> 0.57723691E+00</totfact>
</mgrwt>
</event>
<event>
 8    1  0.1439553E-005  0.1158384E+04  0.7818608E-02  0.8638577E-01
         -2   -1    0    0    0  501 -0.00000000000E+00  0.00000000000E+00  0.10020052614E+04  0.10020052614E+04  0.00000000000E+00 0. -1.
          2   -1    0    0  502    0  0.00000000000E+00 -0.00000000000E+00 -0.13465371668E+04  0.13465371668E+04  0.00000000000E+00 0.  1.
    9000010    2    1    2  502    0 -0.43974366718E+03 -0.38476837522E+03 -0.86191461291E+02  0.11661349854E+04  0.10054952217E+04 0.  0.
   -9000010    2    1    2    0  501  0.43974366718E+03  0.38476837522E+03 -0.25834044404E+03  0.11824074428E+04  0.99495044113E+03 0.  0.
        -13    1    3    3    0    0  0.12440566309E+03  0.15248554145E+03 -0.29954385468E+03  0.35840639141E+03  0.10566000000E+00 0.  1.
          4    1    3    3  502    0 -0.56414933027E+03 -0.53725391667E+03  0.21335239339E+03  0.80772859401E+03  0.00000000000E+00 0.  1.
         13    1    4    4    0    0  0.20260256101E+03 -0.32292195544E+03  0.29739411632E+02  0.38237524868E+03  0.10566000000E+00 0. -1.
         -4    1    4    4    0  501  0.23714110617E+03  0.70769033066E+03 -0.28807985568E+03  0.80003219410E+03  0.00000000000E+00 0. -1.
<mgrwt>
<rscale>  2 0.11583839E+04</rscale>
<asrwt>0</asrwt>
<pdfrwt beam="2">  1        2 0.20715956E+00 0.11583839E+04</pdfrwt>
<pdfrwt beam="1">  1       -2 0.15415466E+00 0.11583839E+04</pdfrwt>
<totfact> 0.59012170E+00</totfact>
</mgrwt>
</event>
<event>
 8    1  0.1439553E-005  0.1731677E+04  0.7818608E-02  0.8287365E-01
          2   -1    0    0  502    0  0.00000000000E+00  0.00000000000E+00  0.25111773829E+04  0.25111773829E+04  0.00000000000E+00 0.  1.
         -2   -1    0    0    0  501 -0.00000000000E+00 -0.00000000000E+00 -0.12460025706E+04  0.12460025706E+04  0.00000000000E+00 0. -1.
    9000010    2    1    2  502    0 -0.12536706997E+04 -0.68098579550E+03  0.25105859372E+03  0.17545654205E+04  0.98996844423E+03 0.  0.
   -9000010    2    1    2    0  501  0.12536706997E+04  0.68098579550E+03  0.10141162186E+04  0.20026145330E+04  0.97293442026E+03 0.  0.
        -13    1    3    3    0    0 -0.91095621097E+03 -0.15795206789E+03 -0.24491517431E+03  0.95643793726E+03  0.10566000000E+00 0.  1.
          4    1    3    3  502    0 -0.34271448870E+03 -0.52303372761E+03  0.49597376803E+03  0.79812748328E+03  0.00000000000E+00 0.  1.
         13    1    4    4    0    0 -0.61210398096E+02 -0.74591046980E+02  0.32104964584E+03  0.33523636942E+03  0.10566000000E+00 0. -1.
         -4    1    4    4    0  501  0.13148810978E+04  0.75557684248E+03  0.69306657275E+03  0.16673781636E+04  0.00000000000E+00 0. -1.
<mgrwt>
<rscale>  2 0.17316769E+04</rscale>
<asrwt>0</asrwt>
<pdfrwt beam="1">  1        2 0.38633498E+00 0.17316769E+04</pdfrwt>
<pdfrwt beam="2">  1       -2 0.19169270E+00 0.17316769E+04</pdfrwt>
<totfact> 0.61240147E-01</totfact>
</mgrwt>
</event>
<event>
 8    1  0.1439553E-005  0.1155369E+04  0.7818608E-02  0.8640950E-01
          4   -1    0    0  502    0  0.00000000000E+00  0.00000000000E+00  0.90890279137E+03  0.90890279137E+03  0.00000000000E+00 0.  1.
         -4   -1    0    0    0  501 -0.00000000000E+00 -0.00000000000E+00 -0.23123390698E+04  0.23123390698E+04  0.00000000000E+00 0. -1.
    9000010    2    1    2  502    0  0.63592807114E+00 -0.57905096535E+03  0.26933785068E+03  0.11908842514E+04  0.10051676465E+04 0.  0.
   -9000010    2    1    2    0  501 -0.63592807114E+00  0.57905096535E+03 -0.16727741292E+04  0.20303576098E+04  0.99442360771E+03 0.  0.
        -13    1    3    3    0    0  0.47856037448E+03 -0.14873509691E+03  0.21556063086E+03  0.54553511145E+03  0.10566000000E+00 0.  1.
          4    1    3    3  502    0 -0.47792444641E+03 -0.43031586844E+03  0.53777219815E+02  0.64534913998E+03  0.00000000000E+00 0.  1.
         13    1    4    4    0    0  0.47268597002E+03  0.22796687889E+03 -0.10446674927E+04  0.11690727546E+04  0.10566000000E+00 0. -1.
         -4    1    4    4    0  501 -0.47332189810E+03  0.35108408645E+03 -0.62810663645E+03  0.86128485516E+03  0.00000000000E+00 0. -1.
<mgrwt>
<rscale>  2 0.11553689E+04</rscale>
<asrwt>0</asrwt>
<pdfrwt beam="1">  1        4 0.13983120E+00 0.11553689E+04</pdfrwt>
<pdfrwt beam="2">  1       -4 0.35574447E+00 0.11553689E+04</pdfrwt>
<totfact> 0.11508086E-01</totfact>
</mgrwt>
</event>
<event>
 8    1  0.1439553E-005  0.1682526E+04  0.7818608E-02  0.8311560E-01
         -1   -1    0    0    0  501 -0.00000000000E+00  0.00000000000E+00  0.30193869058E+04  0.30193869058E+04  0.00000000000E+00 0.  1.
          1   -1    0    0  502    0  0.00000000000E+00 -0.00000000000E+00 -0.95060623532E+03  0.95060623532E+03  0.00000000000E+00 0. -1.
    9000010    2    1    2  502    0  0.13026467885E+04  0.29347865159E+03  0.80858285866E+03  0.18761331552E+04  0.10406973635E+04 0.  0.
   -9000010    2    1    2    0  501 -0.13026467885E+04 -0.29347865159E+03  0.12601978118E+04  0.20938599859E+04  0.10065449524E+04 0.  0.
        -13    1    3    3    0    0  0.37624462190E+03  0.20653525311E+03  0.84197600066E+03  0.94506106847E+03  0.10566000000E+00 0.  1.
          4    1    3    3  502    0  0.92640216657E+03  0.86943398480E+02 -0.33393142001E+02  0.93107208674E+03  0.00000000000E+00 0.  1.
         13    1    4    4    0    0  0.62941791508E+02 -0.53504552491E+02 -0.11461923983E+03  0.14128689804E+03  0.10566000000E+00 0. -1.
         -4    1    4    4    0  501 -0.13655885800E+04 -0.23997409910E+03  0.13748170517E+04  0.19525730879E+04  0.00000000000E+00 0. -1.
<mgrwt>
<rscale>  2 0.16825262E+04</rscale>
<asrwt>0</asrwt>
<pdfrwt beam="2">  1        1 0.14624711E+00 0.16825262E+04</pdfrwt>
<pdfrwt beam="1">  1       -1 0.46452106E+00 0.16825262E+04</pdfrwt>
<totfact> 0.22652342E-01</totfact>
</mgrwt>
</event>
<event>
 8    1  0.1439553E-005  0.1386392E+04  0.7818608E-02  0.8478038E-01
         -1   -1    0    0    0  501 -0.00000000000E+00  0.00000000000E+00  0.33591496265E+04  0.33591496265E+04  0.00000000000E+00 0. -1.
          1   -1    0    0  502    0  0.00000000000E+00 -0.00000000000E+00 -0.12376696471E+04  0.12376696471E+04  0.00000000000E+00 0.  1.
    9000010    2    1    2  502    0 -0.58859548834E+03 -0.75748294093E+03  0.27453252947E+04  0.30745551790E+04  0.99792460643E+03 0.  0.
   -9000010    2    1    2    0  501  0.58859548834E+03  0.75748294093E+03 -0.62384531535E+03  0.15222640947E+04  0.10039322396E+04 0.  0.
        -13    1    3    3    0    0 -0.19321818848E+03 -0.46034237319E+00 -0.64158707483E+01  0.19332525660E+03  0.10566000000E+00 0.  1.
          4    1    3    3  502    0 -0.39537729986E+03 -0.75702259856E+03  0.27517411655E+04  0.28812299224E+04  0.00000000000E+00 0.  1.
         13    1    4    4    0    0  0.77654635381E+03  0.20464240356E+03 -0.32516377372E+03  0.86639150726E+03  0.10566000000E+00 0. -1.
         -4    1    4    4    0  501 -0.18795086546E+03  0.55284053738E+03 -0.29868154163E+03  0.65587258740E+03  0.00000000000E+00 0. -1.
<mgrwt>
<rscale>  2 0.13863919E+04</rscale>
<asrwt>0</asrwt>
<pdfrwt beam="2">  1        1 0.19041072E+00 0.13863919E+04</pdfrwt>
<pdfrwt beam="1">  1       -1 0.51679225E+00 0.13863919E+04</pdfrwt>
<totfact> 0.10667793E-01</totfact>
</mgrwt>
</event>
<event>
 8    1  0.1439553E-005  0.1522646E+04  0.7818608E-02  0.8396584E-01
          2   -1    0    0  502    0  0.00000000000E+00  0.00000000000E+00  0.98974288229E+03  0.98974288229E+03  0.00000000000E+00 0.  1.
         -2   -1    0    0    0  501 -0.00000000000E+00 -0.00000000000E+00 -0.38514196717E+04  0.38514196717E+04  0.00000000000E+00 0. -1.
    9000010    2    1    2  502    0 -0.40028272965E+03  0.10693691807E+04 -0.29415764482E+04  0.33088266486E+04  0.99583386241E+03 0.  0.
   -9000010    2    1    2    0  501  0.40028272965E+03 -0.10693691807E+04  0.79899658754E+02  0.15323359054E+04  0.10187701719E+04 0.  0.
        -13    1    3    3    0    0 -0.57083970554E+03  0.11715877918E+04 -0.23858002495E+04  0.27185508575E+04  0.10566000000E+00 0.  1.
          4    1    3    3  502    0  0.17055697589E+03 -0.10221861107E+03 -0.55577619868E+03  0.59027579104E+03  0.00000000000E+00 0.  1.
         13    1    4    4    0    0  0.17346523849E+03  0.18381048721E+03 -0.27734029918E+02  0.25425513122E+03  0.10566000000E+00 0. -1.
         -4    1    4    4    0  501  0.22681749116E+03 -0.12531796679E+04  0.10763368867E+03  0.12780807742E+04  0.00000000000E+00 0. -1.
<mgrwt>
<rscale>  2 0.15226459E+04</rscale>
<asrwt>0</asrwt>
<pdfrwt beam="1">  1        2 0.15226814E+00 0.15226459E+04</pdfrwt>
<pdfrwt beam="2">  1       -2 0.59252609E+00 0.15226459E+04</pdfrwt>
<totfact> 0.17481552E-01</totfact>
</mgrwt>
</event>
<event>
 8    1  0.1439553E-005  0.1110270E+04  0.7818608E-02  0.8677379E-01
         -1   -1    0    0    0  501 -0.00000000000E+00  0.00000000000E+00  0.85394386183E+03  0.85394386183E+03  0.00000000000E+00 0.  1.
          1   -1    0    0  502    0  0.00000000000E+00 -0.00000000000E+00 -0.14442603632E+04  0.14442603632E+04  0.00000000000E+00 0. -1.
    9000010    2    1    2  502    0  0.35895152494E+03 -0.30183463957E+03 -0.27297735872E+03  0.11511866324E+04  0.10152653236E+04 0.  0.
   -9000010    2    1    2    0  501 -0.35895152494E+03  0.30183463957E+03 -0.31733914266E+03  0.11470175927E+04  0.99749430050E+03 0.  0.
        -13    1    3    3    0    0 -0.22283629574E+03  0.13985023532E+03 -0.32587729566E+03  0.41881992074E+03  0.10566000000E+00 0.  1.
          4    1    3    3  502    0  0.58178782068E+03 -0.44168487489E+03  0.52899936936E+02  0.73236671164E+03  0.00000000000E+00 0.  1.
         13    1    4    4    0    0 -0.36936126644E+03 -0.29725114595E+03 -0.11397889465E+02  0.47425300417E+03  0.10566000000E+00 0. -1.
         -4    1    4    4    0  501  0.10409741498E+02  0.59908578552E+03 -0.30594125319E+03  0.67276458850E+03  0.00000000000E+00 0. -1.
<mgrwt>
<rscale>  2 0.11102702E+04</rscale>
<asrwt>0</asrwt>
<pdfrwt beam="2">  1        1 0.22219390E+00 0.11102702E+04</pdfrwt>
<pdfrwt beam="1">  1       -1 0.13137598E+00 0.11102702E+04</pdfrwt>
<totfact> 0.51929944E+00</totfact>
</mgrwt>
</event>
<event>
 8    1  0.1439553E-005  0.1572212E+04  0.7818608E-02  0.8369112E-01
         -2   -1    0    0    0  501 -0.00000000000E+00  0.00000000000E+00  0.68397248019E+03  0.68397248019E+03  0.00000000000E+00 0.  1.
          2   -1    0    0  502    0  0.00000000000E+00 -0.00000000000E+00 -0.36674966671E+04  0.36674966671E+04  0.00000000000E+00 0. -1.
    9000010    2    1    2  502    0 -0.12090004941E+04  0.12502746465E+03 -0.17537243463E+04  0.23546449935E+04  0.99573585917E+03 0.  0.
   -9000010    2    1    2    0  501  0.12090004941E+04 -0.12502746465E+03 -0.12297998406E+04  0.19968241537E+04  0.99879176579E+03 0.  0.
        -13    1    3    3    0    0 -0.50911271391E+03  0.47418501892E+03 -0.43232781343E+03  0.81911814597E+03  0.10566000000E+00 0.  1.
          4    1    3    3  502    0 -0.69988778015E+03 -0.34915755427E+03 -0.13213965329E+04  0.15355268476E+04  0.00000000000E+00 0.  1.
         13    1    4    4    0    0  0.82431296663E+03 -0.26705307886E+03 -0.13180570597E+04  0.15773660443E+04  0.10566000000E+00 0. -1.
         -4    1    4    4    0  501  0.38468752744E+03  0.14202561421E+03  0.88257219098E+02  0.41945810945E+03  0.00000000000E+00 0. -1.
<mgrwt>
<rscale>  2 0.15722117E+04</rscale>
<asrwt>0</asrwt>
<pdfrwt beam="2">  1        2 0.56423026E+00 0.15722117E+04</pdfrwt>
<pdfrwt beam="1">  1       -2 0.10522654E+00 0.15722117E+04</pdfrwt>
<totfact> 0.65410138E-01</totfact>
</mgrwt>
</event>
<event>
 8    1  0.1439553E-005  0.1302338E+04  0.7818608E-02  0.8533243E-01
          2   -1    0    0  502    0  0.00000000000E+00  0.00000000000E+00  0.14069409000E+04  0.14069409000E+04  0.00000000000E+00 0. -1.
         -2   -1    0    0    0  501 -0.00000000000E+00 -0.00000000000E+00 -0.12078740046E+04  0.12078740046E+04  0.00000000000E+00 0.  1.
    9000010    2    1    2  502    0  0.83251369993E+03 -0.62519796755E+01  0.15746361094E+03  0.13135675833E+04  0.10037663370E+04 0.  0.
   -9000010    2    1    2    0  501 -0.83251369993E+03  0.62519796755E+01  0.41603284433E+02  0.13012473213E+04  0.99919748301E+03 0.  0.
        -13    1    3    3    0    0  0.52352136073E+03  0.39781386982E+03  0.37880072865E+03  0.75882836884E+03  0.10566000000E+00 0.  1.
          4    1    3    3  502    0  0.30899233920E+03 -0.40406584949E+03 -0.22133711771E+03  0.55473921448E+03  0.00000000000E+00 0.  1.
         13    1    4    4    0    0 -0.42253572502E+03 -0.23611357855E+03  0.45967461461E+03  0.66752290101E+03  0.10566000000E+00 0. -1.
         -4    1    4    4    0  501 -0.40997797491E+03  0.24236555823E+03 -0.41807133018E+03  0.63372442027E+03  0.00000000000E+00 0. -1.
<mgrwt>
<rscale>  2 0.13023376E+04</rscale>
<asrwt>0</asrwt>
<pdfrwt beam="1">  1        2 0.21645245E+00 0.13023376E+04</pdfrwt>
<pdfrwt beam="2">  1       -2 0.18582677E+00 0.13023376E+04</pdfrwt>
<totfact> 0.29031966E+00</totfact>
</mgrwt>
</event>
<event>
 8    1  0.1439553E-005  0.1335650E+04  0.7818608E-02  0.8510865E-01
          2   -1    0    0  502    0  0.00000000000E+00  0.00000000000E+00  0.15427997176E+04  0.15427997176E+04  0.00000000000E+00 0. -1.
         -2   -1    0    0    0  501 -0.00000000000E+00 -0.00000000000E+00 -0.11881896866E+04  0.11881896866E+04  0.00000000000E+00 0.  1.
    9000010    2    1    2  502    0 -0.57213948700E+03  0.64339619973E+03  0.40143546770E+03  0.13984914158E+04  0.10263164926E+04 0.  0.
   -9000010    2    1    2    0  501  0.57213948700E+03 -0.64339619973E+03 -0.46825436618E+02  0.13324979884E+04  0.10159015725E+04 0.  0.
        -13    1    3    3    0    0  0.86901183909E+02 -0.18528351028E+03  0.25909918846E+03  0.33017297825E+03  0.10566000000E+00 0.  1.
          4    1    3    3  502    0 -0.65904067091E+03  0.82867971001E+03  0.14233627924E+03  0.10683184376E+04  0.00000000000E+00 0.  1.
         13    1    4    4    0    0 -0.98359027390E+02 -0.54885456241E+03 -0.27001115073E+03  0.61953358394E+03  0.10566000000E+00 0. -1.
         -4    1    4    4    0  501  0.67049851439E+03 -0.94541637323E+02  0.22318571411E+03  0.71296440442E+03  0.00000000000E+00 0. -1.
<mgrwt>
<rscale>  2 0.13356502E+04</rscale>
<asrwt>0</asrwt>
<pdfrwt beam="1">  1        2 0.23735380E+00 0.13356502E+04</pdfrwt>
<pdfrwt beam="2">  1       -2 0.18279841E+00 0.13356502E+04</pdfrwt>
<totfact> 0.25810030E+00</totfact>
</mgrwt>
</event>
<event>
 8    1  0.1439553E-005  0.1151939E+04  0.7818608E-02  0.8643660E-01
          2   -1    0    0  502    0  0.00000000000E+00  0.00000000000E+00  0.24458075125E+04  0.24458075125E+04  0.00000000000E+00 0.  1.
         -2   -1    0    0    0  501 -0.00000000000E+00 -0.00000000000E+00 -0.90991059943E+03  0.90991059943E+03  0.00000000000E+00 0. -1.
    9000010    2    1    2  502    0 -0.23747012601E+03 -0.46049396307E+03 -0.30531178663E+03  0.11737922747E+04  0.10080308856E+04 0.  0.
   -9000010    2    1    2    0  501  0.23747012601E+03  0.46049396307E+03  0.18412086997E+04  0.21819258372E+04  0.10499067256E+04 0.  0.
        -13    1    3    3    0    0 -0.44270415748E+03 -0.31864722034E+03 -0.58443166898E+03  0.79942692533E+03  0.10566000000E+00 0.  1.
          4    1    3    3  502    0  0.20523403147E+03 -0.14184674273E+03  0.27911988235E+03  0.37436534939E+03  0.00000000000E+00 0.  1.
         13    1    4    4    0    0  0.42852809402E+03  0.28641937400E+03  0.18528399568E+04  0.19231974162E+04  0.10566000000E+00 0. -1.
         -4    1    4    4    0  501 -0.19105796801E+03  0.17407458907E+03 -0.11631257054E+02  0.25872842102E+03  0.00000000000E+00 0. -1.
<mgrwt>
<rscale>  2 0.11519386E+04</rscale>
<asrwt>0</asrwt>
<pdfrwt beam="1">  1        2 0.37627808E+00 0.11519386E+04</pdfrwt>
<pdfrwt beam="2">  1       -2 0.13998625E+00 0.11519386E+04</pdfrwt>
<totfact> 0.19785767E+00</totfact>
</mgrwt>
</event>
<event>
 8    1  0.1439553E-005  0.1254578E+04  0.7818608E-02  0.8566559E-01
          2   -1    0    0  502    0  0.00000000000E+00  0.00000000000E+00  0.83953474493E+03  0.83953474493E+03  0.00000000000E+00 0. -1.
         -2   -1    0    0    0  501 -0.00000000000E+00 -0.00000000000E+00 -0.21333051347E+04  0.21333051347E+04  0.00000000000E+00 0.  1.
    9000010    2    1    2  502    0  0.25385664144E+03 -0.69738560869E+03 -0.11590858416E+04  0.16999161758E+04  0.99771996818E+03 0.  0.
   -9000010    2    1    2    0  501 -0.25385664144E+03  0.69738560869E+03 -0.13468454811E+03  0.12729237038E+04  0.10253803912E+04 0.  0.
        -13    1    3    3    0    0 -0.66705229478E+02 -0.56114349535E+03 -0.12216615952E+04  0.13460269962E+04  0.10566000000E+00 0.  1.
          4    1    3    3  502    0  0.32056187091E+03 -0.13624211335E+03  0.62575753586E+02  0.35388917965E+03  0.00000000000E+00 0.  1.
         13    1    4    4    0    0  0.24014519423E+03  0.69417785224E+03  0.70660624595E+02  0.73793328959E+03  0.10566000000E+00 0. -1.
         -4    1    4    4    0  501 -0.49400183566E+03  0.32077564515E+01 -0.20534517271E+03  0.53499041421E+03  0.00000000000E+00 0. -1.
<mgrwt>
<rscale>  2 0.12545781E+04</rscale>
<asrwt>0</asrwt>
<pdfrwt beam="1">  1        2 0.12915919E+00 0.12545781E+04</pdfrwt>
<pdfrwt beam="2">  1       -2 0.32820079E+00 0.12545781E+04</pdfrwt>
<totfact> 0.53633212E-01</totfact>
</mgrwt>
</event>
<event>
 8    1  0.1439553E-005  0.1252964E+04  0.7818608E-02  0.8567712E-01
         -2   -1    0    0    0  501 -0.00000000000E+00  0.00000000000E+00  0.14951307175E+04  0.14951307175E+04  0.00000000000E+00 0. -1.
          2   -1    0    0  502    0  0.00000000000E+00 -0.00000000000E+00 -0.13693902405E+04  0.13693902405E+04  0.00000000000E+00 0.  1.
    9000010    2    1    2  502    0 -0.73009139657E+03  0.17939379997E+03  0.75452939136E+03  0.14621757071E+04  0.10017123405E+04 0.  0.
   -9000010    2    1    2    0  501  0.73009139657E+03 -0.17939379997E+03 -0.62878891441E+03  0.14023452509E+04  0.10029861021E+04 0.  0.
        -13    1    3    3    0    0 -0.62549556042E+03  0.14360127835E+03  0.10027015805E+04  0.11904942226E+04  0.10566000000E+00 0.  1.
          4    1    3    3  502    0 -0.10459583615E+03  0.35792521617E+02 -0.24817218915E+03  0.27168148449E+03  0.00000000000E+00 0.  1.
         13    1    4    4    0    0  0.69123016010E+03 -0.43210365346E+03 -0.10815823075E+03  0.82232044582E+03  0.10566000000E+00 0. -1.
         -4    1    4    4    0  501  0.38861236472E+02  0.25270985350E+03 -0.52063068366E+03  0.58002480510E+03  0.00000000000E+00 0. -1.
<mgrwt>
<rscale>  2 0.12529643E+04</rscale>
<asrwt>0</asrwt>
<pdfrwt beam="2">  1        2 0.21067542E+00 0.12529643E+04</pdfrwt>
<pdfrwt beam="1">  1       -2 0.23002011E+00 0.12529643E+04</pdfrwt>
<totfact> 0.13280038E+00</totfact>
</mgrwt>
</event>
<event>
 8    1  0.1439553E-005  0.1332629E+04  0.7818608E-02  0.8512866E-01
         -2   -1    0    0    0  501 -0.00000000000E+00  0.00000000000E+00  0.98930342757E+03  0.98930342757E+03  0.00000000000E+00 0. -1.
          2   -1    0    0  502    0  0.00000000000E+00 -0.00000000000E+00 -0.19450998629E+04  0.19450998629E+04  0.00000000000E+00 0.  1.
    9000010    2    1    2  502    0 -0.59500509571E+03 -0.63451263912E+03 -0.69217980484E+02  0.13306161665E+04  0.10045451213E+04 0.  0.
   -9000010    2    1    2    0  501  0.59500509571E+03  0.63451263912E+03 -0.88657845486E+03  0.16037871239E+04  0.10146301933E+04 0.  0.
        -13    1    3    3    0    0 -0.43786172795E+02  0.15819649001E+03  0.26258998418E+03  0.30967219658E+03  0.10566000000E+00 0.  1.
          4    1    3    3  502    0 -0.55121892292E+03 -0.79270912913E+03 -0.33180796466E+03  0.10209439700E+04  0.00000000000E+00 0.  1.
         13    1    4    4    0    0  0.68206877951E+03  0.71240924809E+03 -0.10251373456E+04  0.14225509992E+04  0.10566000000E+00 0. -1.
         -4    1    4    4    0  501 -0.87063683801E+02 -0.77896608966E+02  0.13855889072E+03  0.18123612478E+03  0.00000000000E+00 0. -1.
<mgrwt>
<rscale>  2 0.13326293E+04</rscale>
<asrwt>0</asrwt>
<pdfrwt beam="2">  1        2 0.29924613E+00 0.13326293E+04</pdfrwt>
<pdfrwt beam="1">  1       -2 0.15220053E+00 0.13326293E+04</pdfrwt>
<totfact> 0.28370906E+00</totfact>
</mgrwt>
</event>
<event>
 8    1  0.1439553E-005  0.1392224E+04  0.7818608E-02  0.8474358E-01
          2   -1    0    0  502    0  0.00000000000E+00  0.00000000000E+00  0.24457351301E+04  0.24457351301E+04  0.00000000000E+00 0.  1.
         -2   -1    0    0    0  501 -0.00000000000E+00 -0.00000000000E+00 -0.10871299259E+04  0.10871299259E+04  0.00000000000E+00 0. -1.
    9000010    2    1    2  502    0  0.68003296741E+03 -0.67530010090E+03 -0.24582873244E+03  0.13978512527E+04  0.98746204778E+03 0.  0.
   -9000010    2    1    2    0  501 -0.68003296741E+03  0.67530010090E+03  0.16044339366E+04  0.21350138033E+04  0.10322793325E+04 0.  0.
        -13    1    3    3    0    0  0.57662594365E+02 -0.31429952364E+03 -0.53439890590E+03  0.62264867072E+03  0.10566000000E+00 0.  1.
          4    1    3    3  502    0  0.62237037304E+03 -0.36100057726E+03  0.28857017346E+03  0.77520258193E+03  0.00000000000E+00 0.  1.
         13    1    4    4    0    0  0.20993391105E+03  0.36507853563E+03  0.76330422859E+03  0.87177287221E+03  0.10566000000E+00 0. -1.
         -4    1    4    4    0  501 -0.88996687846E+03  0.31022156527E+03  0.84112970803E+03  0.12632409311E+04  0.00000000000E+00 0. -1.
<mgrwt>
<rscale>  2 0.13922240E+04</rscale>
<asrwt>0</asrwt>
<pdfrwt beam="1">  1        2 0.37626694E+00 0.13922240E+04</pdfrwt>
<pdfrwt beam="2">  1       -2 0.16725076E+00 0.13922240E+04</pdfrwt>
<totfact> 0.11074573E+00</totfact>
</mgrwt>
</event>
<event>
 8    1  0.1439553E-005  0.1374920E+04  0.7818608E-02  0.8485332E-01
         -2   -1    0    0    0  501 -0.00000000000E+00  0.00000000000E+00  0.97515335905E+03  0.97515335905E+03  0.00000000000E+00 0.  1.
          2   -1    0    0  502    0  0.00000000000E+00 -0.00000000000E+00 -0.20085685989E+04  0.20085685989E+04  0.00000000000E+00 0. -1.
    9000010    2    1    2  502    0  0.70042265965E+03  0.57442887338E+03 -0.80162408498E+03  0.16089971938E+04  0.10609949875E+04 0.  0.
   -9000010    2    1    2    0  501 -0.70042265965E+03 -0.57442887338E+03 -0.23179115492E+03  0.13747247642E+04  0.10077601922E+04 0.  0.
        -13    1    3    3    0    0  0.93903815960E+03  0.34157698309E+03 -0.37438939989E+03  0.10670683832E+04  0.10566000000E+00 0.  1.
          4    1    3    3  502    0 -0.23861549995E+03  0.23285189028E+03 -0.42723468508E+03  0.54192881060E+03  0.00000000000E+00 0.  1.
         13    1    4    4    0    0  0.44253393361E+02  0.23820466675E+03  0.23179357669E+02  0.24338677012E+03  0.10566000000E+00 0. -1.
         -4    1    4    4    0  501 -0.74467605301E+03 -0.81263354012E+03 -0.25497051259E+03  0.11313379940E+04  0.00000000000E+00 0. -1.
<mgrwt>
<rscale>  2 0.13749197E+04</rscale>
<asrwt>0</asrwt>
<pdfrwt beam="2">  1        2 0.30901055E+00 0.13749197E+04</pdfrwt>
<pdfrwt beam="1">  1       -2 0.15002359E+00 0.13749197E+04</pdfrwt>
<totfact> 0.27261942E+00</totfact>
</mgrwt>
</event>
<event>
 8    1  0.1439553E-005  0.1472363E+04  0.7818608E-02  0.8425584E-01
         -2   -1    0    0    0  501 -0.00000000000E+00  0.00000000000E+00  0.17679115023E+04  0.17679115023E+04  0.00000000000E+00 0.  1.
          2   -1    0    0  502    0  0.00000000000E+00 -0.00000000000E+00 -0.15073213194E+04  0.15073213194E+04  0.00000000000E+00 0. -1.
    9000010    2    1    2  502    0 -0.27404022238E+02 -0.10414842650E+04 -0.57340965435E+03  0.16126537107E+04  0.10892258280E+04 0.  0.
   -9000010    2    1    2    0  501  0.27404022238E+02  0.10414842650E+04  0.83399983720E+03  0.16625791110E+04  0.99155086468E+03 0.  0.
        -13    1    3    3    0    0 -0.81947507452E+02  0.21673318197E+03 -0.71787931442E+01  0.23181935290E+03  0.10566000000E+00 0.  1.
          4    1    3    3  502    0  0.54543485214E+02 -0.12582174469E+04 -0.56623086120E+03  0.13808343578E+04  0.00000000000E+00 0.  1.
         13    1    4    4    0    0  0.38236108085E+03  0.82198163702E+02  0.37368456781E+03  0.54092208463E+03  0.10566000000E+00 0. -1.
         -4    1    4    4    0  501 -0.35495705861E+03  0.95928610128E+03  0.46031526940E+03  0.11216570264E+04  0.00000000000E+00 0. -1.
<mgrwt>
<rscale>  2 0.14723631E+04</rscale>
<asrwt>0</asrwt>
<pdfrwt beam="2">  1        2 0.23189559E+00 0.14723631E+04</pdfrwt>
<pdfrwt beam="1">  1       -2 0.27198638E+00 0.14723631E+04</pdfrwt>
<totfact> 0.51305166E-01</totfact>
</mgrwt>
</event>
<event>
 8    1  0.1439553E-005  0.1113256E+04  0.7818608E-02  0.8674912E-01
         -2   -1    0    0    0  501 -0.00000000000E+00  0.00000000000E+00  0.97562254423E+03  0.97562254423E+03  0.00000000000E+00 0. -1.
          2   -1    0    0  502    0  0.00000000000E+00 -0.00000000000E+00 -0.13545783584E+04  0.13545783584E+04  0.00000000000E+00 0.  1.
    9000010    2    1    2  502    0 -0.45247689415E+03  0.11433138252E+03  0.10205253523E+03  0.11117188848E+04  0.10038411996E+04 0.  0.
   -9000010    2    1    2    0  501  0.45247689415E+03 -0.11433138252E+03 -0.48100834936E+03  0.12184820178E+04  0.10176062062E+04 0.  0.
        -13    1    3    3    0    0  0.26528665767E+03  0.20028863899E+03  0.19100594582E+03  0.38337427163E+03  0.10566000000E+00 0.  1.
          4    1    3    3  502    0 -0.71776355181E+03 -0.85957256470E+02 -0.88953410592E+02  0.72834461315E+03  0.00000000000E+00 0.  1.
         13    1    4    4    0    0  0.14830593599E+03 -0.43216388100E+03 -0.60804524735E+03  0.76057826993E+03  0.10566000000E+00 0. -1.
         -4    1    4    4    0  501  0.30417095815E+03  0.31783249848E+03  0.12703689800E+03  0.45790374788E+03  0.00000000000E+00 0. -1.
<mgrwt>
<rscale>  2 0.11132559E+04</rscale>
<asrwt>0</asrwt>
<pdfrwt beam="2">  1        2 0.20839667E+00 0.11132559E+04</pdfrwt>
<pdfrwt beam="1">  1       -2 0.15009578E+00 0.11132559E+04</pdfrwt>
<totfact> 0.63734890E+00</totfact>
</mgrwt>
</event>
<event>
 8    1  0.1439553E-005  0.1079894E+04  0.7818608E-02  0.8702947E-01
          2   -1    0    0  502    0  0.00000000000E+00  0.00000000000E+00  0.35987441247E+04  0.35987441247E+04  0.00000000000E+00 0.  1.
         -2   -1    0    0    0  501 -0.00000000000E+00 -0.00000000000E+00 -0.36852775036E+03  0.36852775036E+03  0.00000000000E+00 0. -1.
    9000010    2    1    2  502    0  0.27560259236E+03  0.44285926917E+03  0.23624469740E+04  0.26185859947E+04  0.10018761328E+04 0.  0.
   -9000010    2    1    2    0  501 -0.27560259236E+03 -0.44285926917E+03  0.86776940040E+03  0.13486858804E+04  0.89098190247E+03 0.  0.
        -13    1    3    3    0    0 -0.29146096801E+03  0.51228361655E+02  0.22203410674E+03  0.36996350716E+03  0.10566000000E+00 0.  1.
          4    1    3    3  502    0  0.56706356037E+03  0.39163090751E+03  0.21404128672E+04  0.22486224875E+04  0.00000000000E+00 0.  1.
         13    1    4    4    0    0 -0.49313946183E+03 -0.37038668878E+03  0.20906553178E+03  0.65121519928E+03  0.10566000000E+00 0. -1.
         -4    1    4    4    0  501  0.21753686947E+03 -0.72472580394E+02  0.65870386862E+03  0.69747068112E+03  0.00000000000E+00 0. -1.
<mgrwt>
<rscale>  2 0.10798936E+04</rscale>
<asrwt>0</asrwt>
<pdfrwt beam="1">  1        2 0.55365292E+00 0.10798936E+04</pdfrwt>
<pdfrwt beam="2">  1       -2 0.56696579E-01 0.10798936E+04</pdfrwt>
<totfact> 0.30712928E+00</totfact>
</mgrwt>
</event>
<event>
 8    1  0.1439553E-005  0.1184031E+04  0.7818608E-02  0.8618685E-01
         -2   -1    0    0    0  501 -0.00000000000E+00  0.00000000000E+00  0.45915487499E+03  0.45915487499E+03  0.00000000000E+00 0.  1.
          2   -1    0    0  502    0  0.00000000000E+00 -0.00000000000E+00 -0.30884178195E+04  0.30884178195E+04  0.00000000000E+00 0. -1.
    9000010    2    1    2  502    0 -0.29862423452E+03  0.55812990723E+03 -0.15116247586E+04  0.19247264578E+04  0.10093944223E+04 0.  0.
   -9000010    2    1    2    0  501  0.29862423452E+03 -0.55812990723E+03 -0.11176381859E+04  0.16228462367E+04  0.99188173014E+03 0.  0.
        -13    1    3    3    0    0 -0.26287287210E+03 -0.13547191959E+03 -0.41268399485E+02  0.29859316778E+03  0.10566000000E+00 0.  1.
          4    1    3    3  502    0 -0.35751362416E+02  0.69360182682E+03 -0.14703563591E+04  0.16261332900E+04  0.00000000000E+00 0.  1.
         13    1    4    4    0    0  0.44369083005E+03 -0.27337922420E+03 -0.11865254882E+04  0.12959322892E+04  0.10566000000E+00 0. -1.
         -4    1    4    4    0  501 -0.14506659554E+03 -0.28475068302E+03  0.68887302327E+02  0.32691394746E+03  0.00000000000E+00 0. -1.
<mgrwt>
<rscale>  2 0.11840309E+04</rscale>
<asrwt>0</asrwt>
<pdfrwt beam="2">  1        2 0.47514119E+00 0.11840309E+04</pdfrwt>
<pdfrwt beam="1">  1       -2 0.70639214E-01 0.11840309E+04</pdfrwt>
<totfact> 0.43400734E+00</totfact>
</mgrwt>
</event>
<event>
 8    1  0.1439553E-005  0.1712278E+04  0.7818608E-02  0.8296815E-01
         -4   -1    0    0    0  501 -0.00000000000E+00  0.00000000000E+00  0.11789342321E+04  0.11789342321E+04  0.00000000000E+00 0. -1.
          4   -1    0    0  502    0  0.00000000000E+00 -0.00000000000E+00 -0.24870784797E+04  0.24870784797E+04  0.00000000000E+00 0.  1.
    9000010    2    1    2  502    0 -0.97371992469E+03 -0.99246196625E+03 -0.66963425137E+03  0.18389422933E+04  0.10000937362E+04 0.  0.
   -9000010    2    1    2    0  501  0.97371992469E+03  0.99246196625E+03 -0.63850999616E+03  0.18270704185E+04  0.99868916732E+03 0.  0.
        -13    1    3    3    0    0 -0.68010177237E+02 -0.62007586077E+03  0.46841661293E+02  0.62555064520E+03  0.10566000000E+00 0.  1.
          4    1    3    3  502    0 -0.90570974745E+03 -0.37238610549E+03 -0.71647591266E+03  0.12133916481E+04  0.00000000000E+00 0.  1.
         13    1    4    4    0    0  0.78366387207E+03  0.11655512351E+04 -0.69008955229E+03  0.15648841322E+04  0.10566000000E+00 0. -1.
         -4    1    4    4    0  501  0.19005605261E+03 -0.17308926882E+03  0.51579556127E+02  0.26218628631E+03  0.00000000000E+00 0. -1.
<mgrwt>
<rscale>  2 0.17122776E+04</rscale>
<asrwt>0</asrwt>
<pdfrwt beam="2">  1        4 0.38262746E+00 0.17122776E+04</pdfrwt>
<pdfrwt beam="1">  1       -4 0.18137450E+00 0.17122776E+04</pdfrwt>
<totfact> 0.60438309E-02</totfact>
</mgrwt>
</event>
<event>
 8    1  0.1439553E-005  0.1204912E+04  0.7818608E-02  0.8602873E-01
          2   -1    0    0  502    0  0.00000000000E+00  0.00000000000E+00  0.27409048668E+04  0.27409048668E+04  0.00000000000E+00 0. -1.
         -2   -1    0    0    0  501 -0.00000000000E+00 -0.00000000000E+00 -0.53065894764E+03  0.53065894764E+03  0.00000000000E+00 0.  1.
    9000010    2    1    2  502    0 -0.52242125942E+03 -0.41012737746E+03  0.10327348727E+04  0.15849913384E+04  0.10022613370E+04 0.  0.
   -9000010    2    1    2    0  501  0.52242125942E+03  0.41012737746E+03  0.11775110465E+04  0.16865724760E+04  0.10083977460E+04 0.  0.
        -13    1    3    3    0    0  0.28526110949E+03 -0.10863482068E+03  0.45238039856E+03  0.54573204141E+03  0.10566000000E+00 0.  1.
          4    1    3    3  502    0 -0.80768236890E+03 -0.30149255678E+03  0.58035447409E+03  0.10392592970E+04  0.00000000000E+00 0.  1.
         13    1    4    4    0    0 -0.46765483058E+02  0.43704232478E+03  0.99578041435E+03  0.10884721626E+04  0.10566000000E+00 0. -1.
         -4    1    4    4    0  501  0.56918674247E+03 -0.26914947320E+02  0.18173063214E+03  0.59810031337E+03  0.00000000000E+00 0. -1.
<mgrwt>
<rscale>  2 0.12049117E+04</rscale>
<asrwt>0</asrwt>
<pdfrwt beam="1">  1        2 0.42167767E+00 0.12049117E+04</pdfrwt>
<pdfrwt beam="2">  1       -2 0.81639839E-01 0.12049117E+04</pdfrwt>
<totfact> 0.51624794E+00</totfact>
</mgrwt>
</event>
<event>
 8    1  0.1439553E-005  0.1166384E+04  0.7818608E-02  0.8632315E-01
         -2   -1    0    0    0  501 -0.00000000000E+00  0.00000000000E+00  0.32594344587E+03  0.32594344587E+03  0.00000000000E+00 0.  1.
          2   -1    0    0  502    0  0.00000000000E+00 -0.00000000000E+00 -0.41894576202E+04  0.41894576202E+04  0.00000000000E+00 0. -1.
    9000010    2    1    2  502    0  0.50366267450E+03  0.10912706301E+03 -0.21125830610E+04  0.24352545850E+04  0.10962996391E+04 0.  0.
   -9000010    2    1    2    0  501 -0.50366267450E+03 -0.10912706301E+03 -0.17509311133E+04  0.20801464810E+04  0.99783005232E+03 0.  0.
        -13    1    3    3    0    0 -0.67419211213E+02 -0.14000105288E+03  0.66372133804E+02  0.16897016351E+03  0.10566000000E+00 0.  1.
          4    1    3    3  502    0  0.57108188571E+03  0.24912811589E+03 -0.21789551948E+04  0.22662844215E+04  0.00000000000E+00 0.  1.
         13    1    4    4    0    0 -0.45985965197E+03  0.38049008401E+03 -0.12101353232E+04  0.13493224652E+04  0.10566000000E+00 0. -1.
         -4    1    4    4    0  501 -0.43803022529E+02 -0.48961714702E+03 -0.54079579011E+03  0.73082401578E+03  0.00000000000E+00 0. -1.
<mgrwt>
<rscale>  2 0.11663843E+04</rscale>
<asrwt>0</asrwt>
<pdfrwt beam="2">  1        2 0.64453191E+00 0.11663843E+04</pdfrwt>
<pdfrwt beam="1">  1       -2 0.50145148E-01 0.11663843E+04</pdfrwt>
<totfact> 0.12047815E+00</totfact>
</mgrwt>
</event>
<event>
 8    1  0.1439553E-005  0.1316527E+04  0.7818608E-02  0.8523628E-01
         -1   -1    0    0    0  501 -0.00000000000E+00  0.00000000000E+00  0.12173351167E+04  0.12173351167E+04  0.00000000000E+00 0. -1.
          1   -1    0    0  502    0  0.00000000000E+00 -0.00000000000E+00 -0.15750937093E+04  0.15750937093E+04  0.00000000000E+00 0.  1.
    9000010    2    1    2  502    0  0.49767402296E+03 -0.70092071722E+03 -0.61187954765E+03  0.14538816239E+04  0.10002029347E+04 0.  0.
   -9000010    2    1    2    0  501 -0.49767402296E+03  0.70092071722E+03  0.25412095503E+03  0.13385472021E+04  0.99406331164E+03 0.  0.
        -13    1    3    3    0    0  0.45912254372E+02  0.47329400634E+02  0.23063794176E+03  0.23987888321E+03  0.10566000000E+00 0.  1.
          4    1    3    3  502    0  0.45176176859E+03 -0.74825011785E+03 -0.84251748941E+03  0.12140027407E+04  0.00000000000E+00 0.  1.
         13    1    4    4    0    0 -0.79456007455E+03  0.44254921129E+03  0.25650187434E+03  0.94497023191E+03  0.10566000000E+00 0. -1.
         -4    1    4    4    0  501  0.29688605159E+03  0.25837150593E+03 -0.23809193162E+01  0.39357697021E+03  0.00000000000E+00 0. -1.
<mgrwt>
<rscale>  2 0.13165266E+04</rscale>
<asrwt>0</asrwt>
<pdfrwt beam="2">  1        1 0.24232211E+00 0.13165266E+04</pdfrwt>
<pdfrwt beam="1">  1       -1 0.18728233E+00 0.13165266E+04</pdfrwt>
<totfact> 0.13197575E+00</totfact>
</mgrwt>
</event>
<event>
 8    1  0.1439553E-005  0.1068210E+04  0.7818608E-02  0.8713015E-01
          1   -1    0    0  502    0  0.00000000000E+00  0.00000000000E+00  0.11061848510E+04  0.11061848510E+04  0.00000000000E+00 0.  1.
         -1   -1    0    0    0  501 -0.00000000000E+00 -0.00000000000E+00 -0.10537459492E+04  0.10537459492E+04  0.00000000000E+00 0. -1.
    9000010    2    1    2  502    0  0.35420884408E+03  0.16610615824E+03 -0.13004912564E+03  0.10853936207E+04  0.10040474967E+04 0.  0.
   -9000010    2    1    2    0  501 -0.35420884408E+03 -0.16610615824E+03  0.18248802749E+03  0.10745371795E+04  0.98400869354E+03 0.  0.
        -13    1    3    3    0    0  0.64842635271E+02 -0.35880174539E+03  0.18433738754E+03  0.40856277786E+03  0.10566000000E+00 0.  1.
          4    1    3    3  502    0  0.28936620880E+03  0.52490790364E+03 -0.31438651317E+03  0.67683084280E+03  0.00000000000E+00 0.  1.
         13    1    4    4    0    0 -0.33998083741E+03 -0.40025739519E+03 -0.25068446087E+03  0.58192410355E+03  0.10566000000E+00 0. -1.
         -4    1    4    4    0  501 -0.14228006664E+02  0.23415123695E+03  0.43317248836E+03  0.49261307596E+03  0.00000000000E+00 0. -1.
<mgrwt>
<rscale>  2 0.10682104E+04</rscale>
<asrwt>0</asrwt>
<pdfrwt beam="1">  1        1 0.17018229E+00 0.10682104E+04</pdfrwt>
<pdfrwt beam="2">  1       -1 0.16211476E+00 0.10682104E+04</pdfrwt>
<totfact> 0.51086783E+00</totfact>
</mgrwt>
</event>
<event>
 8    1  0.1439553E-005  0.1329723E+04  0.7818608E-02  0.8514797E-01
         -1   -1    0    0    0  501 -0.00000000000E+00  0.00000000000E+00  0.25129575566E+04  0.25129575566E+04  0.00000000000E+00 0.  1.
          1   -1    0    0  502    0  0.00000000000E+00 -0.00000000000E+00 -0.85059926840E+03  0.85059926840E+03  0.00000000000E+00 0. -1.
    9000010    2    1    2  502    0  0.76145022665E+03 -0.43817963539E+03  0.15329579673E+04  0.20327651355E+04  0.10051697001E+04 0.  0.
   -9000010    2    1    2    0  501 -0.76145022665E+03  0.43817963539E+03  0.12940032093E+03  0.13307916895E+04  0.99118829560E+03 0.  0.
        -13    1    3    3    0    0  0.93342285366E+03 -0.92327782284E+02  0.11979422059E+04  0.15214690871E+04  0.10566000000E+00 0.  1.
          4    1    3    3  502    0 -0.17197262701E+03 -0.34585185311E+03  0.33501576140E+03  0.51129604842E+03  0.00000000000E+00 0.  1.
         13    1    4    4    0    0 -0.18874231507E+03  0.64738069920E+03 -0.95197267870E+02  0.68101979573E+03  0.10566000000E+00 0. -1.
         -4    1    4    4    0  501 -0.57270791158E+03 -0.20920106381E+03  0.22459758880E+03  0.64977189380E+03  0.00000000000E+00 0. -1.
<mgrwt>
<rscale>  2 0.13297229E+04</rscale>
<asrwt>0</asrwt>
<pdfrwt beam="2">  1        1 0.13086143E+00 0.13297229E+04</pdfrwt>
<pdfrwt beam="1">  1       -1 0.38660885E+00 0.13297229E+04</pdfrwt>
<totfact> 0.29457301E-01</totfact>
</mgrwt>
</event>
<event>
 8    1  0.1439553E-005  0.1399976E+04  0.7818608E-02  0.8469495E-01
         -2   -1    0    0    0  501 -0.00000000000E+00  0.00000000000E+00  0.10089626388E+04  0.10089626388E+04  0.00000000000E+00 0. -1.
          2   -1    0    0  502    0  0.00000000000E+00 -0.00000000000E+00 -0.21865517157E+04  0.21865517157E+04  0.00000000000E+00 0.  1.
    9000010    2    1    2  502    0  0.89705947116E+03 -0.39819544224E+03 -0.56438184215E+02  0.14048431134E+04  0.10035554791E+04 0.  0.
   -9000010    2    1    2    0  501 -0.89705947116E+03  0.39819544224E+03 -0.11211508926E+04  0.17906712411E+04  0.99310063166E+03 0.  0.
        -13    1    3    3    0    0  0.24128065081E+03 -0.63922586849E+03 -0.15119440034E+03  0.69977555062E+03  0.10566000000E+00 0.  1.
          4    1    3    3  502    0  0.65577882036E+03  0.24103042624E+03  0.94756216124E+02  0.70506756279E+03  0.00000000000E+00 0.  1.
         13    1    4    4    0    0  0.13422455957E+03 -0.11640205190E+02  0.78921476620E+02  0.15614204240E+03  0.10566000000E+00 0. -1.
         -4    1    4    4    0  501 -0.10312840307E+04  0.40983564743E+03 -0.12000723692E+04  0.16345291987E+04  0.00000000000E+00 0. -1.
<mgrwt>
<rscale>  2 0.13999763E+04</rscale>
<asrwt>0</asrwt>
<pdfrwt beam="2">  1        2 0.33639256E+00 0.13999763E+04</pdfrwt>
<pdfrwt beam="1">  1       -2 0.15522502E+00 0.13999763E+04</pdfrwt>
<totfact> 0.19531718E+00</totfact>
</mgrwt>
</event>
<event>
 8    1  0.1439553E-005  0.1243985E+04  0.7818608E-02  0.8574156E-01
          2   -1    0    0  502    0  0.00000000000E+00  0.00000000000E+00  0.18586181544E+04  0.18586181544E+04  0.00000000000E+00 0. -1.
         -2   -1    0    0    0  501 -0.00000000000E+00 -0.00000000000E+00 -0.84999297697E+03  0.84999297697E+03  0.00000000000E+00 0.  1.
    9000010    2    1    2  502    0 -0.63977105995E+03  0.37341353814E+03  0.31340622754E+03  0.12893343838E+04  0.10076780290E+04 0.  0.
   -9000010    2    1    2    0  501  0.63977105995E+03 -0.37341353814E+03  0.69521894985E+03  0.14192767476E+04  0.99109657368E+03 0.  0.
        -13    1    3    3    0    0 -0.79648440048E+03 -0.15615126586E+02  0.34627496137E+03  0.86864123343E+03  0.10566000000E+00 0.  1.
          4    1    3    3  502    0  0.15671334053E+03  0.38902866473E+03 -0.32868733824E+02  0.42069315034E+03  0.00000000000E+00 0.  1.
         13    1    4    4    0    0  0.64805914483E+03  0.16298100961E+03  0.54466504191E+03  0.86209250300E+03  0.10566000000E+00 0. -1.
         -4    1    4    4    0  501 -0.82880848752E+01 -0.53639454775E+03  0.15055390794E+03  0.55718424457E+03  0.00000000000E+00 0. -1.
<mgrwt>
<rscale>  2 0.12439854E+04</rscale>
<asrwt>0</asrwt>
<pdfrwt beam="1">  1        2 0.28594125E+00 0.12439854E+04</pdfrwt>
<pdfrwt beam="2">  1       -2 0.13076815E+00 0.12439854E+04</pdfrwt>
<totfact> 0.49803549E+00</totfact>
</mgrwt>
</event>
<event>
 8    1  0.1439553E-005  0.1263546E+04  0.7818608E-02  0.8560188E-01
          2   -1    0    0  502    0  0.00000000000E+00  0.00000000000E+00  0.20080657523E+04  0.20080657523E+04  0.00000000000E+00 0. -1.
         -2   -1    0    0    0  501 -0.00000000000E+00 -0.00000000000E+00 -0.85099587811E+03  0.85099587811E+03  0.00000000000E+00 0.  1.
    9000010    2    1    2  502    0 -0.45939402072E+03  0.61392990394E+03  0.21340415253E+03  0.12845054471E+04  0.10081964679E+04 0.  0.
   -9000010    2    1    2    0  501  0.45939402072E+03 -0.61392990394E+03  0.94366572167E+03  0.15745561834E+04  0.10003846196E+04 0.  0.
        -13    1    3    3    0    0 -0.31333883380E+03 -0.21598477918E+03 -0.86116994172E+02  0.39018815648E+03  0.10566000000E+00 0.  1.
          4    1    3    3  502    0 -0.14605518692E+03  0.82991468313E+03  0.29952114670E+03  0.89431729057E+03  0.00000000000E+00 0.  1.
         13    1    4    4    0    0 -0.48978653585E+02 -0.55435212705E+03  0.90348856202E+03  0.10611299553E+04  0.10566000000E+00 0. -1.
         -4    1    4    4    0  501  0.50837267430E+03 -0.59577776894E+02  0.40177159655E+02  0.51342622803E+03  0.00000000000E+00 0. -1.
<mgrwt>
<rscale>  2 0.12635459E+04</rscale>
<asrwt>0</asrwt>
<pdfrwt beam="1">  1        2 0.30893319E+00 0.12635459E+04</pdfrwt>
<pdfrwt beam="2">  1       -2 0.13092244E+00 0.12635459E+04</pdfrwt>
<totfact> 0.41057559E+00</totfact>
</mgrwt>
</event>
<event>
 8    1  0.1439553E-005  0.1562712E+04  0.7818608E-02  0.8374295E-01
         -1   -1    0    0    0  501 -0.00000000000E+00  0.00000000000E+00  0.10294838726E+04  0.10294838726E+04  0.00000000000E+00 0.  1.
          1   -1    0    0  502    0  0.00000000000E+00 -0.00000000000E+00 -0.25141644316E+04  0.25141644316E+04  0.00000000000E+00 0. -1.
    9000010    2    1    2  502    0  0.10729704706E+04 -0.54915707853E+03 -0.11602508576E+04  0.19407190554E+04  0.98354932358E+03 0.  0.
   -9000010    2    1    2    0  501 -0.10729704706E+04  0.54915707853E+03 -0.32442970139E+03  0.16029292487E+04  0.10056283695E+04 0.  0.
        -13    1    3    3    0    0  0.41132511446E+03 -0.45744500526E+03 -0.15544706669E+02  0.61537462711E+03  0.10566000000E+00 0.  1.
          4    1    3    3  502    0  0.66164535612E+03 -0.91712073265E+02 -0.11447061510E+04  0.13253444283E+04  0.00000000000E+00 0.  1.
         13    1    4    4    0    0 -0.58029738695E+03  0.46243216655E+03 -0.66610023915E+03  0.99713494860E+03  0.10566000000E+00 0. -1.
         -4    1    4    4    0  501 -0.49267308363E+03  0.86724911978E+02  0.34167053776E+03  0.60579430012E+03  0.00000000000E+00 0. -1.
<mgrwt>
<rscale>  2 0.15627121E+04</rscale>
<asrwt>0</asrwt>
<pdfrwt beam="2">  1        1 0.38679452E+00 0.15627121E+04</pdfrwt>
<pdfrwt beam="1">  1       -1 0.15838214E+00 0.15627121E+04</pdfrwt>
<totfact> 0.40933697E-01</totfact>
</mgrwt>
</event>
<event>
 8    1  0.1439553E-005  0.1330365E+04  0.7818608E-02  0.8514370E-01
          2   -1    0    0  502    0  0.00000000000E+00  0.00000000000E+00  0.16024612199E+04  0.16024612199E+04  0.00000000000E+00 0. -1.
         -2   -1    0    0    0  501 -0.00000000000E+00 -0.00000000000E+00 -0.16849997755E+04  0.16849997755E+04  0.00000000000E+00 0.  1.
    9000010    2    1    2  502    0  0.71632505269E+03  0.50360174655E+03  0.92364144569E+03  0.16145513594E+04  0.99344162969E+03 0.  0.
   -9000010    2    1    2    0  501 -0.71632505269E+03 -0.50360174655E+03 -0.10061800013E+04  0.16729096361E+04  0.10096990419E+04 0.  0.
        -13    1    3    3    0    0 -0.19006174729E+03 -0.47346925885E+02 -0.17318982017E+02  0.19663457854E+03  0.10566000000E+00 0.  1.
          4    1    3    3  502    0  0.90638679998E+03  0.55094867244E+03  0.94096042771E+03  0.14179167808E+04  0.00000000000E+00 0.  1.
         13    1    4    4    0    0 -0.58536441488E+03 -0.63551483008E+03 -0.11496270612E+04  0.14381143864E+04  0.10566000000E+00 0. -1.
         -4    1    4    4    0  501 -0.13096063781E+03  0.13191308352E+03  0.14344705987E+03  0.23479524963E+03  0.00000000000E+00 0. -1.
<mgrwt>
<rscale>  2 0.13303648E+04</rscale>
<asrwt>0</asrwt>
<pdfrwt beam="1">  1        2 0.24653250E+00 0.13303648E+04</pdfrwt>
<pdfrwt beam="2">  1       -2 0.25923073E+00 0.13303648E+04</pdfrwt>
<totfact> 0.58044887E-01</totfact>
</mgrwt>
</event>
<event>
 8    1  0.1439553E-005  0.1206359E+04  0.7818608E-02  0.8601789E-01
          2   -1    0    0  502    0  0.00000000000E+00  0.00000000000E+00  0.19971359707E+04  0.19971359707E+04  0.00000000000E+00 0.  1.
         -2   -1    0    0    0  501 -0.00000000000E+00 -0.00000000000E+00 -0.74260498802E+03  0.74260498802E+03  0.00000000000E+00 0. -1.
    9000010    2    1    2  502    0  0.45603543930E+03 -0.47726647319E+03  0.44071624946E+03  0.12860506411E+04  0.10119010972E+04 0.  0.
   -9000010    2    1    2    0  501 -0.45603543930E+03  0.47726647319E+03  0.81381473324E+03  0.14536903177E+04  0.10075562075E+04 0.  0.
        -13    1    3    3    0    0  0.25934048328E+03 -0.55376366847E+03 -0.17429274434E+03  0.63583776129E+03  0.10566000000E+00 0.  1.
          4    1    3    3  502    0  0.19669495601E+03  0.76497195279E+02  0.61500899380E+03  0.65021287980E+03  0.00000000000E+00 0.  1.
         13    1    4    4    0    0  0.88139377779E+02  0.13524194064E+03 -0.19770753524E+03  0.25523952099E+03  0.10566000000E+00 0. -1.
         -4    1    4    4    0  501 -0.54417481708E+03  0.34202453255E+03  0.10115222685E+04  0.11984507967E+04  0.00000000000E+00 0. -1.
<mgrwt>
<rscale>  2 0.12063588E+04</rscale>
<asrwt>0</asrwt>
<pdfrwt beam="1">  1        2 0.30725169E+00 0.12063588E+04</pdfrwt>
<pdfrwt beam="2">  1       -2 0.11424692E+00 0.12063588E+04</pdfrwt>
<totfact> 0.60289830E+00</totfact>
</mgrwt>
</event>
<event>
 8    1  0.1439553E-005  0.1341542E+04  0.7818608E-02  0.8506977E-01
          2   -1    0    0  502    0  0.00000000000E+00  0.00000000000E+00  0.17117984240E+04  0.17117984240E+04  0.00000000000E+00 0. -1.
         -2   -1    0    0    0  501 -0.00000000000E+00 -0.00000000000E+00 -0.13978902828E+04  0.13978902828E+04  0.00000000000E+00 0.  1.
    9000010    2    1    2  502    0 -0.54806580403E+03 -0.68657920859E+03 -0.61693248243E+03  0.14790566066E+04  0.10174652929E+04 0.  0.
   -9000010    2    1    2    0  501  0.54806580403E+03  0.68657920859E+03  0.93084062367E+03  0.16306321002E+04  0.10103116571E+04 0.  0.
        -13    1    3    3    0    0 -0.54601604184E+03 -0.67662571403E+03 -0.86753991452E+03  0.12282432126E+04  0.10566000000E+00 0.  1.
          4    1    3    3  502    0 -0.20497621904E+01 -0.99534945645E+01  0.25060743209E+03  0.25081339398E+03  0.00000000000E+00 0.  1.
         13    1    4    4    0    0  0.80934521904E+03  0.28276257367E+03  0.61863438824E+03  0.10572146774E+04  0.10566000000E+00 0. -1.
         -4    1    4    4    0  501 -0.26127941501E+03  0.40381663492E+03  0.31220623542E+03  0.57341742282E+03  0.00000000000E+00 0. -1.
<mgrwt>
<rscale>  2 0.13415421E+04</rscale>
<asrwt>0</asrwt>
<pdfrwt beam="1">  1        2 0.26335360E+00 0.13415421E+04</pdfrwt>
<pdfrwt beam="2">  1       -2 0.21506004E+00 0.13415421E+04</pdfrwt>
<totfact> 0.11270683E+00</totfact>
</mgrwt>
</event>
<event>
 8    1  0.1439553E-005  0.1111388E+04  0.7818608E-02  0.8676454E-01
         -1   -1    0    0    0  501 -0.00000000000E+00  0.00000000000E+00  0.19247889589E+04  0.19247889589E+04  0.00000000000E+00 0. -1.
          1   -1    0    0  502    0  0.00000000000E+00 -0.00000000000E+00 -0.71027379507E+03  0.71027379507E+03  0.00000000000E+00 0.  1.
    9000010    2    1    2  502    0 -0.17264651885E+03 -0.37473471497E+03  0.10288963406E+04  0.15351495127E+04  0.10619903105E+04 0.  0.
   -9000010    2    1    2    0  501  0.17264651885E+03  0.37473471497E+03  0.18561882329E+03  0.10999132413E+04  0.10025576611E+04 0.  0.
        -13    1    3    3    0    0 -0.37304904147E+03  0.11816048101E+03  0.90911410198E+03  0.98975549920E+03  0.10566000000E+00 0.  1.
          4    1    3    3  502    0  0.20040252262E+03 -0.49289519598E+03  0.11978223860E+03  0.54539401351E+03  0.00000000000E+00 0.  1.
         13    1    4    4    0    0  0.45528597522E+03  0.50603436091E+03 -0.86507212733E+02  0.68617753000E+03  0.10566000000E+00 0. -1.
         -4    1    4    4    0  501 -0.28263945638E+03 -0.13129964593E+03  0.27212603602E+03  0.41373571130E+03  0.00000000000E+00 0. -1.
<mgrwt>
<rscale>  2 0.11113878E+04</rscale>
<asrwt>0</asrwt>
<pdfrwt beam="2">  1        1 0.10927289E+00 0.11113878E+04</pdfrwt>
<pdfrwt beam="1">  1       -1 0.29612138E+00 0.11113878E+04</pdfrwt>
<totfact> 0.63216264E-01</totfact>
</mgrwt>
</event>
<event>
 8    1  0.1439553E-005  0.1111849E+04  0.7818608E-02  0.8676074E-01
          1   -1    0    0  502    0  0.00000000000E+00  0.00000000000E+00  0.10971063834E+04  0.10971063834E+04  0.00000000000E+00 0.  1.
         -1   -1    0    0    0  501 -0.00000000000E+00 -0.00000000000E+00 -0.11577493608E+04  0.11577493608E+04  0.00000000000E+00 0. -1.
    9000010    2    1    2  502    0  0.62957672740E+02  0.50315424726E+03 -0.21456977726E+03  0.11450646006E+04  0.10039944647E+04 0.  0.
   -9000010    2    1    2    0  501 -0.62957672740E+02 -0.50315424726E+03  0.15392679979E+03  0.11097911436E+04  0.97509746060E+03 0.  0.
        -13    1    3    3    0    0  0.37071598340E+03  0.67078166422E+03 -0.20972151034E+03  0.79458259764E+03  0.10566000000E+00 0.  1.
          4    1    3    3  502    0 -0.30775831066E+03 -0.16762741696E+03 -0.48482669174E+01  0.35048200295E+03  0.00000000000E+00 0.  1.
         13    1    4    4    0    0  0.23652750114E+03 -0.55340645826E+03 -0.20852947572E+03  0.63693682595E+03  0.10566000000E+00 0. -1.
         -4    1    4    4    0  501 -0.29948517388E+03  0.50252210998E+02  0.36245627551E+03  0.47285431767E+03  0.00000000000E+00 0. -1.
<mgrwt>
<rscale>  2 0.11118485E+04</rscale>
<asrwt>0</asrwt>
<pdfrwt beam="1">  1        1 0.16878560E+00 0.11118485E+04</pdfrwt>
<pdfrwt beam="2">  1       -1 0.17811529E+00 0.11118485E+04</pdfrwt>
<totfact> 0.37484847E+00</totfact>
</mgrwt>
</event>
<event>
 8    1  0.1439553E-005  0.1041803E+04  0.7818608E-02  0.8736276E-01
          1   -1    0    0  502    0  0.00000000000E+00  0.00000000000E+00  0.11214050791E+04  0.11214050791E+04  0.00000000000E+00 0.  1.
         -1   -1    0    0    0  501 -0.00000000000E+00 -0.00000000000E+00 -0.97283668216E+03  0.97283668216E+03  0.00000000000E+00 0. -1.
    9000010    2    1    2  502    0  0.22979346354E+03  0.23580581358E+03  0.14914938500E+03  0.10640955559E+04  0.10008218599E+04 0.  0.
   -9000010    2    1    2    0  501 -0.22979346354E+03 -0.23580581358E+03 -0.58098804327E+00  0.10301462054E+04  0.97611036742E+03 0.  0.
        -13    1    3    3    0    0  0.23768876797E+03 -0.35822547747E+03 -0.60415220008E+02  0.43413299011E+03  0.10566000000E+00 0.  1.
          4    1    3    3  502    0 -0.78953044300E+01  0.59403129104E+03  0.20956460501E+03  0.62996256575E+03  0.00000000000E+00 0.  1.
         13    1    4    4    0    0 -0.40321039575E+03 -0.55876337717E+02 -0.39241238739E+03  0.56540983481E+03  0.10566000000E+00 0. -1.
         -4    1    4    4    0  501  0.17341693221E+03 -0.17992947586E+03  0.39183139934E+03  0.46473637061E+03  0.00000000000E+00 0. -1.
<mgrwt>
<rscale>  2 0.10418025E+04</rscale>
<asrwt>0</asrwt>
<pdfrwt beam="1">  1        1 0.17252386E+00 0.10418025E+04</pdfrwt>
<pdfrwt beam="2">  1       -1 0.14966718E+00 0.10418025E+04</pdfrwt>
<totfact> 0.63820196E+00</totfact>
</mgrwt>
</event>
<event>
 8    1  0.1439553E-005  0.1369290E+04  0.7818608E-02  0.8488938E-01
          2   -1    0    0  502    0  0.00000000000E+00  0.00000000000E+00  0.41494795706E+04  0.41494795706E+04  0.00000000000E+00 0.  1.
         -2   -1    0    0    0  501 -0.00000000000E+00 -0.00000000000E+00 -0.57283409335E+03  0.57283409335E+03  0.00000000000E+00 0. -1.
    9000010    2    1    2  502    0  0.36492916179E+03 -0.84343799961E+03  0.71129386345E+03  0.15499205747E+04  0.10255505231E+04 0.  0.
   -9000010    2    1    2    0  501 -0.36492916179E+03  0.84343799961E+03  0.28653516138E+04  0.31723930892E+04  0.10046278363E+04 0.  0.
        -13    1    3    3    0    0  0.50910593887E+03  0.12149829399E+02  0.25147788753E+03  0.56795916617E+03  0.10566000000E+00 0.  1.
          4    1    3    3  502    0 -0.14417677708E+03 -0.85558782901E+03  0.45981597591E+03  0.98196140856E+03  0.00000000000E+00 0.  1.
         13    1    4    4    0    0 -0.67011472490E+03  0.46175517360E+03  0.22086792053E+04  0.23538341972E+04  0.10566000000E+00 0. -1.
         -4    1    4    4    0  501  0.30518556311E+03  0.38168282601E+03  0.65667240849E+03  0.81855889200E+03  0.00000000000E+00 0. -1.
<mgrwt>
<rscale>  2 0.13692904E+04</rscale>
<asrwt>0</asrwt>
<pdfrwt beam="1">  1        2 0.63838145E+00 0.13692904E+04</pdfrwt>
<pdfrwt beam="2">  1       -2 0.88128324E-01 0.13692904E+04</pdfrwt>
<totfact> 0.39265228E-01</totfact>
</mgrwt>
</event>
<event>
 8    1  0.1439553E-005  0.1132641E+04  0.7818608E-02  0.8659088E-01
          2   -1    0    0  502    0  0.00000000000E+00  0.00000000000E+00  0.15195838604E+04  0.15195838604E+04  0.00000000000E+00 0.  1.
         -2   -1    0    0    0  501 -0.00000000000E+00 -0.00000000000E+00 -0.86843261073E+03  0.86843261073E+03  0.00000000000E+00 0. -1.
    9000010    2    1    2  502    0 -0.58064729290E+03  0.24567361512E+03  0.11955938504E+03  0.10999365987E+04  0.89334163160E+03 0.  0.
   -9000010    2    1    2    0  501  0.58064729290E+03 -0.24567361512E+03  0.53159186459E+03  0.12880798724E+04  0.98947109263E+03 0.  0.
        -13    1    3    3    0    0 -0.10689429388E+03  0.33562258404E+03 -0.29852026528E+03  0.46171773729E+03  0.10566000000E+00 0.  1.
          4    1    3    3  502    0 -0.47375299902E+03 -0.89948968917E+02  0.41807965032E+03  0.63821886144E+03  0.00000000000E+00 0.  1.
         13    1    4    4    0    0 -0.92411592774E+01 -0.41072748822E+02  0.65103431711E+03  0.65239410094E+03  0.10566000000E+00 0. -1.
         -4    1    4    4    0  501  0.58988845218E+03 -0.20460086630E+03 -0.11944245253E+03  0.63568577141E+03  0.00000000000E+00 0. -1.
<mgrwt>
<rscale>  2 0.11326407E+04</rscale>
<asrwt>0</asrwt>
<pdfrwt beam="1">  1        2 0.23378213E+00 0.11326407E+04</pdfrwt>
<pdfrwt beam="2">  1       -2 0.13360502E+00 0.11326407E+04</pdfrwt>
<totfact> 0.72551052E+00</totfact>
</mgrwt>
</event>
<event>
 8    1  0.1439553E-005  0.1229407E+04  0.7818608E-02  0.8584741E-01
          2   -1    0    0  502    0  0.00000000000E+00  0.00000000000E+00  0.19115719561E+04  0.19115719561E+04  0.00000000000E+00 0. -1.
         -2   -1    0    0    0  501 -0.00000000000E+00 -0.00000000000E+00 -0.87924529139E+03  0.87924529139E+03  0.00000000000E+00 0.  1.
    9000010    2    1    2  502    0  0.50883804132E+01 -0.72136543257E+03  0.96369739533E+03  0.15723992031E+04  0.10115990338E+04 0.  0.
   -9000010    2    1    2    0  501 -0.50883804132E+01  0.72136543257E+03  0.68629269403E+02  0.12184180444E+04  0.97950935442E+03 0.  0.
        -13    1    3    3    0    0 -0.24947383232E+03 -0.83875975941E+03  0.95018633962E+03  0.12917465766E+04  0.10566000000E+00 0.  1.
          4    1    3    3  502    0  0.25456221273E+03  0.11739432684E+03  0.13511055705E+02  0.28065262648E+03  0.00000000000E+00 0.  1.
         13    1    4    4    0    0 -0.47165976070E+03  0.33779880622E+03  0.17316975648E+03  0.60544094598E+03  0.10566000000E+00 0. -1.
         -4    1    4    4    0  501  0.46657138029E+03  0.38356662636E+03 -0.10454048708E+03  0.61297709843E+03  0.00000000000E+00 0. -1.
<mgrwt>
<rscale>  2 0.12294072E+04</rscale>
<asrwt>0</asrwt>
<pdfrwt beam="1">  1        2 0.29408799E+00 0.12294072E+04</pdfrwt>
<pdfrwt beam="2">  1       -2 0.13526851E+00 0.12294072E+04</pdfrwt>
<totfact> 0.42420300E+00</totfact>
</mgrwt>
</event>
<event>
 8    1  0.1439553E-005  0.1843054E+04  0.7818608E-02  0.8235469E-01
         -2   -1    0    0    0  501 -0.00000000000E+00  0.00000000000E+00  0.10889926629E+04  0.10889926629E+04  0.00000000000E+00 0. -1.
          2   -1    0    0  502    0  0.00000000000E+00 -0.00000000000E+00 -0.33231479049E+04  0.33231479049E+04  0.00000000000E+00 0.  1.
    9000010    2    1    2  502    0 -0.11116756290E+04  0.10843113602E+04 -0.57046311881E+03  0.19290313789E+04  0.99205849675E+03 0.  0.
   -9000010    2    1    2    0  501  0.11116756290E+04 -0.10843113602E+04 -0.16636921232E+04  0.24831091889E+04  0.99317970846E+03 0.  0.
        -13    1    3    3    0    0 -0.54789132862E+03  0.56387146050E+01 -0.44423567446E+03  0.70538078278E+03  0.10566000000E+00 0.  1.
          4    1    3    3  502    0 -0.56378430036E+03  0.10786726456E+04 -0.12622744434E+03  0.12236505962E+04  0.00000000000E+00 0.  1.
         13    1    4    4    0    0  0.39721410755E+03 -0.10347036856E+04 -0.83397169127E+03  0.13870470638E+04  0.10566000000E+00 0. -1.
         -4    1    4    4    0  501  0.71446152143E+03 -0.49607674672E+02 -0.82972043193E+03  0.10960621251E+04  0.00000000000E+00 0. -1.
<mgrwt>
<rscale>  2 0.18430536E+04</rscale>
<asrwt>0</asrwt>
<pdfrwt beam="2">  1        2 0.51125352E+00 0.18430536E+04</pdfrwt>
<pdfrwt beam="1">  1       -2 0.16753734E+00 0.18430536E+04</pdfrwt>
<totfact> 0.30438150E-01</totfact>
</mgrwt>
</event>
<event>
 8    1  0.1439553E-005  0.1440934E+04  0.7818608E-02  0.8444325E-01
         -1   -1    0    0    0  501 -0.00000000000E+00  0.00000000000E+00  0.13131005352E+04  0.13131005352E+04  0.00000000000E+00 0.  1.
          1   -1    0    0  502    0  0.00000000000E+00 -0.00000000000E+00 -0.16130037694E+04  0.16130037694E+04  0.00000000000E+00 0. -1.
    9000010    2    1    2  502    0  0.10061735729E+04 -0.19514031548E+03  0.56015965861E+02  0.14353554818E+04  0.10033157873E+04 0.  0.
   -9000010    2    1    2    0  501 -0.10061735729E+04  0.19514031548E+03 -0.35591920001E+03  0.14907488228E+04  0.10223446455E+04 0.  0.
        -13    1    3    3    0    0  0.84057675212E+03  0.16825247319E+03 -0.29202997282E+03  0.90562668199E+03  0.10566000000E+00 0.  1.
          4    1    3    3  502    0  0.16559682082E+03 -0.36339278867E+03  0.34804593868E+03  0.52972879982E+03  0.00000000000E+00 0.  1.
         13    1    4    4    0    0 -0.86941089869E+03  0.17839555470E+03 -0.69336504148E+03  0.11262572426E+04  0.10566000000E+00 0. -1.
         -4    1    4    4    0  501 -0.13676267425E+03  0.16744760783E+02  0.33744584147E+03  0.36449158016E+03  0.00000000000E+00 0. -1.
<mgrwt>
<rscale>  2 0.14409341E+04</rscale>
<asrwt>0</asrwt>
<pdfrwt beam="2">  1        1 0.24815443E+00 0.14409341E+04</pdfrwt>
<pdfrwt beam="1">  1       -1 0.20201547E+00 0.14409341E+04</pdfrwt>
<totfact> 0.90070491E-01</totfact>
</mgrwt>
</event>
<event>
 8    1  0.1439553E-005  0.1200378E+04  0.7818608E-02  0.8606278E-01
         -1   -1    0    0    0  501 -0.00000000000E+00  0.00000000000E+00  0.22457719747E+04  0.22457719747E+04  0.00000000000E+00 0. -1.
          1   -1    0    0  502    0  0.00000000000E+00 -0.00000000000E+00 -0.73298888966E+03  0.73298888966E+03  0.00000000000E+00 0.  1.
    9000010    2    1    2  502    0 -0.59762722126E+03 -0.31329964322E+03  0.12848191035E+04  0.17615231600E+04  0.99844316424E+03 0.  0.
   -9000010    2    1    2    0  501  0.59762722126E+03  0.31329964322E+03  0.22796398149E+03  0.12172377044E+04  0.98710946208E+03 0.  0.
        -13    1    3    3    0    0 -0.56235981557E+02  0.13769416248E+03 -0.11920204827E+03  0.19060773195E+03  0.10566000000E+00 0.  1.
          4    1    3    3  502    0 -0.54139123970E+03 -0.45099380570E+03  0.14040211518E+04  0.15709154280E+04  0.00000000000E+00 0.  1.
         13    1    4    4    0    0  0.53788987019E+02 -0.28431528593E+03  0.28636732336E+03  0.40710525911E+03  0.10566000000E+00 0. -1.
         -4    1    4    4    0  501  0.54383823424E+03  0.59761492915E+03 -0.58403341870E+02  0.81013244529E+03  0.00000000000E+00 0. -1.
<mgrwt>
<rscale>  2 0.12003783E+04</rscale>
<asrwt>0</asrwt>
<pdfrwt beam="2">  1        1 0.11276752E+00 0.12003783E+04</pdfrwt>
<pdfrwt beam="1">  1       -1 0.34550338E+00 0.12003783E+04</pdfrwt>
<totfact> 0.32735743E-01</totfact>
</mgrwt>
</event>
<event>
 8    1  0.1439553E-005  0.1239485E+04  0.7818608E-02  0.8577408E-01
          2   -1    0    0  502    0  0.00000000000E+00  0.00000000000E+00  0.27799040253E+04  0.27799040253E+04  0.00000000000E+00 0. -1.
         -2   -1    0    0    0  501 -0.00000000000E+00 -0.00000000000E+00 -0.74598773288E+03  0.74598773288E+03  0.00000000000E+00 0.  1.
    9000010    2    1    2  502    0  0.41828491427E+03  0.58676628758E+03  0.12270574345E+03  0.12508019640E+04  0.10149836983E+04 0.  0.
   -9000010    2    1    2    0  501 -0.41828491427E+03 -0.58676628758E+03  0.19112105490E+04  0.22750897943E+04  0.10020233847E+04 0.  0.
        -13    1    3    3    0    0  0.37754670610E+03  0.34445811625E+02  0.46482948683E+03  0.59982871907E+03  0.10566000000E+00 0.  1.
          4    1    3    3  502    0  0.40738208176E+02  0.55232047596E+03 -0.34212374339E+03  0.65097324488E+03  0.00000000000E+00 0.  1.
         13    1    4    4    0    0 -0.74469568803E+03 -0.32409222168E+03  0.13354549976E+04  0.15630251110E+04  0.10566000000E+00 0. -1.
         -4    1    4    4    0  501  0.32641077376E+03 -0.26267406590E+03  0.57575555142E+03  0.71206468323E+03  0.00000000000E+00 0. -1.
<mgrwt>
<rscale>  2 0.12394849E+04</rscale>
<asrwt>0</asrwt>
<pdfrwt beam="1">  1        2 0.42767754E+00 0.12394849E+04</pdfrwt>
<pdfrwt beam="2">  1       -2 0.11476734E+00 0.12394849E+04</pdfrwt>
<totfact> 0.21671873E+00</totfact>
</mgrwt>
</event>
<event>
 8    1  0.1439553E-005  0.1485375E+04  0.7818608E-02  0.8417966E-01
          2   -1    0    0  502    0  0.00000000000E+00  0.00000000000E+00  0.26448876918E+04  0.26448876918E+04  0.00000000000E+00 0.  1.
         -2   -1    0    0    0  501 -0.00000000000E+00 -0.00000000000E+00 -0.85392038631E+03  0.85392038631E+03  0.00000000000E+00 0. -1.
    9000010    2    1    2  502    0  0.17332063856E+03 -0.10616268544E+04  0.61717394931E+03  0.15869958446E+04  0.99023255117E+03 0.  0.
   -9000010    2    1    2    0  501 -0.17332063856E+03  0.10616268544E+04  0.11737933561E+04  0.19118122335E+04  0.10583683439E+04 0.  0.
        -13    1    3    3    0    0 -0.40525791219E+02 -0.79938926851E+03 -0.87604480682E+02  0.80519568960E+03  0.10566000000E+00 0.  1.
          4    1    3    3  502    0  0.21384642977E+03 -0.26223758587E+03  0.70477842999E+03  0.78180015500E+03  0.00000000000E+00 0.  1.
         13    1    4    4    0    0 -0.43755566712E+03  0.11169891779E+04  0.76797353473E+03  0.14243957128E+04  0.10566000000E+00 0. -1.
         -4    1    4    4    0  501  0.26423502856E+03 -0.55362323529E+02  0.40581982141E+03  0.48741652068E+03  0.00000000000E+00 0. -1.
<mgrwt>
<rscale>  2 0.14853754E+04</rscale>
<asrwt>0</asrwt>
<pdfrwt beam="1">  1        2 0.40690580E+00 0.14853754E+04</pdfrwt>
<pdfrwt beam="2">  1       -2 0.13137237E+00 0.14853754E+04</pdfrwt>
<totfact> 0.17575084E+00</totfact>
</mgrwt>
</event>
<event>
 8    1  0.1439553E-005  0.1286263E+04  0.7818608E-02  0.8544289E-01
          2   -1    0    0  502    0  0.00000000000E+00  0.00000000000E+00  0.16721168910E+04  0.16721168910E+04  0.00000000000E+00 0. -1.
         -2   -1    0    0    0  501 -0.00000000000E+00 -0.00000000000E+00 -0.99305810700E+03  0.99305810700E+03  0.00000000000E+00 0.  1.
    9000010    2    1    2  502    0 -0.24137663301E+03 -0.76994826201E+03  0.25800647406E+03  0.13068828880E+04  0.99513443164E+03 0.  0.
   -9000010    2    1    2    0  501  0.24137663301E+03  0.76994826201E+03  0.42105230996E+03  0.13582921101E+04  0.10082605831E+04 0.  0.
        -13    1    3    3    0    0 -0.55893286767E+03 -0.72460406164E+03  0.33923612728E+03  0.97598061350E+03  0.10566000000E+00 0.  1.
          4    1    3    3  502    0  0.31755623466E+03 -0.45344200374E+02 -0.81229653222E+02  0.33090227446E+03  0.00000000000E+00 0.  1.
         13    1    4    4    0    0  0.44156110605E+03  0.74902226756E+03 -0.24023842199E+02  0.86982051242E+03  0.10566000000E+00 0. -1.
         -4    1    4    4    0  501 -0.20018447304E+03  0.20925994458E+02  0.44507615216E+03  0.48847159765E+03  0.00000000000E+00 0. -1.
<mgrwt>
<rscale>  2 0.12862627E+04</rscale>
<asrwt>0</asrwt>
<pdfrwt beam="1">  1        2 0.25724875E+00 0.12862627E+04</pdfrwt>
<pdfrwt beam="2">  1       -2 0.15277817E+00 0.12862627E+04</pdfrwt>
<totfact> 0.39700818E+00</totfact>
</mgrwt>
</event>
<event>
 8    1  0.1439553E-005  0.1456504E+04  0.7818608E-02  0.8434980E-01
         -1   -1    0    0    0  501 -0.00000000000E+00  0.00000000000E+00  0.19018291402E+04  0.19018291402E+04  0.00000000000E+00 0. -1.
          1   -1    0    0  502    0  0.00000000000E+00 -0.00000000000E+00 -0.12775505423E+04  0.12775505423E+04  0.00000000000E+00 0.  1.
    9000010    2    1    2  502    0 -0.59446547932E+03 -0.84767414593E+03 -0.25522965821E+03  0.14726195198E+04  0.10156403930E+04 0.  0.
   -9000010    2    1    2    0  501  0.59446547932E+03  0.84767414593E+03  0.87950825607E+03  0.17067601628E+04  0.10332254434E+04 0.  0.
        -13    1    3    3    0    0 -0.44973338541E+03 -0.82765555131E+02  0.27231595951E+03  0.53222762803E+03  0.10566000000E+00 0.  1.
          4    1    3    3  502    0 -0.14473209391E+03 -0.76490859079E+03 -0.52754561772E+03  0.94039189174E+03  0.00000000000E+00 0.  1.
         13    1    4    4    0    0  0.25529277303E+03  0.67242660728E+03  0.10627693283E+04  0.12832811845E+04  0.10566000000E+00 0. -1.
         -4    1    4    4    0  501  0.33917270629E+03  0.17524753865E+03 -0.18326107218E+03  0.42347897832E+03  0.00000000000E+00 0. -1.
<mgrwt>
<rscale>  2 0.14565041E+04</rscale>
<asrwt>0</asrwt>
<pdfrwt beam="2">  1        1 0.19654624E+00 0.14565041E+04</pdfrwt>
<pdfrwt beam="1">  1       -1 0.29258910E+00 0.14565041E+04</pdfrwt>
<totfact> 0.22184541E-01</totfact>
</mgrwt>
</event>
<event>
 8    1  0.1439553E-005  0.1339850E+04  0.7818608E-02  0.8508091E-01
          2   -1    0    0  502    0  0.00000000000E+00  0.00000000000E+00  0.17426487394E+04  0.17426487394E+04  0.00000000000E+00 0. -1.
         -2   -1    0    0    0  501 -0.00000000000E+00 -0.00000000000E+00 -0.12162451188E+04  0.12162451188E+04  0.00000000000E+00 0.  1.
    9000010    2    1    2  502    0  0.64075735315E+03 -0.61444123521E+03  0.84046685570E+03  0.15747346831E+04  0.99262116114E+03 0.  0.
   -9000010    2    1    2    0  501 -0.64075735315E+03  0.61444123521E+03 -0.31406323508E+03  0.13841591750E+04  0.10144717290E+04 0.  0.
        -13    1    3    3    0    0  0.42305631571E+02  0.16652999418E+03 -0.11218974819E+03  0.20520369438E+03  0.10566000000E+00 0.  1.
          4    1    3    3  502    0  0.59845172158E+03 -0.78097122939E+03  0.95265660389E+03  0.13695309887E+04  0.00000000000E+00 0.  1.
         13    1    4    4    0    0  0.14287567031E+02  0.68861426320E+03 -0.16725256170E+03  0.70877864571E+03  0.10566000000E+00 0. -1.
         -4    1    4    4    0  501 -0.65504492018E+03 -0.74173027990E+02 -0.14681067338E+03  0.67538052930E+03  0.00000000000E+00 0. -1.
<mgrwt>
<rscale>  2 0.13398503E+04</rscale>
<asrwt>0</asrwt>
<pdfrwt beam="1">  1        2 0.26809981E+00 0.13398503E+04</pdfrwt>
<pdfrwt beam="2">  1       -2 0.18711463E+00 0.13398503E+04</pdfrwt>
<totfact> 0.18461951E+00</totfact>
</mgrwt>
</event>
<event>
 8    1  0.1439553E-005  0.1066507E+04  0.7818608E-02  0.8714494E-01
          1   -1    0    0  502    0  0.00000000000E+00  0.00000000000E+00  0.13623951577E+04  0.13623951577E+04  0.00000000000E+00 0. -1.
         -1   -1    0    0    0  501 -0.00000000000E+00 -0.00000000000E+00 -0.83847616903E+03  0.83847616903E+03  0.00000000000E+00 0.  1.
    9000010    2    1    2  502    0 -0.29586209648E+03 -0.18798458883E+03  0.18873821047E+03  0.10774204597E+04  0.10011693909E+04 0.  0.
   -9000010    2    1    2    0  501  0.29586209648E+03  0.18798458883E+03  0.33518077819E+03  0.11234508670E+04  0.10133721482E+04 0.  0.
        -13    1    3    3    0    0 -0.49320084547E+03 -0.42964620823E+03  0.33265732630E+03  0.73382821295E+03  0.10566000000E+00 0.  1.
          4    1    3    3  502    0  0.19733874899E+03  0.24166161940E+03 -0.14391911584E+03  0.34359224678E+03  0.00000000000E+00 0.  1.
         13    1    4    4    0    0 -0.17243442751E+03 -0.26780574950E+03  0.34545010417E+03  0.46988225853E+03  0.10566000000E+00 0. -1.
         -4    1    4    4    0  501  0.46829652399E+03  0.45579033832E+03 -0.10269325981E+02  0.65356860844E+03  0.00000000000E+00 0. -1.
<mgrwt>
<rscale>  2 0.10665073E+04</rscale>
<asrwt>0</asrwt>
<pdfrwt beam="1">  1        1 0.20959926E+00 0.10665073E+04</pdfrwt>
<pdfrwt beam="2">  1       -1 0.12899633E+00 0.10665073E+04</pdfrwt>
<totfact> 0.63068001E+00</totfact>
</mgrwt>
</event>
<event>
 8    1  0.1439553E-005  0.1264882E+04  0.7818608E-02  0.8559243E-01
         -2   -1    0    0    0  501 -0.00000000000E+00  0.00000000000E+00  0.10917101524E+04  0.10917101524E+04  0.00000000000E+00 0. -1.
          2   -1    0    0  502    0  0.00000000000E+00 -0.00000000000E+00 -0.15671218095E+04  0.15671218095E+04  0.00000000000E+00 0.  1.
    9000010    2    1    2  502    0 -0.60330715135E+03 -0.49787022212E+03  0.10135569085E+03  0.12656309695E+04  0.98979517982E+03 0.  0.
   -9000010    2    1    2    0  501  0.60330715135E+03  0.49787022212E+03 -0.57676734791E+03  0.13932009924E+04  0.99824553828E+03 0.  0.
        -13    1    3    3    0    0 -0.57302087673E+03 -0.12466531551E+03 -0.34707108903E+03  0.68143430943E+03  0.10566000000E+00 0.  1.
          4    1    3    3  502    0 -0.30286274617E+02 -0.37320490661E+03  0.44842677988E+03  0.58419666009E+03  0.00000000000E+00 0.  1.
         13    1    4    4    0    0  0.68522910693E+03  0.69613910776E+03 -0.26033199572E+03  0.10109012541E+04  0.10566000000E+00 0. -1.
         -4    1    4    4    0  501 -0.81921955576E+02 -0.19826888564E+03 -0.31643535218E+03  0.38229973833E+03  0.00000000000E+00 0. -1.
<mgrwt>
<rscale>  2 0.12648820E+04</rscale>
<asrwt>0</asrwt>
<pdfrwt beam="2">  1        2 0.24109566E+00 0.12648820E+04</pdfrwt>
<pdfrwt beam="1">  1       -2 0.16795541E+00 0.12648820E+04</pdfrwt>
<totfact> 0.33555493E+00</totfact>
</mgrwt>
</event>
<event>
 8    1  0.1439553E-005  0.1389560E+04  0.7818608E-02  0.8476037E-01
          2   -1    0    0  502    0  0.00000000000E+00  0.00000000000E+00  0.32513516689E+04  0.32513516689E+04  0.00000000000E+00 0.  1.
         -2   -1    0    0    0  501 -0.00000000000E+00 -0.00000000000E+00 -0.64234964513E+03  0.64234964513E+03  0.00000000000E+00 0. -1.
    9000010    2    1    2  502    0  0.21104205393E+03 -0.93812831441E+03  0.18404599500E+04  0.23068907985E+04  0.10049024061E+04 0.  0.
   -9000010    2    1    2    0  501 -0.21104205393E+03  0.93812831441E+03  0.76854207373E+03  0.15868105155E+04  0.10013427036E+04 0.  0.
        -13    1    3    3    0    0  0.11043728836E+03 -0.84353785969E+03  0.55887297095E+03  0.10178858110E+04  0.10566000000E+00 0.  1.
          4    1    3    3  502    0  0.10060476558E+03 -0.94590454718E+02  0.12815869790E+04  0.12890049875E+04  0.00000000000E+00 0.  1.
         13    1    4    4    0    0 -0.23149544073E+03  0.23112948694E+03 -0.20306368474E+03  0.38502707702E+03  0.10566000000E+00 0. -1.
         -4    1    4    4    0  501  0.20453386797E+02  0.70699882746E+03  0.97160575847E+03  0.12017834385E+04  0.00000000000E+00 0. -1.
<mgrwt>
<rscale>  2 0.13895604E+04</rscale>
<asrwt>0</asrwt>
<pdfrwt beam="1">  1        2 0.50020794E+00 0.13895604E+04</pdfrwt>
<pdfrwt beam="2">  1       -2 0.98823024E-01 0.13895604E+04</pdfrwt>
<totfact> 0.15683134E+00</totfact>
</mgrwt>
</event>
<event>
 8    1  0.1439553E-005  0.1177629E+04  0.7818608E-02  0.8623601E-01
          2   -1    0    0  502    0  0.00000000000E+00  0.00000000000E+00  0.12312815959E+04  0.12312815959E+04  0.00000000000E+00 0. -1.
         -2   -1    0    0    0  501 -0.00000000000E+00 -0.00000000000E+00 -0.11441007082E+04  0.11441007082E+04  0.00000000000E+00 0.  1.
    9000010    2    1    2  502    0 -0.48180809853E+03  0.40160991258E+03 -0.10438403632E+03  0.11847500990E+04  0.99965354218E+03 0.  0.
   -9000010    2    1    2    0  501  0.48180809853E+03 -0.40160991258E+03  0.19156492406E+03  0.11906322051E+04  0.99371945838E+03 0.  0.
        -13    1    3    3    0    0  0.10916236384E+03 -0.23162350485E+03  0.13037872899E+03  0.28734037971E+03  0.10566000000E+00 0.  1.
          4    1    3    3  502    0 -0.59097046236E+03  0.63323341743E+03 -0.23476276531E+03  0.89740971931E+03  0.00000000000E+00 0.  1.
         13    1    4    4    0    0  0.10404306410E+03  0.33111027104E+03  0.13989199858E+02  0.34735382487E+03  0.10566000000E+00 0. -1.
         -4    1    4    4    0  501  0.37776503443E+03 -0.73272018362E+03  0.17757572420E+03  0.84327838022E+03  0.00000000000E+00 0. -1.
<mgrwt>
<rscale>  2 0.11776289E+04</rscale>
<asrwt>0</asrwt>
<pdfrwt beam="1">  1        2 0.18942794E+00 0.11776289E+04</pdfrwt>
<pdfrwt beam="2">  1       -2 0.17601549E+00 0.11776289E+04</pdfrwt>
<totfact> 0.44497020E+00</totfact>
</mgrwt>
</event>
<event>
 8    1  0.1439553E-005  0.1282588E+04  0.7818608E-02  0.8546838E-01
         -2   -1    0    0    0  501 -0.00000000000E+00  0.00000000000E+00  0.91697955582E+03  0.91697955582E+03  0.00000000000E+00 0. -1.
          2   -1    0    0  502    0  0.00000000000E+00 -0.00000000000E+00 -0.18951830388E+04  0.18951830388E+04  0.00000000000E+00 0.  1.
    9000010    2    1    2  502    0 -0.78168514301E+03 -0.17291034313E+03 -0.81280547209E+03  0.15156004525E+04  0.99772859363E+03 0.  0.
   -9000010    2    1    2    0  501  0.78168514301E+03  0.17291034313E+03 -0.16539801085E+03  0.12965621421E+04  0.10063733089E+04 0.  0.
        -13    1    3    3    0    0 -0.28855674421E+03  0.40492605454E+03 -0.46249631727E+03  0.67906771306E+03  0.10566000000E+00 0.  1.
          4    1    3    3  502    0 -0.49312839880E+03 -0.57783639767E+03 -0.35030915482E+03  0.83653273943E+03  0.00000000000E+00 0.  1.
         13    1    4    4    0    0  0.38445410869E+03  0.18670214377E+03 -0.58114715071E+03  0.72138386045E+03  0.10566000000E+00 0. -1.
         -4    1    4    4    0  501  0.39723103432E+03 -0.13791800642E+02  0.41574913986E+03  0.57517828165E+03  0.00000000000E+00 0. -1.
<mgrwt>
<rscale>  2 0.12825879E+04</rscale>
<asrwt>0</asrwt>
<pdfrwt beam="2">  1        2 0.29156662E+00 0.12825879E+04</pdfrwt>
<pdfrwt beam="1">  1       -2 0.14107378E+00 0.12825879E+04</pdfrwt>
<totfact> 0.38144567E+00</totfact>
</mgrwt>
</event>
<event>
 8    1  0.1439553E-005  0.1215413E+04  0.7818608E-02  0.8595045E-01
         -1   -1    0    0    0  501 -0.00000000000E+00  0.00000000000E+00  0.19898554688E+04  0.19898554688E+04  0.00000000000E+00 0.  1.
          1   -1    0    0  502    0  0.00000000000E+00 -0.00000000000E+00 -0.75477233245E+03  0.75477233245E+03  0.00000000000E+00 0. -1.
    9000010    2    1    2  502    0 -0.18521411851E+03  0.58774945960E+03  0.46196524534E+03  0.13312785744E+04  0.10858807751E+04 0.  0.
   -9000010    2    1    2    0  501  0.18521411851E+03 -0.58774945960E+03  0.77311789099E+03  0.14133492268E+04  0.10099955776E+04 0.  0.
        -13    1    3    3    0    0  0.16056501584E+03 -0.11430208475E+03  0.51046355888E+03  0.54719205678E+03  0.10566000000E+00 0.  1.
          4    1    3    3  502    0 -0.34577913436E+03  0.70205154434E+03 -0.48498313544E+02  0.78408651760E+03  0.00000000000E+00 0.  1.
         13    1    4    4    0    0  0.59765892237E+02 -0.74298265493E+03  0.15169530967E+03  0.76066199165E+03  0.10566000000E+00 0. -1.
         -4    1    4    4    0  501  0.12544822627E+03  0.15523319533E+03  0.62142258132E+03  0.65268723519E+03  0.00000000000E+00 0. -1.
<mgrwt>
<rscale>  2 0.12154130E+04</rscale>
<asrwt>0</asrwt>
<pdfrwt beam="2">  1        1 0.11611882E+00 0.12154130E+04</pdfrwt>
<pdfrwt beam="1">  1       -1 0.30613161E+00 0.12154130E+04</pdfrwt>
<totfact> 0.46821398E-01</totfact>
</mgrwt>
</event>
<event>
 8    1  0.1439553E-005  0.1237462E+04  0.7818608E-02  0.8578874E-01
         -2   -1    0    0    0  501 -0.00000000000E+00  0.00000000000E+00  0.11679299306E+04  0.11679299306E+04  0.00000000000E+00 0.  1.
          2   -1    0    0  502    0  0.00000000000E+00 -0.00000000000E+00 -0.17356920271E+04  0.17356920271E+04  0.00000000000E+00 0. -1.
    9000010    2    1    2  502    0 -0.26247266658E+03 -0.62301403282E+03 -0.10060720399E+04  0.16170009447E+04  0.10702675927E+04 0.  0.
   -9000010    2    1    2    0  501  0.26247266658E+03  0.62301403282E+03  0.43830994347E+03  0.12866210130E+04  0.10031149679E+04 0.  0.
        -13    1    3    3    0    0  0.20409202520E+03  0.19633237471E+03 -0.77405794503E+02  0.29358410089E+03  0.10566000000E+00 0.  1.
          4    1    3    3  502    0 -0.46656469178E+03 -0.81934640753E+03 -0.92866624539E+03  0.13234168438E+04  0.00000000000E+00 0.  1.
         13    1    4    4    0    0 -0.36459794724E+03  0.17399142570E+03  0.93400786827E+01  0.40409395886E+03  0.10566000000E+00 0. -1.
         -4    1    4    4    0  501  0.62707061383E+03  0.44902260712E+03  0.42896986479E+03  0.88252705416E+03  0.00000000000E+00 0. -1.
<mgrwt>
<rscale>  2 0.12374623E+04</rscale>
<asrwt>0</asrwt>
<pdfrwt beam="2">  1        2 0.26702954E+00 0.12374623E+04</pdfrwt>
<pdfrwt beam="1">  1       -2 0.17968153E+00 0.12374623E+04</pdfrwt>
<totfact> 0.21719944E+00</totfact>
</mgrwt>
</event>
<event>
 8    1  0.1439553E-005  0.1493004E+04  0.7818608E-02  0.8413537E-01
          1   -1    0    0  502    0  0.00000000000E+00  0.00000000000E+00  0.23250872205E+04  0.23250872205E+04  0.00000000000E+00 0. -1.
         -1   -1    0    0    0  501 -0.00000000000E+00 -0.00000000000E+00 -0.97133629200E+03  0.97133629200E+03  0.00000000000E+00 0.  1.
    9000010    2    1    2  502    0  0.96784300902E+03  0.41341095490E+03  0.53313738185E+03  0.16490553670E+04  0.11521802931E+04 0.  0.
   -9000010    2    1    2    0  501 -0.96784300902E+03 -0.41341095490E+03  0.82061354664E+03  0.16473681455E+04  0.96580873168E+03 0.  0.
        -13    1    3    3    0    0  0.11222114719E+04  0.62139843690E+03  0.34326909768E+03  0.13279037200E+04  0.10566000000E+00 0.  1.
          4    1    3    3  502    0 -0.15436846290E+03 -0.20798748200E+03  0.18986828418E+03  0.32115164695E+03  0.00000000000E+00 0.  1.
         13    1    4    4    0    0 -0.33712313101E+03 -0.52225942210E+02  0.85417257166E+03  0.91977733601E+03  0.10566000000E+00 0. -1.
         -4    1    4    4    0  501 -0.63071987801E+03 -0.36118501269E+03 -0.33559025024E+02  0.72759080950E+03  0.00000000000E+00 0. -1.
<mgrwt>
<rscale>  2 0.14930040E+04</rscale>
<asrwt>0</asrwt>
<pdfrwt beam="1">  1        1 0.35770572E+00 0.14930040E+04</pdfrwt>
<pdfrwt beam="2">  1       -1 0.14943635E+00 0.14930040E+04</pdfrwt>
<totfact> 0.72612260E-01</totfact>
</mgrwt>
</event>
<event>
 8    1  0.1439553E-005  0.9895635E+03  0.7818608E-02  0.8784459E-01
         -1   -1    0    0    0  501 -0.00000000000E+00  0.00000000000E+00  0.68559352763E+03  0.68559352763E+03  0.00000000000E+00 0.  1.
          1   -1    0    0  502    0  0.00000000000E+00 -0.00000000000E+00 -0.14823515930E+04  0.14823515930E+04  0.00000000000E+00 0. -1.
    9000010    2    1    2  502    0 -0.17556157434E+03 -0.28347354225E+03 -0.17877739667E+03  0.94949367067E+03  0.87086035479E+03 0.  0.
   -9000010    2    1    2    0  501  0.17556157434E+03  0.28347354225E+03 -0.61798066869E+03  0.12184514499E+04  0.99576338225E+03 0.  0.
        -13    1    3    3    0    0 -0.21912975148E+03 -0.52906302558E+03  0.93511601161E+02  0.58023268069E+03  0.10566000000E+00 0.  1.
          4    1    3    3  502    0  0.43568177139E+02  0.24558948333E+03 -0.27228899783E+03  0.36926098998E+03  0.00000000000E+00 0.  1.
         13    1    4    4    0    0  0.23047442778E+03 -0.23139400352E+03 -0.61988968730E+03  0.70066031878E+03  0.10566000000E+00 0. -1.
         -4    1    4    4    0  501 -0.54912853436E+02  0.51486754576E+03  0.19090186124E+01  0.51779113116E+03  0.00000000000E+00 0. -1.
<mgrwt>
<rscale>  2 0.98956354E+03</rscale>
<asrwt>0</asrwt>
<pdfrwt beam="2">  1        1 0.22805409E+00 0.98956354E+03</pdfrwt>
<pdfrwt beam="1">  1       -1 0.10547593E+00 0.98956354E+03</pdfrwt>
<totfact> 0.84062300E+00</totfact>
</mgrwt>
</event>
<event>
 8    1  0.1439553E-005  0.1474624E+04  0.7818608E-02  0.8424255E-01
         -2   -1    0    0    0  501 -0.00000000000E+00  0.00000000000E+00  0.18836696544E+04  0.18836696544E+04  0.00000000000E+00 0.  1.
          2   -1    0    0  502    0  0.00000000000E+00 -0.00000000000E+00 -0.12120989871E+04  0.12120989871E+04  0.00000000000E+00 0. -1.
    9000010    2    1    2  502    0  0.36514643540E+03 -0.85243754627E+03 -0.76686039582E+01  0.13833409621E+04  0.10264461605E+04 0.  0.
   -9000010    2    1    2    0  501 -0.36514643540E+03  0.85243754627E+03  0.67923927125E+03  0.17124276793E+04  0.12692757304E+04 0.  0.
        -13    1    3    3    0    0  0.57768915534E+03 -0.14167763266E+03  0.17366420176E+03  0.61964229837E+03  0.10566000000E+00 0.  1.
          4    1    3    3  502    0 -0.21254271994E+03 -0.71075991361E+03 -0.18133280572E+03  0.76369866376E+03  0.00000000000E+00 0.  1.
         13    1    4    4    0    0 -0.67707968091E+03  0.93655335896E+03  0.75520052435E+03  0.13805422600E+04  0.10566000000E+00 0. -1.
         -4    1    4    4    0  501  0.31193324550E+03 -0.84115812693E+02 -0.75961253099E+02  0.33188541934E+03  0.00000000000E+00 0. -1.
<mgrwt>
<rscale>  2 0.14746241E+04</rscale>
<asrwt>0</asrwt>
<pdfrwt beam="2">  1        2 0.18647677E+00 0.14746241E+04</pdfrwt>
<pdfrwt beam="1">  1       -2 0.28979533E+00 0.14746241E+04</pdfrwt>
<totfact> 0.55535043E-01</totfact>
</mgrwt>
</event>
<event>
 8    1  0.1439553E-005  0.1305853E+04  0.7818608E-02  0.8530849E-01
         -2   -1    0    0    0  501 -0.00000000000E+00  0.00000000000E+00  0.10293980126E+04  0.10293980126E+04  0.00000000000E+00 0. -1.
          2   -1    0    0  502    0  0.00000000000E+00 -0.00000000000E+00 -0.16860297095E+04  0.16860297095E+04  0.00000000000E+00 0.  1.
    9000010    2    1    2  502    0 -0.56579595814E+03 -0.66563804930E+03 -0.50250521785E+03  0.13827688294E+04  0.94675184847E+03 0.  0.
   -9000010    2    1    2    0  501  0.56579595814E+03  0.66563804930E+03 -0.15412647902E+03  0.13326588928E+04  0.99449769936E+03 0.  0.
        -13    1    3    3    0    0  0.17743482562E+03  0.10075723935E+03 -0.16707367709E+03  0.26372099531E+03  0.10566000000E+00 0.  1.
          4    1    3    3  502    0 -0.74323078376E+03 -0.76639528865E+03 -0.33543154075E+03  0.11190478341E+04  0.00000000000E+00 0.  1.
         13    1    4    4    0    0  0.61420657611E+03  0.67414562705E+03 -0.46099427526E+03  0.10218795318E+04  0.10566000000E+00 0. -1.
         -4    1    4    4    0  501 -0.48410617969E+02 -0.85075777523E+01  0.30686779624E+03  0.31077936093E+03  0.00000000000E+00 0. -1.
<mgrwt>
<rscale>  2 0.13058529E+04</rscale>
<asrwt>0</asrwt>
<pdfrwt beam="2">  1        2 0.25938919E+00 0.13058529E+04</pdfrwt>
<pdfrwt beam="1">  1       -2 0.15836892E+00 0.13058529E+04</pdfrwt>
<totfact> 0.34768679E+00</totfact>
</mgrwt>
</event>
<event>
 8    1  0.1439553E-005  0.1302117E+04  0.7818608E-02  0.8533393E-01
         -2   -1    0    0    0  501 -0.00000000000E+00  0.00000000000E+00  0.76919192609E+03  0.76919192609E+03  0.00000000000E+00 0.  1.
          2   -1    0    0  502    0  0.00000000000E+00 -0.00000000000E+00 -0.23262891528E+04  0.23262891528E+04  0.00000000000E+00 0. -1.
    9000010    2    1    2  502    0 -0.71155184746E+03  0.40004503933E+03 -0.42797438174E+03  0.13770395266E+04  0.10231000544E+04 0.  0.
   -9000010    2    1    2    0  501  0.71155184746E+03 -0.40004503933E+03 -0.11291228450E+04  0.17184415523E+04  0.10058732050E+04 0.  0.
        -13    1    3    3    0    0 -0.49800513478E+03 -0.24655770934E+03 -0.41911339230E+03  0.69602863811E+03  0.10566000000E+00 0.  1.
          4    1    3    3  502    0 -0.21354671268E+03  0.64660274867E+03 -0.88609894397E+01  0.68101088847E+03  0.00000000000E+00 0.  1.
         13    1    4    4    0    0 -0.20442594283E+03 -0.18009308451E+03 -0.35026574316E+02  0.27468228422E+03  0.10566000000E+00 0. -1.
         -4    1    4    4    0  501  0.91597779029E+03 -0.21995195482E+03 -0.10940962707E+04  0.14437592681E+04  0.00000000000E+00 0. -1.
<mgrwt>
<rscale>  2 0.13021172E+04</rscale>
<asrwt>0</asrwt>
<pdfrwt beam="2">  1        2 0.35789063E+00 0.13021172E+04</pdfrwt>
<pdfrwt beam="1">  1       -2 0.11833722E+00 0.13021172E+04</pdfrwt>
<totfact> 0.35956718E+00</totfact>
</mgrwt>
</event>
<event>
 8    1  0.1439553E-005  0.1207912E+04  0.7818608E-02  0.8600628E-01
         -1   -1    0    0    0  501 -0.00000000000E+00  0.00000000000E+00  0.12685906032E+04  0.12685906032E+04  0.00000000000E+00 0. -1.
          1   -1    0    0  502    0  0.00000000000E+00 -0.00000000000E+00 -0.11584864957E+04  0.11584864957E+04  0.00000000000E+00 0.  1.
    9000010    2    1    2  502    0 -0.44622285034E+03  0.49639114081E+03 -0.47515276002E+02  0.12149999013E+04  0.10141242832E+04 0.  0.
   -9000010    2    1    2    0  501  0.44622285034E+03 -0.49639114081E+03  0.15761938348E+03  0.12120771975E+04  0.99938394319E+03 0.  0.
        -13    1    3    3    0    0 -0.64694929515E+03  0.68205848793E+03 -0.52258393053E+02  0.94152967148E+03  0.10566000000E+00 0.  1.
          4    1    3    3  502    0  0.20072644481E+03 -0.18566734713E+03  0.47431170508E+01  0.27347022981E+03  0.00000000000E+00 0.  1.
         13    1    4    4    0    0  0.67063852458E+03 -0.61098095026E+03 -0.13783567225E+02  0.90732780742E+03  0.10566000000E+00 0. -1.
         -4    1    4    4    0  501 -0.22441567423E+03  0.11458980945E+03  0.17140295071E+03  0.30474939012E+03  0.00000000000E+00 0. -1.
<mgrwt>
<rscale>  2 0.12079121E+04</rscale>
<asrwt>0</asrwt>
<pdfrwt beam="2">  1        1 0.17822869E+00 0.12079121E+04</pdfrwt>
<pdfrwt beam="1">  1       -1 0.19516778E+00 0.12079121E+04</pdfrwt>
<totfact> 0.23507160E+00</totfact>
</mgrwt>
</event>
<event>
 8    1  0.1439553E-005  0.1147383E+04  0.7818608E-02  0.8647274E-01
          1   -1    0    0  502    0  0.00000000000E+00  0.00000000000E+00  0.18552136359E+04  0.18552136359E+04  0.00000000000E+00 0. -1.
         -1   -1    0    0    0  501 -0.00000000000E+00 -0.00000000000E+00 -0.78641714072E+03  0.78641714072E+03  0.00000000000E+00 0.  1.
    9000010    2    1    2  502    0 -0.44902491904E+03 -0.31915654683E+03  0.94623579864E+03  0.14855411571E+04  0.10039850912E+04 0.  0.
   -9000010    2    1    2    0  501  0.44902491904E+03  0.31915654683E+03  0.12256069652E+03  0.11560896195E+04  0.10089785948E+04 0.  0.
        -13    1    3    3    0    0 -0.55002093338E+03 -0.42952676688E+03  0.10793379866E+04  0.12852963748E+04  0.10566000000E+00 0.  1.
          4    1    3    3  502    0  0.10099601434E+03  0.11037022005E+03 -0.13310218795E+03  0.20024478227E+03  0.00000000000E+00 0.  1.
         13    1    4    4    0    0 -0.92445053440E+02  0.45113899498E+03  0.32444631237E+03  0.56332752593E+03  0.10566000000E+00 0. -1.
         -4    1    4    4    0  501  0.54146997248E+03 -0.13198244815E+03 -0.20188561585E+03  0.59276209360E+03  0.00000000000E+00 0. -1.
<mgrwt>
<rscale>  2 0.11473825E+04</rscale>
<asrwt>0</asrwt>
<pdfrwt beam="1">  1        1 0.28541748E+00 0.11473825E+04</pdfrwt>
<pdfrwt beam="2">  1       -1 0.12098725E+00 0.11473825E+04</pdfrwt>
<totfact> 0.31558749E+00</totfact>
</mgrwt>
</event>
<event>
 8    1  0.1439553E-005  0.1647225E+04  0.7818608E-02  0.8329469E-01
         -4   -1    0    0    0  501 -0.00000000000E+00  0.00000000000E+00  0.16067701508E+04  0.16067701508E+04  0.00000000000E+00 0. -1.
          4   -1    0    0  502    0  0.00000000000E+00 -0.00000000000E+00 -0.24132753944E+04  0.24132753944E+04  0.00000000000E+00 0.  1.
    9000010    2    1    2  502    0 -0.37443002013E+03 -0.12507107743E+04 -0.15031796163E+04  0.22239128131E+04  0.99084002773E+03 0.  0.
   -9000010    2    1    2    0  501  0.37443002013E+03  0.12507107743E+04  0.69667437271E+03  0.17961327320E+04  0.10179697091E+04 0.  0.
        -13    1    3    3    0    0 -0.70936512672E+03 -0.84794369845E+03 -0.11291617209E+04  0.15802574480E+04  0.10566000000E+00 0.  1.
          4    1    3    3  502    0  0.33493510658E+03 -0.40276707582E+03 -0.37401789540E+03  0.64365536514E+03  0.00000000000E+00 0.  1.
         13    1    4    4    0    0 -0.25825410768E+03  0.39942162606E+03  0.54716025440E+03  0.72499460319E+03  0.10566000000E+00 0. -1.
         -4    1    4    4    0  501  0.63268412781E+03  0.85128914821E+03  0.14951411830E+03  0.10711381288E+04  0.00000000000E+00 0. -1.
<mgrwt>
<rscale>  2 0.16472254E+04</rscale>
<asrwt>0</asrwt>
<pdfrwt beam="2">  1        4 0.37127314E+00 0.16472254E+04</pdfrwt>
<pdfrwt beam="1">  1       -4 0.24719541E+00 0.16472254E+04</pdfrwt>
<totfact> 0.44294227E-02</totfact>
</mgrwt>
</event>
<event>
 8    1  0.1439553E-005  0.1292314E+04  0.7818608E-02  0.8540111E-01
          2   -1    0    0  502    0  0.00000000000E+00  0.00000000000E+00  0.14896138672E+04  0.14896138672E+04  0.00000000000E+00 0. -1.
         -2   -1    0    0    0  501 -0.00000000000E+00 -0.00000000000E+00 -0.13403453844E+04  0.13403453844E+04  0.00000000000E+00 0.  1.
    9000010    2    1    2  502    0 -0.76565883168E+03  0.32400387726E+03  0.64738799038E+03  0.14721699259E+04  0.10280861450E+04 0.  0.
   -9000010    2    1    2    0  501  0.76565883168E+03 -0.32400387726E+03 -0.49811950756E+03  0.13577893258E+04  0.95092420850E+03 0.  0.
        -13    1    3    3    0    0  0.82457603374E+02  0.39648603171E+03  0.37071678170E+01  0.40498664664E+03  0.10566000000E+00 0.  1.
          4    1    3    3  502    0 -0.84811643505E+03 -0.72482154449E+02  0.64368082257E+03  0.10671832792E+04  0.00000000000E+00 0.  1.
         13    1    4    4    0    0  0.85034360275E+03 -0.32331381847E+02 -0.59574264658E+03  0.10387679592E+04  0.10566000000E+00 0. -1.
         -4    1    4    4    0  501 -0.84684771068E+02 -0.29167249542E+03  0.97623139018E+02  0.31902136653E+03  0.00000000000E+00 0. -1.
<mgrwt>
<rscale>  2 0.12923144E+04</rscale>
<asrwt>0</asrwt>
<pdfrwt beam="1">  1        2 0.22917136E+00 0.12923144E+04</pdfrwt>
<pdfrwt beam="2">  1       -2 0.20620698E+00 0.12923144E+04</pdfrwt>
<totfact> 0.17727098E+00</totfact>
</mgrwt>
</event>
<event>
 8    1  0.1439553E-005  0.1866298E+04  0.7818608E-02  0.8225112E-01
          2   -1    0    0  502    0  0.00000000000E+00  0.00000000000E+00  0.85159963697E+03  0.85159963697E+03  0.00000000000E+00 0.  1.
         -2   -1    0    0    0  501 -0.00000000000E+00 -0.00000000000E+00 -0.41838935029E+04  0.41838935029E+04  0.00000000000E+00 0. -1.
    9000010    2    1    2  502    0  0.78004539712E+03  0.13733733738E+04 -0.20263399513E+04  0.27424363917E+04  0.95931148169E+03 0.  0.
   -9000010    2    1    2    0  501 -0.78004539712E+03 -0.13733733738E+04 -0.13059539146E+04  0.22930567482E+04  0.10285758980E+04 0.  0.
        -13    1    3    3    0    0 -0.79182633045E+02  0.56531828585E+03 -0.11122950536E+04  0.12502219608E+04  0.10566000000E+00 0.  1.
          4    1    3    3  502    0  0.85922803017E+03  0.80805508793E+03 -0.91404489773E+03  0.14922144310E+04  0.00000000000E+00 0.  1.
         13    1    4    4    0    0 -0.67540020959E+03 -0.15359782066E+04 -0.10790228304E+04  0.19949147285E+04  0.10566000000E+00 0. -1.
         -4    1    4    4    0  501 -0.10464518754E+03  0.16260483280E+03 -0.22693108420E+03  0.29814201969E+03  0.00000000000E+00 0. -1.
<mgrwt>
<rscale>  2 0.18662980E+04</rscale>
<asrwt>0</asrwt>
<pdfrwt beam="1">  1        2 0.13101533E+00 0.18662980E+04</pdfrwt>
<pdfrwt beam="2">  1       -2 0.64367593E+00 0.18662980E+04</pdfrwt>
<totfact> 0.15784415E-01</totfact>
</mgrwt>
</event>
<event>
 8    1  0.1439553E-005  0.1398708E+04  0.7818608E-02  0.8470288E-01
          2   -1    0    0  502    0  0.00000000000E+00  0.00000000000E+00  0.14945681869E+04  0.14945681869E+04  0.00000000000E+00 0. -1.
         -2   -1    0    0    0  501 -0.00000000000E+00 -0.00000000000E+00 -0.14032703174E+04  0.14032703174E+04  0.00000000000E+00 0.  1.
    9000010    2    1    2  502    0  0.85135190315E+03 -0.42699871350E+03 -0.32503175408E+03  0.14843045435E+04  0.10910482906E+04 0.  0.
   -9000010    2    1    2    0  501 -0.85135190315E+03  0.42699871350E+03  0.41632962363E+03  0.14135339608E+04  0.95792480842E+03 0.  0.
        -13    1    3    3    0    0  0.12896583216E+03  0.35727122854E+03 -0.12144320317E+03  0.39877735564E+03  0.10566000000E+00 0.  1.
          4    1    3    3  502    0  0.72238607099E+03 -0.78426994204E+03 -0.20358855091E+03  0.10855271879E+04  0.00000000000E+00 0.  1.
         13    1    4    4    0    0 -0.21882227312E+03  0.54320014637E+03  0.49347150109E+03  0.76580919280E+03  0.10566000000E+00 0. -1.
         -4    1    4    4    0  501 -0.63252963003E+03 -0.11620143287E+03 -0.77141877459E+02  0.64772476803E+03  0.00000000000E+00 0. -1.
<mgrwt>
<rscale>  2 0.13987077E+04</rscale>
<asrwt>0</asrwt>
<pdfrwt beam="1">  1        2 0.22993357E+00 0.13987077E+04</pdfrwt>
<pdfrwt beam="2">  1       -2 0.21588774E+00 0.13987077E+04</pdfrwt>
<totfact> 0.14504756E+00</totfact>
</mgrwt>
</event>
<event>
 8    1  0.1439553E-005  0.1793214E+04  0.7818608E-02  0.8258213E-01
         -2   -1    0    0    0  501 -0.00000000000E+00  0.00000000000E+00  0.61806150238E+03  0.61806150238E+03  0.00000000000E+00 0.  1.
          2   -1    0    0  502    0  0.00000000000E+00 -0.00000000000E+00 -0.52099987846E+04  0.52099987846E+04  0.00000000000E+00 0. -1.
    9000010    2    1    2  502    0  0.57745501811E+02  0.14613867391E+04 -0.23965264318E+04  0.29895422325E+04  0.10271504647E+04 0.  0.
   -9000010    2    1    2    0  501 -0.57745501811E+02 -0.14613867391E+04 -0.21954108503E+04  0.28385180545E+04  0.10480315833E+04 0.  0.
        -13    1    3    3    0    0 -0.23794944716E+03  0.13679113964E+03 -0.10206942525E+04  0.10569524698E+04  0.10566000000E+00 0.  1.
          4    1    3    3  502    0  0.29569494897E+03  0.13245955994E+04 -0.13758321794E+04  0.19325897626E+04  0.00000000000E+00 0.  1.
         13    1    4    4    0    0 -0.11353260620E+03 -0.12898176861E+04 -0.10172056591E+04  0.16465802987E+04  0.10566000000E+00 0. -1.
         -4    1    4    4    0  501  0.55787104384E+02 -0.17156905300E+03 -0.11782051913E+04  0.11919377558E+04  0.00000000000E+00 0. -1.
<mgrwt>
<rscale>  2 0.17932141E+04</rscale>
<asrwt>0</asrwt>
<pdfrwt beam="2">  1        2 0.80153826E+00 0.17932141E+04</pdfrwt>
<pdfrwt beam="1">  1       -2 0.95086387E-01 0.17932141E+04</pdfrwt>
<totfact> 0.35502464E-02</totfact>
</mgrwt>
</event>
<event>
 8    1  0.1439553E-005  0.1184611E+04  0.7818608E-02  0.8618241E-01
          1   -1    0    0  502    0  0.00000000000E+00  0.00000000000E+00  0.17518501970E+04  0.17518501970E+04  0.00000000000E+00 0. -1.
         -1   -1    0    0    0  501 -0.00000000000E+00 -0.00000000000E+00 -0.80400650778E+03  0.80400650778E+03  0.00000000000E+00 0.  1.
    9000010    2    1    2  502    0  0.48402645308E+03  0.89380240594E+02  0.52990585288E+03  0.13606224208E+04  0.11524854551E+04 0.  0.
   -9000010    2    1    2    0  501 -0.48402645308E+03 -0.89380240594E+02  0.41793783635E+03  0.11952342840E+04  0.10058044164E+04 0.  0.
        -13    1    3    3    0    0  0.85690635349E+03  0.14611604815E+03  0.30359804066E+03  0.92076608302E+03  0.10566000000E+00 0.  1.
          4    1    3    3  502    0 -0.37287990041E+03 -0.56735807552E+02  0.22630781221E+03  0.43985633775E+03  0.00000000000E+00 0.  1.
         13    1    4    4    0    0 -0.18846535545E+03 -0.54447437821E+03  0.19042958753E+03  0.60682367926E+03  0.10566000000E+00 0. -1.
         -4    1    4    4    0  501 -0.29556109762E+03  0.45509413762E+03  0.22750824881E+03  0.58841060476E+03  0.00000000000E+00 0. -1.
<mgrwt>
<rscale>  2 0.11846113E+04</rscale>
<asrwt>0</asrwt>
<pdfrwt beam="1">  1        1 0.26951541E+00 0.11846113E+04</pdfrwt>
<pdfrwt beam="2">  1       -1 0.12369331E+00 0.11846113E+04</pdfrwt>
<totfact> 0.35510036E+00</totfact>
</mgrwt>
</event>
<event>
 8    1  0.1439553E-005  0.1103733E+04  0.7818608E-02  0.8682808E-01
         -2   -1    0    0    0  501 -0.00000000000E+00  0.00000000000E+00  0.14643333430E+04  0.14643333430E+04  0.00000000000E+00 0.  1.
          2   -1    0    0  502    0  0.00000000000E+00 -0.00000000000E+00 -0.87494578472E+03  0.87494578472E+03  0.00000000000E+00 0. -1.
    9000010    2    1    2  502    0 -0.27589553681E+03 -0.42771531981E+03  0.38294638042E+02  0.11150525457E+04  0.99137125150E+03 0.  0.
   -9000010    2    1    2    0  501  0.27589553681E+03  0.42771531981E+03  0.55109292020E+03  0.12242265820E+04  0.96745468905E+03 0.  0.
        -13    1    3    3    0    0 -0.60393045290E+02 -0.67159366429E+03  0.25844488089E+03  0.72213512410E+03  0.10566000000E+00 0.  1.
          4    1    3    3  502    0 -0.21550249152E+03  0.24387834448E+03 -0.22015024285E+03  0.39291742158E+03  0.00000000000E+00 0.  1.
         13    1    4    4    0    0  0.22749311259E+03 -0.26578461761E+02  0.70567820859E+03  0.74191729738E+03  0.10566000000E+00 0. -1.
         -4    1    4    4    0  501  0.48402424218E+02  0.45429378157E+03 -0.15458528840E+03  0.48230928462E+03  0.00000000000E+00 0. -1.
<mgrwt>
<rscale>  2 0.11037329E+04</rscale>
<asrwt>0</asrwt>
<pdfrwt beam="2">  1        2 0.13460704E+00 0.11037329E+04</pdfrwt>
<pdfrwt beam="1">  1       -2 0.22528205E+00 0.11037329E+04</pdfrwt>
<totfact> 0.28792964E+00</totfact>
</mgrwt>
</event>
<event>
 8    1  0.1439553E-005  0.1529652E+04  0.7818608E-02  0.8392636E-01
         -1   -1    0    0    0  501 -0.00000000000E+00  0.00000000000E+00  0.11118382547E+04  0.11118382547E+04  0.00000000000E+00 0.  1.
          1   -1    0    0  502    0  0.00000000000E+00 -0.00000000000E+00 -0.21044912182E+04  0.21044912182E+04  0.00000000000E+00 0. -1.
    9000010    2    1    2  502    0 -0.66030123634E+03  0.94327820596E+03 -0.50088478580E+03  0.16103109030E+04  0.10081885434E+04 0.  0.
   -9000010    2    1    2    0  501  0.66030123634E+03 -0.94327820596E+03 -0.49176817764E+03  0.16060185699E+04  0.10058271272E+04 0.  0.
        -13    1    3    3    0    0 -0.52800880148E+03  0.93709929080E+03 -0.76155933945E+03  0.13179229924E+04  0.10566000000E+00 0.  1.
          4    1    3    3  502    0 -0.13229243486E+03  0.61789151614E+01  0.26067455365E+03  0.29238791055E+03  0.00000000000E+00 0.  1.
         13    1    4    4    0    0 -0.66521999261E+02 -0.59195777577E+03 -0.53070581446E+03  0.79780189104E+03  0.10566000000E+00 0. -1.
         -4    1    4    4    0  501  0.72682323560E+03 -0.35132043019E+03  0.38937636814E+02  0.80821667889E+03  0.00000000000E+00 0. -1.
<mgrwt>
<rscale>  2 0.15296524E+04</rscale>
<asrwt>0</asrwt>
<pdfrwt beam="2">  1        1 0.32376788E+00 0.15296524E+04</pdfrwt>
<pdfrwt beam="1">  1       -1 0.17105204E+00 0.15296524E+04</pdfrwt>
<totfact> 0.70904743E-01</totfact>
</mgrwt>
</event>
<event>
 8    1  0.1439553E-005  0.1363402E+04  0.7818608E-02  0.8492729E-01
         -4   -1    0    0    0  501 -0.00000000000E+00  0.00000000000E+00  0.34283770788E+04  0.34283770788E+04  0.00000000000E+00 0. -1.
          4   -1    0    0  502    0  0.00000000000E+00 -0.00000000000E+00 -0.54691303614E+03  0.54691303614E+03  0.00000000000E+00 0.  1.
    9000010    2    1    2  502    0  0.79524052907E+03  0.49020152624E+03  0.12552011446E+04  0.18525019151E+04  0.99173000202E+03 0.  0.
   -9000010    2    1    2    0  501 -0.79524052907E+03 -0.49020152624E+03  0.16262628981E+04  0.21227881998E+04  0.99438105981E+03 0.  0.
        -13    1    3    3    0    0  0.52493972334E+02  0.38343058156E+03 -0.35892449898E+01  0.38702392930E+03  0.10566000000E+00 0.  1.
          4    1    3    3  502    0  0.74274655673E+03  0.10677094468E+03  0.12587903895E+04  0.14654779858E+04  0.00000000000E+00 0.  1.
         13    1    4    4    0    0 -0.64169739491E+03 -0.37973399210E+03  0.17462569761E+04  0.18987856354E+04  0.10566000000E+00 0. -1.
         -4    1    4    4    0  501 -0.15354313416E+03 -0.11046753414E+03 -0.11999407795E+03  0.22400256447E+03  0.00000000000E+00 0. -1.
<mgrwt>
<rscale>  2 0.13634017E+04</rscale>
<asrwt>0</asrwt>
<pdfrwt beam="2">  1        4 0.84140470E-01 0.13634017E+04</pdfrwt>
<pdfrwt beam="1">  1       -4 0.52744261E+00 0.13634017E+04</pdfrwt>
<totfact> 0.50856776E-02</totfact>
</mgrwt>
</event>
<event>
 8    1  0.1439553E-005  0.1269255E+04  0.7818608E-02  0.8556160E-01
          2   -1    0    0  502    0  0.00000000000E+00  0.00000000000E+00  0.19164564880E+04  0.19164564880E+04  0.00000000000E+00 0. -1.
         -2   -1    0    0    0  501 -0.00000000000E+00 -0.00000000000E+00 -0.84083532535E+03  0.84083532535E+03  0.00000000000E+00 0.  1.
    9000010    2    1    2  502    0 -0.48199350924E+03 -0.62754199431E+03  0.51413526889E+03  0.13644412049E+04  0.98551409388E+03 0.  0.
   -9000010    2    1    2    0  501  0.48199350924E+03  0.62754199431E+03  0.56148589378E+03  0.13928506085E+04  0.99931962410E+03 0.  0.
        -13    1    3    3    0    0 -0.31740824387E+03 -0.84325333446E+03  0.59687187827E+03  0.10807776041E+04  0.10566000000E+00 0.  1.
          4    1    3    3  502    0 -0.16458526537E+03  0.21571134015E+03 -0.82736609388E+02  0.28366360073E+03  0.00000000000E+00 0.  1.
         13    1    4    4    0    0  0.12535462844E+03 -0.25839253683E+03  0.44133008402E+01  0.28722808767E+03  0.10566000000E+00 0. -1.
         -4    1    4    4    0  501  0.35663888081E+03  0.88593453113E+03  0.55707259294E+03  0.11056225208E+04  0.00000000000E+00 0. -1.
<mgrwt>
<rscale>  2 0.12692546E+04</rscale>
<asrwt>0</asrwt>
<pdfrwt beam="1">  1        2 0.29483946E+00 0.12692546E+04</pdfrwt>
<pdfrwt beam="2">  1       -2 0.12935928E+00 0.12692546E+04</pdfrwt>
<totfact> 0.47607814E+00</totfact>
</mgrwt>
</event>
<event>
 8    1  0.1439553E-005  0.1102396E+04  0.7818608E-02  0.8683924E-01
         -2   -1    0    0    0  501 -0.00000000000E+00  0.00000000000E+00  0.48399932463E+03  0.48399932463E+03  0.00000000000E+00 0. -1.
          2   -1    0    0  502    0  0.00000000000E+00 -0.00000000000E+00 -0.29477905459E+04  0.29477905459E+04  0.00000000000E+00 0.  1.
    9000010    2    1    2  502    0  0.44542432946E+03  0.14552500140E+02 -0.18894754794E+04  0.21859789889E+04  0.10048740936E+04 0.  0.
   -9000010    2    1    2    0  501 -0.44542432946E+03 -0.14552500140E+02 -0.57431574186E+03  0.12458108817E+04  0.10117270249E+04 0.  0.
        -13    1    3    3    0    0 -0.92990490272E+02 -0.25163145729E+03 -0.13571558881E+04  0.13834152440E+04  0.10566000000E+00 0.  1.
          4    1    3    3  502    0  0.53841481973E+03  0.26618395743E+03 -0.53231959136E+03  0.80256374491E+03  0.00000000000E+00 0.  1.
         13    1    4    4    0    0 -0.52255246867E+03 -0.28389779186E+03 -0.71689347468E+03  0.93144796094E+03  0.10566000000E+00 0. -1.
         -4    1    4    4    0  501  0.77128139205E+02  0.26934529172E+03  0.14257773282E+03  0.31436292072E+03  0.00000000000E+00 0. -1.
<mgrwt>
<rscale>  2 0.11023959E+04</rscale>
<asrwt>0</asrwt>
<pdfrwt beam="2">  1        2 0.45350625E+00 0.11023959E+04</pdfrwt>
<pdfrwt beam="1">  1       -2 0.74461433E-01 0.11023959E+04</pdfrwt>
<totfact> 0.47953956E+00</totfact>
</mgrwt>
</event>
<event>
 8    1  0.1439553E-005  0.1332738E+04  0.7818608E-02  0.8512794E-01
         -2   -1    0    0    0  501 -0.00000000000E+00  0.00000000000E+00  0.15857186274E+04  0.15857186274E+04  0.00000000000E+00 0. -1.
          2   -1    0    0  502    0  0.00000000000E+00 -0.00000000000E+00 -0.11282120452E+04  0.11282120452E+04  0.00000000000E+00 0.  1.
    9000010    2    1    2  502    0 -0.17285031651E+03  0.87036900331E+03  0.11455666410E+03  0.13415962087E+04  0.99966880724E+03 0.  0.
   -9000010    2    1    2    0  501  0.17285031651E+03 -0.87036900331E+03  0.34294991808E+03  0.13723344639E+04  0.98907421395E+03 0.  0.
        -13    1    3    3    0    0 -0.23120737804E+03  0.68000010978E+03 -0.37705770101E+03  0.81119018856E+03  0.10566000000E+00 0.  1.
          4    1    3    3  502    0  0.58357061528E+02  0.19036889352E+03  0.49161436511E+03  0.53040602017E+03  0.00000000000E+00 0.  1.
         13    1    4    4    0    0  0.31110271600E+03  0.11338090733E+03  0.13384871250E+03  0.35714929518E+03  0.10566000000E+00 0. -1.
         -4    1    4    4    0  501 -0.13825239949E+03 -0.98374991063E+03  0.20910120558E+03  0.10151851687E+04  0.00000000000E+00 0. -1.
<mgrwt>
<rscale>  2 0.13327381E+04</rscale>
<asrwt>0</asrwt>
<pdfrwt beam="2">  1        2 0.17357108E+00 0.13327381E+04</pdfrwt>
<pdfrwt beam="1">  1       -2 0.24395671E+00 0.13327381E+04</pdfrwt>
<totfact> 0.13992647E+00</totfact>
</mgrwt>
</event>
<event>
 8    1  0.1439553E-005  0.1285432E+04  0.7818608E-02  0.8544865E-01
          2   -1    0    0  502    0  0.00000000000E+00  0.00000000000E+00  0.16497830369E+04  0.16497830369E+04  0.00000000000E+00 0.  1.
         -2   -1    0    0    0  501 -0.00000000000E+00 -0.00000000000E+00 -0.10034129650E+04  0.10034129650E+04  0.00000000000E+00 0. -1.
    9000010    2    1    2  502    0  0.24385755764E+03 -0.79264723784E+03  0.27089726950E+03  0.13265614307E+04  0.99931163640E+03 0.  0.
   -9000010    2    1    2    0  501 -0.24385755764E+03  0.79264723784E+03  0.37547280240E+03  0.13266345712E+04  0.96499912339E+03 0.  0.
        -13    1    3    3    0    0  0.18173693573E+03 -0.90710023302E+03  0.50846011131E+03  0.10556471203E+04  0.10566000000E+00 0.  1.
          4    1    3    3  502    0  0.62120621910E+02  0.11445299518E+03 -0.23756284181E+03  0.27091431040E+03  0.00000000000E+00 0.  1.
         13    1    4    4    0    0 -0.12174000052E+03 -0.87972450136E+02  0.41027789078E+03  0.43690701360E+03  0.10566000000E+00 0. -1.
         -4    1    4    4    0  501 -0.12211755712E+03  0.88061968797E+03 -0.34805088379E+02  0.88972755762E+03  0.00000000000E+00 0. -1.
<mgrwt>
<rscale>  2 0.12854322E+04</rscale>
<asrwt>0</asrwt>
<pdfrwt beam="1">  1        2 0.25381277E+00 0.12854322E+04</pdfrwt>
<pdfrwt beam="2">  1       -2 0.15437123E+00 0.12854322E+04</pdfrwt>
<totfact> 0.39530810E+00</totfact>
</mgrwt>
</event>
<event>
 8    1  0.1439553E-005  0.1356501E+04  0.7818608E-02  0.8497197E-01
         -1   -1    0    0    0  501 -0.00000000000E+00  0.00000000000E+00  0.29196039825E+04  0.29196039825E+04  0.00000000000E+00 0. -1.
          1   -1    0    0  502    0  0.00000000000E+00 -0.00000000000E+00 -0.67362678627E+03  0.67362678627E+03  0.00000000000E+00 0.  1.
    9000010    2    1    2  502    0  0.50652141299E+02  0.92775135538E+03  0.66264106072E+03  0.15044505219E+04  0.98030096431E+03 0.  0.
   -9000010    2    1    2    0  501 -0.50652141299E+02 -0.92775135538E+03  0.15833361355E+04  0.20887802469E+04  0.99637411896E+03 0.  0.
        -13    1    3    3    0    0 -0.42390415064E+03  0.35600278262E+03  0.49530783409E+03  0.74280722387E+03  0.10566000000E+00 0.  1.
          4    1    3    3  502    0  0.47455629194E+03  0.57174857277E+03  0.16733322663E+03  0.76164329802E+03  0.00000000000E+00 0.  1.
         13    1    4    4    0    0  0.18774104822E+03  0.15675652570E+03  0.37513949840E+03  0.44782693528E+03  0.10566000000E+00 0. -1.
         -4    1    4    4    0  501 -0.23839318952E+03 -0.10845078811E+04  0.12081966371E+04  0.16409533116E+04  0.00000000000E+00 0. -1.
<mgrwt>
<rscale>  2 0.13565011E+04</rscale>
<asrwt>0</asrwt>
<pdfrwt beam="2">  1        1 0.10363489E+00 0.13565011E+04</pdfrwt>
<pdfrwt beam="1">  1       -1 0.44916984E+00 0.13565011E+04</pdfrwt>
<totfact> 0.43406999E-01</totfact>
</mgrwt>
</event>
<event>
 8    1  0.1439553E-005  0.1402555E+04  0.7818608E-02  0.8467884E-01
          1   -1    0    0  502    0  0.00000000000E+00  0.00000000000E+00  0.16252243796E+04  0.16252243796E+04  0.00000000000E+00 0.  1.
         -1   -1    0    0    0  501 -0.00000000000E+00 -0.00000000000E+00 -0.12517930441E+04  0.12517930441E+04  0.00000000000E+00 0. -1.
    9000010    2    1    2  502    0 -0.86575530081E+03  0.43673088538E+03 -0.73187040647E+02  0.14157477150E+04  0.10289407867E+04 0.  0.
   -9000010    2    1    2    0  501  0.86575530081E+03 -0.43673088538E+03  0.44661837606E+03  0.14612697086E+04  0.99778508729E+03 0.  0.
        -13    1    3    3    0    0 -0.84562666351E+03  0.56604431232E+03 -0.37681406901E+03  0.10851172616E+04  0.10566000000E+00 0.  1.
          4    1    3    3  502    0 -0.20128637305E+02 -0.12931342695E+03  0.30362702836E+03  0.33063045350E+03  0.00000000000E+00 0.  1.
         13    1    4    4    0    0  0.59496126459E+03 -0.32882689472E+03 -0.23554412760E+03  0.71943525092E+03  0.10566000000E+00 0. -1.
         -4    1    4    4    0  501  0.27079403623E+03 -0.10790399065E+03  0.68216250366E+03  0.74183445772E+03  0.00000000000E+00 0. -1.
<mgrwt>
<rscale>  2 0.14025548E+04</rscale>
<asrwt>0</asrwt>
<pdfrwt beam="1">  1        1 0.25003452E+00 0.14025548E+04</pdfrwt>
<pdfrwt beam="2">  1       -1 0.19258354E+00 0.14025548E+04</pdfrwt>
<totfact> 0.10761227E+00</totfact>
</mgrwt>
</event>
<event>
 8    1  0.1439553E-005  0.1999555E+04  0.7818608E-02  0.8168573E-01
         -1   -1    0    0    0  501 -0.00000000000E+00  0.00000000000E+00  0.16555868839E+04  0.16555868839E+04  0.00000000000E+00 0. -1.
          1   -1    0    0  502    0  0.00000000000E+00 -0.00000000000E+00 -0.24834369632E+04  0.24834369632E+04  0.00000000000E+00 0.  1.
    9000010    2    1    2  502    0  0.16330888994E+04  0.55404041716E+03 -0.75755043838E+03  0.21384641555E+04  0.10125246370E+04 0.  0.
   -9000010    2    1    2    0  501 -0.16330888994E+04 -0.55404041716E+03 -0.70299640984E+02  0.20005596916E+04  0.10116110432E+04 0.  0.
        -13    1    3    3    0    0  0.12081126025E+04 -0.88393198250E+02 -0.32129785837E+03  0.12532285278E+04  0.10566000000E+00 0.  1.
          4    1    3    3  502    0  0.42497629693E+03  0.64243361541E+03 -0.43625258000E+03  0.88523562780E+03  0.00000000000E+00 0.  1.
         13    1    4    4    0    0  0.43598369000E+02  0.10518663865E+03  0.14692775238E+03  0.18588389471E+03  0.10566000000E+00 0. -1.
         -4    1    4    4    0  501 -0.16766872684E+04 -0.65922705581E+03 -0.21722739336E+03  0.18146757968E+04  0.00000000000E+00 0. -1.
<mgrwt>
<rscale>  2 0.19995553E+04</rscale>
<asrwt>0</asrwt>
<pdfrwt beam="2">  1        1 0.38206722E+00 0.19995553E+04</pdfrwt>
<pdfrwt beam="1">  1       -1 0.25470568E+00 0.19995553E+04</pdfrwt>
<totfact> 0.54512954E-02</totfact>
</mgrwt>
</event>
<event>
 8    1  0.1439553E-005  0.1178308E+04  0.7818608E-02  0.8623078E-01
         -4   -1    0    0    0  501 -0.00000000000E+00  0.00000000000E+00  0.53247260948E+03  0.53247260948E+03  0.00000000000E+00 0. -1.
          4   -1    0    0  502    0  0.00000000000E+00 -0.00000000000E+00 -0.34100150019E+04  0.34100150019E+04  0.00000000000E+00 0.  1.
    9000010    2    1    2  502    0 -0.61479446375E+03  0.63960255418E+02 -0.23878386692E+04  0.26593693528E+04  0.99418745598E+03 0.  0.
   -9000010    2    1    2    0  501  0.61479446375E+03 -0.63960255418E+02 -0.48970372326E+03  0.12831182586E+04  0.10121855472E+04 0.  0.
        -13    1    3    3    0    0  0.26407100821E+03  0.74503566119E+02 -0.78189330487E+03  0.82863829872E+03  0.10566000000E+00 0.  1.
          4    1    3    3  502    0 -0.87886547196E+03 -0.10543310701E+02 -0.16059453643E+04  0.18307310541E+04  0.00000000000E+00 0.  1.
         13    1    4    4    0    0  0.87105753926E+03  0.60945349894E+02 -0.48318805151E+03  0.99796105969E+03  0.10566000000E+00 0. -1.
         -4    1    4    4    0  501 -0.25626307551E+03 -0.12490560531E+03 -0.65156717470E+01  0.28515719890E+03  0.00000000000E+00 0. -1.
<mgrwt>
<rscale>  2 0.11783081E+04</rscale>
<asrwt>0</asrwt>
<pdfrwt beam="2">  1        4 0.52461770E+00 0.11783081E+04</pdfrwt>
<pdfrwt beam="1">  1       -4 0.81918862E-01 0.11783081E+04</pdfrwt>
<totfact> 0.56271776E-02</totfact>
</mgrwt>
</event>
<event>
 8    1  0.1439553E-005  0.1448861E+04  0.7818608E-02  0.8439552E-01
          2   -1    0    0  502    0  0.00000000000E+00  0.00000000000E+00  0.19093369246E+04  0.19093369246E+04  0.00000000000E+00 0.  1.
         -2   -1    0    0    0  501 -0.00000000000E+00 -0.00000000000E+00 -0.11204299902E+04  0.11204299902E+04  0.00000000000E+00 0. -1.
    9000010    2    1    2  502    0 -0.96007227471E+03 -0.23442932958E+03  0.59351425193E+03  0.15429020618E+04  0.10254714633E+04 0.  0.
   -9000010    2    1    2    0  501  0.96007227471E+03  0.23442932958E+03  0.19539268250E+03  0.14868648530E+04  0.10935688856E+04 0.  0.
        -13    1    3    3    0    0 -0.35594171874E+03 -0.41706605134E+03 -0.14920370353E+03  0.56824321785E+03  0.10566000000E+00 0.  1.
          4    1    3    3  502    0 -0.60413055597E+03  0.18263672176E+03  0.74271795546E+03  0.97465884398E+03  0.00000000000E+00 0.  1.
         13    1    4    4    0    0  0.11069133465E+04  0.46368307886E+03  0.18614794909E+03  0.12144588196E+04  0.10566000000E+00 0. -1.
         -4    1    4    4    0  501 -0.14684107183E+03 -0.22925374928E+03  0.92447334093E+01  0.27240603340E+03  0.00000000000E+00 0. -1.
<mgrwt>
<rscale>  2 0.14488612E+04</rscale>
<asrwt>0</asrwt>
<pdfrwt beam="1">  1        2 0.29374414E+00 0.14488612E+04</pdfrwt>
<pdfrwt beam="2">  1       -2 0.17237384E+00 0.14488612E+04</pdfrwt>
<totfact> 0.19660522E+00</totfact>
</mgrwt>
</event>
<event>
 8    1  0.1439553E-005  0.1109235E+04  0.7818608E-02  0.8678236E-01
         -1   -1    0    0    0  501 -0.00000000000E+00  0.00000000000E+00  0.33245929314E+04  0.33245929314E+04  0.00000000000E+00 0.  1.
          1   -1    0    0  502    0  0.00000000000E+00 -0.00000000000E+00 -0.38786641882E+03  0.38786641882E+03  0.00000000000E+00 0. -1.
    9000010    2    1    2  502    0 -0.17208720171E+03  0.47547570070E+03  0.10599602585E+04  0.15278128351E+04  0.97724365566E+03 0.  0.
   -9000010    2    1    2    0  501  0.17208720171E+03 -0.47547570070E+03  0.18767662541E+04  0.21846465152E+04  0.99736536770E+03 0.  0.
        -13    1    3    3    0    0 -0.55987103374E+03  0.12079575079E+03  0.50623882847E+03  0.76441150596E+03  0.10566000000E+00 0.  1.
          4    1    3    3  502    0  0.38778383203E+03  0.35467994991E+03  0.55372143001E+03  0.76340132913E+03  0.00000000000E+00 0.  1.
         13    1    4    4    0    0 -0.27038137799E+03 -0.56932264009E+03  0.13530814883E+04  0.14926700517E+04  0.10566000000E+00 0. -1.
         -4    1    4    4    0  501  0.44246857969E+03  0.93846939385E+02  0.52368476580E+03  0.69197646346E+03  0.00000000000E+00 0. -1.
<mgrwt>
<rscale>  2 0.11092350E+04</rscale>
<asrwt>0</asrwt>
<pdfrwt beam="2">  1        1 0.59671759E-01 0.11092350E+04</pdfrwt>
<pdfrwt beam="1">  1       -1 0.51147582E+00 0.11092350E+04</pdfrwt>
<totfact> 0.76364248E-01</totfact>
</mgrwt>
</event>
<event>
 8    1  0.1439553E-005  0.1483527E+04  0.7818608E-02  0.8419043E-01
         -1   -1    0    0    0  501 -0.00000000000E+00  0.00000000000E+00  0.97730016728E+03  0.97730016728E+03  0.00000000000E+00 0.  1.
          1   -1    0    0  502    0  0.00000000000E+00 -0.00000000000E+00 -0.22572544318E+04  0.22572544318E+04  0.00000000000E+00 0. -1.
    9000010    2    1    2  502    0 -0.31820127944E+03  0.10491464685E+04 -0.55775289636E+03  0.15739817368E+04  0.98202334375E+03 0.  0.
   -9000010    2    1    2    0  501  0.31820127944E+03 -0.10491464685E+04 -0.72220136817E+03  0.16605728623E+04  0.10168417027E+04 0.  0.
        -13    1    3    3    0    0 -0.47857905798E+03  0.85933115423E+03 -0.76843729942E+03  0.12481922295E+04  0.10566000000E+00 0.  1.
          4    1    3    3  502    0  0.16037777854E+03  0.18981531427E+03  0.21068440306E+03  0.32578950731E+03  0.00000000000E+00 0.  1.
         13    1    4    4    0    0  0.51572665612E+03 -0.50439005494E+03  0.16684675938E+02  0.72156891628E+03  0.10566000000E+00 0. -1.
         -4    1    4    4    0  501 -0.19752537668E+03 -0.54475641355E+03 -0.73888604411E+03  0.93900394606E+03  0.00000000000E+00 0. -1.
<mgrwt>
<rscale>  2 0.14835275E+04</rscale>
<asrwt>0</asrwt>
<pdfrwt beam="2">  1        1 0.34726991E+00 0.14835275E+04</pdfrwt>
<pdfrwt beam="1">  1       -1 0.15035387E+00 0.14835275E+04</pdfrwt>
<totfact> 0.81303086E-01</totfact>
</mgrwt>
</event>
<event>
 8    1  0.1439553E-005  0.1636190E+04  0.7818608E-02  0.8335163E-01
         -2   -1    0    0    0  501 -0.00000000000E+00  0.00000000000E+00  0.85767881923E+03  0.85767881923E+03  0.00000000000E+00 0. -1.
          2   -1    0    0  502    0  0.00000000000E+00 -0.00000000000E+00 -0.31613168167E+04  0.31613168167E+04  0.00000000000E+00 0.  1.
    9000010    2    1    2  502    0 -0.45443957606E+03 -0.12145187283E+04 -0.92545831009E+03  0.18792576713E+04  0.99677742838E+03 0.  0.
   -9000010    2    1    2    0  501  0.45443957606E+03  0.12145187283E+04 -0.13781796874E+04  0.21397379646E+04  0.99876335383E+03 0.  0.
        -13    1    3    3    0    0  0.85598421135E+02 -0.79076883194E+03 -0.93803823235E+02  0.80090049550E+03  0.10566000000E+00 0.  1.
          4    1    3    3  502    0 -0.54003799719E+03 -0.42374989634E+03 -0.83165448686E+03  0.10783571758E+04  0.00000000000E+00 0.  1.
         13    1    4    4    0    0 -0.20816874879E+02  0.47979966366E+03  0.30707129073E+02  0.48123175131E+03  0.10566000000E+00 0. -1.
         -4    1    4    4    0  501  0.47525645094E+03  0.73471906462E+03 -0.14088868164E+04  0.16585062133E+04  0.00000000000E+00 0. -1.
<mgrwt>
<rscale>  2 0.16361898E+04</rscale>
<asrwt>0</asrwt>
<pdfrwt beam="2">  1        2 0.48635643E+00 0.16361898E+04</pdfrwt>
<pdfrwt beam="1">  1       -2 0.13195059E+00 0.16361898E+04</pdfrwt>
<totfact> 0.82634816E-01</totfact>
</mgrwt>
</event>
<event>
 8    1  0.1439553E-005  0.1272360E+04  0.7818608E-02  0.8553978E-01
         -1   -1    0    0    0  501 -0.00000000000E+00  0.00000000000E+00  0.96745374665E+03  0.96745374665E+03  0.00000000000E+00 0. -1.
          1   -1    0    0  502    0  0.00000000000E+00 -0.00000000000E+00 -0.17804633627E+04  0.17804633627E+04  0.00000000000E+00 0.  1.
    9000010    2    1    2  502    0  0.39153340403E+03 -0.71887193666E+03 -0.74558409202E+03  0.14810375453E+04  0.98361644170E+03 0.  0.
   -9000010    2    1    2    0  501 -0.39153340403E+03  0.71887193666E+03 -0.67425524053E+02  0.12668795641E+04  0.96455293319E+03 0.  0.
        -13    1    3    3    0    0  0.52349887562E+03 -0.46482052430E+03 -0.19273857115E+02  0.70034326249E+03  0.10566000000E+00 0.  1.
          4    1    3    3  502    0 -0.13196547158E+03 -0.25405141236E+03 -0.72631023491E+03  0.78069428277E+03  0.00000000000E+00 0.  1.
         13    1    4    4    0    0  0.30967789551E+03  0.34183744153E+03 -0.92064435376E+02  0.47034998334E+03  0.10566000000E+00 0. -1.
         -4    1    4    4    0  501 -0.70121129954E+03  0.37703449512E+03  0.24638911322E+02  0.79652958079E+03  0.00000000000E+00 0. -1.
<mgrwt>
<rscale>  2 0.12723602E+04</rscale>
<asrwt>0</asrwt>
<pdfrwt beam="2">  1        1 0.27391744E+00 0.12723602E+04</pdfrwt>
<pdfrwt beam="1">  1       -1 0.14883904E+00 0.12723602E+04</pdfrwt>
<totfact> 0.20139396E+00</totfact>
</mgrwt>
</event>
<event>
 8    1  0.1439553E-005  0.1189185E+04  0.7818608E-02  0.8614751E-01
          2   -1    0    0  502    0  0.00000000000E+00  0.00000000000E+00  0.26906059911E+04  0.26906059911E+04  0.00000000000E+00 0.  1.
         -2   -1    0    0    0  501 -0.00000000000E+00 -0.00000000000E+00 -0.65933855617E+03  0.65933855617E+03  0.00000000000E+00 0. -1.
    9000010    2    1    2  502    0 -0.14904959037E+03  0.63204561337E+03  0.26034384629E+03  0.12160521355E+04  0.99463884911E+03 0.  0.
   -9000010    2    1    2    0  501  0.14904959037E+03 -0.63204561337E+03  0.17709235886E+04  0.21338924118E+04  0.99781212182E+03 0.  0.
        -13    1    3    3    0    0  0.28334123225E+03  0.53271692537E+03 -0.13894970208E+03  0.61917413330E+03  0.10566000000E+00 0.  1.
          4    1    3    3  502    0 -0.43239082261E+03  0.99328688000E+02  0.39929354837E+03  0.59687800220E+03  0.00000000000E+00 0.  1.
         13    1    4    4    0    0  0.28155790707E+03 -0.43323137795E+03  0.21483793689E+03  0.55957093577E+03  0.10566000000E+00 0. -1.
         -4    1    4    4    0  501 -0.13250831670E+03 -0.19881423542E+03  0.15560856518E+04  0.15743214760E+04  0.00000000000E+00 0. -1.
<mgrwt>
<rscale>  2 0.11891853E+04</rscale>
<asrwt>0</asrwt>
<pdfrwt beam="1">  1        2 0.41393938E+00 0.11891853E+04</pdfrwt>
<pdfrwt beam="2">  1       -2 0.10143670E+00 0.11891853E+04</pdfrwt>
<totfact> 0.33457327E+00</totfact>
</mgrwt>
</event>
<event>
 8    1  0.1439553E-005  0.1723773E+04  0.7818608E-02  0.8291200E-01
         -2   -1    0    0    0  501 -0.00000000000E+00  0.00000000000E+00  0.12147110821E+04  0.12147110821E+04  0.00000000000E+00 0.  1.
          2   -1    0    0  502    0  0.00000000000E+00 -0.00000000000E+00 -0.24474928037E+04  0.24474928037E+04  0.00000000000E+00 0. -1.
    9000010    2    1    2  502    0 -0.15609951523E+03  0.13608863476E+04 -0.59176970880E+03  0.18460831503E+04  0.10869465948E+04 0.  0.
   -9000010    2    1    2    0  501  0.15609951523E+03 -0.13608863476E+04 -0.64101201276E+03  0.18161207354E+04  0.10054946123E+04 0.  0.
        -13    1    3    3    0    0  0.32102703667E+03  0.53904061280E+03 -0.63780819816E+03  0.89466331618E+03  0.10566000000E+00 0.  1.
          4    1    3    3  502    0 -0.47712655190E+03  0.82184573479E+03  0.46038489357E+02  0.95141983416E+03  0.00000000000E+00 0.  1.
         13    1    4    4    0    0  0.43552941945E+03 -0.79005364259E+03  0.15622038045E+02  0.90228304462E+03  0.10566000000E+00 0. -1.
         -4    1    4    4    0  501 -0.27942990422E+03 -0.57083270500E+03 -0.65663405081E+03  0.91383769082E+03  0.00000000000E+00 0. -1.
<mgrwt>
<rscale>  2 0.17237729E+04</rscale>
<asrwt>0</asrwt>
<pdfrwt beam="2">  1        2 0.37653736E+00 0.17237729E+04</pdfrwt>
<pdfrwt beam="1">  1       -2 0.18687863E+00 0.17237729E+04</pdfrwt>
<totfact> 0.73067550E-01</totfact>
</mgrwt>
</event>
<event>
 8    1  0.1439553E-005  0.1280460E+04  0.7818608E-02  0.8548318E-01
         -2   -1    0    0    0  501 -0.00000000000E+00  0.00000000000E+00  0.84968297517E+03  0.84968297517E+03  0.00000000000E+00 0.  1.
          2   -1    0    0  502    0  0.00000000000E+00 -0.00000000000E+00 -0.21642890318E+04  0.21642890318E+04  0.00000000000E+00 0. -1.
    9000010    2    1    2  502    0  0.55684783463E+03  0.56534772246E+03 -0.11550050139E+04  0.17268645716E+04  0.10091219491E+04 0.  0.
   -9000010    2    1    2    0  501 -0.55684783463E+03 -0.56534772246E+03 -0.15960104272E+03  0.12871074354E+04  0.10007374777E+04 0.  0.
        -13    1    3    3    0    0  0.46606913024E+03  0.28626713045E+03 -0.12919865262E+04  0.14029962577E+04  0.10566000000E+00 0.  1.
          4    1    3    3  502    0  0.90778704389E+02  0.27908059201E+03  0.13698151227E+03  0.32386831384E+03  0.00000000000E+00 0.  1.
         13    1    4    4    0    0 -0.32255232323E+03 -0.21691307132E+03  0.41943664310E+03  0.57185521810E+03  0.10566000000E+00 0. -1.
         -4    1    4    4    0  501 -0.23429551140E+03 -0.34843465113E+03 -0.57903768582E+03  0.71525221732E+03  0.00000000000E+00 0. -1.
<mgrwt>
<rscale>  2 0.12804598E+04</rscale>
<asrwt>0</asrwt>
<pdfrwt beam="2">  1        2 0.33296754E+00 0.12804598E+04</pdfrwt>
<pdfrwt beam="1">  1       -2 0.13072046E+00 0.12804598E+04</pdfrwt>
<totfact> 0.33802726E+00</totfact>
</mgrwt>
</event>
<event>
 8    1  0.1439553E-005  0.1229400E+04  0.7818608E-02  0.8584746E-01
          2   -1    0    0  502    0  0.00000000000E+00  0.00000000000E+00  0.20493865538E+04  0.20493865538E+04  0.00000000000E+00 0.  1.
         -2   -1    0    0    0  501 -0.00000000000E+00 -0.00000000000E+00 -0.78704546917E+03  0.78704546917E+03  0.00000000000E+00 0. -1.
    9000010    2    1    2  502    0 -0.52172647075E+03  0.50397478528E+03  0.27469220691E+03  0.12583882913E+04  0.99090675076E+03 0.  0.
   -9000010    2    1    2    0  501  0.52172647075E+03 -0.50397478528E+03  0.98764887774E+03  0.15780437317E+04  0.99427492120E+03 0.  0.
        -13    1    3    3    0    0 -0.25321556955E+02 -0.95167251690E+02  0.45013894378E+03  0.46078527202E+03  0.10566000000E+00 0.  1.
          4    1    3    3  502    0 -0.49640491380E+03  0.59914203697E+03 -0.17544673687E+03  0.79760301929E+03  0.00000000000E+00 0.  1.
         13    1    4    4    0    0  0.42234444498E+03  0.21781202829E+03  0.55511083961E+03  0.73072906421E+03  0.10566000000E+00 0. -1.
         -4    1    4    4    0  501  0.99382025777E+02 -0.72178681356E+03  0.43253803813E+03  0.84731466747E+03  0.00000000000E+00 0. -1.
<mgrwt>
<rscale>  2 0.12294002E+04</rscale>
<asrwt>0</asrwt>
<pdfrwt beam="1">  1        2 0.31529024E+00 0.12294002E+04</pdfrwt>
<pdfrwt beam="2">  1       -2 0.12108392E+00 0.12294002E+04</pdfrwt>
<totfact> 0.48407781E+00</totfact>
</mgrwt>
</event>
<event>
 8    1  0.1439553E-005  0.1244395E+04  0.7818608E-02  0.8573861E-01
         -2   -1    0    0    0  501 -0.00000000000E+00  0.00000000000E+00  0.65034637666E+03  0.65034637666E+03  0.00000000000E+00 0. -1.
          2   -1    0    0  502    0  0.00000000000E+00 -0.00000000000E+00 -0.27930125132E+04  0.27930125132E+04  0.00000000000E+00 0.  1.
    9000010    2    1    2  502    0  0.52861464118E+03  0.54292087619E+03 -0.17299486002E+04  0.21289788689E+04  0.98266593928E+03 0.  0.
   -9000010    2    1    2    0  501 -0.52861464118E+03 -0.54292087619E+03 -0.41271753641E+03  0.13143800210E+04  0.99149511250E+03 0.  0.
        -13    1    3    3    0    0 -0.17867785587E+03  0.49715847161E+03 -0.82229595237E+03  0.97737555040E+03  0.10566000000E+00 0.  1.
          4    1    3    3  502    0  0.70729249705E+03  0.45762404574E+02 -0.90765264779E+03  0.11516033185E+04  0.00000000000E+00 0.  1.
         13    1    4    4    0    0 -0.26971125433E+03 -0.66461114917E+03  0.10301950880E+03  0.72461380795E+03  0.10566000000E+00 0. -1.
         -4    1    4    4    0  501 -0.25890338685E+03  0.12169027299E+03 -0.51573704522E+03  0.58976621306E+03  0.00000000000E+00 0. -1.
<mgrwt>
<rscale>  2 0.12443952E+04</rscale>
<asrwt>0</asrwt>
<pdfrwt beam="2">  1        2 0.42969423E+00 0.12443952E+04</pdfrwt>
<pdfrwt beam="1">  1       -2 0.10005329E+00 0.12443952E+04</pdfrwt>
<totfact> 0.29925307E+00</totfact>
</mgrwt>
</event>
<event>
 8    1  0.1439553E-005  0.1507505E+04  0.7818608E-02  0.8405193E-01
          4   -1    0    0  502    0  0.00000000000E+00  0.00000000000E+00  0.10501718886E+04  0.10501718886E+04  0.00000000000E+00 0. -1.
         -4   -1    0    0    0  501 -0.00000000000E+00 -0.00000000000E+00 -0.23535461010E+04  0.23535461010E+04  0.00000000000E+00 0.  1.
    9000010    2    1    2  502    0  0.11416941920E+04 -0.22353269171E+03 -0.15865075806E+03  0.14883516765E+04  0.91465193260E+03 0.  0.
   -9000010    2    1    2    0  501 -0.11416941920E+04  0.22353269171E+03 -0.11447234543E+04  0.19153663130E+04  0.10023990392E+04 0.  0.
        -13    1    3    3    0    0  0.92640772019E+03  0.12818063007E+03 -0.39253536428E+03  0.10142709506E+04  0.10566000000E+00 0.  1.
          4    1    3    3  502    0  0.21528647177E+03 -0.35171332178E+03  0.23388460621E+03  0.47408072590E+03  0.00000000000E+00 0.  1.
         13    1    4    4    0    0 -0.70503208014E+03 -0.17325907740E+03 -0.12419491199E+03  0.73655504156E+03  0.10566000000E+00 0. -1.
         -4    1    4    4    0  501 -0.43666211183E+03  0.39679176911E+03 -0.10205285423E+04  0.11788112714E+04  0.00000000000E+00 0. -1.
<mgrwt>
<rscale>  2 0.15075054E+04</rscale>
<asrwt>0</asrwt>
<pdfrwt beam="1">  1        4 0.16156491E+00 0.15075054E+04</pdfrwt>
<pdfrwt beam="2">  1       -4 0.36208401E+00 0.15075054E+04</pdfrwt>
<totfact> 0.86096247E-02</totfact>
</mgrwt>
</event>
<event>
 8    1  0.1439553E-005  0.1044377E+04  0.7818608E-02  0.8733977E-01
         -2   -1    0    0    0  501 -0.00000000000E+00  0.00000000000E+00  0.11733947265E+04  0.11733947265E+04  0.00000000000E+00 0.  1.
          2   -1    0    0  502    0  0.00000000000E+00 -0.00000000000E+00 -0.96769513052E+03  0.96769513052E+03  0.00000000000E+00 0. -1.
    9000010    2    1    2  502    0 -0.12880688992E+02 -0.30274352634E+03 -0.10958517681E+03  0.10513778855E+04  0.10007831894E+04 0.  0.
   -9000010    2    1    2    0  501  0.12880688992E+02  0.30274352634E+03  0.31528477280E+03  0.10897119716E+04  0.99812230619E+03 0.  0.
        -13    1    3    3    0    0 -0.42484868956E+03 -0.41560378208E+03 -0.17429662579E+03  0.61935630910E+03  0.10566000000E+00 0.  1.
          4    1    3    3  502    0  0.41196800057E+03  0.11286025574E+03  0.64711448984E+02  0.43202157637E+03  0.00000000000E+00 0.  1.
         13    1    4    4    0    0 -0.47216052666E+02  0.54238119269E+03  0.53190422381E+03  0.76113653722E+03  0.10566000000E+00 0. -1.
         -4    1    4    4    0  501  0.60096741658E+02 -0.23963766636E+03 -0.21661945101E+03  0.32857543434E+03  0.00000000000E+00 0. -1.
<mgrwt>
<rscale>  2 0.10443773E+04</rscale>
<asrwt>0</asrwt>
<pdfrwt beam="2">  1        2 0.14887617E+00 0.10443773E+04</pdfrwt>
<pdfrwt beam="1">  1       -2 0.18052226E+00 0.10443773E+04</pdfrwt>
<totfact> 0.59100571E+00</totfact>
</mgrwt>
</event>
<event>
 8    1  0.1439553E-005  0.1342338E+04  0.7818608E-02  0.8506453E-01
          1   -1    0    0  502    0  0.00000000000E+00  0.00000000000E+00  0.77300293480E+03  0.77300293480E+03  0.00000000000E+00 0.  1.
         -1   -1    0    0    0  501 -0.00000000000E+00 -0.00000000000E+00 -0.23547663062E+04  0.23547663062E+04  0.00000000000E+00 0. -1.
    9000010    2    1    2  502    0  0.12454463077E+02  0.89621216257E+03 -0.63515044358E+03  0.14871140150E+04  0.10023675242E+04 0.  0.
   -9000010    2    1    2    0  501 -0.12454463077E+02 -0.89621216257E+03 -0.94661292786E+03  0.16406552261E+04  0.99615369383E+03 0.  0.
        -13    1    3    3    0    0 -0.16881873528E+03  0.59878944996E+03 -0.86815413940E+03  0.10680543955E+04  0.10566000000E+00 0.  1.
          4    1    3    3  502    0  0.18127319835E+03  0.29742271261E+03  0.23300369581E+03  0.41905961948E+03  0.00000000000E+00 0.  1.
         13    1    4    4    0    0 -0.10636243045E+03 -0.64627183681E+03  0.22217492509E+01  0.65496961838E+03  0.10566000000E+00 0. -1.
         -4    1    4    4    0  501  0.93907967370E+02 -0.24994032576E+03 -0.94883467711E+03  0.98568560772E+03  0.00000000000E+00 0. -1.
<mgrwt>
<rscale>  2 0.13423383E+04</rscale>
<asrwt>0</asrwt>
<pdfrwt beam="1">  1        1 0.11892353E+00 0.13423383E+04</pdfrwt>
<pdfrwt beam="2">  1       -1 0.36227174E+00 0.13423383E+04</pdfrwt>
<totfact> 0.31034733E-01</totfact>
</mgrwt>
</event>
<event>
 8    1  0.1439553E-005  0.1415118E+04  0.7818608E-02  0.8460088E-01
         -1   -1    0    0    0  501 -0.00000000000E+00  0.00000000000E+00  0.16568873096E+04  0.16568873096E+04  0.00000000000E+00 0. -1.
          1   -1    0    0  502    0  0.00000000000E+00 -0.00000000000E+00 -0.12137858672E+04  0.12137858672E+04  0.00000000000E+00 0.  1.
    9000010    2    1    2  502    0  0.56916927290E+03  0.82582318279E+03  0.31455407689E+03  0.14464880373E+04  0.99370306652E+03 0.  0.
   -9000010    2    1    2    0  501 -0.56916927290E+03 -0.82582318279E+03  0.12854736550E+03  0.14241851395E+04  0.10029163953E+04 0.  0.
        -13    1    3    3    0    0  0.18762616446E+03 -0.22374949945E+03  0.26754734451E+02  0.29322899426E+03  0.10566000000E+00 0.  1.
          4    1    3    3  502    0  0.38154310843E+03  0.10495726822E+04  0.28779934244E+03  0.11532590431E+04  0.00000000000E+00 0.  1.
         13    1    4    4    0    0  0.13828499920E+03 -0.37830502531E+03 -0.28212135050E+03  0.49176203671E+03  0.10566000000E+00 0. -1.
         -4    1    4    4    0  501 -0.70745427209E+03 -0.44751815748E+03  0.41066871600E+03  0.93242310282E+03  0.00000000000E+00 0. -1.
<mgrwt>
<rscale>  2 0.14151184E+04</rscale>
<asrwt>0</asrwt>
<pdfrwt beam="2">  1        1 0.18673629E+00 0.14151184E+04</pdfrwt>
<pdfrwt beam="1">  1       -1 0.25490574E+00 0.14151184E+04</pdfrwt>
<totfact> 0.57373074E-01</totfact>
</mgrwt>
</event>
<event>
 8    1  0.1439553E-005  0.1084427E+04  0.7818608E-02  0.8699076E-01
         -1   -1    0    0    0  501 -0.00000000000E+00  0.00000000000E+00  0.14616814070E+04  0.14616814070E+04  0.00000000000E+00 0.  1.
          1   -1    0    0  502    0  0.00000000000E+00 -0.00000000000E+00 -0.15837359200E+04  0.15837359200E+04  0.00000000000E+00 0. -1.
    9000010    2    1    2  502    0 -0.41953168446E+03 -0.31560525392E+02  0.10070896705E+04  0.14786137029E+04  0.99752993788E+03 0.  0.
   -9000010    2    1    2    0  501  0.41953168446E+03  0.31560525392E+02 -0.11291441834E+04  0.15668036241E+04  0.10014510015E+04 0.  0.
        -13    1    3    3    0    0  0.22844612127E+03  0.18206774961E+03  0.64075059099E+03  0.70419999062E+03  0.10566000000E+00 0.  1.
          4    1    3    3  502    0 -0.64797780573E+03 -0.21362827500E+03  0.36633907951E+03  0.77441371228E+03  0.00000000000E+00 0.  1.
         13    1    4    4    0    0  0.50671793969E+03  0.39101004316E+02 -0.80554722907E+02  0.51456878402E+03  0.10566000000E+00 0. -1.
         -4    1    4    4    0  501 -0.87186255233E+02 -0.75404789243E+01 -0.10485894605E+04  0.10522348401E+04  0.00000000000E+00 0. -1.
<mgrwt>
<rscale>  2 0.10844268E+04</rscale>
<asrwt>0</asrwt>
<pdfrwt beam="2">  1        1 0.24365168E+00 0.10844268E+04</pdfrwt>
<pdfrwt beam="1">  1       -1 0.22487406E+00 0.10844268E+04</pdfrwt>
<totfact> 0.61413981E-01</totfact>
</mgrwt>
</event>
<event>
 8    1  0.1439553E-005  0.1148032E+04  0.7818608E-02  0.8646758E-01
          1   -1    0    0  502    0  0.00000000000E+00  0.00000000000E+00  0.14667534574E+04  0.14667534574E+04  0.00000000000E+00 0. -1.
         -1   -1    0    0    0  501 -0.00000000000E+00 -0.00000000000E+00 -0.10018610625E+04  0.10018610625E+04  0.00000000000E+00 0.  1.
    9000010    2    1    2  502    0  0.46789444223E+03 -0.31255650923E+03 -0.16455840326E+03  0.11559710471E+04  0.99627948550E+03 0.  0.
   -9000010    2    1    2    0  501 -0.46789444223E+03  0.31255650923E+03  0.62945079819E+03  0.13126434728E+04  0.10050909405E+04 0.  0.
        -13    1    3    3    0    0  0.18779449089E+03 -0.34922494357E+03  0.37574969535E+03  0.54627161444E+03  0.10566000000E+00 0.  1.
          4    1    3    3  502    0  0.28009995134E+03  0.36668434340E+02 -0.54030809862E+03  0.60969943271E+03  0.00000000000E+00 0.  1.
         13    1    4    4    0    0 -0.46092016659E+03  0.58122637694E+03  0.71530707840E+03  0.10305026583E+04  0.10566000000E+00 0. -1.
         -4    1    4    4    0  501 -0.69742756344E+01 -0.26866986771E+03 -0.85856280213E+02  0.28214081446E+03  0.00000000000E+00 0. -1.
<mgrwt>
<rscale>  2 0.11480321E+04</rscale>
<asrwt>0</asrwt>
<pdfrwt beam="1">  1        1 0.22565438E+00 0.11480321E+04</pdfrwt>
<pdfrwt beam="2">  1       -1 0.15413247E+00 0.11480321E+04</pdfrwt>
<totfact> 0.31552213E+00</totfact>
</mgrwt>
</event>
<event>
 8    1  0.1439553E-005  0.1259977E+04  0.7818608E-02  0.8562717E-01
         -1   -1    0    0    0  501 -0.00000000000E+00  0.00000000000E+00  0.42264827326E+03  0.42264827326E+03  0.00000000000E+00 0.  1.
          1   -1    0    0  502    0  0.00000000000E+00 -0.00000000000E+00 -0.40521358862E+04  0.40521358862E+04  0.00000000000E+00 0. -1.
    9000010    2    1    2  502    0 -0.18221026551E+03 -0.72358415024E+03 -0.12503434068E+04  0.17956992288E+04  0.10509055533E+04 0.  0.
   -9000010    2    1    2    0  501  0.18221026551E+03  0.72358415024E+03 -0.23791442061E+04  0.26790849307E+04  0.97999709641E+03 0.  0.
        -13    1    3    3    0    0 -0.58956712052E+03 -0.51605416106E+03 -0.10128033884E+04  0.12804967791E+04  0.10566000000E+00 0.  1.
          4    1    3    3  502    0  0.40735685501E+03 -0.20752998918E+03 -0.23754001845E+03  0.51520244963E+03  0.00000000000E+00 0.  1.
         13    1    4    4    0    0  0.18238685632E+03  0.69295845354E+02 -0.17839257924E+04  0.17945634911E+04  0.10566000000E+00 0. -1.
         -4    1    4    4    0  501 -0.17659081185E+00  0.65428830488E+03 -0.59521841371E+03  0.88452143960E+03  0.00000000000E+00 0. -1.
<mgrwt>
<rscale>  2 0.12599766E+04</rscale>
<asrwt>0</asrwt>
<pdfrwt beam="2">  1        1 0.62340554E+00 0.12599766E+04</pdfrwt>
<pdfrwt beam="1">  1       -1 0.65022809E-01 0.12599766E+04</pdfrwt>
<totfact> 0.12469661E-01</totfact>
</mgrwt>
</event>
<event>
 8    1  0.1439553E-005  0.1048800E+04  0.7818608E-02  0.8730044E-01
         -2   -1    0    0    0  501 -0.00000000000E+00  0.00000000000E+00  0.11341300581E+04  0.11341300581E+04  0.00000000000E+00 0.  1.
          2   -1    0    0  502    0  0.00000000000E+00 -0.00000000000E+00 -0.10161502662E+04  0.10161502662E+04  0.00000000000E+00 0. -1.
    9000010    2    1    2  502    0 -0.20556298766E+03  0.28053085552E+03 -0.17068338672E+03  0.10552572475E+04  0.98157085175E+03 0.  0.
   -9000010    2    1    2    0  501  0.20556298766E+03 -0.28053085552E+03  0.28866317858E+03  0.10950230768E+04  0.99739430786E+03 0.  0.
        -13    1    3    3    0    0 -0.50365123952E+03  0.28090774327E+03 -0.38034228058E+03  0.69082124523E+03  0.10566000000E+00 0.  1.
          4    1    3    3  502    0  0.29808825186E+03 -0.37688775161E+00  0.20965889387E+03  0.36443600223E+03  0.00000000000E+00 0.  1.
         13    1    4    4    0    0  0.30739055894E+03  0.19606196672E+03  0.45228500271E+03  0.58093974331E+03  0.10566000000E+00 0. -1.
         -4    1    4    4    0  501 -0.10182757129E+03 -0.47659282223E+03 -0.16362182413E+03  0.51408333353E+03  0.00000000000E+00 0. -1.
<mgrwt>
<rscale>  2 0.10487996E+04</rscale>
<asrwt>0</asrwt>
<pdfrwt beam="2">  1        2 0.15633081E+00 0.10487996E+04</pdfrwt>
<pdfrwt beam="1">  1       -2 0.17448155E+00 0.10487996E+04</pdfrwt>
<totfact> 0.61965748E+00</totfact>
</mgrwt>
</event>
<event>
 8    1  0.1439553E-005  0.1094091E+04  0.7818608E-02  0.8690889E-01
          4   -1    0    0  502    0  0.00000000000E+00  0.00000000000E+00  0.31803201198E+04  0.31803201198E+04  0.00000000000E+00 0.  1.
         -4   -1    0    0    0  501 -0.00000000000E+00 -0.00000000000E+00 -0.93144929382E+03  0.93144929382E+03  0.00000000000E+00 0. -1.
    9000010    2    1    2  502    0 -0.12105582325E+03  0.44104960904E+03  0.27059927956E+04  0.29140135808E+04  0.97974428751E+03 0.  0.
   -9000010    2    1    2    0  501  0.12105582325E+03 -0.44104960904E+03 -0.45712196968E+03  0.11977558328E+04  0.10082059660E+04 0.  0.
        -13    1    3    3    0    0 -0.11229218870E+03  0.53532040596E+03  0.62368438336E+03  0.82955391259E+03  0.10566000000E+00 0.  1.
          4    1    3    3  502    0 -0.87636345473E+01 -0.94270796922E+02  0.20823084123E+04  0.20844596682E+04  0.00000000000E+00 0.  1.
         13    1    4    4    0    0  0.48225246016E+03  0.40751180595E+02 -0.89290572565E+02  0.49213911810E+03  0.10566000000E+00 0. -1.
         -4    1    4    4    0  501 -0.36119663691E+03 -0.48180078964E+03 -0.36783139711E+03  0.70561671473E+03  0.00000000000E+00 0. -1.
<mgrwt>
<rscale>  2 0.10940905E+04</rscale>
<asrwt>0</asrwt>
<pdfrwt beam="1">  1        4 0.48928001E+00 0.10940905E+04</pdfrwt>
<pdfrwt beam="2">  1       -4 0.14329989E+00 0.10940905E+04</pdfrwt>
<totfact> 0.30302589E-02</totfact>
</mgrwt>
</event>
<event>
 8    1  0.1439553E-005  0.1394712E+04  0.7818608E-02  0.8472794E-01
          1   -1    0    0  502    0  0.00000000000E+00  0.00000000000E+00  0.64592952518E+03  0.64592952518E+03  0.00000000000E+00 0. -1.
         -1   -1    0    0    0  501 -0.00000000000E+00 -0.00000000000E+00 -0.32577464662E+04  0.32577464662E+04  0.00000000000E+00 0.  1.
    9000010    2    1    2  502    0  0.42039093304E+03  0.87664020762E+03 -0.18428476037E+04  0.23113521163E+04  0.10005172287E+04 0.  0.
   -9000010    2    1    2    0  501 -0.42039093304E+03 -0.87664020762E+03 -0.76896933732E+03  0.15923238751E+04  0.99947730902E+03 0.  0.
        -13    1    3    3    0    0 -0.26270402852E+03 -0.23676826649E+02 -0.38706966065E+03  0.46839826225E+03  0.10566000000E+00 0.  1.
          4    1    3    3  502    0  0.68309496155E+03  0.90031703427E+03 -0.14557779430E+04  0.18429538540E+04  0.00000000000E+00 0.  1.
         13    1    4    4    0    0 -0.33164348216E+03 -0.74847401811E+03 -0.10131859352E+04  0.13025922253E+04  0.10566000000E+00 0. -1.
         -4    1    4    4    0  501 -0.88747450880E+02 -0.12816618951E+03  0.24421659790E+03  0.28973164974E+03  0.00000000000E+00 0. -1.
<mgrwt>
<rscale>  2 0.13947118E+04</rscale>
<asrwt>0</asrwt>
<pdfrwt beam="1">  1        1 0.99373773E-01 0.13947118E+04</pdfrwt>
<pdfrwt beam="2">  1       -1 0.50119176E+00 0.13947118E+04</pdfrwt>
<totfact> 0.38588273E-01</totfact>
</mgrwt>
</event>
<event>
 8    1  0.1439553E-005  0.1257736E+04  0.7818608E-02  0.8564310E-01
         -2   -1    0    0    0  501 -0.00000000000E+00  0.00000000000E+00  0.69393249189E+03  0.69393249189E+03  0.00000000000E+00 0. -1.
          2   -1    0    0  502    0  0.00000000000E+00 -0.00000000000E+00 -0.22804017849E+04  0.22804017849E+04  0.00000000000E+00 0.  1.
    9000010    2    1    2  502    0 -0.42240478607E+03  0.61861240550E+03 -0.76429113115E+03  0.14697680590E+04  0.10074572460E+04 0.  0.
   -9000010    2    1    2    0  501  0.42240478607E+03 -0.61861240550E+03 -0.82217816183E+03  0.15045662178E+04  0.10132302119E+04 0.  0.
        -13    1    3    3    0    0 -0.23426477449E+03 -0.26282255138E+03 -0.25303842219E+03  0.43357136938E+03  0.10566000000E+00 0.  1.
          4    1    3    3  502    0 -0.18814001158E+03  0.88143495688E+03 -0.51125270896E+03  0.10361966896E+04  0.00000000000E+00 0.  1.
         13    1    4    4    0    0  0.36826852212E+03 -0.18403182248E+03 -0.96073746134E+03  0.10452300689E+04  0.10566000000E+00 0. -1.
         -4    1    4    4    0  501  0.54136263952E+02 -0.43458058302E+03  0.13855929951E+03  0.45933614891E+03  0.00000000000E+00 0. -1.
<mgrwt>
<rscale>  2 0.12577357E+04</rscale>
<asrwt>0</asrwt>
<pdfrwt beam="2">  1        2 0.35083104E+00 0.12577357E+04</pdfrwt>
<pdfrwt beam="1">  1       -2 0.10675885E+00 0.12577357E+04</pdfrwt>
<totfact> 0.49774370E+00</totfact>
</mgrwt>
</event>
<event>
 8    1  0.1439553E-005  0.1064377E+04  0.7818608E-02  0.8716348E-01
         -2   -1    0    0    0  501 -0.00000000000E+00  0.00000000000E+00  0.38808032780E+03  0.38808032780E+03  0.00000000000E+00 0.  1.
          2   -1    0    0  502    0  0.00000000000E+00 -0.00000000000E+00 -0.29670787300E+04  0.29670787300E+04  0.00000000000E+00 0. -1.
    9000010    2    1    2  502    0  0.32226877606E+02  0.36348186537E+03 -0.11166068422E+04  0.15633360424E+04  0.10315285276E+04 0.  0.
   -9000010    2    1    2    0  501 -0.32226877606E+02 -0.36348186537E+03 -0.14623915600E+04  0.17918230154E+04  0.96895975446E+03 0.  0.
        -13    1    3    3    0    0  0.39028395728E+02  0.34596070698E+03 -0.13169094158E+04  0.13621536062E+04  0.10566000000E+00 0.  1.
          4    1    3    3  502    0 -0.68015181222E+01  0.17521158389E+02  0.20030257356E+03  0.20118243615E+03  0.00000000000E+00 0.  1.
         13    1    4    4    0    0 -0.45027075457E+03 -0.13241312605E+03 -0.10880441911E+04  0.11849544976E+04  0.10566000000E+00 0. -1.
         -4    1    4    4    0  501  0.41804387697E+03 -0.23106873932E+03 -0.37434736892E+03  0.60686851786E+03  0.00000000000E+00 0. -1.
<mgrwt>
<rscale>  2 0.10643765E+04</rscale>
<asrwt>0</asrwt>
<pdfrwt beam="2">  1        2 0.45647364E+00 0.10643765E+04</pdfrwt>
<pdfrwt beam="1">  1       -2 0.59704667E-01 0.10643765E+04</pdfrwt>
<totfact> 0.74083954E+00</totfact>
</mgrwt>
</event>
<event>
 8    1  0.1439553E-005  0.1124063E+04  0.7818608E-02  0.8666049E-01
          1   -1    0    0  502    0  0.00000000000E+00  0.00000000000E+00  0.43405176795E+03  0.43405176795E+03  0.00000000000E+00 0.  1.
         -1   -1    0    0    0  501 -0.00000000000E+00 -0.00000000000E+00 -0.34044094579E+04  0.34044094579E+04  0.00000000000E+00 0. -1.
    9000010    2    1    2  502    0 -0.36387475007E+03 -0.33591055660E+03 -0.76565064971E+03  0.13681082698E+04  0.10199306764E+04 0.  0.
   -9000010    2    1    2    0  501  0.36387475007E+03  0.33591055660E+03 -0.22047070402E+04  0.24703529560E+04  0.99833354066E+03 0.  0.
        -13    1    3    3    0    0 -0.30818836272E+03 -0.69218529221E+03 -0.62066718646E+03  0.97945306839E+03  0.10566000000E+00 0.  1.
          4    1    3    3  502    0 -0.55686387351E+02  0.35627473561E+03 -0.14498346325E+03  0.38865520141E+03  0.00000000000E+00 0.  1.
         13    1    4    4    0    0  0.46004819685E+03 -0.14554538027E+03 -0.16962482790E+04  0.17635436020E+04  0.10566000000E+00 0. -1.
         -4    1    4    4    0  501 -0.96173446780E+02  0.48145593687E+03 -0.50845876121E+03  0.70680935397E+03  0.00000000000E+00 0. -1.
<mgrwt>
<rscale>  2 0.11240627E+04</rscale>
<asrwt>0</asrwt>
<pdfrwt beam="1">  1        1 0.66777192E-01 0.11240627E+04</pdfrwt>
<pdfrwt beam="2">  1       -1 0.52375533E+00 0.11240627E+04</pdfrwt>
<totfact> 0.59250623E-01</totfact>
</mgrwt>
</event>
<event>
 8    1  0.1439553E-005  0.1525222E+04  0.7818608E-02  0.8395130E-01
          2   -1    0    0  502    0  0.00000000000E+00  0.00000000000E+00  0.39484423567E+04  0.39484423567E+04  0.00000000000E+00 0. -1.
         -2   -1    0    0    0  501 -0.00000000000E+00 -0.00000000000E+00 -0.59018096680E+03  0.59018096680E+03  0.00000000000E+00 0.  1.
    9000010    2    1    2  502    0 -0.98484501813E+03 -0.58357560019E+03  0.15715357247E+04  0.21797606251E+04  0.98547027246E+03 0.  0.
   -9000010    2    1    2    0  501  0.98484501813E+03  0.58357560019E+03  0.17867256652E+04  0.23588626984E+04  0.10302254298E+04 0.  0.
        -13    1    3    3    0    0 -0.11385393248E+04 -0.28463201236E+03  0.12505035245E+04  0.17149478863E+04  0.10566000000E+00 0.  1.
          4    1    3    3  502    0  0.15369430671E+03 -0.29894358783E+03  0.32103220017E+03  0.46481273882E+03  0.00000000000E+00 0.  1.
         13    1    4    4    0    0  0.93514412831E+03  0.37405281082E+03  0.64274918540E+03  0.11947956196E+04  0.10566000000E+00 0. -1.
         -4    1    4    4    0  501  0.49700889811E+02  0.20952278937E+03  0.11439764798E+04  0.11640670788E+04  0.00000000000E+00 0. -1.
<mgrwt>
<rscale>  2 0.15252216E+04</rscale>
<asrwt>0</asrwt>
<pdfrwt beam="1">  1        2 0.60745266E+00 0.15252216E+04</pdfrwt>
<pdfrwt beam="2">  1       -2 0.90797074E-01 0.15252216E+04</pdfrwt>
<totfact> 0.54641223E-01</totfact>
</mgrwt>
</event>
<event>
 8    1  0.1439553E-005  0.1257542E+04  0.7818608E-02  0.8564448E-01
         -1   -1    0    0    0  501 -0.00000000000E+00  0.00000000000E+00  0.76441417915E+03  0.76441417915E+03  0.00000000000E+00 0.  1.
          1   -1    0    0  502    0  0.00000000000E+00 -0.00000000000E+00 -0.22651660893E+04  0.22651660893E+04  0.00000000000E+00 0. -1.
    9000010    2    1    2  502    0 -0.75132609826E+03  0.17367902284E+03 -0.11983767816E+04  0.17397746780E+04  0.99802490471E+03 0.  0.
   -9000010    2    1    2    0  501  0.75132609826E+03 -0.17367902284E+03 -0.30237512857E+03  0.12898055905E+04  0.98869228483E+03 0.  0.
        -13    1    3    3    0    0 -0.70959030849E+03 -0.19515844450E+03 -0.11501708418E+04  0.13654662943E+04  0.10566000000E+00 0.  1.
          4    1    3    3  502    0 -0.41735789767E+02  0.36883746734E+03 -0.48205939856E+02  0.37430838369E+03  0.00000000000E+00 0.  1.
         13    1    4    4    0    0  0.58072799526E+03 -0.11931820559E+03 -0.66163904886E+03  0.88839635343E+03  0.10566000000E+00 0. -1.
         -4    1    4    4    0  501  0.17059810301E+03 -0.54360817247E+02  0.35926392029E+03  0.40140923709E+03  0.00000000000E+00 0. -1.
<mgrwt>
<rscale>  2 0.12575417E+04</rscale>
<asrwt>0</asrwt>
<pdfrwt beam="2">  1        1 0.34848708E+00 0.12575417E+04</pdfrwt>
<pdfrwt beam="1">  1       -1 0.11760219E+00 0.12575417E+04</pdfrwt>
<totfact> 0.16000555E+00</totfact>
</mgrwt>
</event>
<event>
 8    1  0.1439553E-005  0.1191711E+04  0.7818608E-02  0.8612831E-01
         -4   -1    0    0    0  501 -0.00000000000E+00  0.00000000000E+00  0.17451777064E+04  0.17451777064E+04  0.00000000000E+00 0. -1.
          4   -1    0    0  502    0  0.00000000000E+00 -0.00000000000E+00 -0.82198587177E+03  0.82198587177E+03  0.00000000000E+00 0.  1.
    9000010    2    1    2  502    0  0.44425519486E+03  0.47124999183E+03  0.59000341325E+03  0.13299636813E+04  0.10006298682E+04 0.  0.
   -9000010    2    1    2    0  501 -0.44425519486E+03 -0.47124999183E+03  0.33318842142E+03  0.12371998969E+04  0.10001049083E+04 0.  0.
        -13    1    3    3    0    0 -0.29330888502E+03 -0.35937840934E+02  0.11983961096E+03  0.31887799228E+03  0.10566000000E+00 0.  1.
          4    1    3    3  502    0  0.73756407988E+03  0.50718783276E+03  0.47016380229E+03  0.10110856891E+04  0.00000000000E+00 0.  1.
         13    1    4    4    0    0  0.17647930479E+03 -0.66228033025E+02  0.44905590233E+03  0.48701366712E+03  0.10566000000E+00 0. -1.
         -4    1    4    4    0  501 -0.62073449965E+03 -0.40502195880E+03 -0.11586748092E+03  0.75018622975E+03  0.00000000000E+00 0. -1.
<mgrwt>
<rscale>  2 0.11917106E+04</rscale>
<asrwt>0</asrwt>
<pdfrwt beam="2">  1        4 0.12645937E+00 0.11917106E+04</pdfrwt>
<pdfrwt beam="1">  1       -4 0.26848888E+00 0.11917106E+04</pdfrwt>
<totfact> 0.23790408E-01</totfact>
</mgrwt>
</event>
<event>
 8    1  0.1439553E-005  0.1224727E+04  0.7818608E-02  0.8588171E-01
          2   -1    0    0  502    0  0.00000000000E+00  0.00000000000E+00  0.11927177973E+04  0.11927177973E+04  0.00000000000E+00 0. -1.
         -2   -1    0    0    0  501 -0.00000000000E+00 -0.00000000000E+00 -0.14236063384E+04  0.14236063384E+04  0.00000000000E+00 0.  1.
    9000010    2    1    2  502    0 -0.33830376417E+02 -0.70802244525E+03 -0.56283419908E+03  0.13564346363E+04  0.10102931800E+04 0.  0.
   -9000010    2    1    2    0  501  0.33830376417E+02  0.70802244525E+03  0.33194565793E+03  0.12598894994E+04  0.98726559428E+03 0.  0.
        -13    1    3    3    0    0 -0.31531449381E+03  0.12676894904E+03 -0.69986971831E+02  0.34697519196E+03  0.10566000000E+00 0.  1.
          4    1    3    3  502    0  0.28148411739E+03 -0.83479139429E+03 -0.49284722725E+03  0.10094594443E+04  0.00000000000E+00 0.  1.
         13    1    4    4    0    0 -0.22731419728E+03 -0.12804139110E+03  0.27961634612E+03  0.38242862641E+03  0.10566000000E+00 0. -1.
         -4    1    4    4    0  501  0.26114457370E+03  0.83606383635E+03  0.52329311808E+02  0.87746087303E+03  0.00000000000E+00 0. -1.
<mgrwt>
<rscale>  2 0.12247272E+04</rscale>
<asrwt>0</asrwt>
<pdfrwt beam="1">  1        2 0.18349505E+00 0.12247272E+04</pdfrwt>
<pdfrwt beam="2">  1       -2 0.21901636E+00 0.12247272E+04</pdfrwt>
<totfact> 0.20541749E+00</totfact>
</mgrwt>
</event>
<event>
 8    1  0.1439553E-005  0.1807228E+04  0.7818608E-02  0.8251742E-01
          1   -1    0    0  502    0  0.00000000000E+00  0.00000000000E+00  0.32108561664E+04  0.32108561664E+04  0.00000000000E+00 0.  1.
         -1   -1    0    0    0  501 -0.00000000000E+00 -0.00000000000E+00 -0.10372597613E+04  0.10372597613E+04  0.00000000000E+00 0. -1.
    9000010    2    1    2  502    0 -0.11947911675E+04 -0.90999896663E+03  0.78859541802E+03  0.19673684921E+04  0.99650990824E+03 0.  0.
   -9000010    2    1    2    0  501  0.11947911675E+04  0.90999896663E+03  0.13850009871E+04  0.22807474356E+04  0.10138821813E+04 0.  0.
        -13    1    3    3    0    0 -0.52650981900E+03 -0.30420501887E+03 -0.18944310732E+03  0.63690029447E+03  0.10566000000E+00 0.  1.
          4    1    3    3  502    0 -0.66828134850E+03 -0.60579394775E+03  0.97803852534E+03  0.13304681976E+04  0.00000000000E+00 0.  1.
         13    1    4    4    0    0 -0.12078164049E+03  0.27605065083E+03  0.56580807999E+02  0.30658370064E+03  0.10566000000E+00 0. -1.
         -4    1    4    4    0  501  0.13155728080E+04  0.63394831580E+03  0.13284201791E+04  0.19741637350E+04  0.00000000000E+00 0. -1.
<mgrwt>
<rscale>  2 0.18072277E+04</rscale>
<asrwt>0</asrwt>
<pdfrwt beam="1">  1        1 0.49397787E+00 0.18072277E+04</pdfrwt>
<pdfrwt beam="2">  1       -1 0.15957843E+00 0.18072277E+04</pdfrwt>
<totfact> 0.72704622E-02</totfact>
</mgrwt>
</event>
<event>
 8    1  0.1439553E-005  0.1371872E+04  0.7818608E-02  0.8487283E-01
          1   -1    0    0  502    0  0.00000000000E+00  0.00000000000E+00  0.88678958160E+03  0.88678958160E+03  0.00000000000E+00 0.  1.
         -1   -1    0    0    0  501 -0.00000000000E+00 -0.00000000000E+00 -0.27780432984E+04  0.27780432984E+04  0.00000000000E+00 0. -1.
    9000010    2    1    2  502    0 -0.26284057922E+02  0.95961659305E+03 -0.18294613565E+04  0.22795647173E+04  0.96329205756E+03 0.  0.
   -9000010    2    1    2    0  501  0.26284057922E+02 -0.95961659305E+03 -0.61792360323E+02  0.13852681627E+04  0.99679221979E+03 0.  0.
        -13    1    3    3    0    0 -0.11740941531E+03  0.72079414604E+03 -0.41049043930E+03  0.83775389208E+03  0.10566000000E+00 0.  1.
          4    1    3    3  502    0  0.91125357388E+02  0.23882244701E+03 -0.14189709172E+04  0.14418108252E+04  0.00000000000E+00 0.  1.
         13    1    4    4    0    0  0.10765953712E+03 -0.10021379837E+04  0.26800593547E+03  0.10429277573E+04  0.10566000000E+00 0. -1.
         -4    1    4    4    0  501 -0.81375479196E+02  0.42521390640E+02 -0.32979829579E+03  0.34234040542E+03  0.00000000000E+00 0. -1.
<mgrwt>
<rscale>  2 0.13718716E+04</rscale>
<asrwt>0</asrwt>
<pdfrwt beam="1">  1        1 0.13642917E+00 0.13718716E+04</pdfrwt>
<pdfrwt beam="2">  1       -1 0.42739128E+00 0.13718716E+04</pdfrwt>
<totfact> 0.28750237E-01</totfact>
</mgrwt>
</event>
<event>
 8    1  0.1439553E-005  0.1045729E+04  0.7818608E-02  0.8732773E-01
         -2   -1    0    0    0  501 -0.00000000000E+00  0.00000000000E+00  0.11886205068E+04  0.11886205068E+04  0.00000000000E+00 0. -1.
          2   -1    0    0  502    0  0.00000000000E+00 -0.00000000000E+00 -0.14510681692E+04  0.14510681692E+04  0.00000000000E+00 0.  1.
    9000010    2    1    2  502    0 -0.17979520442E+03  0.24718585262E+03  0.66678069195E+03  0.12447026838E+04  0.10056147964E+04 0.  0.
   -9000010    2    1    2    0  501  0.17979520442E+03 -0.24718585262E+03 -0.92922835438E+03  0.13949859922E+04  0.99453176047E+03 0.  0.
        -13    1    3    3    0    0 -0.19193292331E+03  0.10251759408E+03 -0.24139777063E+03  0.32499384451E+03  0.10566000000E+00 0.  1.
          4    1    3    3  502    0  0.12137718885E+02  0.14466825854E+03  0.90817846258E+03  0.91970883933E+03  0.00000000000E+00 0.  1.
         13    1    4    4    0    0  0.25599822433E+03  0.10636078835E+03 -0.99015088356E+03  0.10282249226E+04  0.10566000000E+00 0. -1.
         -4    1    4    4    0  501 -0.76203019906E+02 -0.35354664097E+03  0.60922529178E+02  0.36676106956E+03  0.00000000000E+00 0. -1.
<mgrwt>
<rscale>  2 0.10457286E+04</rscale>
<asrwt>0</asrwt>
<pdfrwt beam="2">  1        2 0.22324126E+00 0.10457286E+04</pdfrwt>
<pdfrwt beam="1">  1       -2 0.18286469E+00 0.10457286E+04</pdfrwt>
<totfact> 0.29908895E+00</totfact>
</mgrwt>
</event>
<event>
 8    1  0.1439553E-005  0.1121239E+04  0.7818608E-02  0.8668355E-01
          2   -1    0    0  502    0  0.00000000000E+00  0.00000000000E+00  0.31369637261E+04  0.31369637261E+04  0.00000000000E+00 0.  1.
         -2   -1    0    0    0  501 -0.00000000000E+00 -0.00000000000E+00 -0.49321955454E+03  0.49321955454E+03  0.00000000000E+00 0. -1.
    9000010    2    1    2  502    0 -0.79189135157E+02 -0.50596280445E+03  0.55930147693E+03  0.12741910304E+04  0.10239508589E+04 0.  0.
   -9000010    2    1    2    0  501  0.79189135157E+02  0.50596280445E+03  0.20844426946E+04  0.23559922502E+04  0.97135413584E+03 0.  0.
        -13    1    3    3    0    0  0.45657582677E+03 -0.18860471966E+03  0.10940334021E+03  0.50596672607E+03  0.10566000000E+00 0.  1.
          4    1    3    3  502    0 -0.53576496193E+03 -0.31735808479E+03  0.44989813672E+03  0.76822430438E+03  0.00000000000E+00 0.  1.
         13    1    4    4    0    0  0.21064447778E+03 -0.16968964048E+02  0.16501928832E+04  0.16636693196E+04  0.10566000000E+00 0. -1.
         -4    1    4    4    0  501 -0.13145534263E+03  0.52293176850E+03  0.43424981138E+03  0.69232293064E+03  0.00000000000E+00 0. -1.
<mgrwt>
<rscale>  2 0.11212389E+04</rscale>
<asrwt>0</asrwt>
<pdfrwt beam="1">  1        2 0.48260979E+00 0.11212389E+04</pdfrwt>
<pdfrwt beam="2">  1       -2 0.75879933E-01 0.11212389E+04</pdfrwt>
<totfact> 0.35038470E+00</totfact>
</mgrwt>
</event>
<event>
 8    1  0.1439553E-005  0.1061099E+04  0.7818608E-02  0.8719209E-01
         -2   -1    0    0    0  501 -0.00000000000E+00  0.00000000000E+00  0.56102719817E+03  0.56102719817E+03  0.00000000000E+00 0.  1.
          2   -1    0    0  502    0  0.00000000000E+00 -0.00000000000E+00 -0.20720752730E+04  0.20720752730E+04  0.00000000000E+00 0. -1.
    9000010    2    1    2  502    0  0.17021445984E+03  0.28276353332E+03 -0.98340662063E+03  0.14410267045E+04  0.10002705652E+04 0.  0.
   -9000010    2    1    2    0  501 -0.17021445984E+03 -0.28276353332E+03 -0.52764145420E+03  0.11920757667E+04  0.10167157671E+04 0.  0.
        -13    1    3    3    0    0  0.52923055498E+03  0.39701020375E+03 -0.73930219551E+03  0.99210373936E+03  0.10566000000E+00 0.  1.
          4    1    3    3  502    0 -0.35901609515E+03 -0.11424667043E+03 -0.24410442512E+03  0.44892296516E+03  0.00000000000E+00 0.  1.
         13    1    4    4    0    0 -0.11749881451E+03 -0.53940597333E+03  0.53463393017E+02  0.55463782871E+03  0.10566000000E+00 0. -1.
         -4    1    4    4    0  501 -0.52715645328E+02  0.25664244002E+03 -0.58110484721E+03  0.63743793795E+03  0.00000000000E+00 0. -1.
<mgrwt>
<rscale>  2 0.10610995E+04</rscale>
<asrwt>0</asrwt>
<pdfrwt beam="2">  1        2 0.31878081E+00 0.10610995E+04</pdfrwt>
<pdfrwt beam="1">  1       -2 0.86311877E-01 0.10610995E+04</pdfrwt>
<totfact> 0.10940984E+01</totfact>
</mgrwt>
</event>
<event>
 8    1  0.1439553E-005  0.1240662E+04  0.7818608E-02  0.8576556E-01
         -4   -1    0    0    0  501 -0.00000000000E+00  0.00000000000E+00  0.49345399350E+03  0.49345399350E+03  0.00000000000E+00 0. -1.
          4   -1    0    0  502    0  0.00000000000E+00 -0.00000000000E+00 -0.32572693423E+04  0.32572693423E+04  0.00000000000E+00 0.  1.
    9000010    2    1    2  502    0  0.23712640206E+03 -0.67902500442E+03 -0.17688768710E+04  0.21611512708E+04  0.10120995718E+04 0.  0.
   -9000010    2    1    2    0  501 -0.23712640206E+03  0.67902500442E+03 -0.99493847779E+03  0.15895720650E+04  0.10097192125E+04 0.  0.
        -13    1    3    3    0    0  0.58502610447E+03 -0.19409889062E+03 -0.66816502874E+03  0.90905139516E+03  0.10566000000E+00 0.  1.
          4    1    3    3  502    0 -0.34789970242E+03 -0.48492611379E+03 -0.11007118423E+04  0.12520998756E+04  0.00000000000E+00 0.  1.
         13    1    4    4    0    0 -0.62822597650E+03  0.35812668812E+03 -0.48150441378E+03  0.86877448969E+03  0.10566000000E+00 0. -1.
         -4    1    4    4    0  501  0.39109957444E+03  0.32089831630E+03 -0.51343406401E+03  0.72079757534E+03  0.00000000000E+00 0. -1.
<mgrwt>
<rscale>  2 0.12406616E+04</rscale>
<asrwt>0</asrwt>
<pdfrwt beam="2">  1        4 0.50111837E+00 0.12406616E+04</pdfrwt>
<pdfrwt beam="1">  1       -4 0.75915997E-01 0.12406616E+04</pdfrwt>
<totfact> 0.84350546E-02</totfact>
</mgrwt>
</event>
<event>
 8    1  0.1439553E-005  0.1262971E+04  0.7818608E-02  0.8560595E-01
          1   -1    0    0  502    0  0.00000000000E+00  0.00000000000E+00  0.10059649828E+04  0.10059649828E+04  0.00000000000E+00 0. -1.
         -1   -1    0    0    0  501 -0.00000000000E+00 -0.00000000000E+00 -0.17782453887E+04  0.17782453887E+04  0.00000000000E+00 0.  1.
    9000010    2    1    2  502    0  0.75366076356E+03 -0.34840396156E+03 -0.85181583747E+03  0.15509680542E+04  0.99524962562E+03 0.  0.
   -9000010    2    1    2    0  501 -0.75366076356E+03  0.34840396156E+03  0.79535431537E+02  0.12332423173E+04  0.90838915747E+03 0.  0.
        -13    1    3    3    0    0  0.21878456092E+02  0.30976842617E+03 -0.17453067230E+03  0.35622480463E+03  0.10566000000E+00 0.  1.
          4    1    3    3  502    0  0.73178230747E+03 -0.65817238773E+03 -0.67728516517E+03  0.11947432496E+04  0.00000000000E+00 0.  1.
         13    1    4    4    0    0 -0.36257215782E+03 -0.69490804205E+02  0.42638464880E+03  0.56399594093E+03  0.10566000000E+00 0. -1.
         -4    1    4    4    0  501 -0.39108860575E+03  0.41789476576E+03 -0.34684921726E+03  0.66924637639E+03  0.00000000000E+00 0. -1.
<mgrwt>
<rscale>  2 0.12629707E+04</rscale>
<asrwt>0</asrwt>
<pdfrwt beam="1">  1        1 0.15476384E+00 0.12629707E+04</pdfrwt>
<pdfrwt beam="2">  1       -1 0.27357621E+00 0.12629707E+04</pdfrwt>
<totfact> 0.55671460E-01</totfact>
</mgrwt>
</event>
<event>
 8    1  0.1439553E-005  0.1061844E+04  0.7818608E-02  0.8718558E-01
         -2   -1    0    0    0  501 -0.00000000000E+00  0.00000000000E+00  0.83735307536E+03  0.83735307536E+03  0.00000000000E+00 0. -1.
          2   -1    0    0  502    0  0.00000000000E+00 -0.00000000000E+00 -0.13683356541E+04  0.13683356541E+04  0.00000000000E+00 0.  1.
    9000010    2    1    2  502    0  0.14736048334E+03  0.31891180446E+03 -0.40418241747E+03  0.11341024447E+04  0.99970249440E+03 0.  0.
   -9000010    2    1    2    0  501 -0.14736048334E+03 -0.31891180446E+03 -0.12680016127E+03  0.10715862848E+04  0.10043898814E+04 0.  0.
        -13    1    3    3    0    0 -0.27430997414E+03  0.33033748262E+03  0.13446172127E+03  0.44994308527E+03  0.10566000000E+00 0.  1.
          4    1    3    3  502    0  0.42167045748E+03 -0.11425678161E+02 -0.53864413874E+03  0.68415935938E+03  0.00000000000E+00 0.  1.
         13    1    4    4    0    0  0.33148722509E+03  0.65398732892E+02  0.18257768027E+03  0.38405129236E+03  0.10566000000E+00 0. -1.
         -4    1    4    4    0  501 -0.47884770843E+03 -0.38431053735E+03 -0.30937784154E+03  0.68753499244E+03  0.00000000000E+00 0. -1.
<mgrwt>
<rscale>  2 0.10618437E+04</rscale>
<asrwt>0</asrwt>
<pdfrwt beam="2">  1        2 0.21051318E+00 0.10618437E+04</pdfrwt>
<pdfrwt beam="1">  1       -2 0.12882355E+00 0.10618437E+04</pdfrwt>
<totfact> 0.97989608E+00</totfact>
</mgrwt>
</event>
<event>
 8    1  0.1439553E-005  0.1450502E+04  0.7818608E-02  0.8438568E-01
         -2   -1    0    0    0  501 -0.00000000000E+00  0.00000000000E+00  0.86666344593E+03  0.86666344593E+03  0.00000000000E+00 0.  1.
          2   -1    0    0  502    0  0.00000000000E+00 -0.00000000000E+00 -0.24434216103E+04  0.24434216103E+04  0.00000000000E+00 0. -1.
    9000010    2    1    2  502    0  0.86352701990E+03 -0.62929364393E+03 -0.91544900928E+03  0.17068040396E+04  0.96614892056E+03 0.  0.
   -9000010    2    1    2    0  501 -0.86352701990E+03  0.62929364393E+03 -0.66130915505E+03  0.16032810166E+04  0.99573631807E+03 0.  0.
        -13    1    3    3    0    0 -0.39430822249E+02  0.20522670874E+03 -0.16575792378E+03  0.26673674697E+03  0.10566000000E+00 0.  1.
          4    1    3    3  502    0  0.90295784215E+03 -0.83452035267E+03 -0.74969108550E+03  0.14400672927E+04  0.00000000000E+00 0.  1.
         13    1    4    4    0    0  0.17960768994E+03  0.25932713672E+03 -0.30946480075E+03  0.44190265919E+03  0.10566000000E+00 0. -1.
         -4    1    4    4    0  501 -0.10431347098E+04  0.36996650721E+03 -0.35184435430E+03  0.11613783574E+04  0.00000000000E+00 0. -1.
<mgrwt>
<rscale>  2 0.14505022E+04</rscale>
<asrwt>0</asrwt>
<pdfrwt beam="2">  1        2 0.37591101E+00 0.14505022E+04</pdfrwt>
<pdfrwt beam="1">  1       -2 0.13333284E+00 0.14505022E+04</pdfrwt>
<totfact> 0.22036438E+00</totfact>
</mgrwt>
</event>
<event>
 8    1  0.1439553E-005  0.1587276E+04  0.7818608E-02  0.8360970E-01
         -2   -1    0    0    0  501 -0.00000000000E+00  0.00000000000E+00  0.95188533283E+03  0.95188533283E+03  0.00000000000E+00 0.  1.
          2   -1    0    0  502    0  0.00000000000E+00 -0.00000000000E+00 -0.26599573707E+04  0.26599573707E+04  0.00000000000E+00 0. -1.
    9000010    2    1    2  502    0 -0.99333918950E+03 -0.72924790780E+03 -0.72932917641E+03  0.17506263174E+04  0.10070979095E+04 0.  0.
   -9000010    2    1    2    0  501  0.99333918950E+03  0.72924790780E+03 -0.97874286145E+03  0.18612163861E+04  0.99381265367E+03 0.  0.
        -13    1    3    3    0    0 -0.23170213726E+01  0.18327599739E+03 -0.27193804723E+03  0.32794172120E+03  0.10566000000E+00 0.  1.
          4    1    3    3  502    0 -0.99102216813E+03 -0.91252390520E+03 -0.45739112918E+03  0.14226845962E+04  0.00000000000E+00 0.  1.
         13    1    4    4    0    0  0.20802093544E+03  0.33703924412E+03 -0.89585313259E+03  0.97950038693E+03  0.10566000000E+00 0. -1.
         -4    1    4    4    0  501  0.78531825406E+03  0.39220866369E+03 -0.82889728861E+02  0.88171599917E+03  0.00000000000E+00 0. -1.
<mgrwt>
<rscale>  2 0.15872760E+04</rscale>
<asrwt>0</asrwt>
<pdfrwt beam="2">  1        2 0.40922421E+00 0.15872760E+04</pdfrwt>
<pdfrwt beam="1">  1       -2 0.14644390E+00 0.15872760E+04</pdfrwt>
<totfact> 0.12436244E+00</totfact>
</mgrwt>
</event>
<event>
 8    1  0.1439553E-005  0.1192556E+04  0.7818608E-02  0.8612189E-01
          1   -1    0    0  502    0  0.00000000000E+00  0.00000000000E+00  0.18140101812E+04  0.18140101812E+04  0.00000000000E+00 0.  1.
         -1   -1    0    0    0  501 -0.00000000000E+00 -0.00000000000E+00 -0.86417997364E+03  0.86417997364E+03  0.00000000000E+00 0. -1.
    9000010    2    1    2  502    0  0.14916495518E+03  0.63760896295E+03  0.66347124053E+02  0.11924919650E+04  0.99440422978E+03 0.  0.
   -9000010    2    1    2    0  501 -0.14916495518E+03 -0.63760896295E+03  0.88348308349E+03  0.14856981898E+04  0.99898016945E+03 0.  0.
        -13    1    3    3    0    0 -0.35860298616E+03  0.18241960348E+03 -0.21338605337E+03  0.45541918312E+03  0.10566000000E+00 0.  1.
          4    1    3    3  502    0  0.50776794134E+03  0.45518935948E+03  0.27973317742E+03  0.73707278187E+03  0.00000000000E+00 0.  1.
         13    1    4    4    0    0 -0.54597091470E+03 -0.43922158239E+03  0.74076163816E+03  0.10196703653E+04  0.10566000000E+00 0. -1.
         -4    1    4    4    0  501  0.39680595952E+03 -0.19838738056E+03  0.14272144533E+03  0.46602782453E+03  0.00000000000E+00 0. -1.
<mgrwt>
<rscale>  2 0.11925555E+04</rscale>
<asrwt>0</asrwt>
<pdfrwt beam="1">  1        1 0.27907849E+00 0.11925555E+04</pdfrwt>
<pdfrwt beam="2">  1       -1 0.13295077E+00 0.11925555E+04</pdfrwt>
<totfact> 0.26413230E+00</totfact>
</mgrwt>
</event>
<event>
 8    1  0.1439553E-005  0.1182150E+04  0.7818608E-02  0.8620127E-01
          1   -1    0    0  502    0  0.00000000000E+00  0.00000000000E+00  0.10200545380E+04  0.10200545380E+04  0.00000000000E+00 0. -1.
         -1   -1    0    0    0  501 -0.00000000000E+00 -0.00000000000E+00 -0.16288761668E+04  0.16288761668E+04  0.00000000000E+00 0.  1.
    9000010    2    1    2  502    0  0.50552435448E+03 -0.38384814885E+03  0.22286715859E+03  0.12062305363E+04  0.10012132950E+04 0.  0.
   -9000010    2    1    2    0  501 -0.50552435448E+03  0.38384814885E+03 -0.83168878738E+03  0.14427001684E+04  0.99336965046E+03 0.  0.
        -13    1    3    3    0    0 -0.14150490948E+03  0.90662026682E+02 -0.23001444901E+03  0.28486821586E+03  0.10566000000E+00 0.  1.
          4    1    3    3  502    0  0.64702926396E+03 -0.47451017554E+03  0.45288160760E+03  0.92136232048E+03  0.00000000000E+00 0.  1.
         13    1    4    4    0    0 -0.39854236565E+03 -0.15323693645E+03 -0.78432534814E+03  0.89301950640E+03  0.10566000000E+00 0. -1.
         -4    1    4    4    0  501 -0.10698198883E+03  0.53708508530E+03 -0.47363439241E+02  0.54968066199E+03  0.00000000000E+00 0. -1.
<mgrwt>
<rscale>  2 0.11821498E+04</rscale>
<asrwt>0</asrwt>
<pdfrwt beam="1">  1        1 0.15693147E+00 0.11821498E+04</pdfrwt>
<pdfrwt beam="2">  1       -1 0.25059633E+00 0.11821498E+04</pdfrwt>
<totfact> 0.92402574E-01</totfact>
</mgrwt>
</event>
<event>
 8    1  0.1439553E-005  0.1445953E+04  0.7818608E-02  0.8441299E-01
         -1   -1    0    0    0  501 -0.00000000000E+00  0.00000000000E+00  0.92260040766E+03  0.92260040766E+03  0.00000000000E+00 0.  1.
          1   -1    0    0  502    0  0.00000000000E+00 -0.00000000000E+00 -0.24200462851E+04  0.24200462851E+04  0.00000000000E+00 0. -1.
    9000010    2    1    2  502    0 -0.94762531222E+03 -0.45335999028E+03 -0.11723418627E+04  0.18650736955E+04  0.10002926740E+04 0.  0.
   -9000010    2    1    2    0  501  0.94762531222E+03  0.45335999028E+03 -0.32510401477E+03  0.14775729972E+04  0.98691454981E+03 0.  0.
        -13    1    3    3    0    0 -0.69347338287E+03 -0.76834832706E+03 -0.94128254092E+03  0.13990272755E+04  0.10566000000E+00 0.  1.
          4    1    3    3  502    0 -0.25415192935E+03  0.31498833678E+03 -0.23105932178E+03  0.46604642009E+03  0.00000000000E+00 0.  1.
         13    1    4    4    0    0  0.64657803690E+02  0.54566516510E+03 -0.70367356832E+02  0.55396992703E+03  0.10566000000E+00 0. -1.
         -4    1    4    4    0  501  0.88296750853E+03 -0.92305174819E+02 -0.25473665794E+03  0.92360307022E+03  0.00000000000E+00 0. -1.
<mgrwt>
<rscale>  2 0.14459528E+04</rscale>
<asrwt>0</asrwt>
<pdfrwt beam="2">  1        1 0.37231480E+00 0.14459528E+04</pdfrwt>
<pdfrwt beam="1">  1       -1 0.14193853E+00 0.14459528E+04</pdfrwt>
<totfact> 0.70046981E-01</totfact>
</mgrwt>
</event>
<event>
 8    1  0.1439553E-005  0.1070416E+04  0.7818608E-02  0.8711104E-01
         -2   -1    0    0    0  501 -0.00000000000E+00  0.00000000000E+00  0.44405468400E+04  0.44405468400E+04  0.00000000000E+00 0.  1.
          2   -1    0    0  502    0  0.00000000000E+00 -0.00000000000E+00 -0.37539146536E+03  0.37539146536E+03  0.00000000000E+00 0. -1.
    9000010    2    1    2  502    0 -0.23541202470E+03  0.28878983977E+03  0.68176597973E+03  0.12662328611E+04  0.99986119757E+03 0.  0.
   -9000010    2    1    2    0  501  0.23541202470E+03 -0.28878983977E+03  0.33833893949E+04  0.35497054443E+04  0.10071080135E+04 0.  0.
        -13    1    3    3    0    0 -0.38429767970E+03  0.57101723952E+03  0.64805117220E+03  0.94536539360E+03  0.10566000000E+00 0.  1.
          4    1    3    3  502    0  0.14888565500E+03 -0.28222739975E+03  0.33714807530E+02  0.32086746747E+03  0.00000000000E+00 0.  1.
         13    1    4    4    0    0 -0.34548772427E+03 -0.96845606536E+02  0.59354143319E+03  0.69356490915E+03  0.10566000000E+00 0. -1.
         -4    1    4    4    0  501  0.58089974896E+03 -0.19194423324E+03  0.27898479617E+04  0.28561405352E+04  0.00000000000E+00 0. -1.
<mgrwt>
<rscale>  2 0.10704157E+04</rscale>
<asrwt>0</asrwt>
<pdfrwt beam="2">  1        2 0.57752536E-01 0.10704157E+04</pdfrwt>
<pdfrwt beam="1">  1       -2 0.68316102E+00 0.10704157E+04</pdfrwt>
<totfact> 0.23405378E-01</totfact>
</mgrwt>
</event>
<event>
 8    1  0.1439553E-005  0.1358534E+04  0.7818608E-02  0.8495878E-01
          2   -1    0    0  502    0  0.00000000000E+00  0.00000000000E+00  0.20235236087E+04  0.20235236087E+04  0.00000000000E+00 0. -1.
         -2   -1    0    0    0  501 -0.00000000000E+00 -0.00000000000E+00 -0.14023922217E+04  0.14023922217E+04  0.00000000000E+00 0.  1.
    9000010    2    1    2  502    0 -0.49198634754E+03  0.82265647667E+03 -0.70211755617E+03  0.15302830289E+04  0.96435617963E+03 0.  0.
   -9000010    2    1    2    0  501  0.49198634754E+03 -0.82265647667E+03  0.13232489432E+04  0.18956328015E+04  0.96105239601E+03 0.  0.
        -13    1    3    3    0    0 -0.11665354126E+02 -0.13620043512E+03  0.11770003214E+03  0.18038832486E+03  0.10566000000E+00 0.  1.
          4    1    3    3  502    0 -0.48032099341E+03  0.95885691179E+03 -0.81981758831E+03  0.13498947041E+04  0.00000000000E+00 0.  1.
         13    1    4    4    0    0  0.46451394645E+03 -0.61411231808E+03  0.26142225163E+03  0.81317203006E+03  0.10566000000E+00 0. -1.
         -4    1    4    4    0  501  0.27472401091E+02 -0.20854415859E+03  0.10618266915E+04  0.10824607715E+04  0.00000000000E+00 0. -1.
<mgrwt>
<rscale>  2 0.13585337E+04</rscale>
<asrwt>0</asrwt>
<pdfrwt beam="1">  1        2 0.31131132E+00 0.13585337E+04</pdfrwt>
<pdfrwt beam="2">  1       -2 0.21575265E+00 0.13585337E+04</pdfrwt>
<totfact> 0.75031437E-01</totfact>
</mgrwt>
</event>
<event>
 8    1  0.1439553E-005  0.1031821E+04  0.7818608E-02  0.8745254E-01
         -4   -1    0    0    0  501 -0.00000000000E+00  0.00000000000E+00  0.82767194280E+03  0.82767194280E+03  0.00000000000E+00 0. -1.
          4   -1    0    0  502    0  0.00000000000E+00 -0.00000000000E+00 -0.14422089061E+04  0.14422089061E+04  0.00000000000E+00 0.  1.
    9000010    2    1    2  502    0 -0.26925274762E+03  0.80479601078E+01 -0.67881926625E+03  0.12303105633E+04  0.99010437545E+03 0.  0.
   -9000010    2    1    2    0  501  0.26925274762E+03 -0.80479601078E+01  0.64282302932E+02  0.10395702856E+04  0.10020041679E+04 0.  0.
        -13    1    3    3    0    0 -0.20828906008E+03 -0.46592651587E+03 -0.51521407574E+03  0.72520163109E+03  0.10566000000E+00 0.  1.
          4    1    3    3  502    0 -0.60963687545E+02  0.47397447598E+03 -0.16360519051E+03  0.50510893225E+03  0.00000000000E+00 0.  1.
         13    1    4    4    0    0  0.37529191748E+03 -0.42639211345E+03 -0.10192280473E+03  0.57709836859E+03  0.10566000000E+00 0. -1.
         -4    1    4    4    0  501 -0.10603916986E+03  0.41834415334E+03  0.16620510767E+03  0.46247191698E+03  0.00000000000E+00 0. -1.
<mgrwt>
<rscale>  2 0.10318214E+04</rscale>
<asrwt>0</asrwt>
<pdfrwt beam="2">  1        4 0.22187829E+00 0.10318214E+04</pdfrwt>
<pdfrwt beam="1">  1       -4 0.12733415E+00 0.10318214E+04</pdfrwt>
<totfact> 0.30551323E-01</totfact>
</mgrwt>
</event>
<event>
 8    1  0.1439553E-005  0.1087865E+04  0.7818608E-02  0.8696153E-01
         -2   -1    0    0    0  501 -0.00000000000E+00  0.00000000000E+00  0.91778510649E+03  0.91778510649E+03  0.00000000000E+00 0.  1.
          2   -1    0    0  502    0  0.00000000000E+00 -0.00000000000E+00 -0.14617404135E+04  0.14617404135E+04  0.00000000000E+00 0. -1.
    9000010    2    1    2  502    0  0.27842294113E+03  0.53366749598E+03  0.14484472568E+03  0.10203591567E+04  0.81106872937E+03 0.  0.
   -9000010    2    1    2    0  501 -0.27842294113E+03 -0.53366749598E+03 -0.68880003268E+03  0.13591663633E+04  0.10052698083E+04 0.  0.
        -13    1    3    3    0    0  0.40435672508E+03  0.57646779287E+03  0.34178500326E+03  0.78271097920E+03  0.10566000000E+00 0.  1.
          4    1    3    3  502    0 -0.12593378395E+03 -0.42800296891E+02 -0.19694027758E+03  0.23764817754E+03  0.00000000000E+00 0.  1.
         13    1    4    4    0    0 -0.71073913213E+02 -0.75659919369E+03 -0.72779432148E+03  0.10522254638E+04  0.10566000000E+00 0. -1.
         -4    1    4    4    0  501 -0.20734902792E+03  0.22293169771E+03  0.38994288794E+02  0.30694089949E+03  0.00000000000E+00 0. -1.
<mgrwt>
<rscale>  2 0.10878651E+04</rscale>
<asrwt>0</asrwt>
<pdfrwt beam="2">  1        2 0.22488314E+00 0.10878651E+04</pdfrwt>
<pdfrwt beam="1">  1       -2 0.14119771E+00 0.10878651E+04</pdfrwt>
<totfact> 0.66918392E+00</totfact>
</mgrwt>
</event>
<event>
 8    1  0.1439553E-005  0.1093400E+04  0.7818608E-02  0.8691471E-01
          4   -1    0    0  502    0  0.00000000000E+00  0.00000000000E+00  0.11408255501E+04  0.11408255501E+04  0.00000000000E+00 0.  1.
         -4   -1    0    0    0  501 -0.00000000000E+00 -0.00000000000E+00 -0.12200233198E+04  0.12200233198E+04  0.00000000000E+00 0. -1.
    9000010    2    1    2  502    0 -0.35586064254E+03 -0.26940537075E+03  0.40341087997E+03  0.11725504738E+04  0.10064383860E+04 0.  0.
   -9000010    2    1    2    0  501  0.35586064254E+03  0.26940537075E+03 -0.48260864963E+03  0.11882983961E+04  0.98991207631E+03 0.  0.
        -13    1    3    3    0    0  0.52778587029E+02 -0.58215653136E+03  0.18069697872E+03  0.61183593842E+03  0.10566000000E+00 0.  1.
          4    1    3    3  502    0 -0.40863922957E+03  0.31275116061E+03  0.22271390125E+03  0.56071453540E+03  0.00000000000E+00 0.  1.
         13    1    4    4    0    0  0.39909243863E+03  0.56948455991E+02 -0.74551059599E+03  0.84752814768E+03  0.10566000000E+00 0. -1.
         -4    1    4    4    0  501 -0.43231796092E+02  0.21245691476E+03  0.26290194636E+03  0.34077024844E+03  0.00000000000E+00 0. -1.
<mgrwt>
<rscale>  2 0.10934003E+04</rscale>
<asrwt>0</asrwt>
<pdfrwt beam="1">  1        4 0.17551162E+00 0.10934003E+04</pdfrwt>
<pdfrwt beam="2">  1       -4 0.18769589E+00 0.10934003E+04</pdfrwt>
<totfact> 0.23557246E-01</totfact>
</mgrwt>
</event>
<event>
 8    1  0.1439553E-005  0.1045677E+04  0.7818608E-02  0.8732819E-01
         -2   -1    0    0    0  501 -0.00000000000E+00  0.00000000000E+00  0.50727367548E+03  0.50727367548E+03  0.00000000000E+00 0.  1.
          2   -1    0    0  502    0  0.00000000000E+00 -0.00000000000E+00 -0.21877630794E+04  0.21877630794E+04  0.00000000000E+00 0. -1.
    9000010    2    1    2  502    0  0.27469229957E+03  0.12183882317E+02 -0.10132565756E+04  0.14654865076E+04  0.10224272637E+04 0.  0.
   -9000010    2    1    2    0  501 -0.27469229957E+03 -0.12183882317E+02 -0.66723282834E+03  0.12295502473E+04  0.99548473465E+03 0.  0.
        -13    1    3    3    0    0 -0.15367814145E+03  0.32553249591E+03 -0.82880091205E+03  0.90360353034E+03  0.10566000000E+00 0.  1.
          4    1    3    3  502    0  0.42837044101E+03 -0.31334861359E+03 -0.18445566357E+03  0.56188297731E+03  0.00000000000E+00 0.  1.
         13    1    4    4    0    0 -0.40803697789E+02 -0.49425253452E+03 -0.29351979141E+03  0.57628498917E+03  0.10566000000E+00 0. -1.
         -4    1    4    4    0  501 -0.23388860178E+03  0.48206865220E+03 -0.37371303693E+03  0.65326525810E+03  0.00000000000E+00 0. -1.
<mgrwt>
<rscale>  2 0.10456769E+04</rscale>
<asrwt>0</asrwt>
<pdfrwt beam="2">  1        2 0.33657893E+00 0.10456769E+04</pdfrwt>
<pdfrwt beam="1">  1       -2 0.78042104E-01 0.10456769E+04</pdfrwt>
<totfact> 0.11838135E+01</totfact>
</mgrwt>
</event>
<event>
 8    1  0.1439553E-005  0.1709800E+04  0.7818608E-02  0.8298031E-01
         -2   -1    0    0    0  501 -0.00000000000E+00  0.00000000000E+00  0.29233153810E+04  0.29233153810E+04  0.00000000000E+00 0. -1.
          2   -1    0    0  502    0  0.00000000000E+00 -0.00000000000E+00 -0.10578579297E+04  0.10578579297E+04  0.00000000000E+00 0.  1.
    9000010    2    1    2  502    0 -0.21900692337E+03 -0.13688950323E+04  0.46831740932E+03  0.17746045044E+04  0.10040230621E+04 0.  0.
   -9000010    2    1    2    0  501  0.21900692337E+03  0.13688950323E+04  0.13971400419E+04  0.22065688063E+04  0.99755098022E+03 0.  0.
        -13    1    3    3    0    0  0.24767341913E+03 -0.60696271799E+03 -0.16914626714E+03  0.67702018761E+03  0.10566000000E+00 0.  1.
          4    1    3    3  502    0 -0.46668034250E+03 -0.76193231431E+03  0.63746367645E+03  0.10975843168E+04  0.00000000000E+00 0.  1.
         13    1    4    4    0    0  0.26446670021E+03  0.14701351671E+04  0.14516613534E+04  0.20829212038E+04  0.10566000000E+00 0. -1.
         -4    1    4    4    0  501 -0.45459776845E+02 -0.10124013475E+03 -0.54521311511E+02  0.12364760250E+03  0.00000000000E+00 0. -1.
<mgrwt>
<rscale>  2 0.17097999E+04</rscale>
<asrwt>0</asrwt>
<pdfrwt beam="2">  1        2 0.16274738E+00 0.17097999E+04</pdfrwt>
<pdfrwt beam="1">  1       -2 0.44974082E+00 0.17097999E+04</pdfrwt>
<totfact> 0.10030247E-01</totfact>
</mgrwt>
</event>
<event>
 8    1  0.1439553E-005  0.1436085E+04  0.7818608E-02  0.8447260E-01
          2   -1    0    0  502    0  0.00000000000E+00  0.00000000000E+00  0.11855938292E+04  0.11855938292E+04  0.00000000000E+00 0.  1.
         -2   -1    0    0    0  501 -0.00000000000E+00 -0.00000000000E+00 -0.18131419066E+04  0.18131419066E+04  0.00000000000E+00 0. -1.
    9000010    2    1    2  502    0 -0.95821176241E+03  0.37777402657E+03 -0.10069401348E+02  0.14283136759E+04  0.98949258070E+03 0.  0.
   -9000010    2    1    2    0  501  0.95821176241E+03 -0.37777402657E+03 -0.61747867603E+03  0.15704220599E+04  0.10119597492E+04 0.  0.
        -13    1    3    3    0    0 -0.88929946305E+03  0.48973507647E+03  0.32693423342E+03  0.10665739469E+04  0.10566000000E+00 0.  1.
          4    1    3    3  502    0 -0.68912299363E+02 -0.11196104991E+03 -0.33700363477E+03  0.36173972902E+03  0.00000000000E+00 0.  1.
         13    1    4    4    0    0  0.58826547624E+03 -0.72649363130E+03 -0.37585342432E+03  0.10075291929E+04  0.10566000000E+00 0. -1.
         -4    1    4    4    0  501  0.36994628617E+03  0.34871960474E+03 -0.24162525171E+03  0.56289286694E+03  0.00000000000E+00 0. -1.
<mgrwt>
<rscale>  2 0.14360848E+04</rscale>
<asrwt>0</asrwt>
<pdfrwt beam="1">  1        2 0.18239905E+00 0.14360848E+04</pdfrwt>
<pdfrwt beam="2">  1       -2 0.27894491E+00 0.14360848E+04</pdfrwt>
<totfact> 0.69247647E-01</totfact>
</mgrwt>
</event>
<event>
 8    1  0.1439553E-005  0.1144076E+04  0.7818608E-02  0.8649908E-01
          1   -1    0    0  502    0  0.00000000000E+00  0.00000000000E+00  0.96639981617E+03  0.96639981617E+03  0.00000000000E+00 0. -1.
         -1   -1    0    0    0  501 -0.00000000000E+00 -0.00000000000E+00 -0.15200488820E+04  0.15200488820E+04  0.00000000000E+00 0.  1.
    9000010    2    1    2  502    0 -0.36536567955E+03 -0.42782883941E+03 -0.68590540503E+03  0.13289568345E+04  0.98951020594E+03 0.  0.
   -9000010    2    1    2    0  501  0.36536567955E+03  0.42782883941E+03  0.13225633916E+03  0.11574918637E+04  0.10028788958E+04 0.  0.
        -13    1    3    3    0    0  0.15171525665E+03 -0.25906013087E+03  0.14692450903E+03  0.33424017266E+03  0.10566000000E+00 0.  1.
          4    1    3    3  502    0 -0.51708093621E+03 -0.16876870854E+03 -0.83282991405E+03  0.99471666183E+03  0.00000000000E+00 0.  1.
         13    1    4    4    0    0 -0.24449440506E+03 -0.15261205554E+03 -0.58816806058E+02  0.29415536956E+03  0.10566000000E+00 0. -1.
         -4    1    4    4    0  501  0.60986008461E+03  0.58044089495E+03  0.19107314522E+03  0.86333649416E+03  0.00000000000E+00 0. -1.
<mgrwt>
<rscale>  2 0.11440761E+04</rscale>
<asrwt>0</asrwt>
<pdfrwt beam="1">  1        1 0.14867689E+00 0.11440761E+04</pdfrwt>
<pdfrwt beam="2">  1       -1 0.23385367E+00 0.11440761E+04</pdfrwt>
<totfact> 0.14898561E+00</totfact>
</mgrwt>
</event>
<event>
 8    1  0.1439553E-005  0.1079422E+04  0.7818608E-02  0.8703351E-01
          1   -1    0    0  502    0  0.00000000000E+00  0.00000000000E+00  0.14276367701E+04  0.14276367701E+04  0.00000000000E+00 0. -1.
         -1   -1    0    0    0  501 -0.00000000000E+00 -0.00000000000E+00 -0.83098172405E+03  0.83098172405E+03  0.00000000000E+00 0.  1.
    9000010    2    1    2  502    0 -0.30921883562E+02 -0.35852329770E+03  0.14650841713E+03  0.10859027845E+04  0.10140143111E+04 0.  0.
   -9000010    2    1    2    0  501  0.30921883562E+02  0.35852329770E+03  0.45014662896E+03  0.11727157097E+04  0.10213398212E+04 0.  0.
        -13    1    3    3    0    0  0.31612723603E+02  0.19751884981E+03  0.41842727661E+03  0.46378276951E+03  0.10566000000E+00 0.  1.
          4    1    3    3  502    0 -0.62534607165E+02 -0.55604214751E+03 -0.27191885948E+03  0.62212001498E+03  0.00000000000E+00 0.  1.
         13    1    4    4    0    0  0.25000840559E+03  0.37855332899E+03 -0.19298148254E+03  0.49299968511E+03  0.10566000000E+00 0. -1.
         -4    1    4    4    0  501 -0.21908652203E+03 -0.20030031286E+02  0.64312811151E+03  0.67971602460E+03  0.00000000000E+00 0. -1.
<mgrwt>
<rscale>  2 0.10794217E+04</rscale>
<asrwt>0</asrwt>
<pdfrwt beam="1">  1        1 0.21963643E+00 0.10794217E+04</pdfrwt>
<pdfrwt beam="2">  1       -1 0.12784334E+00 0.10794217E+04</pdfrwt>
<totfact> 0.57621012E+00</totfact>
</mgrwt>
</event>
<event>
 8    1  0.1439553E-005  0.1393097E+04  0.7818608E-02  0.8473809E-01
         -2   -1    0    0    0  501 -0.00000000000E+00  0.00000000000E+00  0.79189843757E+03  0.79189843757E+03  0.00000000000E+00 0.  1.
          2   -1    0    0  502    0  0.00000000000E+00 -0.00000000000E+00 -0.24562404372E+04  0.24562404372E+04  0.00000000000E+00 0. -1.
    9000010    2    1    2  502    0  0.99694478114E+03  0.13575490413E+03 -0.91844936796E+03  0.16903135714E+04  0.10006410133E+04 0.  0.
   -9000010    2    1    2    0  501 -0.99694478114E+03 -0.13575490413E+03 -0.74589263170E+03  0.15578253034E+04  0.92635606936E+03 0.  0.
        -13    1    3    3    0    0  0.69192419961E+03 -0.39855836729E+03 -0.44616552298E+03  0.91469752115E+03  0.10566000000E+00 0.  1.
          4    1    3    3  502    0  0.30502058153E+03  0.53431327143E+03 -0.47228384497E+03  0.77561605025E+03  0.00000000000E+00 0.  1.
         13    1    4    4    0    0 -0.23069804655E+03 -0.41997150365E+03 -0.45163702988E+02  0.48128725704E+03  0.10566000000E+00 0. -1.
         -4    1    4    4    0  501 -0.76624673459E+03  0.28421659952E+03 -0.70072892871E+03  0.10765380463E+04  0.00000000000E+00 0. -1.
<mgrwt>
<rscale>  2 0.13930965E+04</rscale>
<asrwt>0</asrwt>
<pdfrwt beam="2">  1        2 0.37788314E+00 0.13930965E+04</pdfrwt>
<pdfrwt beam="1">  1       -2 0.12183053E+00 0.13930965E+04</pdfrwt>
<totfact> 0.27954993E+00</totfact>
</mgrwt>
</event>
<event>
 8    1  0.1439553E-005  0.1119936E+04  0.7818608E-02  0.8669421E-01
         -4   -1    0    0    0  501 -0.00000000000E+00  0.00000000000E+00  0.32212127715E+04  0.32212127715E+04  0.00000000000E+00 0. -1.
          4   -1    0    0  502    0  0.00000000000E+00 -0.00000000000E+00 -0.53662791415E+03  0.53662791415E+03  0.00000000000E+00 0.  1.
    9000010    2    1    2  502    0  0.44423330946E+03  0.25359671771E+03  0.37741563377E+03  0.12024723637E+04  0.10207069592E+04 0.  0.
   -9000010    2    1    2    0  501 -0.44423330946E+03 -0.25359671771E+03  0.23071692236E+04  0.25553683219E+04  0.97222574840E+03 0.  0.
        -13    1    3    3    0    0 -0.66281978726E+02  0.54347546182E+03  0.24926525394E+03  0.60157464731E+03  0.10566000000E+00 0.  1.
          4    1    3    3  502    0  0.51051528819E+03 -0.28987874411E+03  0.12815037983E+03  0.60089771643E+03  0.00000000000E+00 0.  1.
         13    1    4    4    0    0 -0.21264102214E+03  0.33294637054E+03  0.47557926715E+03  0.61825976778E+03  0.10566000000E+00 0. -1.
         -4    1    4    4    0  501 -0.23159228732E+03 -0.58654308825E+03  0.18315899564E+04  0.19371085541E+04  0.00000000000E+00 0. -1.
<mgrwt>
<rscale>  2 0.11199363E+04</rscale>
<asrwt>0</asrwt>
<pdfrwt beam="2">  1        4 0.82558142E-01 0.11199363E+04</pdfrwt>
<pdfrwt beam="1">  1       -4 0.49557118E+00 0.11199363E+04</pdfrwt>
<totfact> 0.76223373E-02</totfact>
</mgrwt>
</event>
<event>
 8    1  0.1439553E-005  0.1295936E+04  0.7818608E-02  0.8537622E-01
          2   -1    0    0  502    0  0.00000000000E+00  0.00000000000E+00  0.15595929406E+04  0.15595929406E+04  0.00000000000E+00 0.  1.
         -2   -1    0    0    0  501 -0.00000000000E+00 -0.00000000000E+00 -0.11803685740E+04  0.11803685740E+04  0.00000000000E+00 0. -1.
    9000010    2    1    2  502    0 -0.86746166418E+02 -0.88268339158E+03  0.59629430668E+03  0.14338106432E+04  0.95581964466E+03 0.  0.
   -9000010    2    1    2    0  501  0.86746166418E+02  0.88268339158E+03 -0.21706994013E+03  0.13061508714E+04  0.93394639717E+03 0.  0.
        -13    1    3    3    0    0 -0.23194403809E+03  0.11617063624E+03  0.26659291748E+03  0.37197506414E+03  0.10566000000E+00 0.  1.
          4    1    3    3  502    0  0.14519787167E+03 -0.99885402782E+03  0.32970138920E+03  0.10618355790E+04  0.00000000000E+00 0.  1.
         13    1    4    4    0    0 -0.12715327545E+03  0.81480541042E+03 -0.48495453408E+03  0.95669050565E+03  0.10566000000E+00 0. -1.
         -4    1    4    4    0  501  0.21389944186E+03  0.67877981166E+02  0.26788459395E+03  0.34946036575E+03  0.00000000000E+00 0. -1.
<mgrwt>
<rscale>  2 0.12959364E+04</rscale>
<asrwt>0</asrwt>
<pdfrwt beam="1">  1        2 0.23993738E+00 0.12959364E+04</pdfrwt>
<pdfrwt beam="2">  1       -2 0.18159517E+00 0.12959364E+04</pdfrwt>
<totfact> 0.25963230E+00</totfact>
</mgrwt>
</event>
<event>
 8    1  0.1439553E-005  0.1103192E+04  0.7818608E-02  0.8683259E-01
          2   -1    0    0  502    0  0.00000000000E+00  0.00000000000E+00  0.83678161523E+03  0.83678161523E+03  0.00000000000E+00 0. -1.
         -2   -1    0    0    0  501 -0.00000000000E+00 -0.00000000000E+00 -0.16119087538E+04  0.16119087538E+04  0.00000000000E+00 0.  1.
    9000010    2    1    2  502    0 -0.28810093061E+03  0.33198107394E+03 -0.11008126779E+01  0.10905794413E+04  0.99807250560E+03 0.  0.
   -9000010    2    1    2    0  501  0.28810093061E+03 -0.33198107394E+03 -0.77402632590E+03  0.13581109277E+04  0.10257363009E+04 0.  0.
        -13    1    3    3    0    0 -0.36294282468E+03  0.65640470505E+03 -0.60024885407E+02  0.75246104806E+03  0.10566000000E+00 0.  1.
          4    1    3    3  502    0  0.74841894079E+02 -0.32442363112E+03  0.58924072729E+02  0.33811839329E+03  0.00000000000E+00 0.  1.
         13    1    4    4    0    0 -0.31160984725E+03 -0.18460464262E+03  0.72212858476E+01  0.36225920156E+03  0.10566000000E+00 0. -1.
         -4    1    4    4    0  501  0.59971077786E+03 -0.14737643132E+03 -0.78124761174E+03  0.99585172613E+03  0.00000000000E+00 0. -1.
<mgrwt>
<rscale>  2 0.11031924E+04</rscale>
<asrwt>0</asrwt>
<pdfrwt beam="1">  1        2 0.12873563E+00 0.11031924E+04</pdfrwt>
<pdfrwt beam="2">  1       -2 0.24798596E+00 0.11031924E+04</pdfrwt>
<totfact> 0.20181460E+00</totfact>
</mgrwt>
</event>
<event>
 8    1  0.1439553E-005  0.1311770E+04  0.7818608E-02  0.8526837E-01
          2   -1    0    0  502    0  0.00000000000E+00  0.00000000000E+00  0.18297641333E+04  0.18297641333E+04  0.00000000000E+00 0. -1.
         -2   -1    0    0    0  501 -0.00000000000E+00 -0.00000000000E+00 -0.94348756097E+03  0.94348756097E+03  0.00000000000E+00 0.  1.
    9000010    2    1    2  502    0 -0.50655138000E+03 -0.67533458952E+03  0.52205748807E+03  0.14112937409E+04  0.10032621263E+04 0.  0.
   -9000010    2    1    2    0  501  0.50655138000E+03  0.67533458952E+03  0.36421908429E+03  0.13619579534E+04  0.10047899367E+04 0.  0.
        -13    1    3    3    0    0 -0.42851591049E+03 -0.82044251165E+03  0.70616700282E+03  0.11642266306E+04  0.10566000000E+00 0.  1.
          4    1    3    3  502    0 -0.78035469516E+02  0.14510792213E+03 -0.18410951475E+03  0.24706711030E+03  0.00000000000E+00 0.  1.
         13    1    4    4    0    0  0.35422560372E+03 -0.10246464005E+03  0.43023745984E+03  0.56663838893E+03  0.10566000000E+00 0. -1.
         -4    1    4    4    0  501  0.15232577629E+03  0.77779922957E+03 -0.66018375555E+02  0.79531956443E+03  0.00000000000E+00 0. -1.
<mgrwt>
<rscale>  2 0.13117695E+04</rscale>
<asrwt>0</asrwt>
<pdfrwt beam="1">  1        2 0.28150217E+00 0.13117695E+04</pdfrwt>
<pdfrwt beam="2">  1       -2 0.14515193E+00 0.13117695E+04</pdfrwt>
<totfact> 0.37960312E+00</totfact>
</mgrwt>
</event>
<event>
 8    1  0.1439553E-005  0.1067383E+04  0.7818608E-02  0.8713733E-01
         -1   -1    0    0    0  501 -0.00000000000E+00  0.00000000000E+00  0.10991274520E+04  0.10991274520E+04  0.00000000000E+00 0. -1.
          1   -1    0    0  502    0  0.00000000000E+00 -0.00000000000E+00 -0.11746580261E+04  0.11746580261E+04  0.00000000000E+00 0.  1.
    9000010    2    1    2  502    0  0.13166310712E+03  0.32412446718E+03  0.35157714489E+03  0.11336840257E+04  0.10194317718E+04 0.  0.
   -9000010    2    1    2    0  501 -0.13166310712E+03 -0.32412446718E+03 -0.42710771902E+03  0.11401014524E+04  0.99750612734E+03 0.  0.
        -13    1    3    3    0    0 -0.34840521403E+03  0.46140194702E+03  0.17502750576E+03  0.60407995234E+03  0.10566000000E+00 0.  1.
          4    1    3    3  502    0  0.48006832115E+03 -0.13727747984E+03  0.17654963912E+03  0.52960407336E+03  0.00000000000E+00 0.  1.
         13    1    4    4    0    0  0.36508673078E+03 -0.25966662542E+02 -0.42480914519E+03  0.56073648851E+03  0.10566000000E+00 0. -1.
         -4    1    4    4    0  501 -0.49674983790E+03 -0.29815780464E+03 -0.22985738351E+01  0.57936496387E+03  0.00000000000E+00 0. -1.
<mgrwt>
<rscale>  2 0.10673833E+04</rscale>
<asrwt>0</asrwt>
<pdfrwt beam="2">  1        1 0.18071662E+00 0.10673833E+04</pdfrwt>
<pdfrwt beam="1">  1       -1 0.16909653E+00 0.10673833E+04</pdfrwt>
<totfact> 0.39302447E+00</totfact>
</mgrwt>
</event>
<event>
 8    1  0.1439553E-005  0.1133490E+04  0.7818608E-02  0.8658403E-01
         -2   -1    0    0    0  501 -0.00000000000E+00  0.00000000000E+00  0.51244245818E+03  0.51244245818E+03  0.00000000000E+00 0. -1.
          2   -1    0    0  502    0  0.00000000000E+00 -0.00000000000E+00 -0.25261950151E+04  0.25261950151E+04  0.00000000000E+00 0.  1.
    9000010    2    1    2  502    0  0.11815565121E+03 -0.51504573299E+03 -0.11429432644E+04  0.16133178992E+04  0.10085843907E+04 0.  0.
   -9000010    2    1    2    0  501 -0.11815565121E+03  0.51504573299E+03 -0.87080929255E+03  0.14253195741E+04  0.99699257745E+03 0.  0.
        -13    1    3    3    0    0  0.82306080993E+02 -0.82074072591E+03 -0.90319105501E+03  0.12231695398E+04  0.10566000000E+00 0.  1.
          4    1    3    3  502    0  0.35849570220E+02  0.30569499292E+03 -0.23975220940E+03  0.39014835934E+03  0.00000000000E+00 0.  1.
         13    1    4    4    0    0 -0.25105094520E+03  0.57998993205E+03 -0.10297360120E+04  0.12082099007E+04  0.10566000000E+00 0. -1.
         -4    1    4    4    0  501  0.13289529398E+03 -0.64944199065E+02  0.15892671950E+03  0.21710967350E+03  0.00000000000E+00 0. -1.
<mgrwt>
<rscale>  2 0.11334896E+04</rscale>
<asrwt>0</asrwt>
<pdfrwt beam="2">  1        2 0.38864539E+00 0.11334896E+04</pdfrwt>
<pdfrwt beam="1">  1       -2 0.78837301E-01 0.11334896E+04</pdfrwt>
<totfact> 0.74648176E+00</totfact>
</mgrwt>
</event>
<event>
 8    1  0.1439553E-005  0.1328540E+04  0.7818608E-02  0.8515584E-01
          4   -1    0    0  502    0  0.00000000000E+00  0.00000000000E+00  0.85133726753E+03  0.85133726753E+03  0.00000000000E+00 0.  1.
         -4   -1    0    0    0  501 -0.00000000000E+00 -0.00000000000E+00 -0.20818657906E+04  0.20818657906E+04  0.00000000000E+00 0. -1.
    9000010    2    1    2  502    0  0.66275069741E+03  0.52077602123E+03 -0.71592053845E+03  0.15251989599E+04  0.10503539873E+04 0.  0.
   -9000010    2    1    2    0  501 -0.66275069741E+03 -0.52077602123E+03 -0.51460798464E+03  0.14080040983E+04  0.10035975347E+04 0.  0.
        -13    1    3    3    0    0  0.16134025750E+03 -0.32438727881E+03 -0.15896461077E+03  0.39563562022E+03  0.10566000000E+00 0.  1.
          4    1    3    3  502    0  0.50141043991E+03  0.84516330003E+03 -0.55695592767E+03  0.11295633397E+04  0.00000000000E+00 0.  1.
         13    1    4    4    0    0 -0.33910222570E+03  0.28399956053E+03 -0.19798204283E+03  0.48460599491E+03  0.10566000000E+00 0. -1.
         -4    1    4    4    0  501 -0.32364847171E+03 -0.80477558176E+03 -0.31662594181E+03  0.92339810334E+03  0.00000000000E+00 0. -1.
<mgrwt>
<rscale>  2 0.13285401E+04</rscale>
<asrwt>0</asrwt>
<pdfrwt beam="1">  1        4 0.13097496E+00 0.13285401E+04</pdfrwt>
<pdfrwt beam="2">  1       -4 0.32028704E+00 0.13285401E+04</pdfrwt>
<totfact> 0.16239099E-01</totfact>
</mgrwt>
</event>
<event>
 8    1  0.1439553E-005  0.1323978E+04  0.7818608E-02  0.8518628E-01
         -2   -1    0    0    0  501 -0.00000000000E+00  0.00000000000E+00  0.93532498925E+03  0.93532498925E+03  0.00000000000E+00 0.  1.
          2   -1    0    0  502    0  0.00000000000E+00 -0.00000000000E+00 -0.18950635872E+04  0.18950635872E+04  0.00000000000E+00 0. -1.
    9000010    2    1    2  502    0  0.87513329852E+03 -0.31520787900E+02 -0.32976241310E+03  0.13605920922E+04  0.98773262684E+03 0.  0.
   -9000010    2    1    2    0  501 -0.87513329852E+03  0.31520787900E+02 -0.62997618490E+03  0.14697964843E+04  0.99828846599E+03 0.  0.
        -13    1    3    3    0    0  0.88104603746E+03  0.34056338446E+03 -0.27963711615E+03  0.98510023188E+03  0.10566000000E+00 0.  1.
          4    1    3    3  502    0 -0.59127389382E+01 -0.37208417236E+03 -0.50125296942E+02  0.37549186036E+03  0.00000000000E+00 0.  1.
         13    1    4    4    0    0 -0.54548536272E+03 -0.39364672340E+03 -0.64450182398E+03  0.93160862816E+03  0.10566000000E+00 0. -1.
         -4    1    4    4    0  501 -0.32964793581E+03  0.42516751130E+03  0.14525639084E+02  0.53818785609E+03  0.00000000000E+00 0. -1.
<mgrwt>
<rscale>  2 0.13239782E+04</rscale>
<asrwt>0</asrwt>
<pdfrwt beam="2">  1        2 0.29154824E+00 0.13239782E+04</pdfrwt>
<pdfrwt beam="1">  1       -2 0.14389615E+00 0.13239782E+04</pdfrwt>
<totfact> 0.35840297E+00</totfact>
</mgrwt>
</event>
<event>
 8    1  0.1439553E-005  0.1460282E+04  0.7818608E-02  0.8432731E-01
         -2   -1    0    0    0  501 -0.00000000000E+00  0.00000000000E+00  0.10185974654E+04  0.10185974654E+04  0.00000000000E+00 0. -1.
          2   -1    0    0  502    0  0.00000000000E+00 -0.00000000000E+00 -0.21099633609E+04  0.21099633609E+04  0.00000000000E+00 0.  1.
    9000010    2    1    2  502    0 -0.24862483487E+03  0.10350174064E+04 -0.68174236661E+03  0.16066222696E+04  0.99165877333E+03 0.  0.
   -9000010    2    1    2    0  501  0.24862483487E+03 -0.10350174064E+04 -0.40962352882E+03  0.15219385567E+04  0.10076855636E+04 0.  0.
        -13    1    3    3    0    0 -0.19146147354E+03  0.35101418909E+03  0.23317201848E+03  0.46285814042E+03  0.10566000000E+00 0.  1.
          4    1    3    3  502    0 -0.57163361323E+02  0.68400321730E+03 -0.91491438509E+03  0.11437641292E+04  0.00000000000E+00 0.  1.
         13    1    4    4    0    0  0.25946845508E+03 -0.16887882858E+02 -0.43119160329E+03  0.50352287900E+03  0.10566000000E+00 0. -1.
         -4    1    4    4    0  501 -0.10843620214E+02 -0.10181295235E+04  0.21568074464E+02  0.10184156777E+04  0.00000000000E+00 0. -1.
<mgrwt>
<rscale>  2 0.14602821E+04</rscale>
<asrwt>0</asrwt>
<pdfrwt beam="2">  1        2 0.32460974E+00 0.14602821E+04</pdfrwt>
<pdfrwt beam="1">  1       -2 0.15670731E+00 0.14602821E+04</pdfrwt>
<totfact> 0.20755425E+00</totfact>
</mgrwt>
</event>
<event>
 8    1  0.1439553E-005  0.1129376E+04  0.7818608E-02  0.8661730E-01
         -2   -1    0    0    0  501 -0.00000000000E+00  0.00000000000E+00  0.35110458978E+03  0.35110458978E+03  0.00000000000E+00 0. -1.
          2   -1    0    0  502    0  0.00000000000E+00 -0.00000000000E+00 -0.41789786238E+04  0.41789786238E+04  0.00000000000E+00 0.  1.
    9000010    2    1    2  502    0 -0.14841111791E+03  0.48888133777E+03 -0.10840865018E+04  0.15600610549E+04  0.99875729247E+03 0.  0.
   -9000010    2    1    2    0  501  0.14841111791E+03 -0.48888133777E+03 -0.27437875323E+04  0.29700221587E+04  0.10156922658E+04 0.  0.
        -13    1    3    3    0    0 -0.39173343792E+03 -0.27896875824E+02 -0.86192979692E+03  0.94718335503E+03  0.10566000000E+00 0.  1.
          4    1    3    3  502    0  0.24332232001E+03  0.51677821359E+03 -0.22215670487E+03  0.61287769985E+03  0.00000000000E+00 0.  1.
         13    1    4    4    0    0 -0.43699862709E+02 -0.78331543865E+03 -0.19471533062E+04  0.20992614805E+04  0.10566000000E+00 0. -1.
         -4    1    4    4    0  501  0.19211098062E+03  0.29443410089E+03 -0.79663422607E+03  0.87076067825E+03  0.00000000000E+00 0. -1.
<mgrwt>
<rscale>  2 0.11293760E+04</rscale>
<asrwt>0</asrwt>
<pdfrwt beam="2">  1        2 0.64291977E+00 0.11293760E+04</pdfrwt>
<pdfrwt beam="1">  1       -2 0.54016093E-01 0.11293760E+04</pdfrwt>
<totfact> 0.10712681E+00</totfact>
</mgrwt>
</event>
<event>
 8    1  0.1439553E-005  0.1179162E+04  0.7818608E-02  0.8622421E-01
          2   -1    0    0  502    0  0.00000000000E+00  0.00000000000E+00  0.14801115974E+04  0.14801115974E+04  0.00000000000E+00 0.  1.
         -2   -1    0    0    0  501 -0.00000000000E+00 -0.00000000000E+00 -0.95209102408E+03  0.95209102408E+03  0.00000000000E+00 0. -1.
    9000010    2    1    2  502    0  0.60705777517E+03 -0.12387950670E+03  0.12051210189E+03  0.11613193198E+04  0.97482004562E+03 0.  0.
   -9000010    2    1    2    0  501 -0.60705777517E+03  0.12387950670E+03  0.40750847143E+03  0.12708833016E+04  0.10320929888E+04 0.  0.
        -13    1    3    3    0    0  0.39198217827E+03 -0.43098512970E+03  0.38869939023E+03  0.70034665505E+03  0.10566000000E+00 0.  1.
          4    1    3    3  502    0  0.21507559690E+03  0.30710562300E+03 -0.26818728834E+03  0.46097266479E+03  0.00000000000E+00 0.  1.
         13    1    4    4    0    0 -0.18474839133E+03 -0.44978093622E+03  0.10775597647E+03  0.49804238807E+03  0.10566000000E+00 0. -1.
         -4    1    4    4    0  501 -0.42230938384E+03  0.57366044292E+03  0.29975249496E+03  0.77284091357E+03  0.00000000000E+00 0. -1.
<mgrwt>
<rscale>  2 0.11791620E+04</rscale>
<asrwt>0</asrwt>
<pdfrwt beam="1">  1        2 0.22770948E+00 0.11791620E+04</pdfrwt>
<pdfrwt beam="2">  1       -2 0.14647554E+00 0.11791620E+04</pdfrwt>
<totfact> 0.58106830E+00</totfact>
</mgrwt>
</event>
<event>
 8    1  0.1439553E-005  0.1068090E+04  0.7818608E-02  0.8713120E-01
          2   -1    0    0  502    0  0.00000000000E+00  0.00000000000E+00  0.18302252605E+04  0.18302252605E+04  0.00000000000E+00 0.  1.
         -2   -1    0    0    0  501 -0.00000000000E+00 -0.00000000000E+00 -0.62347647449E+03  0.62347647449E+03  0.00000000000E+00 0. -1.
    9000010    2    1    2  502    0 -0.31398567733E+03 -0.19116960593E+03  0.62503199704E+03  0.12433781672E+04  0.10100452691E+04 0.  0.
   -9000010    2    1    2    0  501  0.31398567733E+03  0.19116960593E+03  0.58171678899E+03  0.12103235678E+04  0.99566856549E+03 0.  0.
        -13    1    3    3    0    0 -0.29259757471E+03 -0.17723548736E+03 -0.21429157614E+03  0.40366650774E+03  0.10566000000E+00 0.  1.
          4    1    3    3  502    0 -0.21388102626E+02 -0.13934118571E+02  0.83932357318E+03  0.83971165949E+03  0.00000000000E+00 0.  1.
         13    1    4    4    0    0 -0.14772704754E+03 -0.22348656086E+03 -0.10228073895E+03  0.28675927916E+03  0.10566000000E+00 0. -1.
         -4    1    4    4    0  501  0.46171272488E+03  0.41465616679E+03  0.68399752793E+03  0.92356428861E+03  0.00000000000E+00 0. -1.
<mgrwt>
<rscale>  2 0.10680896E+04</rscale>
<asrwt>0</asrwt>
<pdfrwt beam="1">  1        2 0.28157312E+00 0.10680896E+04</pdfrwt>
<pdfrwt beam="2">  1       -2 0.95919458E-01 0.10680896E+04</pdfrwt>
<totfact> 0.11586846E+01</totfact>
</mgrwt>
</event>
<event>
 8    1  0.1439553E-005  0.1273482E+04  0.7818608E-02  0.8553192E-01
          1   -1    0    0  502    0  0.00000000000E+00  0.00000000000E+00  0.12184562443E+04  0.12184562443E+04  0.00000000000E+00 0.  1.
         -1   -1    0    0    0  501 -0.00000000000E+00 -0.00000000000E+00 -0.14091051748E+04  0.14091051748E+04  0.00000000000E+00 0. -1.
    9000010    2    1    2  502    0  0.68502196916E+03  0.44089771621E+03 -0.40533488623E+03  0.13514496743E+04  0.99923668751E+03 0.  0.
   -9000010    2    1    2    0  501 -0.68502196916E+03 -0.44089771621E+03  0.21468595580E+03  0.12761117448E+04  0.95850155520E+03 0.  0.
        -13    1    3    3    0    0  0.62858195987E+03 -0.14672943468E+03 -0.40330000551E+03  0.76111478299E+03  0.10566000000E+00 0.  1.
          4    1    3    3  502    0  0.56440009287E+02  0.58762715089E+03 -0.20348807151E+01  0.59033489127E+03  0.00000000000E+00 0.  1.
         13    1    4    4    0    0 -0.51870178126E+03  0.69783387412E+01  0.49929939160E+03  0.72000008938E+03  0.10566000000E+00 0. -1.
         -4    1    4    4    0  501 -0.16632018790E+03 -0.44787605496E+03 -0.28461343580E+03  0.55611165546E+03  0.00000000000E+00 0. -1.
<mgrwt>
<rscale>  2 0.12734816E+04</rscale>
<asrwt>0</asrwt>
<pdfrwt beam="1">  1        1 0.18745481E+00 0.12734816E+04</pdfrwt>
<pdfrwt beam="2">  1       -1 0.21678541E+00 0.12734816E+04</pdfrwt>
<totfact> 0.13345631E+00</totfact>
</mgrwt>
</event>
<event>
 8    1  0.1439553E-005  0.1172481E+04  0.7818608E-02  0.8627578E-01
          2   -1    0    0  502    0  0.00000000000E+00  0.00000000000E+00  0.19907959128E+04  0.19907959128E+04  0.00000000000E+00 0.  1.
         -2   -1    0    0    0  501 -0.00000000000E+00 -0.00000000000E+00 -0.84571763271E+03  0.84571763271E+03  0.00000000000E+00 0. -1.
    9000010    2    1    2  502    0  0.50740848910E+03 -0.52569626688E+03 -0.55407882406E+02  0.11129562505E+04  0.83772408486E+03 0.  0.
   -9000010    2    1    2    0  501 -0.50740848910E+03  0.52569626688E+03  0.12004861625E+04  0.17235572950E+04  0.99782903491E+03 0.  0.
        -13    1    3    3    0    0  0.44923662591E+03 -0.73788921123E+03 -0.14393539418E+03  0.87579189478E+03  0.10566000000E+00 0.  1.
          4    1    3    3  502    0  0.58171863186E+02  0.21219294435E+03  0.88527511778E+02  0.23716435575E+03  0.00000000000E+00 0.  1.
         13    1    4    4    0    0 -0.38617591933E+03  0.49887729367E+03  0.12778229581E+03  0.64369147975E+03  0.10566000000E+00 0. -1.
         -4    1    4    4    0  501 -0.12123256977E+03  0.26818973207E+02  0.10727038667E+04  0.10798658152E+04  0.00000000000E+00 0. -1.
<mgrwt>
<rscale>  2 0.11724808E+04</rscale>
<asrwt>0</asrwt>
<pdfrwt beam="1">  1        2 0.30627629E+00 0.11724808E+04</pdfrwt>
<pdfrwt beam="2">  1       -2 0.13011041E+00 0.11724808E+04</pdfrwt>
<totfact> 0.43124253E+00</totfact>
</mgrwt>
</event>
<event>
 8    1  0.1439553E-005  0.1236567E+04  0.7818608E-02  0.8579524E-01
          4   -1    0    0  502    0  0.00000000000E+00  0.00000000000E+00  0.27833800657E+04  0.27833800657E+04  0.00000000000E+00 0.  1.
         -4   -1    0    0    0  501 -0.00000000000E+00 -0.00000000000E+00 -0.66655125736E+03  0.66655125736E+03  0.00000000000E+00 0. -1.
    9000010    2    1    2  502    0  0.60277734582E+03  0.43195601398E+03  0.17833960248E+04  0.21715545509E+04  0.99258312477E+03 0.  0.
   -9000010    2    1    2    0  501 -0.60277734582E+03 -0.43195601398E+03  0.33343278359E+03  0.12783767722E+04  0.98648021973E+03 0.  0.
        -13    1    3    3    0    0  0.85064229214E+03  0.33908114923E+03  0.10573836929E+04  0.13987954175E+04  0.10566000000E+00 0.  1.
          4    1    3    3  502    0 -0.24786494632E+03  0.92874864745E+02  0.72601233189E+03  0.77275913335E+03  0.00000000000E+00 0.  1.
         13    1    4    4    0    0 -0.25514451153E+03  0.32703552624E+02  0.59018550462E+03  0.64380679178E+03  0.10566000000E+00 0. -1.
         -4    1    4    4    0  501 -0.34763283429E+03 -0.46465956660E+03 -0.25675272103E+03  0.63456998043E+03  0.00000000000E+00 0. -1.
<mgrwt>
<rscale>  2 0.12365666E+04</rscale>
<asrwt>0</asrwt>
<pdfrwt beam="1">  1        4 0.42821231E+00 0.12365666E+04</pdfrwt>
<pdfrwt beam="2">  1       -4 0.10254635E+00 0.12365666E+04</pdfrwt>
<totfact> 0.10097556E-01</totfact>
</mgrwt>
</event>
<event>
 8    1  0.1439553E-005  0.1085457E+04  0.7818608E-02  0.8698199E-01
         -2   -1    0    0    0  501 -0.00000000000E+00  0.00000000000E+00  0.48926512137E+03  0.48926512137E+03  0.00000000000E+00 0. -1.
          2   -1    0    0  502    0  0.00000000000E+00 -0.00000000000E+00 -0.24090845407E+04  0.24090845407E+04  0.00000000000E+00 0.  1.
    9000010    2    1    2  502    0  0.41709805972E+03  0.12064106057E+03 -0.97092712207E+03  0.14465668335E+04  0.98047492086E+03 0.  0.
   -9000010    2    1    2    0  501 -0.41709805972E+03 -0.12064106057E+03 -0.94889229728E+03  0.14517828286E+04  0.10093323202E+04 0.  0.
        -13    1    3    3    0    0  0.23697609039E+03 -0.40860737747E+03 -0.64491273590E+03  0.79939358543E+03  0.10566000000E+00 0.  1.
          4    1    3    3  502    0  0.18012196933E+03  0.52924843804E+03 -0.32601438618E+03  0.64717324805E+03  0.00000000000E+00 0.  1.
         13    1    4    4    0    0 -0.85394451260E+02 -0.53848887931E+03 -0.61741649003E+03  0.82369024443E+03  0.10566000000E+00 0. -1.
         -4    1    4    4    0  501 -0.33170360846E+03  0.41784781874E+03 -0.33147580725E+03  0.62809258417E+03  0.00000000000E+00 0. -1.
<mgrwt>
<rscale>  2 0.10854569E+04</rscale>
<asrwt>0</asrwt>
<pdfrwt beam="2">  1        2 0.37062839E+00 0.10854569E+04</pdfrwt>
<pdfrwt beam="1">  1       -2 0.75271558E-01 0.10854569E+04</pdfrwt>
<totfact> 0.96380262E+00</totfact>
</mgrwt>
</event>
<event>
 8    1  0.1439553E-005  0.1071591E+04  0.7818608E-02  0.8710088E-01
         -2   -1    0    0    0  501 -0.00000000000E+00  0.00000000000E+00  0.52300438278E+03  0.52300438278E+03  0.00000000000E+00 0.  1.
          2   -1    0    0  502    0  0.00000000000E+00 -0.00000000000E+00 -0.21962776982E+04  0.21962776982E+04  0.00000000000E+00 0. -1.
    9000010    2    1    2  502    0  0.12718333479E+03 -0.37276744952E+03 -0.86046239947E+03  0.13742212896E+04  0.99647249833E+03 0.  0.
   -9000010    2    1    2    0  501 -0.12718333479E+03  0.37276744952E+03 -0.81281091593E+03  0.13450607913E+04  0.99669241755E+03 0.  0.
        -13    1    3    3    0    0 -0.32989289716E+03  0.67590821453E+02 -0.60025326525E+03  0.68826000636E+03  0.10566000000E+00 0.  1.
          4    1    3    3  502    0  0.45707623196E+03 -0.44035827097E+03 -0.26020913422E+03  0.68596128329E+03  0.00000000000E+00 0.  1.
         13    1    4    4    0    0 -0.38480384846E+03  0.47382115933E+03 -0.15257234988E+03  0.62917312874E+03  0.10566000000E+00 0. -1.
         -4    1    4    4    0  501  0.25762051367E+03 -0.10105370981E+03 -0.66023856605E+03  0.71588766257E+03  0.00000000000E+00 0. -1.
<mgrwt>
<rscale>  2 0.10715912E+04</rscale>
<asrwt>0</asrwt>
<pdfrwt beam="2">  1        2 0.33788888E+00 0.10715912E+04</pdfrwt>
<pdfrwt beam="1">  1       -2 0.80462212E-01 0.10715912E+04</pdfrwt>
<totfact> 0.10928290E+01</totfact>
</mgrwt>
</event>
<event>
 8    1  0.1439553E-005  0.1200042E+04  0.7818608E-02  0.8606531E-01
          2   -1    0    0  502    0  0.00000000000E+00  0.00000000000E+00  0.22493263246E+04  0.22493263246E+04  0.00000000000E+00 0.  1.
         -2   -1    0    0    0  501 -0.00000000000E+00 -0.00000000000E+00 -0.76201930889E+03  0.76201930889E+03  0.00000000000E+00 0. -1.
    9000010    2    1    2  502    0  0.53498175274E+03 -0.47787286738E+03  0.12837859387E+03  0.11798754940E+04  0.92793165952E+03 0.  0.
   -9000010    2    1    2    0  501 -0.53498175274E+03  0.47787286738E+03  0.13589284219E+04  0.18314701396E+04  0.99650813503E+03 0.  0.
        -13    1    3    3    0    0 -0.82006272701E+02 -0.36480536196E+03 -0.24769905791E+03  0.44851177836E+03  0.10566000000E+00 0.  1.
          4    1    3    3  502    0  0.61698802545E+03 -0.11306750542E+03  0.37607765178E+03  0.73136371560E+03  0.00000000000E+00 0.  1.
         13    1    4    4    0    0 -0.79473568724E+03  0.36449038024E+03  0.72047365756E+03  0.11329343989E+04  0.10566000000E+00 0. -1.
         -4    1    4    4    0  501  0.25975393449E+03  0.11338248714E+03  0.63845476432E+03  0.69853574065E+03  0.00000000000E+00 0. -1.
<mgrwt>
<rscale>  2 0.12000416E+04</rscale>
<asrwt>0</asrwt>
<pdfrwt beam="1">  1        2 0.34605020E+00 0.12000416E+04</pdfrwt>
<pdfrwt beam="2">  1       -2 0.11723374E+00 0.12000416E+04</pdfrwt>
<totfact> 0.41087305E+00</totfact>
</mgrwt>
</event>
<event>
 8    1  0.1439553E-005  0.1425906E+04  0.7818608E-02  0.8453459E-01
         -2   -1    0    0    0  501 -0.00000000000E+00  0.00000000000E+00  0.86436682748E+03  0.86436682748E+03  0.00000000000E+00 0.  1.
          2   -1    0    0  502    0  0.00000000000E+00 -0.00000000000E+00 -0.25463376805E+04  0.25463376805E+04  0.00000000000E+00 0. -1.
    9000010    2    1    2  502    0 -0.79998749888E+03 -0.61002595792E+03 -0.36966220388E+03  0.14721432851E+04  0.10091798844E+04 0.  0.
   -9000010    2    1    2    0  501  0.79998749888E+03  0.61002595792E+03 -0.13123086492E+04  0.19385612229E+04  0.10118072725E+04 0.  0.
        -13    1    3    3    0    0  0.17370903100E+03 -0.32555645172E+03  0.53801899736E+02  0.37290278396E+03  0.10566000000E+00 0.  1.
          4    1    3    3  502    0 -0.97369652988E+03 -0.28446950620E+03 -0.42346410362E+03  0.10992405011E+04  0.00000000000E+00 0.  1.
         13    1    4    4    0    0  0.69869509317E+03  0.65704375656E+03 -0.43321875793E+03  0.10524066869E+04  0.10566000000E+00 0. -1.
         -4    1    4    4    0  501  0.10129240571E+03 -0.47017798639E+02 -0.87908989124E+03  0.88615453603E+03  0.00000000000E+00 0. -1.
<mgrwt>
<rscale>  2 0.14259064E+04</rscale>
<asrwt>0</asrwt>
<pdfrwt beam="2">  1        2 0.39174425E+00 0.14259064E+04</pdfrwt>
<pdfrwt beam="1">  1       -2 0.13297951E+00 0.14259064E+04</pdfrwt>
<totfact> 0.19470914E+00</totfact>
</mgrwt>
</event>
<event>
 8    1  0.1439553E-005  0.1193944E+04  0.7818608E-02  0.8611136E-01
         -2   -1    0    0    0  501 -0.00000000000E+00  0.00000000000E+00  0.53588842770E+03  0.53588842770E+03  0.00000000000E+00 0.  1.
          2   -1    0    0  502    0  0.00000000000E+00 -0.00000000000E+00 -0.26622927213E+04  0.26622927213E+04  0.00000000000E+00 0. -1.
    9000010    2    1    2  502    0 -0.47319072278E+03 -0.52535185908E+03 -0.10120067947E+04  0.15601044289E+04  0.95386793662E+03 0.  0.
   -9000010    2    1    2    0  501  0.47319072278E+03  0.52535185908E+03 -0.11143974989E+04  0.16380767201E+04  0.97031413447E+03 0.  0.
        -13    1    3    3    0    0 -0.65495273012E+03 -0.51513564970E+03 -0.10814736909E+04  0.13652520542E+04  0.10566000000E+00 0.  1.
          4    1    3    3  502    0  0.18176200734E+03 -0.10216209376E+02  0.69466896184E+02  0.19485237466E+03  0.00000000000E+00 0.  1.
         13    1    4    4    0    0  0.76523115684E+02 -0.28496572378E+03 -0.32879793188E+03  0.44177974392E+03  0.10566000000E+00 0. -1.
         -4    1    4    4    0  501  0.39666760710E+03  0.81031758286E+03 -0.78559956701E+03  0.11962969762E+04  0.00000000000E+00 0. -1.
<mgrwt>
<rscale>  2 0.11939443E+04</rscale>
<asrwt>0</asrwt>
<pdfrwt beam="2">  1        2 0.40958350E+00 0.11939443E+04</pdfrwt>
<pdfrwt beam="1">  1       -2 0.82444372E-01 0.11939443E+04</pdfrwt>
<totfact> 0.56188844E+00</totfact>
</mgrwt>
</event>
<event>
 8    1  0.1439553E-005  0.1605744E+04  0.7818608E-02  0.8351114E-01
         -1   -1    0    0    0  501 -0.00000000000E+00  0.00000000000E+00  0.44833151155E+04  0.44833151155E+04  0.00000000000E+00 0. -1.
          1   -1    0    0  502    0  0.00000000000E+00 -0.00000000000E+00 -0.57913402219E+03  0.57913402219E+03  0.00000000000E+00 0.  1.
    9000010    2    1    2  502    0  0.62898370480E+03 -0.10164077714E+04  0.22031675088E+04  0.27516026320E+04  0.11351936900E+04 0.  0.
   -9000010    2    1    2    0  501 -0.62898370480E+03  0.10164077714E+04  0.17010135845E+04  0.23108465057E+04  0.10088900335E+04 0.  0.
        -13    1    3    3    0    0  0.33325353400E+03 -0.12333360445E+04  0.17897055275E+04  0.21989137325E+04  0.10566000000E+00 0.  1.
          4    1    3    3  502    0  0.29573017080E+03  0.21692827316E+03  0.41346198126E+03  0.55268889944E+03  0.00000000000E+00 0.  1.
         13    1    4    4    0    0 -0.52831097542E+03  0.52382557946E+03  0.26566075747E+03  0.78998821109E+03  0.10566000000E+00 0. -1.
         -4    1    4    4    0  501 -0.10067272939E+03  0.49258219190E+03  0.14353528271E+04  0.15208582946E+04  0.00000000000E+00 0. -1.
<mgrwt>
<rscale>  2 0.16057442E+04</rscale>
<asrwt>0</asrwt>
<pdfrwt beam="2">  1        1 0.89097545E-01 0.16057442E+04</pdfrwt>
<pdfrwt beam="1">  1       -1 0.68974076E+00 0.16057442E+04</pdfrwt>
<totfact> 0.51952452E-02</totfact>
</mgrwt>
</event>
<event>
 8    1  0.1439553E-005  0.1281224E+04  0.7818608E-02  0.8547786E-01
          4   -1    0    0  502    0  0.00000000000E+00  0.00000000000E+00  0.14926262314E+04  0.14926262314E+04  0.00000000000E+00 0.  1.
         -4   -1    0    0    0  501 -0.00000000000E+00 -0.00000000000E+00 -0.11421567757E+04  0.11421567757E+04  0.00000000000E+00 0. -1.
    9000010    2    1    2  502    0  0.40757828744E+03  0.69594720092E+03  0.42935267341E+03  0.13535898449E+04  0.99869874498E+03 0.  0.
   -9000010    2    1    2    0  501 -0.40757828744E+03 -0.69594720092E+03 -0.78883217682E+02  0.12811931622E+04  0.99235618095E+03 0.  0.
        -13    1    3    3    0    0 -0.22600518003E+03  0.59759884861E+03  0.16356295777E+03  0.65951162050E+03  0.10566000000E+00 0.  1.
          4    1    3    3  502    0  0.63358346747E+03  0.98348352308E+02  0.26578971564E+03  0.69407822441E+03  0.00000000000E+00 0.  1.
         13    1    4    4    0    0 -0.28933667416E+03 -0.95282968369E+03 -0.52455945227E+02  0.99717187810E+03  0.10566000000E+00 0. -1.
         -4    1    4    4    0  501 -0.11824161328E+03  0.25688248277E+03 -0.26427272455E+02  0.28402128405E+03  0.00000000000E+00 0. -1.
<mgrwt>
<rscale>  2 0.12812242E+04</rscale>
<asrwt>0</asrwt>
<pdfrwt beam="1">  1        4 0.22963481E+00 0.12812242E+04</pdfrwt>
<pdfrwt beam="2">  1       -4 0.17571643E+00 0.12812242E+04</pdfrwt>
<totfact> 0.17984300E-01</totfact>
</mgrwt>
</event>
<event>
 8    1  0.1439553E-005  0.1150402E+04  0.7818608E-02  0.8644877E-01
          2   -1    0    0  502    0  0.00000000000E+00  0.00000000000E+00  0.21662760189E+04  0.21662760189E+04  0.00000000000E+00 0. -1.
         -2   -1    0    0    0  501 -0.00000000000E+00 -0.00000000000E+00 -0.64905749694E+03  0.64905749694E+03  0.00000000000E+00 0.  1.
    9000010    2    1    2  502    0  0.58142298699E+03  0.20198524858E+03  0.10864597063E+04  0.15679206598E+04  0.94822453658E+03 0.  0.
   -9000010    2    1    2    0  501 -0.58142298699E+03 -0.20198524858E+03  0.43075881566E+03  0.12474128560E+04  0.99580868922E+03 0.  0.
        -13    1    3    3    0    0 -0.23711979039E+03  0.17778619299E+03  0.40916901603E+03  0.50522571219E+03  0.10566000000E+00 0.  1.
          4    1    3    3  502    0  0.81854277737E+03  0.24199055590E+02  0.67729069023E+03  0.10626949476E+04  0.00000000000E+00 0.  1.
         13    1    4    4    0    0 -0.37195261579E+02 -0.52842616761E+03  0.13172530266E+03  0.54586561407E+03  0.10566000000E+00 0. -1.
         -4    1    4    4    0  501 -0.54422772541E+03  0.32644091903E+03  0.29903351301E+03  0.70154724190E+03  0.00000000000E+00 0. -1.
<mgrwt>
<rscale>  2 0.11504021E+04</rscale>
<asrwt>0</asrwt>
<pdfrwt beam="1">  1        2 0.33327323E+00 0.11504021E+04</pdfrwt>
<pdfrwt beam="2">  1       -2 0.99855001E-01 0.11504021E+04</pdfrwt>
<totfact> 0.68475974E+00</totfact>
</mgrwt>
</event>
<event>
 8    1  0.1439553E-005  0.1046443E+04  0.7818608E-02  0.8732137E-01
         -1   -1    0    0    0  501 -0.00000000000E+00  0.00000000000E+00  0.12198751019E+04  0.12198751019E+04  0.00000000000E+00 0. -1.
          1   -1    0    0  502    0  0.00000000000E+00 -0.00000000000E+00 -0.89851658129E+03  0.89851658129E+03  0.00000000000E+00 0.  1.
    9000010    2    1    2  502    0 -0.91157295577E+02  0.31945595101E+03  0.19200446556E+03  0.10588345829E+04  0.98686534135E+03 0.  0.
   -9000010    2    1    2    0  501  0.91157295577E+02 -0.31945595101E+03  0.12935405502E+03  0.10595571003E+04  0.99778104813E+03 0.  0.
        -13    1    3    3    0    0  0.42854930381E+03  0.25040182150E+02  0.16819180333E+03  0.46105315354E+03  0.10566000000E+00 0.  1.
          4    1    3    3  502    0 -0.51970659939E+03  0.29441576886E+03  0.23812662230E+02  0.59778142935E+03  0.00000000000E+00 0.  1.
         13    1    4    4    0    0 -0.18520104512E+03 -0.27436910237E+03  0.49716678015E+03  0.59728774464E+03  0.10566000000E+00 0. -1.
         -4    1    4    4    0  501  0.27635834070E+03 -0.45086848638E+02 -0.36781272512E+03  0.46226935563E+03  0.00000000000E+00 0. -1.
<mgrwt>
<rscale>  2 0.10464432E+04</rscale>
<asrwt>0</asrwt>
<pdfrwt beam="2">  1        1 0.13823332E+00 0.10464432E+04</pdfrwt>
<pdfrwt beam="1">  1       -1 0.18767309E+00 0.10464432E+04</pdfrwt>
<totfact> 0.45314387E+00</totfact>
</mgrwt>
</event>
<event>
 8    1  0.1439553E-005  0.1205470E+04  0.7818608E-02  0.8602455E-01
          1   -1    0    0  502    0  0.00000000000E+00  0.00000000000E+00  0.21397736063E+04  0.21397736063E+04  0.00000000000E+00 0. -1.
         -1   -1    0    0    0  501 -0.00000000000E+00 -0.00000000000E+00 -0.77803220202E+03  0.77803220202E+03  0.00000000000E+00 0.  1.
    9000010    2    1    2  502    0 -0.61091738165E+03  0.52301282205E+02  0.18514795882E+03  0.12640225876E+04  0.10897329324E+04 0.  0.
   -9000010    2    1    2    0  501  0.61091738165E+03 -0.52301282205E+02  0.11765934454E+04  0.16537832207E+04  0.98725444241E+03 0.  0.
        -13    1    3    3    0    0 -0.85862053350E+03 -0.76199026863E+02  0.36061811483E+03  0.93438800728E+03  0.10566000000E+00 0.  1.
          4    1    3    3  502    0  0.24770315185E+03  0.12850030907E+03 -0.17547015601E+03  0.32963458028E+03  0.00000000000E+00 0.  1.
         13    1    4    4    0    0  0.26900036231E+03 -0.13042998317E+03 -0.11129027530E+03  0.31899641374E+03  0.10566000000E+00 0. -1.
         -4    1    4    4    0  501  0.34191701934E+03  0.78128700967E+02  0.12878837207E+04  0.13347868070E+04  0.00000000000E+00 0. -1.
<mgrwt>
<rscale>  2 0.12054702E+04</rscale>
<asrwt>0</asrwt>
<pdfrwt beam="1">  1        1 0.32919594E+00 0.12054702E+04</pdfrwt>
<pdfrwt beam="2">  1       -1 0.11969726E+00 0.12054702E+04</pdfrwt>
<totfact> 0.19500276E+00</totfact>
</mgrwt>
</event>
<event>
 8    1  0.1439553E-005  0.1102375E+04  0.7818608E-02  0.8683941E-01
         -2   -1    0    0    0  501 -0.00000000000E+00  0.00000000000E+00  0.62044017413E+03  0.62044017413E+03  0.00000000000E+00 0. -1.
          2   -1    0    0  502    0  0.00000000000E+00 -0.00000000000E+00 -0.23830165303E+04  0.23830165303E+04  0.00000000000E+00 0.  1.
    9000010    2    1    2  502    0  0.34595886544E+03  0.20673233785E+03 -0.23193268123E+03  0.11021782902E+04  0.99928895655E+03 0.  0.
   -9000010    2    1    2    0  501 -0.34595886544E+03 -0.20673233785E+03 -0.15306436750E+04  0.19012784143E+04  0.10533583211E+04 0.  0.
        -13    1    3    3    0    0 -0.34348337928E+03  0.11529543526E+03  0.18998671104E+02  0.36281514563E+03  0.10566000000E+00 0.  1.
          4    1    3    3  502    0  0.68944224472E+03  0.91436902585E+02 -0.25093135234E+03  0.73936314457E+03  0.00000000000E+00 0.  1.
         13    1    4    4    0    0 -0.66423812374E+03 -0.35764552804E+03 -0.12044010716E+04  0.14211631016E+04  0.10566000000E+00 0. -1.
         -4    1    4    4    0  501  0.31827925830E+03  0.15091319019E+03 -0.32624260334E+03  0.48011531268E+03  0.00000000000E+00 0. -1.
<mgrwt>
<rscale>  2 0.11023749E+04</rscale>
<asrwt>0</asrwt>
<pdfrwt beam="2">  1        2 0.36661793E+00 0.11023749E+04</pdfrwt>
<pdfrwt beam="1">  1       -2 0.95452333E-01 0.11023749E+04</pdfrwt>
<totfact> 0.58336127E+00</totfact>
</mgrwt>
</event>
<event>
 8    1  0.1439553E-005  0.1261973E+04  0.7818608E-02  0.8561301E-01
         -2   -1    0    0    0  501 -0.00000000000E+00  0.00000000000E+00  0.61675850832E+03  0.61675850832E+03  0.00000000000E+00 0.  1.
          2   -1    0    0  502    0  0.00000000000E+00 -0.00000000000E+00 -0.26515709698E+04  0.26515709698E+04  0.00000000000E+00 0. -1.
    9000010    2    1    2  502    0  0.77354599424E+03 -0.11413982816E+02 -0.75375236524E+03  0.14707243584E+04  0.99819027541E+03 0.  0.
   -9000010    2    1    2    0  501 -0.77354599424E+03  0.11413982816E+02 -0.12810600962E+04  0.17976051198E+04  0.99587424518E+03 0.  0.
        -13    1    3    3    0    0  0.34910125117E+03 -0.96160018623E+02  0.20691793185E+03  0.41705332325E+03  0.10566000000E+00 0.  1.
          4    1    3    3  502    0  0.42444474308E+03  0.84746035806E+02 -0.96067029709E+03  0.10536710351E+04  0.00000000000E+00 0.  1.
         13    1    4    4    0    0 -0.54447150521E+03 -0.47534190012E+03 -0.71428922265E+03  0.10161733350E+04  0.10566000000E+00 0. -1.
         -4    1    4    4    0  501 -0.22907448903E+03  0.48675588294E+03 -0.56677087359E+03  0.78143178477E+03  0.00000000000E+00 0. -1.
<mgrwt>
<rscale>  2 0.12619733E+04</rscale>
<asrwt>0</asrwt>
<pdfrwt beam="2">  1        2 0.40793400E+00 0.12619733E+04</pdfrwt>
<pdfrwt beam="1">  1       -2 0.94885923E-01 0.12619733E+04</pdfrwt>
<totfact> 0.40978093E+00</totfact>
</mgrwt>
</event>
<event>
 8    1  0.1439553E-005  0.1417343E+04  0.7818608E-02  0.8458716E-01
          1   -1    0    0  502    0  0.00000000000E+00  0.00000000000E+00  0.25319044884E+04  0.25319044884E+04  0.00000000000E+00 0. -1.
         -1   -1    0    0    0  501 -0.00000000000E+00 -0.00000000000E+00 -0.83760329782E+03  0.83760329782E+03  0.00000000000E+00 0.  1.
    9000010    2    1    2  502    0  0.35719160213E+03 -0.94380408675E+03  0.12380027663E+04  0.18872247417E+04  0.10052931819E+04 0.  0.
   -9000010    2    1    2    0  501 -0.35719160213E+03  0.94380408675E+03  0.45629842423E+03  0.14822830444E+04  0.98519174635E+03 0.  0.
        -13    1    3    3    0    0 -0.21424547981E+03 -0.79810139979E+03  0.62068710888E+03  0.10334986542E+04  0.10566000000E+00 0.  1.
          4    1    3    3  502    0  0.57143708195E+03 -0.14570268696E+03  0.61731565743E+03  0.85372608753E+03  0.00000000000E+00 0.  1.
         13    1    4    4    0    0 -0.35309710638E+03  0.70373128684E+03  0.76055498464E+03  0.10946959333E+04  0.10566000000E+00 0. -1.
         -4    1    4    4    0  501 -0.40944957579E+01  0.24007279990E+03 -0.30425656041E+03  0.38758711111E+03  0.00000000000E+00 0. -1.
<mgrwt>
<rscale>  2 0.14173429E+04</rscale>
<asrwt>0</asrwt>
<pdfrwt beam="1">  1        1 0.38952376E+00 0.14173429E+04</pdfrwt>
<pdfrwt beam="2">  1       -1 0.12886205E+00 0.14173429E+04</pdfrwt>
<totfact> 0.72768395E-01</totfact>
</mgrwt>
</event>
<event>
 8    1  0.1439553E-005  0.1035184E+04  0.7818608E-02  0.8742218E-01
          2   -1    0    0  502    0  0.00000000000E+00  0.00000000000E+00  0.19793286441E+04  0.19793286441E+04  0.00000000000E+00 0. -1.
         -2   -1    0    0    0  501 -0.00000000000E+00 -0.00000000000E+00 -0.54859467317E+03  0.54859467317E+03  0.00000000000E+00 0.  1.
    9000010    2    1    2  502    0  0.40623554740E+03  0.27037171235E+03  0.66595742834E+03  0.13030732198E+04  0.10081529334E+04 0.  0.
   -9000010    2    1    2    0  501 -0.40623554740E+03 -0.27037171235E+03  0.76477654258E+03  0.12248500974E+04  0.82294982732E+03 0.  0.
        -13    1    3    3    0    0  0.71692500939E+03  0.25592121368E+03  0.28871170338E+03  0.81414470184E+03  0.10566000000E+00 0.  1.
          4    1    3    3  502    0 -0.31068946199E+03  0.14450498670E+02  0.37724572496E+03  0.48892851798E+03  0.00000000000E+00 0.  1.
         13    1    4    4    0    0 -0.10838407863E+03  0.21673280308E+03  0.57369279519E+03  0.62277094573E+03  0.10566000000E+00 0. -1.
         -4    1    4    4    0  501 -0.29785146877E+03 -0.48710451542E+03  0.19108374739E+03  0.60207915170E+03  0.00000000000E+00 0. -1.
<mgrwt>
<rscale>  2 0.10351837E+04</rscale>
<asrwt>0</asrwt>
<pdfrwt beam="1">  1        2 0.30451209E+00 0.10351837E+04</pdfrwt>
<pdfrwt beam="2">  1       -2 0.84399182E-01 0.10351837E+04</pdfrwt>
<totfact> 0.12958870E+01</totfact>
</mgrwt>
</event>
<event>
 8    1  0.1439553E-005  0.1462616E+04  0.7818608E-02  0.8431345E-01
          1   -1    0    0  502    0  0.00000000000E+00  0.00000000000E+00  0.39071129481E+04  0.39071129481E+04  0.00000000000E+00 0.  1.
         -1   -1    0    0    0  501 -0.00000000000E+00 -0.00000000000E+00 -0.61339728119E+03  0.61339728119E+03  0.00000000000E+00 0. -1.
    9000010    2    1    2  502    0 -0.41789308308E+03 -0.10131712092E+04  0.93063984379E+03  0.17535972474E+04  0.10039234329E+04 0.  0.
   -9000010    2    1    2    0  501  0.41789308308E+03  0.10131712092E+04  0.23630758231E+04  0.27669129819E+04  0.93302174430E+03 0.  0.
        -13    1    3    3    0    0 -0.46301582936E+03 -0.21077606854E+02  0.13996561293E+03  0.48416764422E+03  0.10566000000E+00 0.  1.
          4    1    3    3  502    0  0.45122746274E+02 -0.99209360239E+03  0.79067423086E+03  0.12694296032E+04  0.00000000000E+00 0.  1.
         13    1    4    4    0    0  0.61392377952E+03  0.10566789129E+04  0.18633227565E+04  0.22283277223E+04  0.10566000000E+00 0. -1.
         -4    1    4    4    0  501 -0.19603069644E+03 -0.43507703634E+02  0.49975306662E+03  0.53858525956E+03  0.00000000000E+00 0. -1.
<mgrwt>
<rscale>  2 0.14626157E+04</rscale>
<asrwt>0</asrwt>
<pdfrwt beam="1">  1        1 0.60109428E+00 0.14626157E+04</pdfrwt>
<pdfrwt beam="2">  1       -1 0.94368815E-01 0.14626157E+04</pdfrwt>
<totfact> 0.71127717E-02</totfact>
</mgrwt>
</event>
<event>
 8    1  0.1439553E-005  0.1087932E+04  0.7818608E-02  0.8696096E-01
         -1   -1    0    0    0  501 -0.00000000000E+00  0.00000000000E+00  0.44282477914E+03  0.44282477914E+03  0.00000000000E+00 0.  1.
          1   -1    0    0  502    0  0.00000000000E+00 -0.00000000000E+00 -0.28703698473E+04  0.28703698473E+04  0.00000000000E+00 0. -1.
    9000010    2    1    2  502    0  0.43248946678E+03 -0.39883304625E+02 -0.16631608243E+04  0.19955851935E+04  0.10137152067E+04 0.  0.
   -9000010    2    1    2    0  501 -0.43248946678E+03  0.39883304625E+02 -0.76438424384E+03  0.13176094329E+04  0.98141404542E+03 0.  0.
        -13    1    3    3    0    0 -0.30097836262E+03  0.15562429613E+03 -0.60325773398E+03  0.69190086073E+03  0.10566000000E+00 0.  1.
          4    1    3    3  502    0  0.73346782940E+03 -0.19550760075E+03 -0.10599030903E+04  0.13036843328E+04  0.00000000000E+00 0.  1.
         13    1    4    4    0    0 -0.82889585909E+02  0.36659777142E+03 -0.74998414330E+03  0.83889262473E+03  0.10566000000E+00 0. -1.
         -4    1    4    4    0  501 -0.34959988087E+03 -0.32671446680E+03 -0.14400100542E+02  0.47871680816E+03  0.00000000000E+00 0. -1.
<mgrwt>
<rscale>  2 0.10879317E+04</rscale>
<asrwt>0</asrwt>
<pdfrwt beam="2">  1        1 0.44159537E+00 0.10879317E+04</pdfrwt>
<pdfrwt beam="1">  1       -1 0.68126888E-01 0.10879317E+04</pdfrwt>
<totfact> 0.14078696E+00</totfact>
</mgrwt>
</event>
<event>
 8    1  0.1439553E-005  0.1176962E+04  0.7818608E-02  0.8624115E-01
          2   -1    0    0  502    0  0.00000000000E+00  0.00000000000E+00  0.17982181395E+04  0.17982181395E+04  0.00000000000E+00 0.  1.
         -2   -1    0    0    0  501 -0.00000000000E+00 -0.00000000000E+00 -0.92164821352E+03  0.92164821352E+03  0.00000000000E+00 0. -1.
    9000010    2    1    2  502    0 -0.47736120180E+03 -0.46865474367E+03 -0.10505782412E+03  0.12044720413E+04  0.99609475755E+03 0.  0.
   -9000010    2    1    2    0  501  0.47736120180E+03  0.46865474367E+03  0.98162775013E+03  0.15153943118E+04  0.94091226723E+03 0.  0.
        -13    1    3    3    0    0 -0.21149227906E+03 -0.63930171235E+03 -0.39074320750E+03  0.77853447508E+03  0.10566000000E+00 0.  1.
          4    1    3    3  502    0 -0.26586892274E+03  0.17064696869E+03  0.28568538338E+03  0.42593756617E+03  0.00000000000E+00 0.  1.
         13    1    4    4    0    0  0.44846183958E+03 -0.79110967719E+02  0.82930561114E+03  0.94611012815E+03  0.10566000000E+00 0. -1.
         -4    1    4    4    0  501  0.28899362227E+02  0.54776571139E+03  0.15232213899E+03  0.56928418363E+03  0.00000000000E+00 0. -1.
<mgrwt>
<rscale>  2 0.11769625E+04</rscale>
<asrwt>0</asrwt>
<pdfrwt beam="1">  1        2 0.27664894E+00 0.11769625E+04</pdfrwt>
<pdfrwt beam="2">  1       -2 0.14179203E+00 0.11769625E+04</pdfrwt>
<totfact> 0.42918321E+00</totfact>
</mgrwt>
</event>
<event>
 8    1  0.1439553E-005  0.1037340E+04  0.7818608E-02  0.8740277E-01
         -2   -1    0    0    0  501 -0.00000000000E+00  0.00000000000E+00  0.83730045161E+03  0.83730045161E+03  0.00000000000E+00 0. -1.
          2   -1    0    0  502    0  0.00000000000E+00 -0.00000000000E+00 -0.15299743221E+04  0.15299743221E+04  0.00000000000E+00 0.  1.
    9000010    2    1    2  502    0 -0.29556243360E+03  0.23488388346E+03 -0.80565824482E+03  0.12812290787E+04  0.92191927733E+03 0.  0.
   -9000010    2    1    2    0  501  0.29556243360E+03 -0.23488388346E+03  0.11298437434E+03  0.10860456950E+04  0.10120287505E+04 0.  0.
        -13    1    3    3    0    0  0.31806040616E+03 -0.74358127116E+01 -0.15230785458E+03  0.35272568238E+03  0.10566000000E+00 0.  1.
          4    1    3    3  502    0 -0.61362283976E+03  0.24231969617E+03 -0.65335039025E+03  0.92850339637E+03  0.00000000000E+00 0.  1.
         13    1    4    4    0    0  0.63649150469E+03  0.44618823691E+02  0.92396794271E+02  0.64470881313E+03  0.10566000000E+00 0. -1.
         -4    1    4    4    0  501 -0.34092907109E+03 -0.27950270715E+03  0.20587580068E+02  0.44133688184E+03  0.00000000000E+00 0. -1.
<mgrwt>
<rscale>  2 0.10373400E+04</rscale>
<asrwt>0</asrwt>
<pdfrwt beam="2">  1        2 0.23538067E+00 0.10373400E+04</pdfrwt>
<pdfrwt beam="1">  1       -2 0.12881545E+00 0.10373400E+04</pdfrwt>
<totfact> 0.80133226E+00</totfact>
</mgrwt>
</event>
<event>
 8    1  0.1439553E-005  0.1145200E+04  0.7818608E-02  0.8649011E-01
         -4   -1    0    0    0  501 -0.00000000000E+00  0.00000000000E+00  0.13885949664E+04  0.13885949664E+04  0.00000000000E+00 0. -1.
          4   -1    0    0  502    0  0.00000000000E+00 -0.00000000000E+00 -0.14015707131E+04  0.14015707131E+04  0.00000000000E+00 0.  1.
    9000010    2    1    2  502    0  0.25261308582E+03 -0.49480014471E+03 -0.80315500309E+03  0.13946000927E+04  0.99559575388E+03 0.  0.
   -9000010    2    1    2    0  501 -0.25261308582E+03  0.49480014471E+03  0.79017925638E+03  0.13955655868E+04  0.10072633695E+04 0.  0.
        -13    1    3    3    0    0 -0.23338056842E+03  0.32009719264E+02 -0.60759043684E+03  0.65165731942E+03  0.10566000000E+00 0.  1.
          4    1    3    3  502    0  0.48599365425E+03 -0.52680986397E+03 -0.19556456625E+03  0.74294277324E+03  0.00000000000E+00 0.  1.
         13    1    4    4    0    0 -0.22702194406E+03  0.39732968096E+02 -0.20023634292E+03  0.30530685552E+03  0.10566000000E+00 0. -1.
         -4    1    4    4    0  501 -0.25591141764E+02  0.45506717661E+03  0.99041559930E+03  0.10902587313E+04  0.00000000000E+00 0. -1.
<mgrwt>
<rscale>  2 0.11452003E+04</rscale>
<asrwt>0</asrwt>
<pdfrwt beam="2">  1        4 0.21562626E+00 0.11452003E+04</pdfrwt>
<pdfrwt beam="1">  1       -4 0.21362999E+00 0.11452003E+04</pdfrwt>
<totfact> 0.15148674E-01</totfact>
</mgrwt>
</event>
<event>
 8    1  0.1439553E-005  0.1171103E+04  0.7818608E-02  0.8628646E-01
          1   -1    0    0  502    0  0.00000000000E+00  0.00000000000E+00  0.88646986265E+03  0.88646986265E+03  0.00000000000E+00 0. -1.
         -1   -1    0    0    0  501 -0.00000000000E+00 -0.00000000000E+00 -0.15721627517E+04  0.15721627517E+04  0.00000000000E+00 0.  1.
    9000010    2    1    2  502    0 -0.11837020021E+03 -0.60846726056E+03 -0.49734422882E+03  0.12703804252E+04  0.99109597483E+03 0.  0.
   -9000010    2    1    2    0  501  0.11837020021E+03  0.60846726056E+03 -0.18834866020E+03  0.11882521891E+04  0.99610448029E+03 0.  0.
        -13    1    3    3    0    0 -0.23946886842E+02 -0.87738419593E+03 -0.43065004311E+03  0.97766863070E+03  0.10566000000E+00 0.  1.
          4    1    3    3  502    0 -0.94423313365E+02  0.26891693537E+03 -0.66694185714E+02  0.29271179451E+03  0.00000000000E+00 0.  1.
         13    1    4    4    0    0  0.94355681364E+02  0.42709591735E+03  0.38730458942E+03  0.58422493389E+03  0.10566000000E+00 0. -1.
         -4    1    4    4    0  501  0.24014518843E+02  0.18137134321E+03 -0.57565324962E+03  0.60402725523E+03  0.00000000000E+00 0. -1.
<mgrwt>
<rscale>  2 0.11711031E+04</rscale>
<asrwt>0</asrwt>
<pdfrwt beam="1">  1        1 0.13637998E+00 0.11711031E+04</pdfrwt>
<pdfrwt beam="2">  1       -1 0.24187119E+00 0.11711031E+04</pdfrwt>
<totfact> 0.14530531E+00</totfact>
</mgrwt>
</event>
<event>
 8    1  0.1439553E-005  0.1494898E+04  0.7818608E-02  0.8412441E-01
          2   -1    0    0  502    0  0.00000000000E+00  0.00000000000E+00  0.13101077959E+04  0.13101077959E+04  0.00000000000E+00 0.  1.
         -2   -1    0    0    0  501 -0.00000000000E+00 -0.00000000000E+00 -0.17150848188E+04  0.17150848188E+04  0.00000000000E+00 0. -1.
    9000010    2    1    2  502    0 -0.24873233682E+03 -0.10857008448E+04 -0.31359391860E+03  0.15243914342E+04  0.99237795171E+03 0.  0.
   -9000010    2    1    2    0  501  0.24873233682E+03  0.10857008448E+04 -0.91383104305E+02  0.15008011805E+04  0.10017181299E+04 0.  0.
        -13    1    3    3    0    0  0.25259164161E+03 -0.40798366427E+03  0.21878302841E+03  0.52737010951E+03  0.10566000000E+00 0.  1.
          4    1    3    3  502    0 -0.50132397843E+03 -0.67771718051E+03 -0.53237694702E+03  0.99702132466E+03  0.00000000000E+00 0.  1.
         13    1    4    4    0    0 -0.25252356153E+03  0.94199291134E+03 -0.29575546179E+02  0.97570155183E+03  0.10566000000E+00 0. -1.
         -4    1    4    4    0  501  0.50125589835E+03  0.14370793343E+03 -0.61807558127E+02  0.52509962864E+03  0.00000000000E+00 0. -1.
<mgrwt>
<rscale>  2 0.14948984E+04</rscale>
<asrwt>0</asrwt>
<pdfrwt beam="1">  1        2 0.20155505E+00 0.14948984E+04</pdfrwt>
<pdfrwt beam="2">  1       -2 0.26385920E+00 0.14948984E+04</pdfrwt>
<totfact> 0.76208282E-01</totfact>
</mgrwt>
</event>
<event>
 8    1  0.1439553E-005  0.1302491E+04  0.7818608E-02  0.8533138E-01
          1   -1    0    0  502    0  0.00000000000E+00  0.00000000000E+00  0.23036800173E+04  0.23036800173E+04  0.00000000000E+00 0.  1.
         -1   -1    0    0    0  501 -0.00000000000E+00 -0.00000000000E+00 -0.86077979961E+03  0.86077979961E+03  0.00000000000E+00 0. -1.
    9000010    2    1    2  502    0 -0.51448726010E+03  0.64141203832E+03  0.13123731325E+04  0.18344019810E+04  0.98315860636E+03 0.  0.
   -9000010    2    1    2    0  501  0.51448726010E+03 -0.64141203832E+03  0.13052708520E+03  0.13300578359E+04  0.10372608077E+04 0.  0.
        -13    1    3    3    0    0 -0.55163070997E+03  0.87826168651E+03  0.11250257690E+04  0.15301382363E+04  0.10566000000E+00 0.  1.
          4    1    3    3  502    0  0.37143449874E+02 -0.23684964818E+03  0.18734736349E+03  0.30426374467E+03  0.00000000000E+00 0.  1.
         13    1    4    4    0    0  0.43986227848E+03 -0.27070551224E+03  0.55731832443E+03  0.75984473697E+03  0.10566000000E+00 0. -1.
         -4    1    4    4    0  501  0.74624981614E+02 -0.37070652608E+03 -0.42679123923E+03  0.57021309897E+03  0.00000000000E+00 0. -1.
<mgrwt>
<rscale>  2 0.13024906E+04</rscale>
<asrwt>0</asrwt>
<pdfrwt beam="1">  1        1 0.35441231E+00 0.13024906E+04</pdfrwt>
<pdfrwt beam="2">  1       -1 0.13242766E+00 0.13024906E+04</pdfrwt>
<totfact> 0.10925800E+00</totfact>
</mgrwt>
</event>
<event>
 8    1  0.1439553E-005  0.1211813E+04  0.7818608E-02  0.8597720E-01
         -2   -1    0    0    0  501 -0.00000000000E+00  0.00000000000E+00  0.79764062921E+03  0.79764062921E+03  0.00000000000E+00 0.  1.
          2   -1    0    0  502    0  0.00000000000E+00 -0.00000000000E+00 -0.18482250642E+04  0.18482250642E+04  0.00000000000E+00 0. -1.
    9000010    2    1    2  502    0  0.28976192230E+03 -0.62156482385E+03 -0.44104813826E+03  0.12854093324E+04  0.99370462899E+03 0.  0.
   -9000010    2    1    2    0  501 -0.28976192230E+03  0.62156482385E+03 -0.60953629676E+03  0.13604563611E+04  0.10044910211E+04 0.  0.
        -13    1    3    3    0    0  0.53253122791E+03 -0.51355023192E+02 -0.39295445019E+03  0.66380724476E+03  0.10566000000E+00 0.  1.
          4    1    3    3  502    0 -0.24276930562E+03 -0.57020980066E+03 -0.48093688073E+02  0.62160208763E+03  0.00000000000E+00 0.  1.
         13    1    4    4    0    0 -0.28883570829E+03  0.54510425441E+03  0.11870106527E+03  0.62821546353E+03  0.10566000000E+00 0. -1.
         -4    1    4    4    0  501 -0.92621400846E+00  0.76460569446E+02 -0.72823736203E+03  0.73224089753E+03  0.00000000000E+00 0. -1.
<mgrwt>
<rscale>  2 0.12118130E+04</rscale>
<asrwt>0</asrwt>
<pdfrwt beam="2">  1        2 0.28434232E+00 0.12118130E+04</pdfrwt>
<pdfrwt beam="1">  1       -2 0.12271394E+00 0.12118130E+04</pdfrwt>
<totfact> 0.60243599E+00</totfact>
</mgrwt>
</event>
<event>
 8    1  0.1439553E-005  0.1496832E+04  0.7818608E-02  0.8411324E-01
         -2   -1    0    0    0  501 -0.00000000000E+00  0.00000000000E+00  0.78985523873E+03  0.78985523873E+03  0.00000000000E+00 0. -1.
          2   -1    0    0  502    0  0.00000000000E+00 -0.00000000000E+00 -0.29407869347E+04  0.29407869347E+04  0.00000000000E+00 0.  1.
    9000010    2    1    2  502    0 -0.30982276980E+03 -0.10928962829E+04 -0.14385536796E+04  0.20894185610E+04  0.10029061771E+04 0.  0.
   -9000010    2    1    2    0  501  0.30982276980E+03  0.10928962829E+04 -0.71237801635E+03  0.16412236124E+04  0.94642489081E+03 0.  0.
        -13    1    3    3    0    0 -0.29901484584E+03 -0.12575180804E+04 -0.14249813829E+04  0.19238850156E+04  0.10566000000E+00 0.  1.
          4    1    3    3  502    0 -0.10807923955E+02  0.16462179745E+03 -0.13572296717E+02  0.16553354541E+03  0.00000000000E+00 0.  1.
         13    1    4    4    0    0 -0.94547555668E+02  0.10580112784E+04 -0.60049107584E+03  0.12202117229E+04  0.10566000000E+00 0. -1.
         -4    1    4    4    0  501  0.40437032547E+03  0.34885004562E+02 -0.11188694051E+03  0.42101188952E+03  0.00000000000E+00 0. -1.
<mgrwt>
<rscale>  2 0.14968322E+04</rscale>
<asrwt>0</asrwt>
<pdfrwt beam="2">  1        2 0.45242875E+00 0.14968322E+04</pdfrwt>
<pdfrwt beam="1">  1       -2 0.12151619E+00 0.14968322E+04</pdfrwt>
<totfact> 0.14474246E+00</totfact>
</mgrwt>
</event>
<event>
 8    1  0.1439553E-005  0.1035487E+04  0.7818608E-02  0.8741945E-01
          2   -1    0    0  502    0  0.00000000000E+00  0.00000000000E+00  0.65564844970E+03  0.65564844970E+03  0.00000000000E+00 0.  1.
         -2   -1    0    0    0  501 -0.00000000000E+00 -0.00000000000E+00 -0.17273633632E+04  0.17273633632E+04  0.00000000000E+00 0. -1.
    9000010    2    1    2  502    0 -0.23158323464E+03  0.26387392588E+03 -0.25327128733E+03  0.10496516596E+04  0.95622278693E+03 0.  0.
   -9000010    2    1    2    0  501  0.23158323464E+03 -0.26387392588E+03 -0.81844362613E+03  0.13333601532E+04  0.99234020666E+03 0.  0.
        -13    1    3    3    0    0  0.25254443090E+03  0.43672109602E+03 -0.13262904155E+03  0.52162676227E+03  0.10566000000E+00 0.  1.
          4    1    3    3  502    0 -0.48412766554E+03 -0.17284717014E+03 -0.12064224577E+03  0.52802489736E+03  0.00000000000E+00 0.  1.
         13    1    4    4    0    0 -0.96909178786E+02 -0.52269836944E+03 -0.16331365317E+03  0.55612618606E+03  0.10566000000E+00 0. -1.
         -4    1    4    4    0  501  0.32849241342E+03  0.25882444356E+03 -0.65512997296E+03  0.77723396717E+03  0.00000000000E+00 0. -1.
<mgrwt>
<rscale>  2 0.10354871E+04</rscale>
<asrwt>0</asrwt>
<pdfrwt beam="1">  1        2 0.10086899E+00 0.10354871E+04</pdfrwt>
<pdfrwt beam="2">  1       -2 0.26574821E+00 0.10354871E+04</pdfrwt>
<totfact> 0.20120999E+00</totfact>
</mgrwt>
</event>
<event>
 8    1  0.1439553E-005  0.1263174E+04  0.7818608E-02  0.8560451E-01
          2   -1    0    0  502    0  0.00000000000E+00  0.00000000000E+00  0.16523545930E+04  0.16523545930E+04  0.00000000000E+00 0.  1.
         -2   -1    0    0    0  501 -0.00000000000E+00 -0.00000000000E+00 -0.98541053672E+03  0.98541053672E+03  0.00000000000E+00 0. -1.
    9000010    2    1    2  502    0  0.79966855304E+03 -0.90122534152E+02  0.52451420031E+03  0.13885426022E+04  0.10026682132E+04 0.  0.
   -9000010    2    1    2    0  501 -0.79966855304E+03  0.90122534152E+02  0.14242985596E+03  0.12492225276E+04  0.94481680425E+03 0.  0.
        -13    1    3    3    0    0  0.90574788462E+03  0.21506989758E+03  0.51806476521E+03  0.10653757100E+04  0.10566000000E+00 0.  1.
          4    1    3    3  502    0 -0.10607933158E+03 -0.30519243173E+03  0.64494350948E+01  0.32316689216E+03  0.00000000000E+00 0.  1.
         13    1    4    4    0    0 -0.23639979772E+03  0.47295967094E+03 -0.75583380909E+02  0.53412411791E+03  0.10566000000E+00 0. -1.
         -4    1    4    4    0  501 -0.56326875532E+03 -0.38283713679E+03  0.21801323687E+03  0.71509840964E+03  0.00000000000E+00 0. -1.
<mgrwt>
<rscale>  2 0.12631742E+04</rscale>
<asrwt>0</asrwt>
<pdfrwt beam="1">  1        2 0.25420840E+00 0.12631742E+04</pdfrwt>
<pdfrwt beam="2">  1       -2 0.15160162E+00 0.12631742E+04</pdfrwt>
<totfact> 0.41782526E+00</totfact>
</mgrwt>
</event>
<event>
 8    1  0.1439553E-005  0.1506463E+04  0.7818608E-02  0.8405789E-01
         -2   -1    0    0    0  501 -0.00000000000E+00  0.00000000000E+00  0.13356476413E+04  0.13356476413E+04  0.00000000000E+00 0. -1.
          2   -1    0    0  502    0  0.00000000000E+00 -0.00000000000E+00 -0.18578439198E+04  0.18578439198E+04  0.00000000000E+00 0.  1.
    9000010    2    1    2  502    0  0.10318789010E+04 -0.44482988051E+03 -0.72756093881E+03  0.16715629547E+04  0.10010644849E+04 0.  0.
   -9000010    2    1    2    0  501 -0.10318789010E+04  0.44482988051E+03  0.20536466034E+03  0.15219286063E+04  0.10057058964E+04 0.  0.
        -13    1    3    3    0    0  0.61673504850E+03 -0.52559692201E+02 -0.88419545027E+03  0.10793174912E+04  0.10566000000E+00 0.  1.
          4    1    3    3  502    0  0.41514385253E+03 -0.39227018831E+03  0.15663451145E+03  0.59224546357E+03  0.00000000000E+00 0.  1.
         13    1    4    4    0    0  0.36300510643E+02  0.42852909264E+03 -0.18337168867E+02  0.43045461229E+03  0.10566000000E+00 0. -1.
         -4    1    4    4    0  501 -0.10681794117E+04  0.16300787869E+02  0.22370182921E+03  0.10914739940E+04  0.00000000000E+00 0. -1.
<mgrwt>
<rscale>  2 0.15064628E+04</rscale>
<asrwt>0</asrwt>
<pdfrwt beam="2">  1        2 0.28582214E+00 0.15064628E+04</pdfrwt>
<pdfrwt beam="1">  1       -2 0.20548425E+00 0.15064628E+04</pdfrwt>
<totfact> 0.11052938E+00</totfact>
</mgrwt>
</event>
<event>
 8    1  0.1439553E-005  0.1792700E+04  0.7818608E-02  0.8258451E-01
         -2   -1    0    0    0  501 -0.00000000000E+00  0.00000000000E+00  0.79102022088E+03  0.79102022088E+03  0.00000000000E+00 0. -1.
          2   -1    0    0  502    0  0.00000000000E+00 -0.00000000000E+00 -0.41689647898E+04  0.41689647898E+04  0.00000000000E+00 0.  1.
    9000010    2    1    2  502    0  0.44582063218E+03 -0.14189510387E+04 -0.20878631626E+04  0.27541771054E+04  0.10070456079E+04 0.  0.
   -9000010    2    1    2    0  501 -0.44582063218E+03  0.14189510387E+04 -0.12900814064E+04  0.22058079053E+04  0.99453526509E+03 0.  0.
        -13    1    3    3    0    0  0.19081314475E+03 -0.10252982376E+04 -0.20291712774E+04  0.22814868434E+04  0.10566000000E+00 0.  1.
          4    1    3    3  502    0  0.25500748743E+03 -0.39365280112E+03 -0.58691885123E+02  0.47269026207E+03  0.00000000000E+00 0.  1.
         13    1    4    4    0    0 -0.73779417894E+03  0.88757447144E+03 -0.10267649799E+04  0.15447896387E+04  0.10566000000E+00 0. -1.
         -4    1    4    4    0  501  0.29197354676E+03  0.53137656727E+03 -0.26331642653E+03  0.66101826656E+03  0.00000000000E+00 0. -1.
<mgrwt>
<rscale>  2 0.17927003E+04</rscale>
<asrwt>0</asrwt>
<pdfrwt beam="2">  1        2 0.64137918E+00 0.17927003E+04</pdfrwt>
<pdfrwt beam="1">  1       -2 0.12169542E+00 0.17927003E+04</pdfrwt>
<totfact> 0.16142948E-01</totfact>
</mgrwt>
</event>
<event>
 8    1  0.1439553E-005  0.1338562E+04  0.7818608E-02  0.8508940E-01
          2   -1    0    0  502    0  0.00000000000E+00  0.00000000000E+00  0.48280299663E+04  0.48280299663E+04  0.00000000000E+00 0. -1.
         -2   -1    0    0    0  501 -0.00000000000E+00 -0.00000000000E+00 -0.56932250677E+03  0.56932250677E+03  0.00000000000E+00 0.  1.
    9000010    2    1    2  502    0  0.88685931023E+03 -0.24140361806E+02  0.53517442396E+03  0.14399239124E+04  0.99993350592E+03 0.  0.
   -9000010    2    1    2    0  501 -0.88685931023E+03  0.24140361806E+02  0.37235330355E+04  0.39574285606E+04  0.10047090885E+04 0.  0.
        -13    1    3    3    0    0  0.31856368480E+01  0.23323105166E+03  0.46087492657E+03  0.51653904097E+03  0.10566000000E+00 0.  1.
          4    1    3    3  502    0  0.88367367338E+03 -0.25737141347E+03  0.74299497386E+02  0.92338487144E+03  0.00000000000E+00 0.  1.
         13    1    4    4    0    0 -0.10925220660E+04  0.84202837872E+02  0.27431502828E+04  0.29539072544E+04  0.10566000000E+00 0. -1.
         -4    1    4    4    0  501  0.20566275576E+03 -0.60062476066E+02  0.98038275275E+03  0.10035213062E+04  0.00000000000E+00 0. -1.
<mgrwt>
<rscale>  2 0.13385625E+04</rscale>
<asrwt>0</asrwt>
<pdfrwt beam="1">  1        2 0.74277382E+00 0.13385625E+04</pdfrwt>
<pdfrwt beam="2">  1       -2 0.87588081E-01 0.13385625E+04</pdfrwt>
<totfact> 0.99516126E-02</totfact>
</mgrwt>
</event>
<event>
 8    1  0.1439553E-005  0.2015059E+04  0.7818608E-02  0.8162288E-01
         -2   -1    0    0    0  501 -0.00000000000E+00  0.00000000000E+00  0.34922457602E+04  0.34922457602E+04  0.00000000000E+00 0.  1.
          2   -1    0    0  502    0  0.00000000000E+00 -0.00000000000E+00 -0.13892013803E+04  0.13892013803E+04  0.00000000000E+00 0. -1.
    9000010    2    1    2  502    0  0.14240191492E+04 -0.10163175389E+04  0.67712286490E+02  0.20200789158E+04  0.10076715712E+04 0.  0.
   -9000010    2    1    2    0  501 -0.14240191492E+04  0.10163175389E+04  0.20353320933E+04  0.28613682247E+04  0.99202797846E+03 0.  0.
        -13    1    3    3    0    0  0.89152993672E+03 -0.16571704488E+03 -0.29412985932E+03  0.95331010292E+03  0.10566000000E+00 0.  1.
          4    1    3    3  502    0  0.53248921244E+03 -0.85060049398E+03  0.36184214581E+03  0.10667688129E+04  0.00000000000E+00 0.  1.
         13    1    4    4    0    0  0.33001192220E+02 -0.46084418906E+01 -0.86306107270E+02  0.92515251396E+02  0.10566000000E+00 0. -1.
         -4    1    4    4    0  501 -0.14570203414E+04  0.10209259808E+04  0.21216382006E+04  0.27688529733E+04  0.00000000000E+00 0. -1.
<mgrwt>
<rscale>  2 0.20150589E+04</rscale>
<asrwt>0</asrwt>
<pdfrwt beam="2">  1        2 0.21372329E+00 0.20150589E+04</pdfrwt>
<pdfrwt beam="1">  1       -2 0.53726858E+00 0.20150589E+04</pdfrwt>
<totfact> 0.69313886E-02</totfact>
</mgrwt>
</event>
<event>
 8    1  0.1439553E-005  0.1236432E+04  0.7818608E-02  0.8579622E-01
          2   -1    0    0  502    0  0.00000000000E+00  0.00000000000E+00  0.10068884736E+04  0.10068884736E+04  0.00000000000E+00 0. -1.
         -2   -1    0    0    0  501 -0.00000000000E+00 -0.00000000000E+00 -0.15465668350E+04  0.15465668350E+04  0.00000000000E+00 0.  1.
    9000010    2    1    2  502    0  0.25569074603E+03  0.67917783824E+03 -0.97919058295E+02  0.12432842936E+04  0.10047424541E+04 0.  0.
   -9000010    2    1    2    0  501 -0.25569074603E+03 -0.67917783824E+03 -0.44175930304E+03  0.13101710150E+04  0.99736478437E+03 0.  0.
        -13    1    3    3    0    0  0.20497940366E+03 -0.23738000012E+03 -0.86146291413E+02  0.32524915845E+03  0.10566000000E+00 0.  1.
          4    1    3    3  502    0  0.50711342370E+02  0.91655783836E+03 -0.11772766882E+02  0.91803513514E+03  0.00000000000E+00 0.  1.
         13    1    4    4    0    0  0.30154349418E+03 -0.44742242422E+03  0.35558240561E+02  0.54072146639E+03  0.10566000000E+00 0. -1.
         -4    1    4    4    0  501 -0.55723424021E+03 -0.23175541402E+03 -0.47731754361E+03  0.76944954859E+03  0.00000000000E+00 0. -1.
<mgrwt>
<rscale>  2 0.12364321E+04</rscale>
<asrwt>0</asrwt>
<pdfrwt beam="1">  1        2 0.15490592E+00 0.12364321E+04</pdfrwt>
<pdfrwt beam="2">  1       -2 0.23793336E+00 0.12364321E+04</pdfrwt>
<totfact> 0.18607892E+00</totfact>
</mgrwt>
</event>
<event>
 8    1  0.1439553E-005  0.1467861E+04  0.7818608E-02  0.8428239E-01
         -2   -1    0    0    0  501 -0.00000000000E+00  0.00000000000E+00  0.84568687731E+03  0.84568687731E+03  0.00000000000E+00 0.  1.
          2   -1    0    0  502    0  0.00000000000E+00 -0.00000000000E+00 -0.25734690697E+04  0.25734690697E+04  0.00000000000E+00 0. -1.
    9000010    2    1    2  502    0  0.83429677059E+03 -0.72381834822E+03 -0.10271137602E+04  0.17816865354E+04  0.94840926365E+03 0.  0.
   -9000010    2    1    2    0  501 -0.83429677059E+03  0.72381834822E+03 -0.70066843217E+03  0.16374694116E+04  0.98509173146E+03 0.  0.
        -13    1    3    3    0    0  0.56945054357E+03 -0.22963231008E+03 -0.10546108685E+04  0.12203315183E+04  0.10566000000E+00 0.  1.
          4    1    3    3  502    0  0.26484622703E+03 -0.49418603814E+03  0.27497108307E+02  0.56135501710E+03  0.00000000000E+00 0.  1.
         13    1    4    4    0    0 -0.89523763894E+03  0.55486000918E+03 -0.15697523782E+03  0.10648761883E+04  0.10566000000E+00 0. -1.
         -4    1    4    4    0  501  0.60940868349E+02  0.16895833905E+03 -0.54369319434E+03  0.57259322328E+03  0.00000000000E+00 0. -1.
<mgrwt>
<rscale>  2 0.14678608E+04</rscale>
<asrwt>0</asrwt>
<pdfrwt beam="2">  1        2 0.39591832E+00 0.14678608E+04</pdfrwt>
<pdfrwt beam="1">  1       -2 0.13010567E+00 0.14678608E+04</pdfrwt>
<totfact> 0.19890142E+00</totfact>
</mgrwt>
</event>
<event>
 8    1  0.1439553E-005  0.1360271E+04  0.7818608E-02  0.8494753E-01
          4   -1    0    0  502    0  0.00000000000E+00  0.00000000000E+00  0.74675006988E+03  0.74675006988E+03  0.00000000000E+00 0.  1.
         -4   -1    0    0    0  501 -0.00000000000E+00 -0.00000000000E+00 -0.24778709642E+04  0.24778709642E+04  0.00000000000E+00 0. -1.
    9000010    2    1    2  502    0  0.63430203482E+03 -0.66788806736E+03 -0.86365800867E+03  0.16132753339E+04  0.10041606471E+04 0.  0.
   -9000010    2    1    2    0  501 -0.63430203482E+03  0.66788806736E+03 -0.86746288564E+03  0.16113457001E+04  0.99776227904E+03 0.  0.
        -13    1    3    3    0    0 -0.14633775954E+03 -0.49122185988E+03 -0.55491684334E+03  0.75541139101E+03  0.10566000000E+00 0.  1.
          4    1    3    3  502    0  0.78063979436E+03 -0.17666620748E+03 -0.30874116533E+03  0.85786394293E+03  0.00000000000E+00 0.  1.
         13    1    4    4    0    0 -0.17154981426E+02 -0.13242120612E+02  0.20087217964E+03  0.20203784512E+03  0.10566000000E+00 0. -1.
         -4    1    4    4    0  501 -0.61714705340E+03  0.68113018797E+03 -0.10683350653E+04  0.14093078550E+04  0.00000000000E+00 0. -1.
<mgrwt>
<rscale>  2 0.13602708E+04</rscale>
<asrwt>0</asrwt>
<pdfrwt beam="1">  1        4 0.11488463E+00 0.13602708E+04</pdfrwt>
<pdfrwt beam="2">  1       -4 0.38121092E+00 0.13602708E+04</pdfrwt>
<totfact> 0.12613146E-01</totfact>
</mgrwt>
</event>
<event>
 8    1  0.1439553E-005  0.1035080E+04  0.7818608E-02  0.8742311E-01
          2   -1    0    0  502    0  0.00000000000E+00  0.00000000000E+00  0.18698837183E+04  0.18698837183E+04  0.00000000000E+00 0.  1.
         -2   -1    0    0    0  501 -0.00000000000E+00 -0.00000000000E+00 -0.57661241698E+03  0.57661241698E+03  0.00000000000E+00 0. -1.
    9000010    2    1    2  502    0 -0.22716665835E+03  0.11374866852E+03  0.74352735468E+03  0.12740532997E+04  0.10029134724E+04 0.  0.
   -9000010    2    1    2    0  501  0.22716665835E+03 -0.11374866852E+03  0.54974394668E+03  0.11724428356E+04  0.10039224799E+04 0.  0.
        -13    1    3    3    0    0  0.35589452844E+03  0.15583846142E+03  0.93071593780E+02  0.39951079355E+03  0.10566000000E+00 0.  1.
          4    1    3    3  502    0 -0.58306118679E+03 -0.42089792894E+02  0.65045576090E+03  0.87454250617E+03  0.00000000000E+00 0.  1.
         13    1    4    4    0    0  0.45599928281E+03  0.21850976060E+03  0.19308856540E+02  0.50601848237E+03  0.10566000000E+00 0. -1.
         -4    1    4    4    0  501 -0.22883262445E+03 -0.33225842912E+03  0.53043509014E+03  0.66642435324E+03  0.00000000000E+00 0. -1.
<mgrwt>
<rscale>  2 0.10350801E+04</rscale>
<asrwt>0</asrwt>
<pdfrwt beam="1">  1        2 0.28767442E+00 0.10350801E+04</pdfrwt>
<pdfrwt beam="2">  1       -2 0.88709603E-01 0.10350801E+04</pdfrwt>
<totfact> 0.13271685E+01</totfact>
</mgrwt>
</event>
<event>
 8    1  0.1439553E-005  0.1156860E+04  0.7818608E-02  0.8639775E-01
         -2   -1    0    0    0  501 -0.00000000000E+00  0.00000000000E+00  0.74238061705E+03  0.74238061705E+03  0.00000000000E+00 0. -1.
          2   -1    0    0  502    0  0.00000000000E+00 -0.00000000000E+00 -0.18094102537E+04  0.18094102537E+04  0.00000000000E+00 0.  1.
    9000010    2    1    2  502    0  0.21233048954E+03  0.55193503835E+03 -0.60408157444E+03  0.12942487642E+04  0.98002489337E+03 0.  0.
   -9000010    2    1    2    0  501 -0.21233048954E+03 -0.55193503835E+03 -0.46294806218E+03  0.12575421065E+04  0.10086499483E+04 0.  0.
        -13    1    3    3    0    0  0.45729237847E+03  0.68784228860E+03 -0.58752608106E+03  0.10136223362E+04  0.10566000000E+00 0.  1.
          4    1    3    3  502    0 -0.24496188894E+03 -0.13590725025E+03 -0.16555493379E+02  0.28062642795E+03  0.00000000000E+00 0.  1.
         13    1    4    4    0    0  0.20776272719E+03  0.11732353264E+03  0.12805783339E+03  0.27079324581E+03  0.10566000000E+00 0. -1.
         -4    1    4    4    0  501 -0.42009321672E+03 -0.66925857099E+03 -0.59100589556E+03  0.98674886074E+03  0.00000000000E+00 0. -1.
<mgrwt>
<rscale>  2 0.11568603E+04</rscale>
<asrwt>0</asrwt>
<pdfrwt beam="2">  1        2 0.27837080E+00 0.11568603E+04</pdfrwt>
<pdfrwt beam="1">  1       -2 0.11421240E+00 0.11568603E+04</pdfrwt>
<totfact> 0.76730986E+00</totfact>
</mgrwt>
</event>
<event>
 8    1  0.1439553E-005  0.1163535E+04  0.7818608E-02  0.8634539E-01
         -1   -1    0    0    0  501 -0.00000000000E+00  0.00000000000E+00  0.76252491917E+03  0.76252491917E+03  0.00000000000E+00 0.  1.
          1   -1    0    0  502    0  0.00000000000E+00 -0.00000000000E+00 -0.20706878673E+04  0.20706878673E+04  0.00000000000E+00 0. -1.
    9000010    2    1    2  502    0 -0.29023836446E+03  0.66174273366E+03 -0.11557824161E+04  0.15997219851E+04  0.83733845151E+03 0.  0.
   -9000010    2    1    2    0  501  0.29023836446E+03 -0.66174273366E+03 -0.15238053203E+03  0.12334908014E+04  0.98799695186E+03 0.  0.
        -13    1    3    3    0    0 -0.14290160115E+03  0.73965253357E+03 -0.12092329816E+04  0.14246933540E+04  0.10566000000E+00 0.  1.
          4    1    3    3  502    0 -0.14733676331E+03 -0.77909799913E+02  0.53450565466E+02  0.17502863107E+03  0.00000000000E+00 0.  1.
         13    1    4    4    0    0  0.29282593850E+03  0.27113466653E+02  0.29144613478E+03  0.41403264482E+03  0.10566000000E+00 0. -1.
         -4    1    4    4    0  501 -0.25875740373E+01 -0.68885620031E+03 -0.44382666681E+03  0.81945815660E+03  0.00000000000E+00 0. -1.
<mgrwt>
<rscale>  2 0.11635350E+04</rscale>
<asrwt>0</asrwt>
<pdfrwt beam="2">  1        1 0.31856736E+00 0.11635350E+04</pdfrwt>
<pdfrwt beam="1">  1       -1 0.11731153E+00 0.11635350E+04</pdfrwt>
<totfact> 0.23296263E+00</totfact>
</mgrwt>
</event>
<event>
 8    1  0.1439553E-005  0.1253017E+04  0.7818608E-02  0.8567674E-01
          1   -1    0    0  502    0  0.00000000000E+00  0.00000000000E+00  0.10809191748E+04  0.10809191748E+04  0.00000000000E+00 0. -1.
         -1   -1    0    0    0  501 -0.00000000000E+00 -0.00000000000E+00 -0.14532475954E+04  0.14532475954E+04  0.00000000000E+00 0.  1.
    9000010    2    1    2  502    0  0.67376800631E+03 -0.29960178176E+03 -0.20956244714E+03  0.12577819274E+04  0.99718323473E+03 0.  0.
   -9000010    2    1    2    0  501 -0.67376800631E+03  0.29960178176E+03 -0.16276597342E+03  0.12763848428E+04  0.10290485658E+04 0.  0.
        -13    1    3    3    0    0 -0.10750103974E+03 -0.15329890092E+03  0.27067235434E+03  0.32912089137E+03  0.10566000000E+00 0.  1.
          4    1    3    3  502    0  0.78126904605E+03 -0.14630288083E+03 -0.48023480148E+03  0.92866103601E+03  0.00000000000E+00 0.  1.
         13    1    4    4    0    0  0.16231973184E+03  0.22301109209E+02  0.25371144371E+03  0.30201745422E+03  0.10566000000E+00 0. -1.
         -4    1    4    4    0  501 -0.83608773815E+03  0.27730067255E+03 -0.41647741714E+03  0.97436738855E+03  0.00000000000E+00 0. -1.
<mgrwt>
<rscale>  2 0.12530165E+04</rscale>
<asrwt>0</asrwt>
<pdfrwt beam="1">  1        1 0.16629526E+00 0.12530165E+04</pdfrwt>
<pdfrwt beam="2">  1       -1 0.22357655E+00 0.12530165E+04</pdfrwt>
<totfact> 0.14817187E+00</totfact>
</mgrwt>
</event>
<event>
 8    1  0.1439553E-005  0.1624846E+04  0.7818608E-02  0.8341064E-01
         -2   -1    0    0    0  501 -0.00000000000E+00  0.00000000000E+00  0.15021228124E+04  0.15021228124E+04  0.00000000000E+00 0.  1.
          2   -1    0    0  502    0  0.00000000000E+00 -0.00000000000E+00 -0.18417974186E+04  0.18417974186E+04  0.00000000000E+00 0. -1.
    9000010    2    1    2  502    0 -0.50682763159E+03  0.11737178622E+04 -0.52842732958E+03  0.17218842442E+04  0.10252619371E+04 0.  0.
   -9000010    2    1    2    0  501  0.50682763159E+03 -0.11737178622E+04  0.18875272339E+03  0.16220359868E+04  0.98024756244E+03 0.  0.
        -13    1    3    3    0    0  0.37548362179E+02  0.92495545576E+03 -0.62314680375E+03  0.11159141655E+04  0.10566000000E+00 0.  1.
          4    1    3    3  502    0 -0.54437599377E+03  0.24876240644E+03  0.94719474172E+02  0.60597007867E+03  0.00000000000E+00 0.  1.
         13    1    4    4    0    0  0.78363823560E+03 -0.77601319170E+03  0.23257522373E+01  0.11028557377E+04  0.10566000000E+00 0. -1.
         -4    1    4    4    0  501 -0.27681060401E+03 -0.39770467050E+03  0.18642697115E+03  0.51918024905E+03  0.00000000000E+00 0. -1.
<mgrwt>
<rscale>  2 0.16248464E+04</rscale>
<asrwt>0</asrwt>
<pdfrwt beam="2">  1        2 0.28335345E+00 0.16248464E+04</pdfrwt>
<pdfrwt beam="1">  1       -2 0.23109582E+00 0.16248464E+04</pdfrwt>
<totfact> 0.68964199E-01</totfact>
</mgrwt>
</event>
<event>
 8    1  0.1439553E-005  0.1326599E+04  0.7818608E-02  0.8516878E-01
          2   -1    0    0  502    0  0.00000000000E+00  0.00000000000E+00  0.29919380581E+04  0.29919380581E+04  0.00000000000E+00 0. -1.
         -2   -1    0    0    0  501 -0.00000000000E+00 -0.00000000000E+00 -0.63612995566E+03  0.63612995566E+03  0.00000000000E+00 0.  1.
    9000010    2    1    2  502    0 -0.37447380290E+03 -0.79067020798E+03  0.67452546207E+03  0.14822449796E+04  0.98826897848E+03 0.  0.
   -9000010    2    1    2    0  501  0.37447380290E+03  0.79067020798E+03  0.16812826404E+04  0.21458230342E+04  0.10062083135E+04 0.  0.
        -13    1    3    3    0    0  0.33574051003E+03 -0.18406381649E+03  0.15154568056E+03  0.41178548187E+03  0.10566000000E+00 0.  1.
          4    1    3    3  502    0 -0.71021431293E+03 -0.60660639149E+03  0.52297978152E+03  0.10704594978E+04  0.00000000000E+00 0.  1.
         13    1    4    4    0    0 -0.60496097901E+02  0.71255581658E+03  0.15119946527E+04  0.16725798667E+04  0.10566000000E+00 0. -1.
         -4    1    4    4    0  501  0.43496990080E+03  0.78114391398E+02  0.16928798768E+03  0.47324316743E+03  0.00000000000E+00 0. -1.
<mgrwt>
<rscale>  2 0.13265988E+04</rscale>
<asrwt>0</asrwt>
<pdfrwt beam="1">  1        2 0.46029815E+00 0.13265988E+04</pdfrwt>
<pdfrwt beam="2">  1       -2 0.97866149E-01 0.13265988E+04</pdfrwt>
<totfact> 0.23649168E+00</totfact>
</mgrwt>
</event>
<event>
 8    1  0.1439553E-005  0.1753792E+04  0.7818608E-02  0.8276747E-01
          2   -1    0    0  502    0  0.00000000000E+00  0.00000000000E+00  0.44457760227E+04  0.44457760227E+04  0.00000000000E+00 0.  1.
         -2   -1    0    0    0  501 -0.00000000000E+00 -0.00000000000E+00 -0.70201089998E+03  0.70201089998E+03  0.00000000000E+00 0. -1.
    9000010    2    1    2  502    0  0.97960807164E+03 -0.10462562122E+04  0.21838024252E+04  0.28021570935E+04  0.10143013897E+04 0.  0.
   -9000010    2    1    2    0  501 -0.97960807164E+03  0.10462562122E+04  0.15599626975E+04  0.23456298291E+04  0.10070807525E+04 0.  0.
        -13    1    3    3    0    0  0.60538168071E+03  0.68326891869E+01  0.10373620702E+04  0.12011052164E+04  0.10566000000E+00 0.  1.
          4    1    3    3  502    0  0.37422639092E+03 -0.10530889013E+04  0.11464403550E+04  0.16010518772E+04  0.00000000000E+00 0.  1.
         13    1    4    4    0    0 -0.46814916043E+03  0.60291333846E+03  0.14481764651E+03  0.77694291426E+03  0.10566000000E+00 0. -1.
         -4    1    4    4    0  501 -0.51145891120E+03  0.44334287370E+03  0.14151450510E+04  0.15686869149E+04  0.00000000000E+00 0. -1.
<mgrwt>
<rscale>  2 0.17537916E+04</rscale>
<asrwt>0</asrwt>
<pdfrwt beam="1">  1        2 0.68396552E+00 0.17537916E+04</pdfrwt>
<pdfrwt beam="2">  1       -2 0.10800168E+00 0.17537916E+04</pdfrwt>
<totfact> 0.12275027E-01</totfact>
</mgrwt>
</event>
<event>
 8    1  0.1439553E-005  0.1477490E+04  0.7818608E-02  0.8422573E-01
         -2   -1    0    0    0  501 -0.00000000000E+00  0.00000000000E+00  0.89843194960E+03  0.89843194960E+03  0.00000000000E+00 0. -1.
          2   -1    0    0  502    0  0.00000000000E+00 -0.00000000000E+00 -0.24460596557E+04  0.24460596557E+04  0.00000000000E+00 0.  1.
    9000010    2    1    2  502    0 -0.10414569301E+04 -0.30576530672E+03 -0.90617494572E+03  0.17269078124E+04  0.99142957409E+03 0.  0.
   -9000010    2    1    2    0  501  0.10414569301E+04  0.30576530672E+03 -0.64145276035E+03  0.16175837928E+04  0.10134055077E+04 0.  0.
        -13    1    3    3    0    0 -0.87455117387E+03 -0.15279781902E+03 -0.11106251418E+04  0.14218562325E+04  0.10566000000E+00 0.  1.
          4    1    3    3  502    0 -0.16690575624E+03 -0.15296748770E+03  0.20445019605E+03  0.30505157994E+03  0.00000000000E+00 0.  1.
         13    1    4    4    0    0  0.55722015658E+03 -0.35417029023E+03 -0.35995645650E+03  0.75199704728E+03  0.10566000000E+00 0. -1.
         -4    1    4    4    0  501  0.48423677353E+03  0.65993559695E+03 -0.28149630386E+03  0.86558674553E+03  0.00000000000E+00 0. -1.
<mgrwt>
<rscale>  2 0.14774896E+04</rscale>
<asrwt>0</asrwt>
<pdfrwt beam="2">  1        2 0.37631686E+00 0.14774896E+04</pdfrwt>
<pdfrwt beam="1">  1       -2 0.13822030E+00 0.14774896E+04</pdfrwt>
<totfact> 0.19755200E+00</totfact>
</mgrwt>
</event>
<event>
 8    1  0.1439553E-005  0.1128471E+04  0.7818608E-02  0.8662464E-01
          2   -1    0    0  502    0  0.00000000000E+00  0.00000000000E+00  0.15738957810E+04  0.15738957810E+04  0.00000000000E+00 0.  1.
         -2   -1    0    0    0  501 -0.00000000000E+00 -0.00000000000E+00 -0.89740842088E+03  0.89740842088E+03  0.00000000000E+00 0. -1.
    9000010    2    1    2  502    0 -0.44762207105E+03 -0.27800560339E+03 -0.52386787499E+02  0.11177590961E+04  0.98437207777E+03 0.  0.
   -9000010    2    1    2    0  501  0.44762207105E+03  0.27800560339E+03  0.72887414762E+03  0.13535451057E+04  0.10115207344E+04 0.  0.
        -13    1    3    3    0    0 -0.32026035675E+03 -0.38339332241E+03  0.39753528232E+03  0.63842889003E+03  0.10566000000E+00 0.  1.
          4    1    3    3  502    0 -0.12736171430E+03  0.10538771902E+03 -0.44992206981E+03  0.47933020612E+03  0.00000000000E+00 0.  1.
         13    1    4    4    0    0  0.57164814338E+03  0.11788101793E+02  0.43795915298E+01  0.57178645591E+03  0.10566000000E+00 0. -1.
         -4    1    4    4    0  501 -0.12402607233E+03  0.26621750159E+03  0.72449455609E+03  0.78175864983E+03  0.00000000000E+00 0. -1.
<mgrwt>
<rscale>  2 0.11284705E+04</rscale>
<asrwt>0</asrwt>
<pdfrwt beam="1">  1        2 0.24213781E+00 0.11284705E+04</pdfrwt>
<pdfrwt beam="2">  1       -2 0.13806283E+00 0.11284705E+04</pdfrwt>
<totfact> 0.61736276E+00</totfact>
</mgrwt>
</event>
<event>
 8    1  0.1439553E-005  0.1313257E+04  0.7818608E-02  0.8525832E-01
         -4   -1    0    0    0  501 -0.00000000000E+00  0.00000000000E+00  0.22105255859E+04  0.22105255859E+04  0.00000000000E+00 0.  1.
          4   -1    0    0  502    0  0.00000000000E+00 -0.00000000000E+00 -0.80292743429E+03  0.80292743429E+03  0.00000000000E+00 0. -1.
    9000010    2    1    2  502    0 -0.61177374613E+03  0.62659537176E+03  0.94969017290E+03  0.16096374676E+04  0.96027729130E+03 0.  0.
   -9000010    2    1    2    0  501  0.61177374613E+03 -0.62659537176E+03  0.45790797874E+03  0.14038155526E+04  0.99706043571E+03 0.  0.
        -13    1    3    3    0    0 -0.38856443337E+03  0.33756838249E+03  0.11002027952E+04  0.12146525979E+04  0.10566000000E+00 0.  1.
          4    1    3    3  502    0 -0.22320931276E+03  0.28902698927E+03 -0.15051262232E+03  0.39498486971E+03  0.00000000000E+00 0.  1.
         13    1    4    4    0    0 -0.24298263347E+03 -0.19897972600E+03 -0.55453082723E+02  0.31891777479E+03  0.10566000000E+00 0. -1.
         -4    1    4    4    0  501  0.85475637960E+03 -0.42761564576E+03  0.51336106146E+03  0.10848977779E+04  0.00000000000E+00 0. -1.
<mgrwt>
<rscale>  2 0.13132571E+04</rscale>
<asrwt>0</asrwt>
<pdfrwt beam="2">  1        4 0.12352730E+00 0.13132571E+04</pdfrwt>
<pdfrwt beam="1">  1       -4 0.34008086E+00 0.13132571E+04</pdfrwt>
<totfact> 0.15663789E-01</totfact>
</mgrwt>
</event>
<event>
 8    1  0.1439553E-005  0.2195456E+04  0.7818608E-02  0.8093152E-01
          1   -1    0    0  502    0  0.00000000000E+00  0.00000000000E+00  0.18484419721E+04  0.18484419721E+04  0.00000000000E+00 0.  1.
         -1   -1    0    0    0  501 -0.00000000000E+00 -0.00000000000E+00 -0.28826329380E+04  0.28826329380E+04  0.00000000000E+00 0. -1.
    9000010    2    1    2  502    0 -0.11741171758E+04  0.15684150613E+04 -0.12487307174E+04  0.25297961287E+04  0.10010310191E+04 0.  0.
   -9000010    2    1    2    0  501  0.11741171758E+04 -0.15684150613E+04  0.21453975149E+03  0.22012787813E+04  0.98036932892E+03 0.  0.
        -13    1    3    3    0    0 -0.50695500090E+03  0.14224975634E+04 -0.76456147933E+03  0.16926479131E+04  0.10566000000E+00 0.  1.
          4    1    3    3  502    0 -0.66716217493E+03  0.14591749790E+03 -0.48416923809E+03  0.83714821565E+03  0.00000000000E+00 0.  1.
         13    1    4    4    0    0  0.75902246673E+03 -0.11100484871E+04  0.60007506667E+03  0.14725531724E+04  0.10566000000E+00 0. -1.
         -4    1    4    4    0  501  0.41509470911E+03 -0.45836657416E+03 -0.38553531518E+03  0.72872560891E+03  0.00000000000E+00 0. -1.
<mgrwt>
<rscale>  2 0.21954560E+04</rscale>
<asrwt>0</asrwt>
<pdfrwt beam="1">  1        1 0.28437569E+00 0.21954560E+04</pdfrwt>
<pdfrwt beam="2">  1       -1 0.44348199E+00 0.21954560E+04</pdfrwt>
<totfact> 0.47146887E-02</totfact>
</mgrwt>
</event>
<event>
 8    1  0.1439553E-005  0.1280670E+04  0.7818608E-02  0.8548172E-01
          2   -1    0    0  502    0  0.00000000000E+00  0.00000000000E+00  0.21596435199E+04  0.21596435199E+04  0.00000000000E+00 0.  1.
         -2   -1    0    0    0  501 -0.00000000000E+00 -0.00000000000E+00 -0.76188402060E+03  0.76188402060E+03  0.00000000000E+00 0. -1.
    9000010    2    1    2  502    0  0.31701430953E+03  0.72671101711E+03  0.78234068807E+03  0.15018457668E+04  0.10074109292E+04 0.  0.
   -9000010    2    1    2    0  501 -0.31701430953E+03 -0.72671101711E+03  0.61541881121E+03  0.14196817737E+04  0.10040662580E+04 0.  0.
        -13    1    3    3    0    0 -0.35549713850E+03  0.15220132955E+03  0.33010978656E+03  0.50844463075E+03  0.10566000000E+00 0.  1.
          4    1    3    3  502    0  0.67251144803E+03  0.57450968756E+03  0.45223090151E+03  0.99340113605E+03  0.00000000000E+00 0.  1.
         13    1    4    4    0    0  0.25522398379E+02 -0.89640212076E+03  0.44612591352E+03  0.10016069572E+04  0.10566000000E+00 0. -1.
         -4    1    4    4    0  501 -0.34253670791E+03  0.16969110365E+03  0.16929289770E+03  0.41807481643E+03  0.00000000000E+00 0. -1.
<mgrwt>
<rscale>  2 0.12806703E+04</rscale>
<asrwt>0</asrwt>
<pdfrwt beam="1">  1        2 0.33225285E+00 0.12806703E+04</pdfrwt>
<pdfrwt beam="2">  1       -2 0.11721293E+00 0.12806703E+04</pdfrwt>
<totfact> 0.45623838E+00</totfact>
</mgrwt>
</event>
<event>
 8    1  0.1439553E-005  0.1173296E+04  0.7818608E-02  0.8626947E-01
         -2   -1    0    0    0  501 -0.00000000000E+00  0.00000000000E+00  0.10502241115E+04  0.10502241115E+04  0.00000000000E+00 0. -1.
          2   -1    0    0  502    0  0.00000000000E+00 -0.00000000000E+00 -0.13344487830E+04  0.13344487830E+04  0.00000000000E+00 0.  1.
    9000010    2    1    2  502    0  0.16529893945E+03  0.60101321466E+03 -0.30100577106E+03  0.12123989105E+04  0.99537230237E+03 0.  0.
   -9000010    2    1    2    0  501 -0.16529893945E+03 -0.60101321466E+03  0.16781099493E+02  0.11722739840E+04  0.99267520607E+03 0.  0.
        -13    1    3    3    0    0  0.20541315383E+03  0.84703873379E+03 -0.73111241845E+02  0.87465104193E+03  0.10566000000E+00 0.  1.
          4    1    3    3  502    0 -0.40114214381E+02 -0.24602551913E+03 -0.22789452921E+03  0.33774786854E+03  0.00000000000E+00 0.  1.
         13    1    4    4    0    0  0.32048136846E+03 -0.24506750810E+03  0.30390712904E+03  0.50509993595E+03  0.10566000000E+00 0. -1.
         -4    1    4    4    0  501 -0.48578030791E+03 -0.35594570656E+03 -0.28712602954E+03  0.66717404807E+03  0.00000000000E+00 0. -1.
<mgrwt>
<rscale>  2 0.11732958E+04</rscale>
<asrwt>0</asrwt>
<pdfrwt beam="2">  1        2 0.20529981E+00 0.11732958E+04</pdfrwt>
<pdfrwt beam="1">  1       -2 0.16157294E+00 0.11732958E+04</pdfrwt>
<totfact> 0.51562123E+00</totfact>
</mgrwt>
</event>
<event>
 8    1  0.1439553E-005  0.1041593E+04  0.7818608E-02  0.8736463E-01
          2   -1    0    0  502    0  0.00000000000E+00  0.00000000000E+00  0.11693224565E+04  0.11693224565E+04  0.00000000000E+00 0.  1.
         -2   -1    0    0    0  501 -0.00000000000E+00 -0.00000000000E+00 -0.10442595609E+04  0.10442595609E+04  0.00000000000E+00 0. -1.
    9000010    2    1    2  502    0 -0.25005657414E+03 -0.24620250793E+03  0.43009976292E+03  0.11059483943E+04  0.95655218342E+03 0.  0.
   -9000010    2    1    2    0  501  0.25005657414E+03  0.24620250793E+03 -0.30503686740E+03  0.11076336231E+04  0.10053162624E+04 0.  0.
        -13    1    3    3    0    0 -0.52278749052E+03 -0.37385196566E+03  0.47808624488E+03  0.80102342113E+03  0.10566000000E+00 0.  1.
          4    1    3    3  502    0  0.27273091638E+03  0.12764945774E+03 -0.47986481968E+02  0.30492497317E+03  0.00000000000E+00 0.  1.
         13    1    4    4    0    0  0.94297993395E+02  0.27115945155E+03  0.33918988375E+03  0.44437523347E+03  0.10566000000E+00 0. -1.
         -4    1    4    4    0  501  0.15575858075E+03 -0.24956943623E+02 -0.64422675115E+03  0.66325838963E+03  0.00000000000E+00 0. -1.
<mgrwt>
<rscale>  2 0.10415932E+04</rscale>
<asrwt>0</asrwt>
<pdfrwt beam="1">  1        2 0.17989576E+00 0.10415932E+04</pdfrwt>
<pdfrwt beam="2">  1       -2 0.16065532E+00 0.10415932E+04</pdfrwt>
<totfact> 0.65993632E+00</totfact>
</mgrwt>
</event>
<event>
 8    1  0.1439553E-005  0.1176749E+04  0.7818608E-02  0.8624280E-01
         -2   -1    0    0    0  501 -0.00000000000E+00  0.00000000000E+00  0.44536030231E+03  0.44536030231E+03  0.00000000000E+00 0.  1.
          2   -1    0    0  502    0  0.00000000000E+00 -0.00000000000E+00 -0.38175023351E+04  0.38175023351E+04  0.00000000000E+00 0. -1.
    9000010    2    1    2  502    0 -0.63879993366E+03 -0.13234982437E+03 -0.25893865184E+04  0.28391462704E+04  0.96449322010E+03 0.  0.
   -9000010    2    1    2    0  501  0.63879993366E+03  0.13234982437E+03 -0.78275551442E+03  0.14237163671E+04  0.99432402527E+03 0.  0.
        -13    1    3    3    0    0  0.10516144635E+03  0.25710738777E+03 -0.10442660890E+04  0.10805807765E+04  0.10566000000E+00 0.  1.
          4    1    3    3  502    0 -0.74396138001E+03 -0.38945721214E+03 -0.15451204294E+04  0.17585654939E+04  0.00000000000E+00 0.  1.
         13    1    4    4    0    0  0.50693287704E+03  0.80784974134E+02  0.10565818743E+03  0.52409046701E+03  0.10566000000E+00 0. -1.
         -4    1    4    4    0  501  0.13186705662E+03  0.51564850238E+02 -0.88841370185E+03  0.89962590005E+03  0.00000000000E+00 0. -1.
<mgrwt>
<rscale>  2 0.11767486E+04</rscale>
<asrwt>0</asrwt>
<pdfrwt beam="2">  1        2 0.58730807E+00 0.11767486E+04</pdfrwt>
<pdfrwt beam="1">  1       -2 0.68516967E-01 0.11767486E+04</pdfrwt>
<totfact> 0.13646007E+00</totfact>
</mgrwt>
</event>
<event>
 8    1  0.1439553E-005  0.1422018E+04  0.7818608E-02  0.8455841E-01
          2   -1    0    0  502    0  0.00000000000E+00  0.00000000000E+00  0.12284317251E+04  0.12284317251E+04  0.00000000000E+00 0.  1.
         -2   -1    0    0    0  501 -0.00000000000E+00 -0.00000000000E+00 -0.16753939030E+04  0.16753939030E+04  0.00000000000E+00 0. -1.
    9000010    2    1    2  502    0  0.99733032512E+03 -0.10776032850E+03 -0.41550287704E+03  0.14819241610E+04  0.10085516904E+04 0.  0.
   -9000010    2    1    2    0  501 -0.99733032512E+03  0.10776032850E+03 -0.31459300842E+02  0.14219014671E+04  0.10072407998E+04 0.  0.
        -13    1    3    3    0    0  0.94175737403E+03 -0.32770542702E+03  0.12827389029E+02  0.99722733192E+03  0.10566000000E+00 0.  1.
          4    1    3    3  502    0  0.55572951082E+02  0.21994509852E+03 -0.42833026607E+03  0.48469682905E+03  0.00000000000E+00 0.  1.
         13    1    4    4    0    0 -0.11728082890E+04  0.31906957712E+02 -0.17042981119E+03  0.11855562696E+04  0.10566000000E+00 0. -1.
         -4    1    4    4    0  501  0.17547796385E+03  0.75853370785E+02  0.13897051035E+03  0.23634519755E+03  0.00000000000E+00 0. -1.
<mgrwt>
<rscale>  2 0.14220179E+04</rscale>
<asrwt>0</asrwt>
<pdfrwt beam="1">  1        2 0.18898950E+00 0.14220179E+04</pdfrwt>
<pdfrwt beam="2">  1       -2 0.25775291E+00 0.14220179E+04</pdfrwt>
<totfact> 0.95266172E-01</totfact>
</mgrwt>
</event>
<event>
 8    1  0.1439553E-005  0.1290105E+04  0.7818608E-02  0.8541634E-01
          1   -1    0    0  502    0  0.00000000000E+00  0.00000000000E+00  0.17079492317E+04  0.17079492317E+04  0.00000000000E+00 0.  1.
         -1   -1    0    0    0  501 -0.00000000000E+00 -0.00000000000E+00 -0.97458316132E+03  0.97458316132E+03  0.00000000000E+00 0. -1.
    9000010    2    1    2  502    0  0.65740116949E+03  0.48694173007E+03  0.35467996693E+03  0.13290341899E+04  0.98551786029E+03 0.  0.
   -9000010    2    1    2    0  501 -0.65740116949E+03 -0.48694173007E+03  0.37868610345E+03  0.13534982031E+04  0.10095868832E+04 0.  0.
        -13    1    3    3    0    0  0.81609297580E+03  0.18775509110E+03  0.48317672280E+03  0.96680891391E+03  0.10566000000E+00 0.  1.
          4    1    3    3  502    0 -0.15869180631E+03  0.29918663897E+03 -0.12849675587E+03  0.36222527603E+03  0.00000000000E+00 0.  1.
         13    1    4    4    0    0  0.15264196096E+03 -0.43215321642E+03  0.16322878763E+01  0.45832155332E+03  0.10566000000E+00 0. -1.
         -4    1    4    4    0  501 -0.81004313046E+03 -0.54788513643E+02  0.37705381558E+03  0.89517664976E+03  0.00000000000E+00 0. -1.
<mgrwt>
<rscale>  2 0.12901050E+04</rscale>
<asrwt>0</asrwt>
<pdfrwt beam="1">  1        1 0.26276142E+00 0.12901050E+04</pdfrwt>
<pdfrwt beam="2">  1       -1 0.14993587E+00 0.12901050E+04</pdfrwt>
<totfact> 0.22286597E+00</totfact>
</mgrwt>
</event>
<event>
 8    1  0.1439553E-005  0.1356958E+04  0.7818608E-02  0.8496900E-01
          2   -1    0    0  502    0  0.00000000000E+00  0.00000000000E+00  0.22004865991E+04  0.22004865991E+04  0.00000000000E+00 0.  1.
         -2   -1    0    0    0  501 -0.00000000000E+00 -0.00000000000E+00 -0.86114165360E+03  0.86114165360E+03  0.00000000000E+00 0. -1.
    9000010    2    1    2  502    0  0.60492450894E+03 -0.70743627672E+03  0.92889290796E+03  0.16475578126E+04  0.99257491615E+03 0.  0.
   -9000010    2    1    2    0  501 -0.60492450894E+03  0.70743627672E+03  0.41045203755E+03  0.14140704401E+04  0.98220394389E+03 0.  0.
        -13    1    3    3    0    0  0.18786717738E+03 -0.25034429508E+03 -0.19201799869E+03  0.36720194089E+03  0.10566000000E+00 0.  1.
          4    1    3    3  502    0  0.41705733157E+03 -0.45709198164E+03  0.11209109066E+04  0.12803558717E+04  0.00000000000E+00 0.  1.
         13    1    4    4    0    0 -0.55411968782E+03  0.79993575892E+03 -0.17529683064E+02  0.97326930897E+03  0.10566000000E+00 0. -1.
         -4    1    4    4    0  501 -0.50804821125E+02 -0.92499482199E+02  0.42798172061E+03  0.44080113116E+03  0.00000000000E+00 0. -1.
<mgrwt>
<rscale>  2 0.13569584E+04</rscale>
<asrwt>0</asrwt>
<pdfrwt beam="1">  1        2 0.33853640E+00 0.13569584E+04</pdfrwt>
<pdfrwt beam="2">  1       -2 0.13248333E+00 0.13569584E+04</pdfrwt>
<totfact> 0.30849364E+00</totfact>
</mgrwt>
</event>
<event>
 8    1  0.1439553E-005  0.1125773E+04  0.7818608E-02  0.8664657E-01
          2   -1    0    0  502    0  0.00000000000E+00  0.00000000000E+00  0.31215307038E+04  0.31215307038E+04  0.00000000000E+00 0. -1.
         -2   -1    0    0    0  501 -0.00000000000E+00 -0.00000000000E+00 -0.42497710002E+03  0.42497710002E+03  0.00000000000E+00 0.  1.
    9000010    2    1    2  502    0  0.39821876572E+03 -0.32289444555E+03  0.17253562356E+04  0.20613216572E+04  0.10046660274E+04 0.  0.
   -9000010    2    1    2    0  501 -0.39821876572E+03  0.32289444555E+03  0.97119736824E+03  0.14851861466E+04  0.99985726667E+03 0.  0.
        -13    1    3    3    0    0 -0.30645118649E+03 -0.11978700392E+03  0.24822407005E+03  0.41216071638E+03  0.10566000000E+00 0.  1.
          4    1    3    3  502    0  0.70466995221E+03 -0.20310744163E+03  0.14771321655E+04  0.16491609408E+04  0.00000000000E+00 0.  1.
         13    1    4    4    0    0 -0.46056366058E+03 -0.97110655646E+02  0.53125627061E+02  0.47367890844E+03  0.10566000000E+00 0. -1.
         -4    1    4    4    0  501  0.62344894863E+02  0.42000510120E+03  0.91807174117E+03  0.10115072382E+04  0.00000000000E+00 0. -1.
<mgrwt>
<rscale>  2 0.11257726E+04</rscale>
<asrwt>0</asrwt>
<pdfrwt beam="1">  1        2 0.48023548E+00 0.11257726E+04</pdfrwt>
<pdfrwt beam="2">  1       -2 0.65381094E-01 0.11257726E+04</pdfrwt>
<totfact> 0.48966919E+00</totfact>
</mgrwt>
</event>
<event>
 8    1  0.1439553E-005  0.1102435E+04  0.7818608E-02  0.8683891E-01
         -2   -1    0    0    0  501 -0.00000000000E+00  0.00000000000E+00  0.52013431740E+03  0.52013431740E+03  0.00000000000E+00 0.  1.
          2   -1    0    0  502    0  0.00000000000E+00 -0.00000000000E+00 -0.24187209850E+04  0.24187209850E+04  0.00000000000E+00 0. -1.
    9000010    2    1    2  502    0 -0.42438698468E+03 -0.11782476374E+03 -0.12119746505E+04  0.16321499769E+04  0.10005218667E+04 0.  0.
   -9000010    2    1    2    0  501  0.42438698468E+03  0.11782476374E+03 -0.68661201712E+03  0.13067053256E+04  0.10208113235E+04 0.  0.
        -13    1    3    3    0    0  0.19828825145E+03 -0.23773836449E+03 -0.57331949210E+02  0.31484079180E+03  0.10566000000E+00 0.  1.
          4    1    3    3  502    0 -0.62267523613E+03  0.11991360076E+03 -0.11546427013E+04  0.13173091851E+04  0.00000000000E+00 0.  1.
         13    1    4    4    0    0 -0.20861350277E+03  0.10322988940E+03  0.13527149402E+03  0.26921068303E+03  0.10566000000E+00 0. -1.
         -4    1    4    4    0  501  0.63300048744E+03  0.14594874333E+02 -0.82188351114E+03  0.10374946426E+04  0.00000000000E+00 0. -1.
<mgrwt>
<rscale>  2 0.11024354E+04</rscale>
<asrwt>0</asrwt>
<pdfrwt beam="2">  1        2 0.37211093E+00 0.11024354E+04</pdfrwt>
<pdfrwt beam="1">  1       -2 0.80020662E-01 0.11024354E+04</pdfrwt>
<totfact> 0.83270599E+00</totfact>
</mgrwt>
</event>
<event>
 8    1  0.1439553E-005  0.1169294E+04  0.7818608E-02  0.8630050E-01
          2   -1    0    0  502    0  0.00000000000E+00  0.00000000000E+00  0.22352379608E+04  0.22352379608E+04  0.00000000000E+00 0.  1.
         -2   -1    0    0    0  501 -0.00000000000E+00 -0.00000000000E+00 -0.70103965183E+03  0.70103965183E+03  0.00000000000E+00 0. -1.
    9000010    2    1    2  502    0  0.34213455460E+03  0.53225304512E+03  0.12938500316E+04  0.17470060042E+04  0.98875311229E+03 0.  0.
   -9000010    2    1    2    0  501 -0.34213455460E+03 -0.53225304512E+03  0.24034827735E+03  0.11892716084E+04  0.97788051754E+03 0.  0.
        -13    1    3    3    0    0  0.48042392656E+03 -0.12969125864E+03  0.55329475066E+03  0.74415190926E+03  0.10566000000E+00 0.  1.
          4    1    3    3  502    0 -0.13828937197E+03  0.66194430375E+03  0.74055528094E+03  0.10028540950E+04  0.00000000000E+00 0.  1.
         13    1    4    4    0    0 -0.62180368585E+03 -0.58266392276E+03  0.29132499986E+03  0.90055945796E+03  0.10566000000E+00 0. -1.
         -4    1    4    4    0  501  0.27966913125E+03  0.50410877640E+02 -0.50976722507E+02  0.28871215042E+03  0.00000000000E+00 0. -1.
<mgrwt>
<rscale>  2 0.11692943E+04</rscale>
<asrwt>0</asrwt>
<pdfrwt beam="1">  1        2 0.34388276E+00 0.11692943E+04</pdfrwt>
<pdfrwt beam="2">  1       -2 0.10785225E+00 0.11692943E+04</pdfrwt>
<totfact> 0.51897038E+00</totfact>
</mgrwt>
</event>
<event>
 8    1  0.1439553E-005  0.1377634E+04  0.7818608E-02  0.8483600E-01
          2   -1    0    0  502    0  0.00000000000E+00  0.00000000000E+00  0.25172595850E+04  0.25172595850E+04  0.00000000000E+00 0. -1.
         -2   -1    0    0    0  501 -0.00000000000E+00 -0.00000000000E+00 -0.75643989086E+03  0.75643989086E+03  0.00000000000E+00 0.  1.
    9000010    2    1    2  502    0 -0.22462127166E+03 -0.92376125045E+03  0.79506975453E+03  0.16009677215E+04  0.10134950258E+04 0.  0.
   -9000010    2    1    2    0  501  0.22462127166E+03  0.92376125045E+03  0.96574993965E+03  0.16727317544E+04  0.98059625360E+03 0.  0.
        -13    1    3    3    0    0  0.36697486540E+03 -0.12504714302E+03  0.30202147427E+03  0.49145124061E+03  0.10566000000E+00 0.  1.
          4    1    3    3  502    0 -0.59159613706E+03 -0.79871410742E+03  0.49304828026E+03  0.11095164809E+04  0.00000000000E+00 0.  1.
         13    1    4    4    0    0 -0.15160520973E+03  0.10496724732E+03  0.71357736730E+03  0.73701759335E+03  0.10566000000E+00 0. -1.
         -4    1    4    4    0  501  0.37622648139E+03  0.81879400312E+03  0.25217257235E+03  0.93571416100E+03  0.00000000000E+00 0. -1.
<mgrwt>
<rscale>  2 0.13776345E+04</rscale>
<asrwt>0</asrwt>
<pdfrwt beam="1">  1        2 0.38727070E+00 0.13776345E+04</pdfrwt>
<pdfrwt beam="2">  1       -2 0.11637537E+00 0.13776345E+04</pdfrwt>
<totfact> 0.29182478E+00</totfact>
</mgrwt>
</event>
<event>
 8    1  0.1439553E-005  0.1383516E+04  0.7818608E-02  0.8479860E-01
         -2   -1    0    0    0  501 -0.00000000000E+00  0.00000000000E+00  0.58446502178E+03  0.58446502178E+03  0.00000000000E+00 0. -1.
          2   -1    0    0  502    0  0.00000000000E+00 -0.00000000000E+00 -0.33062651868E+04  0.33062651868E+04  0.00000000000E+00 0.  1.
    9000010    2    1    2  502    0 -0.82897790468E+03 -0.47514657673E+03 -0.11723035399E+04  0.18138721499E+04  0.10014329485E+04 0.  0.
   -9000010    2    1    2    0  501  0.82897790468E+03  0.47514657673E+03 -0.15494966251E+04  0.20768580587E+04  0.99971544409E+03 0.  0.
        -13    1    3    3    0    0 -0.24891842276E+03  0.25082375091E+03 -0.67018257796E+03  0.75763951466E+03  0.10566000000E+00 0.  1.
          4    1    3    3  502    0 -0.58005948192E+03 -0.72597032764E+03 -0.50212096199E+03  0.10562326352E+04  0.00000000000E+00 0.  1.
         13    1    4    4    0    0  0.22244122833E+01  0.35403045669E+03 -0.46322679229E+02  0.35705505745E+03  0.10566000000E+00 0. -1.
         -4    1    4    4    0  501  0.82675349240E+03  0.12111612004E+03 -0.15031739458E+04  0.17198030013E+04  0.00000000000E+00 0. -1.
<mgrwt>
<rscale>  2 0.13835163E+04</rscale>
<asrwt>0</asrwt>
<pdfrwt beam="2">  1        2 0.50865619E+00 0.13835163E+04</pdfrwt>
<pdfrwt beam="1">  1       -2 0.89917695E-01 0.13835163E+04</pdfrwt>
<totfact> 0.17998485E+00</totfact>
</mgrwt>
</event>
<event>
 8    1  0.1439553E-005  0.1404986E+04  0.7818608E-02  0.8466369E-01
         -1   -1    0    0    0  501 -0.00000000000E+00  0.00000000000E+00  0.73293579039E+03  0.73293579039E+03  0.00000000000E+00 0. -1.
          1   -1    0    0  502    0  0.00000000000E+00 -0.00000000000E+00 -0.30221627461E+04  0.30221627461E+04  0.00000000000E+00 0.  1.
    9000010    2    1    2  502    0 -0.78219540843E+03  0.68553472548E+03 -0.17323229706E+04  0.22055781762E+04  0.88421982567E+03 0.  0.
   -9000010    2    1    2    0  501  0.78219540843E+03 -0.68553472548E+03 -0.55690398510E+03  0.15495203603E+04  0.10045316229E+04 0.  0.
        -13    1    3    3    0    0 -0.23420415860E+03  0.77358968746E+03 -0.97002419035E+03  0.12626319866E+04  0.10566000000E+00 0.  1.
          4    1    3    3  502    0 -0.54799124983E+03 -0.88054961980E+02 -0.76229878028E+03  0.94294618968E+03  0.00000000000E+00 0.  1.
         13    1    4    4    0    0 -0.19659664400E+03  0.38366563454E+02  0.21955493926E+02  0.20150505825E+03  0.10566000000E+00 0. -1.
         -4    1    4    4    0  501  0.97879205243E+03 -0.72390128893E+03 -0.57885947903E+03  0.13480153020E+04  0.00000000000E+00 0. -1.
<mgrwt>
<rscale>  2 0.14049856E+04</rscale>
<asrwt>0</asrwt>
<pdfrwt beam="2">  1        1 0.46494812E+00 0.14049856E+04</pdfrwt>
<pdfrwt beam="1">  1       -1 0.11275935E+00 0.14049856E+04</pdfrwt>
<totfact> 0.32999894E-01</totfact>
</mgrwt>
</event>
<event>
 8    1  0.1439553E-005  0.1183999E+04  0.7818608E-02  0.8618710E-01
         -1   -1    0    0    0  501 -0.00000000000E+00  0.00000000000E+00  0.10542323554E+04  0.10542323554E+04  0.00000000000E+00 0.  1.
          1   -1    0    0  502    0  0.00000000000E+00 -0.00000000000E+00 -0.13320511589E+04  0.13320511589E+04  0.00000000000E+00 0. -1.
    9000010    2    1    2  502    0 -0.28884984927E+03 -0.60149639281E+03 -0.18225798573E+03  0.11787628037E+04  0.95447976829E+03 0.  0.
   -9000010    2    1    2    0  501  0.28884984927E+03  0.60149639281E+03 -0.95560817825E+02  0.12075207106E+04  0.10018693780E+04 0.  0.
        -13    1    3    3    0    0 -0.50809186734E+03 -0.28804049311E+03 -0.42801465400E+03  0.72410028762E+03  0.10566000000E+00 0.  1.
          4    1    3    3  502    0  0.21924201806E+03 -0.31345589971E+03  0.24575666828E+03  0.45466251610E+03  0.00000000000E+00 0.  1.
         13    1    4    4    0    0  0.50955628300E+02  0.22547375942E+03 -0.53459428028E+03  0.58243106710E+03  0.10566000000E+00 0. -1.
         -4    1    4    4    0  501  0.23789422097E+03  0.37602263340E+03  0.43903346246E+03  0.62508964346E+03  0.00000000000E+00 0. -1.
<mgrwt>
<rscale>  2 0.11839987E+04</rscale>
<asrwt>0</asrwt>
<pdfrwt beam="2">  1        1 0.20493095E+00 0.11839987E+04</pdfrwt>
<pdfrwt beam="1">  1       -1 0.16218959E+00 0.11839987E+04</pdfrwt>
<totfact> 0.33749292E+00</totfact>
</mgrwt>
</event>
<event>
 8    1  0.1439553E-005  0.1154883E+04  0.7818608E-02  0.8641333E-01
          1   -1    0    0  502    0  0.00000000000E+00  0.00000000000E+00  0.97615855620E+03  0.97615855620E+03  0.00000000000E+00 0. -1.
         -1   -1    0    0    0  501 -0.00000000000E+00 -0.00000000000E+00 -0.13747097130E+04  0.13747097130E+04  0.00000000000E+00 0.  1.
    9000010    2    1    2  502    0  0.24408280675E+03 -0.50771154648E+03 -0.29023069813E+03  0.11867463257E+04  0.10033870402E+04 0.  0.
   -9000010    2    1    2    0  501 -0.24408280675E+03  0.50771154648E+03 -0.10832045865E+03  0.11641219435E+04  0.10129655209E+04 0.  0.
        -13    1    3    3    0    0  0.33832781601E+03 -0.11430006713E+01  0.26463601022E+03  0.42953375491E+03  0.10566000000E+00 0.  1.
          4    1    3    3  502    0 -0.94245009259E+02 -0.50656854581E+03 -0.55486670835E+03  0.75721257082E+03  0.00000000000E+00 0.  1.
         13    1    4    4    0    0 -0.42536277046E+03 -0.12495746629E+03  0.13345568016E+03  0.46298842816E+03  0.10566000000E+00 0. -1.
         -4    1    4    4    0  501  0.18127996371E+03  0.63266901278E+03 -0.24177613881E+03  0.70113351529E+03  0.00000000000E+00 0. -1.
<mgrwt>
<rscale>  2 0.11548830E+04</rscale>
<asrwt>0</asrwt>
<pdfrwt beam="1">  1        1 0.15017824E+00 0.11548830E+04</pdfrwt>
<pdfrwt beam="2">  1       -1 0.21149380E+00 0.11548830E+04</pdfrwt>
<totfact> 0.23553010E+00</totfact>
</mgrwt>
</event>
<event>
 8    1  0.1439553E-005  0.1150763E+04  0.7818608E-02  0.8644591E-01
          2   -1    0    0  502    0  0.00000000000E+00  0.00000000000E+00  0.48247641845E+03  0.48247641845E+03  0.00000000000E+00 0. -1.
         -2   -1    0    0    0  501 -0.00000000000E+00 -0.00000000000E+00 -0.27453296087E+04  0.27453296087E+04  0.00000000000E+00 0.  1.
    9000010    2    1    2  502    0  0.20872822165E+03 -0.50983797095E+03 -0.11089392908E+04  0.15994175797E+04  0.10123675302E+04 0.  0.
   -9000010    2    1    2    0  501 -0.20872822165E+03  0.50983797095E+03 -0.11539138994E+04  0.16283884475E+04  0.10082804280E+04 0.  0.
        -13    1    3    3    0    0  0.45798233031E+02 -0.80941580458E+03 -0.80797567572E+03  0.11445855698E+04  0.10566000000E+00 0.  1.
          4    1    3    3  502    0  0.16292998862E+03  0.29957783363E+03 -0.30096361510E+03  0.45483200988E+03  0.00000000000E+00 0.  1.
         13    1    4    4    0    0 -0.59296556047E+03  0.13444429407E+03 -0.67825199496E+03  0.91088374886E+03  0.10566000000E+00 0. -1.
         -4    1    4    4    0  501  0.38423733882E+03  0.37539367688E+03 -0.47566190447E+03  0.71750469863E+03  0.00000000000E+00 0. -1.
<mgrwt>
<rscale>  2 0.11507626E+04</rscale>
<asrwt>0</asrwt>
<pdfrwt beam="1">  1        2 0.74227141E-01 0.11507626E+04</pdfrwt>
<pdfrwt beam="2">  1       -2 0.42235841E+00 0.11507626E+04</pdfrwt>
<totfact> 0.28980337E-01</totfact>
</mgrwt>
</event>
<event>
 8    1  0.1439553E-005  0.1252051E+04  0.7818608E-02  0.8568364E-01
         -4   -1    0    0    0  501 -0.00000000000E+00  0.00000000000E+00  0.60475284925E+03  0.60475284925E+03  0.00000000000E+00 0. -1.
          4   -1    0    0  502    0  0.00000000000E+00 -0.00000000000E+00 -0.34828428786E+04  0.34828428786E+04  0.00000000000E+00 0.  1.
    9000010    2    1    2  502    0 -0.43754826935E+02  0.74334941316E+03 -0.24635605844E+04  0.27587954131E+04  0.99364910460E+03 0.  0.
   -9000010    2    1    2    0  501  0.43754826935E+02 -0.74334941316E+03 -0.41452944496E+03  0.13288003148E+04  0.10195061457E+04 0.  0.
        -13    1    3    3    0    0 -0.26910340851E+03  0.48756474339E+03 -0.44833509618E+03  0.71494083189E+03  0.10566000000E+00 0.  1.
          4    1    3    3  502    0  0.22534858158E+03  0.25578466977E+03 -0.20152254882E+04  0.20438545812E+04  0.00000000000E+00 0.  1.
         13    1    4    4    0    0 -0.19489769261E+02 -0.72986619379E+02 -0.62017377082E+03  0.62475788502E+03  0.10566000000E+00 0. -1.
         -4    1    4    4    0  501  0.63244596196E+02 -0.67036279378E+03  0.20564432586E+03  0.70404242982E+03  0.00000000000E+00 0. -1.
<mgrwt>
<rscale>  2 0.12520513E+04</rscale>
<asrwt>0</asrwt>
<pdfrwt beam="2">  1        4 0.53582199E+00 0.12520513E+04</pdfrwt>
<pdfrwt beam="1">  1       -4 0.93038899E-01 0.12520513E+04</pdfrwt>
<totfact> 0.38324780E-02</totfact>
</mgrwt>
</event>
<event>
 8    1  0.1439553E-005  0.1217209E+04  0.7818608E-02  0.8593715E-01
          4   -1    0    0  502    0  0.00000000000E+00  0.00000000000E+00  0.11200746515E+04  0.11200746515E+04  0.00000000000E+00 0.  1.
         -4   -1    0    0    0  501 -0.00000000000E+00 -0.00000000000E+00 -0.13704192903E+04  0.13704192903E+04  0.00000000000E+00 0. -1.
    9000010    2    1    2  502    0 -0.54814449657E+03 -0.43704182315E+03  0.10706190297E+03  0.12216110844E+04  0.99468761238E+03 0.  0.
   -9000010    2    1    2    0  501  0.54814449657E+03  0.43704182315E+03 -0.35740654173E+03  0.12688828574E+04  0.99541766381E+03 0.  0.
        -13    1    3    3    0    0 -0.31734855364E+03 -0.32434536248E+03 -0.43072040394E+03  0.62564374543E+03  0.10566000000E+00 0.  1.
          4    1    3    3  502    0 -0.23079594293E+03 -0.11269646067E+03  0.53778230691E+03  0.59596733899E+03  0.00000000000E+00 0.  1.
         13    1    4    4    0    0  0.29823759464E+03  0.66306992858E+03 -0.52085823573E+03  0.89437168221E+03  0.10566000000E+00 0. -1.
         -4    1    4    4    0  501  0.24990690193E+03 -0.22602810543E+03  0.16345169400E+03  0.37451117520E+03  0.00000000000E+00 0. -1.
<mgrwt>
<rscale>  2 0.12172090E+04</rscale>
<asrwt>0</asrwt>
<pdfrwt beam="1">  1        4 0.17231918E+00 0.12172090E+04</pdfrwt>
<pdfrwt beam="2">  1       -4 0.21083374E+00 0.12172090E+04</pdfrwt>
<totfact> 0.20698691E-01</totfact>
</mgrwt>
</event>
<event>
 8    1  0.1439553E-005  0.1202074E+04  0.7818608E-02  0.8605002E-01
          2   -1    0    0  502    0  0.00000000000E+00  0.00000000000E+00  0.24206541007E+04  0.24206541007E+04  0.00000000000E+00 0.  1.
         -2   -1    0    0    0  501 -0.00000000000E+00 -0.00000000000E+00 -0.60065262069E+03  0.60065262069E+03  0.00000000000E+00 0. -1.
    9000010    2    1    2  502    0  0.44887694678E+03  0.45831777597E+03  0.10346258091E+04  0.15923925165E+04  0.10265075083E+04 0.  0.
   -9000010    2    1    2    0  501 -0.44887694678E+03 -0.45831777597E+03  0.78537567096E+03  0.14289142049E+04  0.10066951690E+04 0.  0.
        -13    1    3    3    0    0  0.19789557497E+03  0.12173647522E+03 -0.18851404378E+03  0.29919890351E+03  0.10566000000E+00 0.  1.
          4    1    3    3  502    0  0.25098137181E+03  0.33658130075E+03  0.12231398529E+04  0.12931936130E+04  0.00000000000E+00 0.  1.
         13    1    4    4    0    0 -0.60070789215E+03 -0.65622430510E+03  0.77399638784E+03  0.11792161506E+04  0.10566000000E+00 0. -1.
         -4    1    4    4    0  501  0.15183094537E+03  0.19790652913E+03  0.11379283121E+02  0.24969805432E+03  0.00000000000E+00 0. -1.
<mgrwt>
<rscale>  2 0.12020739E+04</rscale>
<asrwt>0</asrwt>
<pdfrwt beam="1">  1        2 0.37240832E+00 0.12020739E+04</pdfrwt>
<pdfrwt beam="2">  1       -2 0.92408097E-01 0.12020739E+04</pdfrwt>
<totfact> 0.59310675E+00</totfact>
</mgrwt>
</event>
<event>
 8    1  0.1439553E-005  0.1164329E+04  0.7818608E-02  0.8633919E-01
          1   -1    0    0  502    0  0.00000000000E+00  0.00000000000E+00  0.11151276848E+04  0.11151276848E+04  0.00000000000E+00 0. -1.
         -1   -1    0    0    0  501 -0.00000000000E+00 -0.00000000000E+00 -0.15870323365E+04  0.15870323365E+04  0.00000000000E+00 0.  1.
    9000010    2    1    2  502    0 -0.52622996767E+03  0.10472172114E+03 -0.88133895361E+03  0.14279134222E+04  0.98706320594E+03 0.  0.
   -9000010    2    1    2    0  501  0.52622996767E+03 -0.10472172114E+03  0.40943430195E+03  0.12742465990E+04  0.10808253003E+04 0.  0.
        -13    1    3    3    0    0 -0.78051355033E+03  0.17418918649E+03 -0.43714966260E+03  0.91139624402E+03  0.10566000000E+00 0.  1.
          4    1    3    3  502    0  0.25428358266E+03 -0.69467465349E+02 -0.44418929100E+03  0.51651717822E+03  0.00000000000E+00 0.  1.
         13    1    4    4    0    0  0.84539245099E+03 -0.19453590850E+03  0.35916145918E+03  0.93889806732E+03  0.10566000000E+00 0. -1.
         -4    1    4    4    0  501 -0.31916248332E+03  0.89814187361E+02  0.50272842772E+02  0.33534853173E+03  0.00000000000E+00 0. -1.
<mgrwt>
<rscale>  2 0.11643287E+04</rscale>
<asrwt>0</asrwt>
<pdfrwt beam="1">  1        1 0.17155811E+00 0.11643287E+04</pdfrwt>
<pdfrwt beam="2">  1       -1 0.24415882E+00 0.11643287E+04</pdfrwt>
<totfact> 0.89897275E-01</totfact>
</mgrwt>
</event>
<event>
 8    1  0.1439553E-005  0.1226055E+04  0.7818608E-02  0.8587196E-01
         -1   -1    0    0    0  501 -0.00000000000E+00  0.00000000000E+00  0.83997695214E+03  0.83997695214E+03  0.00000000000E+00 0.  1.
          1   -1    0    0  502    0  0.00000000000E+00 -0.00000000000E+00 -0.18811682110E+04  0.18811682110E+04  0.00000000000E+00 0. -1.
    9000010    2    1    2  502    0 -0.69056010469E+03 -0.23567632224E+03 -0.82606308766E+03  0.14901031153E+04  0.10028013176E+04 0.  0.
   -9000010    2    1    2    0  501  0.69056010469E+03  0.23567632224E+03 -0.21512817119E+03  0.12310420478E+04  0.96786765952E+03 0.  0.
        -13    1    3    3    0    0 -0.87763744611E+03 -0.13864293316E+03 -0.32425644254E+03  0.94583909912E+03  0.10566000000E+00 0.  1.
          4    1    3    3  502    0  0.18707734142E+03 -0.97033389078E+02 -0.50180664513E+03  0.54426401623E+03  0.00000000000E+00 0.  1.
         13    1    4    4    0    0  0.78112460191E+03  0.29728839339E+02 -0.45313379294E+03  0.90353178863E+03  0.10566000000E+00 0. -1.
         -4    1    4    4    0  501 -0.90564497214E+02  0.20594748290E+03  0.23800562176E+03  0.32751025916E+03  0.00000000000E+00 0. -1.
<mgrwt>
<rscale>  2 0.12260553E+04</rscale>
<asrwt>0</asrwt>
<pdfrwt beam="2">  1        1 0.28941049E+00 0.12260553E+04</pdfrwt>
<pdfrwt beam="1">  1       -1 0.12922722E+00 0.12260553E+04</pdfrwt>
<totfact> 0.25256273E+00</totfact>
</mgrwt>
</event>
<event>
 8    1  0.1439553E-005  0.1208178E+04  0.7818608E-02  0.8600430E-01
         -2   -1    0    0    0  501 -0.00000000000E+00  0.00000000000E+00  0.36279424024E+03  0.36279424024E+03  0.00000000000E+00 0. -1.
          2   -1    0    0  502    0  0.00000000000E+00 -0.00000000000E+00 -0.40339800517E+04  0.40339800517E+04  0.00000000000E+00 0.  1.
    9000010    2    1    2  502    0  0.16255569861E+03 -0.69469493852E+03 -0.19271321815E+04  0.22681304351E+04  0.95997490213E+03 0.  0.
   -9000010    2    1    2    0  501 -0.16255569861E+03  0.69469493852E+03 -0.17440536300E+04  0.21286438569E+04  0.99013948135E+03 0.  0.
        -13    1    3    3    0    0  0.25343744588E+03 -0.91332586214E+03 -0.16568673179E+04  0.19088226711E+04  0.10566000000E+00 0.  1.
          4    1    3    3  502    0 -0.90881747266E+02  0.21863092362E+03 -0.27026486365E+03  0.35930776400E+03  0.00000000000E+00 0.  1.
         13    1    4    4    0    0 -0.43102697298E+03  0.67239958040E+03 -0.73906234355E+03  0.10881721399E+04  0.10566000000E+00 0. -1.
         -4    1    4    4    0  501  0.26847127437E+03  0.22295358120E+02 -0.10049912864E+04  0.10404717170E+04  0.00000000000E+00 0. -1.
<mgrwt>
<rscale>  2 0.12081776E+04</rscale>
<asrwt>0</asrwt>
<pdfrwt beam="2">  1        2 0.62061228E+00 0.12081776E+04</pdfrwt>
<pdfrwt beam="1">  1       -2 0.55814501E-01 0.12081776E+04</pdfrwt>
<totfact> 0.13528649E+00</totfact>
</mgrwt>
</event>
<event>
 8    1  0.1439553E-005  0.1063699E+04  0.7818608E-02  0.8716939E-01
          1   -1    0    0  502    0  0.00000000000E+00  0.00000000000E+00  0.16165083495E+04  0.16165083495E+04  0.00000000000E+00 0.  1.
         -1   -1    0    0    0  501 -0.00000000000E+00 -0.00000000000E+00 -0.71241013520E+03  0.71241013520E+03  0.00000000000E+00 0. -1.
    9000010    2    1    2  502    0  0.11184336908E+03  0.36074342656E+03  0.31795424778E+03  0.11450773523E+04  0.10331807587E+04 0.  0.
   -9000010    2    1    2    0  501 -0.11184336908E+03 -0.36074342656E+03  0.58614396648E+03  0.11838411323E+04  0.95669761059E+03 0.  0.
        -13    1    3    3    0    0 -0.20515889155E+03 -0.28430392815E+03  0.23387031163E+03  0.42144303075E+03  0.10566000000E+00 0.  1.
          4    1    3    3  502    0  0.31700226063E+03  0.64504735470E+03  0.84083936143E+02  0.72363432158E+03  0.00000000000E+00 0.  1.
         13    1    4    4    0    0 -0.17705327570E+01  0.30393782783E+03  0.21356063676E+02  0.30469235401E+03  0.10566000000E+00 0. -1.
         -4    1    4    4    0  501 -0.11007283632E+03 -0.66468125439E+03  0.56478790280E+03  0.87914877830E+03  0.00000000000E+00 0. -1.
<mgrwt>
<rscale>  2 0.10636988E+04</rscale>
<asrwt>0</asrwt>
<pdfrwt beam="1">  1        1 0.24869359E+00 0.10636988E+04</pdfrwt>
<pdfrwt beam="2">  1       -1 0.10960156E+00 0.10636988E+04</pdfrwt>
<totfact> 0.60743003E+00</totfact>
</mgrwt>
</event>
<event>
 8    1  0.1439553E-005  0.1318371E+04  0.7818608E-02  0.8522387E-01
          2   -1    0    0  502    0  0.00000000000E+00  0.00000000000E+00  0.16704523687E+04  0.16704523687E+04  0.00000000000E+00 0. -1.
         -2   -1    0    0    0  501 -0.00000000000E+00 -0.00000000000E+00 -0.10477786136E+04  0.10477786136E+04  0.00000000000E+00 0.  1.
    9000010    2    1    2  502    0  0.29594564732E+03  0.80372810877E+03  0.42496204217E+03  0.13865377872E+04  0.10041571586E+04 0.  0.
   -9000010    2    1    2    0  501 -0.29594564732E+03 -0.80372810877E+03  0.19771171299E+03  0.13316931951E+04  0.10003770016E+04 0.  0.
        -13    1    3    3    0    0  0.17506110522E+03 -0.20902497166E+03  0.21010199855E+03  0.34421024141E+03  0.10566000000E+00 0.  1.
          4    1    3    3  502    0  0.12088454210E+03  0.10127530804E+04  0.21486004363E+03  0.10423275458E+04  0.00000000000E+00 0.  1.
         13    1    4    4    0    0  0.33180176926E+03 -0.54019185812E+03  0.57270632760E+02  0.63653718997E+03  0.10566000000E+00 0. -1.
         -4    1    4    4    0  501 -0.62774741658E+03 -0.26353625065E+03  0.14044108023E+03  0.69515600512E+03  0.00000000000E+00 0. -1.
<mgrwt>
<rscale>  2 0.13183708E+04</rscale>
<asrwt>0</asrwt>
<pdfrwt beam="1">  1        2 0.25699267E+00 0.13183708E+04</pdfrwt>
<pdfrwt beam="2">  1       -2 0.16119671E+00 0.13183708E+04</pdfrwt>
<totfact> 0.33466453E+00</totfact>
</mgrwt>
</event>
<event>
 8    1  0.1439553E-005  0.1251520E+04  0.7818608E-02  0.8568744E-01
          2   -1    0    0  502    0  0.00000000000E+00  0.00000000000E+00  0.65536441115E+03  0.65536441115E+03  0.00000000000E+00 0.  1.
         -2   -1    0    0    0  501 -0.00000000000E+00 -0.00000000000E+00 -0.27905379557E+04  0.27905379557E+04  0.00000000000E+00 0. -1.
    9000010    2    1    2  502    0 -0.16295797273E+03  0.75633800026E+03 -0.40339684512E+03  0.12996869424E+04  0.96325212794E+03 0.  0.
   -9000010    2    1    2    0  501  0.16295797273E+03 -0.75633800026E+03 -0.17317766994E+04  0.21462154245E+04  0.10042846410E+04 0.  0.
        -13    1    3    3    0    0 -0.60124487078E+02  0.96062107177E+02  0.30528415704E+03  0.32563984721E+03  0.10566000000E+00 0.  1.
          4    1    3    3  502    0 -0.10283348565E+03  0.66027589308E+03 -0.70868100216E+03  0.97404709516E+03  0.00000000000E+00 0.  1.
         13    1    4    4    0    0  0.19783373787E+03  0.19715497479E+03 -0.62739478054E+03  0.68675504638E+03  0.10566000000E+00 0. -1.
         -4    1    4    4    0  501 -0.34875765138E+02 -0.95349297505E+03 -0.11043819189E+04  0.14594603781E+04  0.00000000000E+00 0. -1.
<mgrwt>
<rscale>  2 0.12515205E+04</rscale>
<asrwt>0</asrwt>
<pdfrwt beam="1">  1        2 0.10082529E+00 0.12515205E+04</pdfrwt>
<pdfrwt beam="2">  1       -2 0.42931354E+00 0.12515205E+04</pdfrwt>
<totfact> 0.19371164E-01</totfact>
</mgrwt>
</event>
<event>
 8    1  0.1439553E-005  0.1103546E+04  0.7818608E-02  0.8682965E-01
         -2   -1    0    0    0  501 -0.00000000000E+00  0.00000000000E+00  0.60948163240E+03  0.60948163240E+03  0.00000000000E+00 0. -1.
          2   -1    0    0  502    0  0.00000000000E+00 -0.00000000000E+00 -0.24315011452E+04  0.24315011452E+04  0.00000000000E+00 0.  1.
    9000010    2    1    2  502    0  0.30888426323E+03  0.32779044287E+03 -0.15544544189E+04  0.19076464418E+04  0.10099160083E+04 0.  0.
   -9000010    2    1    2    0  501 -0.30888426323E+03 -0.32779044287E+03 -0.26756509394E+03  0.11333363359E+04  0.10049896060E+04 0.  0.
        -13    1    3    3    0    0 -0.32262038257E+03 -0.84962231891E+02 -0.32880567421E+03  0.46841826891E+03  0.10566000000E+00 0.  1.
          4    1    3    3  502    0  0.63150464580E+03  0.41275267476E+03 -0.12256487447E+04  0.14392281729E+04  0.00000000000E+00 0.  1.
         13    1    4    4    0    0 -0.75382889946E+02 -0.65572790797E+03 -0.19226085309E+02  0.66032667893E+03  0.10566000000E+00 0. -1.
         -4    1    4    4    0  501 -0.23350137329E+03  0.32793746510E+03 -0.24833900863E+03  0.47300965693E+03  0.00000000000E+00 0. -1.
<mgrwt>
<rscale>  2 0.11035457E+04</rscale>
<asrwt>0</asrwt>
<pdfrwt beam="2">  1        2 0.37407710E+00 0.11035457E+04</pdfrwt>
<pdfrwt beam="1">  1       -2 0.93766404E-01 0.11035457E+04</pdfrwt>
<totfact> 0.57192874E+00</totfact>
</mgrwt>
</event>
<event>
 8    1  0.1439553E-005  0.1050853E+04  0.7818608E-02  0.8728224E-01
         -2   -1    0    0    0  501 -0.00000000000E+00  0.00000000000E+00  0.34532636184E+03  0.34532636184E+03  0.00000000000E+00 0. -1.
          2   -1    0    0  502    0  0.00000000000E+00 -0.00000000000E+00 -0.34237572568E+04  0.34237572568E+04  0.00000000000E+00 0.  1.
    9000010    2    1    2  502    0 -0.24688938558E+02  0.49678228390E+03 -0.20752847059E+04  0.23459813346E+04  0.97438166586E+03 0.  0.
   -9000010    2    1    2    0  501  0.24688938558E+02 -0.49678228390E+03 -0.10031461891E+04  0.14231022840E+04  0.87835963746E+03 0.  0.
        -13    1    3    3    0    0 -0.16325363362E+03  0.75330705142E+03 -0.12272722843E+04  0.14492482650E+04  0.10566000000E+00 0.  1.
          4    1    3    3  502    0  0.13856469506E+03 -0.25652476752E+03 -0.84801242154E+03  0.89673306962E+03  0.00000000000E+00 0.  1.
         13    1    4    4    0    0  0.33385631601E+03 -0.47702238249E+03 -0.30055756694E+03  0.65524442413E+03  0.10566000000E+00 0. -1.
         -4    1    4    4    0  501 -0.30916737746E+03 -0.19759901412E+02 -0.70258862213E+03  0.76785785985E+03  0.00000000000E+00 0. -1.
<mgrwt>
<rscale>  2 0.10508535E+04</rscale>
<asrwt>0</asrwt>
<pdfrwt beam="2">  1        2 0.52673190E+00 0.10508535E+04</pdfrwt>
<pdfrwt beam="1">  1       -2 0.53127131E-01 0.10508535E+04</pdfrwt>
<totfact> 0.47197400E+00</totfact>
</mgrwt>
</event>
<event>
 8    1  0.1439553E-005  0.1134047E+04  0.7818608E-02  0.8657953E-01
         -1   -1    0    0    0  501 -0.00000000000E+00  0.00000000000E+00  0.36844223916E+03  0.36844223916E+03  0.00000000000E+00 0.  1.
          1   -1    0    0  502    0  0.00000000000E+00 -0.00000000000E+00 -0.41323062584E+04  0.41323062584E+04  0.00000000000E+00 0. -1.
    9000010    2    1    2  502    0 -0.44297578434E+03 -0.26541430640E+03 -0.27709689041E+04  0.29946443810E+04  0.10114118851E+04 0.  0.
   -9000010    2    1    2    0  501  0.44297578434E+03  0.26541430640E+03 -0.99289511510E+03  0.15061041166E+04  0.10078871965E+04 0.  0.
        -13    1    3    3    0    0 -0.21749950565E+03  0.33099506479E+03 -0.17231163951E+04  0.17680480452E+04  0.10566000000E+00 0.  1.
          4    1    3    3  502    0 -0.22547627869E+03 -0.59640937119E+03 -0.10478525090E+04  0.12265963358E+04  0.00000000000E+00 0.  1.
         13    1    4    4    0    0 -0.23011959449E+03  0.31069393106E+03 -0.12393159883E+03  0.40601083596E+03  0.10566000000E+00 0. -1.
         -4    1    4    4    0  501  0.67309537883E+03 -0.45279624657E+02 -0.86896351627E+03  0.11000932806E+04  0.00000000000E+00 0. -1.
<mgrwt>
<rscale>  2 0.11340470E+04</rscale>
<asrwt>0</asrwt>
<pdfrwt beam="2">  1        1 0.63573937E+00 0.11340470E+04</pdfrwt>
<pdfrwt beam="1">  1       -1 0.56683426E-01 0.11340470E+04</pdfrwt>
<totfact> 0.15917649E-01</totfact>
</mgrwt>
</event>
<event>
 8    1  0.1439553E-005  0.1151086E+04  0.7818608E-02  0.8644335E-01
         -2   -1    0    0    0  501 -0.00000000000E+00  0.00000000000E+00  0.94138151415E+03  0.94138151415E+03  0.00000000000E+00 0.  1.
          2   -1    0    0  502    0  0.00000000000E+00 -0.00000000000E+00 -0.15293787361E+04  0.15293787361E+04  0.00000000000E+00 0. -1.
    9000010    2    1    2  502    0  0.40153495363E+03  0.38449365321E+03 -0.64611890781E+03  0.13343013233E+04  0.10265596378E+04 0.  0.
   -9000010    2    1    2    0  501 -0.40153495363E+03 -0.38449365321E+03  0.58121685827E+02  0.11364589270E+04  0.98949233148E+03 0.  0.
        -13    1    3    3    0    0  0.75189533915E+03  0.26653396417E+03 -0.44341021840E+03  0.91268811104E+03  0.10566000000E+00 0.  1.
          4    1    3    3  502    0 -0.35036038552E+03  0.11795968905E+03 -0.20270868941E+03  0.42161321225E+03  0.00000000000E+00 0.  1.
         13    1    4    4    0    0 -0.36396965569E+03 -0.43737849102E+03 -0.38602722567E+03  0.68759790924E+03  0.10566000000E+00 0. -1.
         -4    1    4    4    0  501 -0.37565297936E+02  0.52884837806E+02  0.44414891150E+03  0.44886101776E+03  0.00000000000E+00 0. -1.
<mgrwt>
<rscale>  2 0.11510859E+04</rscale>
<asrwt>0</asrwt>
<pdfrwt beam="2">  1        2 0.23528904E+00 0.11510859E+04</pdfrwt>
<pdfrwt beam="1">  1       -2 0.14482792E+00 0.11510859E+04</pdfrwt>
<totfact> 0.56646666E+00</totfact>
</mgrwt>
</event>
<event>
 8    1  0.1439553E-005  0.1338712E+04  0.7818608E-02  0.8508842E-01
          2   -1    0    0  502    0  0.00000000000E+00  0.00000000000E+00  0.23795440150E+04  0.23795440150E+04  0.00000000000E+00 0.  1.
         -2   -1    0    0    0  501 -0.00000000000E+00 -0.00000000000E+00 -0.75357491787E+03  0.75357491787E+03  0.00000000000E+00 0. -1.
    9000010    2    1    2  502    0  0.41638794093E+03  0.78220110362E+03  0.77238615425E+03  0.15395145663E+04  0.99413643159E+03 0.  0.
   -9000010    2    1    2    0  501 -0.41638794093E+03 -0.78220110362E+03  0.85358294291E+03  0.15936043666E+04  0.10127949215E+04 0.  0.
        -13    1    3    3    0    0 -0.11316208663E+03  0.45404302984E+03  0.78785334359E+03  0.91633707388E+03  0.10566000000E+00 0.  1.
          4    1    3    3  502    0  0.52955002756E+03  0.32815807378E+03 -0.15467189340E+02  0.62317749239E+03  0.00000000000E+00 0.  1.
         13    1    4    4    0    0 -0.29933614417E+03 -0.77322422999E+03  0.10662472643E+04  0.13506891119E+04  0.10566000000E+00 0. -1.
         -4    1    4    4    0  501 -0.11705179676E+03 -0.89768736384E+01 -0.21266432143E+03  0.24291525476E+03  0.00000000000E+00 0. -1.
<mgrwt>
<rscale>  2 0.13387121E+04</rscale>
<asrwt>0</asrwt>
<pdfrwt beam="1">  1        2 0.36608369E+00 0.13387121E+04</pdfrwt>
<pdfrwt beam="2">  1       -2 0.11593460E+00 0.13387121E+04</pdfrwt>
<totfact> 0.35326206E+00</totfact>
</mgrwt>
</event>
<event>
 8    1  0.1439553E-005  0.1523952E+04  0.7818608E-02  0.8395846E-01
          2   -1    0    0  502    0  0.00000000000E+00  0.00000000000E+00  0.22661157997E+04  0.22661157997E+04  0.00000000000E+00 0. -1.
         -2   -1    0    0    0  501 -0.00000000000E+00 -0.00000000000E+00 -0.10495706848E+04  0.10495706848E+04  0.00000000000E+00 0.  1.
    9000010    2    1    2  502    0  0.71531370708E+03 -0.87823695076E+03  0.34746244760E+03  0.15452362661E+04  0.99199351019E+03 0.  0.
   -9000010    2    1    2    0  501 -0.71531370708E+03  0.87823695076E+03  0.86908266723E+03  0.17704502185E+04  0.10470030813E+04 0.  0.
        -13    1    3    3    0    0  0.87361414468E+03 -0.96267025300E+03  0.20477794693E+03  0.13160052084E+04  0.10566000000E+00 0.  1.
          4    1    3    3  502    0 -0.15830043760E+03  0.84433302242E+02  0.14268450067E+03  0.22923105768E+03  0.00000000000E+00 0.  1.
         13    1    4    4    0    0 -0.41658222148E+03 -0.10223774158E+03  0.36199546590E+01  0.42895969309E+03  0.10566000000E+00 0. -1.
         -4    1    4    4    0  501 -0.29873148559E+03  0.98047469234E+03  0.86546271257E+03  0.13414905254E+04  0.00000000000E+00 0. -1.
<mgrwt>
<rscale>  2 0.15239521E+04</rscale>
<asrwt>0</asrwt>
<pdfrwt beam="1">  1        2 0.34863320E+00 0.15239521E+04</pdfrwt>
<pdfrwt beam="2">  1       -2 0.16147241E+00 0.15239521E+04</pdfrwt>
<totfact> 0.15374242E+00</totfact>
</mgrwt>
</event>
<event>
 8    1  0.1439553E-005  0.1115675E+04  0.7818608E-02  0.8672919E-01
         -1   -1    0    0    0  501 -0.00000000000E+00  0.00000000000E+00  0.72804947626E+03  0.72804947626E+03  0.00000000000E+00 0.  1.
          1   -1    0    0  502    0  0.00000000000E+00 -0.00000000000E+00 -0.17140382972E+04  0.17140382972E+04  0.00000000000E+00 0. -1.
    9000010    2    1    2  502    0  0.38302256801E+03 -0.31317541249E+03 -0.43117040980E+03  0.11955611866E+04  0.99933653097E+03 0.  0.
   -9000010    2    1    2    0  501 -0.38302256801E+03  0.31317541249E+03 -0.55481841118E+03  0.12465265869E+04  0.10006097820E+04 0.  0.
        -13    1    3    3    0    0 -0.48076436556E+02 -0.46079067274E+03 -0.55539640280E+03  0.72325967899E+03  0.10566000000E+00 0.  1.
          4    1    3    3  502    0  0.43109900456E+03  0.14761526025E+03  0.12422599301E+03  0.47230150766E+03  0.00000000000E+00 0.  1.
         13    1    4    4    0    0 -0.20844927490E+03 -0.19557920143E+03  0.17857716631E+03  0.33703433019E+03  0.10566000000E+00 0. -1.
         -4    1    4    4    0  501 -0.17457329311E+03  0.50875461392E+03 -0.73339557749E+03  0.90949225666E+03  0.00000000000E+00 0. -1.
<mgrwt>
<rscale>  2 0.11156752E+04</rscale>
<asrwt>0</asrwt>
<pdfrwt beam="2">  1        1 0.26369820E+00 0.11156752E+04</pdfrwt>
<pdfrwt beam="1">  1       -1 0.11200761E+00 0.11156752E+04</pdfrwt>
<totfact> 0.48585376E+00</totfact>
</mgrwt>
</event>
<event>
 8    1  0.1439553E-005  0.1097348E+04  0.7818608E-02  0.8688150E-01
          2   -1    0    0  502    0  0.00000000000E+00  0.00000000000E+00  0.35950510015E+04  0.35950510015E+04  0.00000000000E+00 0.  1.
         -2   -1    0    0    0  501 -0.00000000000E+00 -0.00000000000E+00 -0.43036136069E+03  0.43036136069E+03  0.00000000000E+00 0. -1.
    9000010    2    1    2  502    0 -0.40674838506E+03 -0.21612258471E+03  0.62530679310E+03  0.12556950579E+04  0.98671590267E+03 0.  0.
   -9000010    2    1    2    0  501  0.40674838506E+03  0.21612258471E+03  0.25393828478E+04  0.27697173043E+04  0.10053434627E+04 0.  0.
        -13    1    3    3    0    0 -0.94551272851E+02 -0.53963734585E+03  0.87632469279E+02  0.55482237614E+03  0.10566000000E+00 0.  1.
          4    1    3    3  502    0 -0.31219711221E+03  0.32351476114E+03  0.53767432382E+03  0.70087268176E+03  0.00000000000E+00 0.  1.
         13    1    4    4    0    0 -0.23558430965E+03 -0.70029680911E+02  0.14663301438E+04  0.14867845254E+04  0.10566000000E+00 0. -1.
         -4    1    4    4    0  501  0.64233269470E+03  0.28615226562E+03  0.10730527039E+04  0.12829327789E+04  0.00000000000E+00 0. -1.
<mgrwt>
<rscale>  2 0.10973478E+04</rscale>
<asrwt>0</asrwt>
<pdfrwt beam="1">  1        2 0.55308475E+00 0.10973478E+04</pdfrwt>
<pdfrwt beam="2">  1       -2 0.66209442E-01 0.10973478E+04</pdfrwt>
<totfact> 0.22522169E+00</totfact>
</mgrwt>
</event>
<event>
 8    1  0.1439553E-005  0.1064951E+04  0.7818608E-02  0.8715847E-01
         -1   -1    0    0    0  501 -0.00000000000E+00  0.00000000000E+00  0.83452257660E+03  0.83452257660E+03  0.00000000000E+00 0. -1.
          1   -1    0    0  502    0  0.00000000000E+00 -0.00000000000E+00 -0.13727756798E+04  0.13727756798E+04  0.00000000000E+00 0.  1.
    9000010    2    1    2  502    0  0.12564502591E+03  0.20206470166E+03 -0.37875145555E+03  0.11271006805E+04  0.10345465010E+04 0.  0.
   -9000010    2    1    2    0  501 -0.12564502591E+03 -0.20206470166E+03 -0.15950164765E+03  0.10801975759E+04  0.10415225447E+04 0.  0.
        -13    1    3    3    0    0  0.30866910217E+03  0.56163992815E+03 -0.13253249930E+03  0.65443173675E+03  0.10566000000E+00 0.  1.
          4    1    3    3  502    0 -0.18302407626E+03 -0.35957522649E+03 -0.24621895625E+03  0.47266894378E+03  0.00000000000E+00 0.  1.
         13    1    4    4    0    0  0.31424538201E+03 -0.44496463425E+03 -0.18961235052E+03  0.57679852677E+03  0.10566000000E+00 0. -1.
         -4    1    4    4    0  501 -0.43989040791E+03  0.24289993259E+03  0.30110702862E+02  0.50339904912E+03  0.00000000000E+00 0. -1.
<mgrwt>
<rscale>  2 0.10649514E+04</rscale>
<asrwt>0</asrwt>
<pdfrwt beam="2">  1        1 0.21119626E+00 0.10649514E+04</pdfrwt>
<pdfrwt beam="1">  1       -1 0.12838809E+00 0.10649514E+04</pdfrwt>
<totfact> 0.62732540E+00</totfact>
</mgrwt>
</event>
<event>
 8    1  0.1439553E-005  0.1240373E+04  0.7818608E-02  0.8576765E-01
         -2   -1    0    0    0  501 -0.00000000000E+00  0.00000000000E+00  0.57164236662E+03  0.57164236662E+03  0.00000000000E+00 0.  1.
          2   -1    0    0  502    0  0.00000000000E+00 -0.00000000000E+00 -0.30663525936E+04  0.30663525936E+04  0.00000000000E+00 0. -1.
    9000010    2    1    2  502    0 -0.22033686059E+03  0.70167119231E+03 -0.18836755327E+04  0.22555422397E+04  0.99917290208E+03 0.  0.
   -9000010    2    1    2    0  501  0.22033686059E+03 -0.70167119231E+03 -0.61103469432E+03  0.13824527206E+04  0.99845947973E+03 0.  0.
        -13    1    3    3    0    0  0.19833392100E+02  0.34779881127E+03 -0.17822849303E+04  0.18160112776E+04  0.10566000000E+00 0.  1.
          4    1    3    3  502    0 -0.24017025269E+03  0.35387238104E+03 -0.10139060238E+03  0.43953096204E+03  0.00000000000E+00 0.  1.
         13    1    4    4    0    0  0.46650879538E+03 -0.83302526969E+03 -0.52951671503E+03  0.10917644063E+04  0.10566000000E+00 0. -1.
         -4    1    4    4    0  501 -0.24617193479E+03  0.13135407738E+03 -0.81517979293E+02  0.29068831430E+03  0.00000000000E+00 0. -1.
<mgrwt>
<rscale>  2 0.12403727E+04</rscale>
<asrwt>0</asrwt>
<pdfrwt beam="2">  1        2 0.47174655E+00 0.12403727E+04</pdfrwt>
<pdfrwt beam="1">  1       -2 0.87944981E-01 0.12403727E+04</pdfrwt>
<totfact> 0.27577241E+00</totfact>
</mgrwt>
</event>
<event>
 8    1  0.1439553E-005  0.1329300E+04  0.7818608E-02  0.8515078E-01
         -2   -1    0    0    0  501 -0.00000000000E+00  0.00000000000E+00  0.88129345288E+03  0.88129345288E+03  0.00000000000E+00 0. -1.
          2   -1    0    0  502    0  0.00000000000E+00 -0.00000000000E+00 -0.22909368005E+04  0.22909368005E+04  0.00000000000E+00 0.  1.
    9000010    2    1    2  502    0 -0.37474081164E+03 -0.77014539546E+03 -0.12579768253E+04  0.18195035610E+04  0.99726270840E+03 0.  0.
   -9000010    2    1    2    0  501  0.37474081164E+03  0.77014539546E+03 -0.15166652232E+03  0.13527266923E+04  0.10360078012E+04 0.  0.
        -13    1    3    3    0    0 -0.33349713730E+03 -0.10006421322E+04 -0.11536930284E+04  0.15631738971E+04  0.10566000000E+00 0.  1.
          4    1    3    3  502    0 -0.41243674336E+02  0.23049673679E+03 -0.10428379685E+03  0.25632966396E+03  0.00000000000E+00 0.  1.
         13    1    4    4    0    0 -0.32254999677E+03  0.39029191039E+03 -0.22746752284E+03  0.55507455431E+03  0.10566000000E+00 0. -1.
         -4    1    4    4    0  501  0.69729080841E+03  0.37985348507E+03  0.75801000512E+02  0.79765213803E+03  0.00000000000E+00 0. -1.
<mgrwt>
<rscale>  2 0.13292999E+04</rscale>
<asrwt>0</asrwt>
<pdfrwt beam="2">  1        2 0.35245181E+00 0.13292999E+04</pdfrwt>
<pdfrwt beam="1">  1       -2 0.13558361E+00 0.13292999E+04</pdfrwt>
<totfact> 0.25831125E+00</totfact>
</mgrwt>
</event>
<event>
 8    1  0.1439553E-005  0.1130462E+04  0.7818608E-02  0.8660851E-01
          2   -1    0    0  502    0  0.00000000000E+00  0.00000000000E+00  0.25608621957E+04  0.25608621957E+04  0.00000000000E+00 0. -1.
         -2   -1    0    0    0  501 -0.00000000000E+00 -0.00000000000E+00 -0.52023578887E+03  0.52023578887E+03  0.00000000000E+00 0.  1.
    9000010    2    1    2  502    0  0.45468886933E+03  0.25903046223E+03  0.13344146251E+04  0.17512067201E+04  0.10060933538E+04 0.  0.
   -9000010    2    1    2    0  501 -0.45468886933E+03 -0.25903046223E+03  0.70621178174E+03  0.13298912645E+04  0.99801650608E+03 0.  0.
        -13    1    3    3    0    0  0.51027566951E+03  0.54253672045E+03  0.12414180534E+04  0.14477037495E+04  0.10566000000E+00 0.  1.
          4    1    3    3  502    0 -0.55586800183E+02 -0.28350625822E+03  0.92996571723E+02  0.30350297059E+03  0.00000000000E+00 0.  1.
         13    1    4    4    0    0 -0.64555463467E+03  0.14787191619E+03  0.52568117880E+03  0.84554574262E+03  0.10566000000E+00 0. -1.
         -4    1    4    4    0  501  0.19086576535E+03 -0.40690237843E+03  0.18053060294E+03  0.48434552186E+03  0.00000000000E+00 0. -1.
<mgrwt>
<rscale>  2 0.11304616E+04</rscale>
<asrwt>0</asrwt>
<pdfrwt beam="1">  1        2 0.39397879E+00 0.11304616E+04</pdfrwt>
<pdfrwt beam="2">  1       -2 0.80036277E-01 0.11304616E+04</pdfrwt>
<totfact> 0.69066448E+00</totfact>
</mgrwt>
</event>
<event>
 8    1  0.1439553E-005  0.9339175E+03  0.7818608E-02  0.8839288E-01
         -2   -1    0    0    0  501 -0.00000000000E+00  0.00000000000E+00  0.11526256800E+04  0.11526256800E+04  0.00000000000E+00 0. -1.
          2   -1    0    0  502    0  0.00000000000E+00 -0.00000000000E+00 -0.10499383919E+04  0.10499383919E+04  0.00000000000E+00 0.  1.
    9000010    2    1    2  502    0 -0.13364141782E+03 -0.38105438067E+03 -0.51706192817E+03  0.96319529610E+03  0.70521604581E+03 0.  0.
   -9000010    2    1    2    0  501  0.13364141782E+03  0.38105438067E+03  0.61974921634E+03  0.12393687758E+04  0.99442616702E+03 0.  0.
        -13    1    3    3    0    0  0.25931064306E+03 -0.13003077985E+03 -0.37826003491E+03  0.47668719145E+03  0.10566000000E+00 0.  1.
          4    1    3    3  502    0 -0.39295206088E+03 -0.25102360082E+03 -0.13880189326E+03  0.48650810465E+03  0.00000000000E+00 0.  1.
         13    1    4    4    0    0 -0.34249906265E+02  0.67162371551E+03  0.60318605170E+03  0.90337417245E+03  0.10566000000E+00 0. -1.
         -4    1    4    4    0  501  0.16789132408E+03 -0.29056933484E+03  0.16563164638E+02  0.33599460334E+03  0.00000000000E+00 0. -1.
<mgrwt>
<rscale>  2 0.93391745E+03</rscale>
<asrwt>0</asrwt>
<pdfrwt beam="2">  1        2 0.16152898E+00 0.93391745E+03</pdfrwt>
<pdfrwt beam="1">  1       -2 0.17732703E+00 0.93391745E+03</pdfrwt>
<totfact> 0.56772137E+00</totfact>
</mgrwt>
</event>
<event>
 8    1  0.1439553E-005  0.1249169E+04  0.7818608E-02  0.8570429E-01
          1   -1    0    0  502    0  0.00000000000E+00  0.00000000000E+00  0.12463314245E+04  0.12463314245E+04  0.00000000000E+00 0. -1.
         -1   -1    0    0    0  501 -0.00000000000E+00 -0.00000000000E+00 -0.12521206384E+04  0.12521206384E+04  0.00000000000E+00 0.  1.
    9000010    2    1    2  502    0  0.16970780524E+03  0.71486027090E+03  0.60483714908E+01  0.12565842699E+04  0.10193829008E+04 0.  0.
   -9000010    2    1    2    0  501 -0.16970780524E+03 -0.71486027090E+03 -0.11837585336E+02  0.12418677930E+04  0.10011341273E+04 0.  0.
        -13    1    3    3    0    0  0.24463353110E+03  0.49543096315E+03 -0.47108269057E+03  0.72609663015E+03  0.10566000000E+00 0.  1.
          4    1    3    3  502    0 -0.74925725862E+02  0.21942930775E+03  0.47713106206E+03  0.53048763970E+03  0.00000000000E+00 0.  1.
         13    1    4    4    0    0 -0.22629073368E+03 -0.47134495845E+03  0.46741920793E+03  0.70132324438E+03  0.10566000000E+00 0. -1.
         -4    1    4    4    0  501  0.56582928439E+02 -0.24351531245E+03 -0.47925679326E+03  0.54054454865E+03  0.00000000000E+00 0. -1.
<mgrwt>
<rscale>  2 0.12491687E+04</rscale>
<asrwt>0</asrwt>
<pdfrwt beam="1">  1        1 0.19174330E+00 0.12491687E+04</pdfrwt>
<pdfrwt beam="2">  1       -1 0.19263394E+00 0.12491687E+04</pdfrwt>
<totfact> 0.21076085E+00</totfact>
</mgrwt>
</event>
<event>
 8    1  0.1439553E-005  0.1234652E+04  0.7818608E-02  0.8580916E-01
         -2   -1    0    0    0  501 -0.00000000000E+00  0.00000000000E+00  0.34983228620E+04  0.34983228620E+04  0.00000000000E+00 0. -1.
          2   -1    0    0  502    0  0.00000000000E+00 -0.00000000000E+00 -0.46236012193E+03  0.46236012193E+03  0.00000000000E+00 0.  1.
    9000010    2    1    2  502    0 -0.36208315283E+03 -0.60742750761E+03  0.10503129247E+04  0.16258347257E+04  0.10198573081E+04 0.  0.
   -9000010    2    1    2    0  501  0.36208315283E+03  0.60742750761E+03  0.19856498154E+04  0.23348482582E+04  0.10043101180E+04 0.  0.
        -13    1    3    3    0    0 -0.39700890044E+03  0.10036033470E+03  0.75340433196E+03  0.85750006553E+03  0.10566000000E+00 0.  1.
          4    1    3    3  502    0  0.34925747609E+02 -0.70778784231E+03  0.29690859272E+03  0.76833466016E+03  0.00000000000E+00 0.  1.
         13    1    4    4    0    0 -0.21175590025E+03  0.56501784321E+03  0.13425187869E+04  0.14718839726E+04  0.10566000000E+00 0. -1.
         -4    1    4    4    0  501  0.57383905308E+03  0.42409664400E+02  0.64313102847E+03  0.86296428562E+03  0.00000000000E+00 0. -1.
<mgrwt>
<rscale>  2 0.12346518E+04</rscale>
<asrwt>0</asrwt>
<pdfrwt beam="2">  1        2 0.71132329E-01 0.12346518E+04</pdfrwt>
<pdfrwt beam="1">  1       -2 0.53820350E+00 0.12346518E+04</pdfrwt>
<totfact> 0.31361688E-01</totfact>
</mgrwt>
</event>
<event>
 8    1  0.1439553E-005  0.1111682E+04  0.7818608E-02  0.8676211E-01
         -2   -1    0    0    0  501 -0.00000000000E+00  0.00000000000E+00  0.10673134175E+04  0.10673134175E+04  0.00000000000E+00 0. -1.
          2   -1    0    0  502    0  0.00000000000E+00 -0.00000000000E+00 -0.12259231684E+04  0.12259231684E+04  0.00000000000E+00 0.  1.
    9000010    2    1    2  502    0  0.44757824808E+03  0.17227097430E+03  0.19072261099E+03  0.11290263473E+04  0.10041522802E+04 0.  0.
   -9000010    2    1    2    0  501 -0.44757824808E+03 -0.17227097430E+03 -0.34933236190E+03  0.11642102387E+04  0.10016730025E+04 0.  0.
        -13    1    3    3    0    0  0.38043890515E+03  0.53193320662E+02 -0.38108825093E+03  0.54110216787E+03  0.10566000000E+00 0.  1.
          4    1    3    3  502    0  0.67139342927E+02  0.11907765364E+03  0.57181086192E+03  0.58792417944E+03  0.00000000000E+00 0.  1.
         13    1    4    4    0    0 -0.75154339482E+03 -0.12406454194E+03 -0.38658495617E+03  0.85419987378E+03  0.10566000000E+00 0. -1.
         -4    1    4    4    0  501  0.30396514674E+03 -0.48206432356E+02  0.37252594278E+02  0.31001036488E+03  0.00000000000E+00 0. -1.
<mgrwt>
<rscale>  2 0.11116818E+04</rscale>
<asrwt>0</asrwt>
<pdfrwt beam="2">  1        2 0.18860356E+00 0.11116818E+04</pdfrwt>
<pdfrwt beam="1">  1       -2 0.16420206E+00 0.11116818E+04</pdfrwt>
<totfact> 0.56707464E+00</totfact>
</mgrwt>
</event>
<event>
 8    1  0.1439553E-005  0.1435645E+04  0.7818608E-02  0.8447526E-01
          2   -1    0    0  502    0  0.00000000000E+00  0.00000000000E+00  0.15324508490E+04  0.15324508490E+04  0.00000000000E+00 0.  1.
         -2   -1    0    0    0  501 -0.00000000000E+00 -0.00000000000E+00 -0.13533488728E+04  0.13533488728E+04  0.00000000000E+00 0. -1.
    9000010    2    1    2  502    0  0.52503502585E+03 -0.85758970359E+03 -0.19467251317E+02  0.14618903442E+04  0.10609535929E+04 0.  0.
   -9000010    2    1    2    0  501 -0.52503502585E+03  0.85758970359E+03  0.19856922746E+03  0.14239093776E+04  0.98841605587E+03 0.  0.
        -13    1    3    3    0    0  0.70533236675E+03 -0.13764516270E+03 -0.35863171690E+02  0.71953187327E+03  0.10566000000E+00 0.  1.
          4    1    3    3  502    0 -0.18029734090E+03 -0.71994454089E+03  0.16395920373E+02  0.74235847089E+03  0.00000000000E+00 0.  1.
         13    1    4    4    0    0 -0.67423382264E+03  0.99846160076E+03  0.16766560079E+03  0.12163998441E+04  0.10566000000E+00 0. -1.
         -4    1    4    4    0  501  0.14919879679E+03 -0.14087189717E+03  0.30903626664E+02  0.20750953356E+03  0.00000000000E+00 0. -1.
<mgrwt>
<rscale>  2 0.14356450E+04</rscale>
<asrwt>0</asrwt>
<pdfrwt beam="1">  1        2 0.23576167E+00 0.14356450E+04</pdfrwt>
<pdfrwt beam="2">  1       -2 0.20820752E+00 0.14356450E+04</pdfrwt>
<totfact> 0.15930842E+00</totfact>
</mgrwt>
</event>
<event>
 8    1  0.1439553E-005  0.1227545E+04  0.7818608E-02  0.8586104E-01
          1   -1    0    0  502    0  0.00000000000E+00  0.00000000000E+00  0.54454170616E+03  0.54454170616E+03  0.00000000000E+00 0. -1.
         -1   -1    0    0    0  501 -0.00000000000E+00 -0.00000000000E+00 -0.28256744495E+04  0.28256744495E+04  0.00000000000E+00 0.  1.
    9000010    2    1    2  502    0  0.56253885154E+03  0.44098514750E+03 -0.13808202981E+04  0.18460446844E+04  0.99513738812E+03 0.  0.
   -9000010    2    1    2    0  501 -0.56253885154E+03 -0.44098514750E+03 -0.90031244522E+03  0.15241714713E+04  0.10008088304E+04 0.  0.
        -13    1    3    3    0    0  0.78526035356E+03  0.43719400688E+03 -0.72909734037E+03  0.11573052171E+04  0.10566000000E+00 0.  1.
          4    1    3    3  502    0 -0.22272150202E+03  0.37911406203E+01 -0.65172295772E+03  0.68873946731E+03  0.00000000000E+00 0.  1.
         13    1    4    4    0    0 -0.21266691980E+03 -0.70310732827E+03 -0.32923964869E+03  0.80497570850E+03  0.10566000000E+00 0. -1.
         -4    1    4    4    0  501 -0.34987193174E+03  0.26212218077E+03 -0.57107279653E+03  0.71919576279E+03  0.00000000000E+00 0. -1.
<mgrwt>
<rscale>  2 0.12275445E+04</rscale>
<asrwt>0</asrwt>
<pdfrwt beam="1">  1        1 0.83775648E-01 0.12275445E+04</pdfrwt>
<pdfrwt beam="2">  1       -1 0.43471914E+00 0.12275445E+04</pdfrwt>
<totfact> 0.62139063E-01</totfact>
</mgrwt>
</event>
<event>
 8    1  0.1439553E-005  0.1224318E+04  0.7818608E-02  0.8588472E-01
          2   -1    0    0  502    0  0.00000000000E+00  0.00000000000E+00  0.17074454048E+04  0.17074454048E+04  0.00000000000E+00 0.  1.
         -2   -1    0    0    0  501 -0.00000000000E+00 -0.00000000000E+00 -0.11422559380E+04  0.11422559380E+04  0.00000000000E+00 0. -1.
    9000010    2    1    2  502    0 -0.68664406998E+03  0.23834202938E+03 -0.40150099500E+03  0.12955684928E+04  0.99448864681E+03 0.  0.
   -9000010    2    1    2    0  501  0.68664406998E+03 -0.23834202938E+03  0.96669046178E+03  0.15541328500E+04  0.97598743058E+03 0.  0.
        -13    1    3    3    0    0 -0.53842004970E+03  0.27629275706E+03 -0.72100419655E+03  0.94131870274E+03  0.10566000000E+00 0.  1.
          4    1    3    3  502    0 -0.14822402028E+03 -0.37950727687E+02  0.31950320156E+03  0.35424979001E+03  0.00000000000E+00 0.  1.
         13    1    4    4    0    0  0.82962797445E+03  0.11198712020E+03  0.69938340000E+03  0.10908532635E+04  0.10566000000E+00 0. -1.
         -4    1    4    4    0  501 -0.14298390447E+03 -0.35032914958E+03  0.26730706178E+03  0.46327958649E+03  0.00000000000E+00 0. -1.
<mgrwt>
<rscale>  2 0.12243185E+04</rscale>
<asrwt>0</asrwt>
<pdfrwt beam="1">  1        2 0.26268391E+00 0.12243185E+04</pdfrwt>
<pdfrwt beam="2">  1       -2 0.17573168E+00 0.12243185E+04</pdfrwt>
<totfact> 0.24316763E+00</totfact>
</mgrwt>
</event>
<event>
 8    1  0.1439553E-005  0.1338529E+04  0.7818608E-02  0.8508962E-01
          4   -1    0    0  502    0  0.00000000000E+00  0.00000000000E+00  0.14969378149E+04  0.14969378149E+04  0.00000000000E+00 0. -1.
         -4   -1    0    0    0  501 -0.00000000000E+00 -0.00000000000E+00 -0.14147094702E+04  0.14147094702E+04  0.00000000000E+00 0.  1.
    9000010    2    1    2  502    0  0.51255524657E+03 -0.72294310095E+03 -0.53005320102E+03  0.14424554728E+04  0.10071552944E+04 0.  0.
   -9000010    2    1    2    0  501 -0.51255524657E+03  0.72294310095E+03  0.61228154568E+03  0.14691918123E+04  0.99913776932E+03 0.  0.
        -13    1    3    3    0    0  0.81855220150E+02  0.21395732036E+03 -0.31437274671E+03  0.38898360768E+03  0.10566000000E+00 0.  1.
          4    1    3    3  502    0  0.43070002642E+03 -0.93690042130E+03 -0.21568045431E+03  0.10534718651E+04  0.00000000000E+00 0.  1.
         13    1    4    4    0    0  0.82123728720E+02  0.56324461215E+03 -0.41979863936E+02  0.57074610825E+03  0.10566000000E+00 0. -1.
         -4    1    4    4    0  501 -0.59467897529E+03  0.15969848879E+03  0.65426140961E+03  0.89844570403E+03  0.00000000000E+00 0. -1.
<mgrwt>
<rscale>  2 0.13385293E+04</rscale>
<asrwt>0</asrwt>
<pdfrwt beam="1">  1        4 0.23029813E+00 0.13385293E+04</pdfrwt>
<pdfrwt beam="2">  1       -4 0.21764761E+00 0.13385293E+04</pdfrwt>
<totfact> 0.13446732E-01</totfact>
</mgrwt>
</event>
<event>
 8    1  0.1439553E-005  0.1164707E+04  0.7818608E-02  0.8633623E-01
          1   -1    0    0  502    0  0.00000000000E+00  0.00000000000E+00  0.11195967489E+04  0.11195967489E+04  0.00000000000E+00 0.  1.
         -1   -1    0    0    0  501 -0.00000000000E+00 -0.00000000000E+00 -0.12342522070E+04  0.12342522070E+04  0.00000000000E+00 0. -1.
    9000010    2    1    2  502    0  0.65703337709E+02  0.57450948698E+03 -0.21633564168E+03  0.11798780959E+04  0.10054517055E+04 0.  0.
   -9000010    2    1    2    0  501 -0.65703337709E+02 -0.57450948698E+03  0.10168018366E+03  0.11739708600E+04  0.10166074174E+04 0.  0.
        -13    1    3    3    0    0  0.92465792047E+02  0.18586366093E+03 -0.59891126146E+03  0.63386901914E+03  0.10566000000E+00 0.  1.
          4    1    3    3  502    0 -0.26762454339E+02  0.38864582605E+03  0.38257561978E+03  0.54600907677E+03  0.00000000000E+00 0.  1.
         13    1    4    4    0    0  0.27086085646E+02 -0.60617020545E+03  0.48595541048E+03  0.77738577691E+03  0.10566000000E+00 0. -1.
         -4    1    4    4    0  501 -0.92789423355E+02  0.31660718468E+02 -0.38427522683E+03  0.39658508309E+03  0.00000000000E+00 0. -1.
<mgrwt>
<rscale>  2 0.11647073E+04</rscale>
<asrwt>0</asrwt>
<pdfrwt beam="1">  1        1 0.17224565E+00 0.11647073E+04</pdfrwt>
<pdfrwt beam="2">  1       -1 0.18988496E+00 0.11647073E+04</pdfrwt>
<totfact> 0.28216566E+00</totfact>
</mgrwt>
</event>
<event>
 8    1  0.1439553E-005  0.1122729E+04  0.7818608E-02  0.8667138E-01
         -2   -1    0    0    0  501 -0.00000000000E+00  0.00000000000E+00  0.10682179438E+04  0.10682179438E+04  0.00000000000E+00 0. -1.
          2   -1    0    0  502    0  0.00000000000E+00 -0.00000000000E+00 -0.11807263919E+04  0.11807263919E+04  0.00000000000E+00 0.  1.
    9000010    2    1    2  502    0  0.18378873077E+03 -0.48213701473E+03 -0.83687021088E+02  0.11251991995E+04  0.99641122164E+03 0.  0.
   -9000010    2    1    2    0  501 -0.18378873077E+03  0.48213701473E+03 -0.28821427028E+02  0.11237451361E+04  0.99786675353E+03 0.  0.
        -13    1    3    3    0    0 -0.35772611081E+03 -0.21983465116E+03  0.19398512140E+03  0.46252079164E+03  0.10566000000E+00 0.  1.
          4    1    3    3  502    0  0.54151484158E+03 -0.26230236357E+03 -0.27767214249E+03  0.66267840790E+03  0.00000000000E+00 0.  1.
         13    1    4    4    0    0  0.15991259509E+03 -0.12889304825E+03  0.28855572217E+03  0.35418903415E+03  0.10566000000E+00 0. -1.
         -4    1    4    4    0  501 -0.34370132587E+03  0.61103006298E+03 -0.31737714919E+03  0.76955610198E+03  0.00000000000E+00 0. -1.
<mgrwt>
<rscale>  2 0.11227289E+04</rscale>
<asrwt>0</asrwt>
<pdfrwt beam="2">  1        2 0.18165021E+00 0.11227289E+04</pdfrwt>
<pdfrwt beam="1">  1       -2 0.16434122E+00 0.11227289E+04</pdfrwt>
<totfact> 0.59937031E+00</totfact>
</mgrwt>
</event>
<event>
 8    1  0.1439553E-005  0.1708182E+04  0.7818608E-02  0.8298826E-01
          1   -1    0    0  502    0  0.00000000000E+00  0.00000000000E+00  0.64336303333E+03  0.64336303333E+03  0.00000000000E+00 0.  1.
         -1   -1    0    0    0  501 -0.00000000000E+00 -0.00000000000E+00 -0.45481151829E+04  0.45481151829E+04  0.00000000000E+00 0. -1.
    9000010    2    1    2  502    0  0.13806165449E+04  0.36212984489E+02 -0.18136498652E+04  0.24906483976E+04  0.10032896802E+04 0.  0.
   -9000010    2    1    2    0  501 -0.13806165449E+04 -0.36212984489E+02 -0.20911022844E+04  0.27008298187E+04  0.10071541695E+04 0.  0.
        -13    1    3    3    0    0  0.13204240094E+04  0.13510604121E+01 -0.95597222463E+03  0.16301546845E+04  0.10566000000E+00 0.  1.
          4    1    3    3  502    0  0.60192535506E+02  0.34861924077E+02 -0.85767764056E+03  0.86049371305E+03  0.00000000000E+00 0.  1.
         13    1    4    4    0    0 -0.13380465359E+04 -0.32985292528E+03 -0.19027364342E+04  0.23493780950E+04  0.10566000000E+00 0. -1.
         -4    1    4    4    0  501 -0.42570009071E+02  0.29363994079E+03 -0.18836585023E+03  0.35145172362E+03  0.00000000000E+00 0. -1.
<mgrwt>
<rscale>  2 0.17081820E+04</rscale>
<asrwt>0</asrwt>
<pdfrwt beam="1">  1        1 0.98978928E-01 0.17081820E+04</pdfrwt>
<pdfrwt beam="2">  1       -1 0.69971003E+00 0.17081820E+04</pdfrwt>
<totfact> 0.42490480E-02</totfact>
</mgrwt>
</event>
<event>
 8    1  0.1439553E-005  0.1582163E+04  0.7818608E-02  0.8363723E-01
         -1   -1    0    0    0  501 -0.00000000000E+00  0.00000000000E+00  0.32695203840E+04  0.32695203840E+04  0.00000000000E+00 0. -1.
          1   -1    0    0  502    0  0.00000000000E+00 -0.00000000000E+00 -0.77592517086E+03  0.77592517086E+03  0.00000000000E+00 0.  1.
    9000010    2    1    2  502    0 -0.33438246407E+03 -0.11849508101E+04  0.14874376262E+04  0.21791112436E+04  0.10100173590E+04 0.  0.
   -9000010    2    1    2    0  501  0.33438246407E+03  0.11849508101E+04  0.10061575869E+04  0.18663343113E+04  0.97720551432E+03 0.  0.
        -13    1    3    3    0    0 -0.83323264611E+02  0.94936800131E+02 -0.72586044415E+02  0.14568633241E+03  0.10566000000E+00 0.  1.
          4    1    3    3  502    0 -0.25105919946E+03 -0.12798876102E+04  0.15600236706E+04  0.20334249112E+04  0.00000000000E+00 0.  1.
         13    1    4    4    0    0  0.28388411388E+03  0.88145455626E+03  0.12676940927E+03  0.93467792268E+03  0.10566000000E+00 0. -1.
         -4    1    4    4    0  501  0.50498350196E+02  0.30349625381E+03  0.87938817764E+03  0.93165638860E+03  0.00000000000E+00 0. -1.
<mgrwt>
<rscale>  2 0.15821633E+04</rscale>
<asrwt>0</asrwt>
<pdfrwt beam="2">  1        1 0.11937310E+00 0.15821633E+04</pdfrwt>
<pdfrwt beam="1">  1       -1 0.50300313E+00 0.15821633E+04</pdfrwt>
<totfact> 0.28002647E-01</totfact>
</mgrwt>
</event>
<event>
 8    1  0.1439553E-005  0.1255935E+04  0.7818608E-02  0.8565591E-01
         -1   -1    0    0    0  501 -0.00000000000E+00  0.00000000000E+00  0.86882796427E+03  0.86882796427E+03  0.00000000000E+00 0.  1.
          1   -1    0    0  502    0  0.00000000000E+00 -0.00000000000E+00 -0.19272728312E+04  0.19272728312E+04  0.00000000000E+00 0. -1.
    9000010    2    1    2  502    0 -0.73627118692E+03  0.23255216064E+03 -0.87012614548E+03  0.15372462857E+04  0.10049034112E+04 0.  0.
   -9000010    2    1    2    0  501  0.73627118692E+03 -0.23255216064E+03 -0.18831872142E+03  0.12588545097E+04  0.97625558521E+03 0.  0.
        -13    1    3    3    0    0 -0.85734307753E+03  0.33768245885E+03 -0.33799584050E+03  0.98148244761E+03  0.10566000000E+00 0.  1.
          4    1    3    3  502    0  0.12107189061E+03 -0.10513029821E+03 -0.53213030499E+03  0.55576383814E+03  0.00000000000E+00 0.  1.
         13    1    4    4    0    0  0.53059370666E+03 -0.33772684805E+03  0.31619633538E+03  0.70396678836E+03  0.10566000000E+00 0. -1.
         -4    1    4    4    0  501  0.20567748026E+03  0.10517468741E+03 -0.50451505680E+03  0.55488772135E+03  0.00000000000E+00 0. -1.
<mgrwt>
<rscale>  2 0.12559353E+04</rscale>
<asrwt>0</asrwt>
<pdfrwt beam="2">  1        1 0.29650351E+00 0.12559353E+04</pdfrwt>
<pdfrwt beam="1">  1       -1 0.13366584E+00 0.12559353E+04</pdfrwt>
<totfact> 0.21222856E+00</totfact>
</mgrwt>
</event>
<event>
 8    1  0.1439553E-005  0.1229386E+04  0.7818608E-02  0.8584756E-01
         -4   -1    0    0    0  501 -0.00000000000E+00  0.00000000000E+00  0.19314938393E+04  0.19314938393E+04  0.00000000000E+00 0. -1.
          4   -1    0    0  502    0  0.00000000000E+00 -0.00000000000E+00 -0.78264080879E+03  0.78264080879E+03  0.00000000000E+00 0.  1.
    9000010    2    1    2  502    0 -0.30772248335E+03  0.67580830207E+03  0.57160282441E+03  0.13413503385E+04  0.95972962533E+03 0.  0.
   -9000010    2    1    2    0  501  0.30772248335E+03 -0.67580830207E+03  0.57725020605E+03  0.13727843096E+04  0.99995448512E+03 0.  0.
        -13    1    3    3    0    0 -0.37110989085E+03  0.89561636405E+03  0.54198707899E+03  0.11106760228E+04  0.10566000000E+00 0.  1.
          4    1    3    3  502    0  0.63387407499E+02 -0.21980806198E+03  0.29615745419E+02  0.23067431568E+03  0.00000000000E+00 0.  1.
         13    1    4    4    0    0  0.64836386941E+03 -0.27347792240E+03  0.22506518996E+03  0.73879647541E+03  0.10566000000E+00 0. -1.
         -4    1    4    4    0  501 -0.34064138605E+03 -0.40233037967E+03  0.35218501610E+03  0.63398783416E+03  0.00000000000E+00 0. -1.
<mgrwt>
<rscale>  2 0.12293865E+04</rscale>
<asrwt>0</asrwt>
<pdfrwt beam="2">  1        4 0.12040628E+00 0.12293865E+04</pdfrwt>
<pdfrwt beam="1">  1       -4 0.29715290E+00 0.12293865E+04</pdfrwt>
<totfact> 0.21722876E-01</totfact>
</mgrwt>
</event>
<event>
 8    1  0.1439553E-005  0.1567475E+04  0.7818608E-02  0.8371692E-01
          2   -1    0    0  502    0  0.00000000000E+00  0.00000000000E+00  0.28047385306E+04  0.28047385306E+04  0.00000000000E+00 0.  1.
         -2   -1    0    0    0  501 -0.00000000000E+00 -0.00000000000E+00 -0.94347087007E+03  0.94347087007E+03  0.00000000000E+00 0. -1.
    9000010    2    1    2  502    0 -0.10515702220E+04  0.30937075655E+03  0.39464394424E+03  0.15413630958E+04  0.10092304759E+04 0.  0.
   -9000010    2    1    2    0  501  0.10515702220E+04 -0.30937075655E+03  0.14666237163E+04  0.22068463049E+04  0.12319396460E+04 0.  0.
        -13    1    3    3    0    0 -0.56508303755E+03 -0.12986614915E+03  0.61942495374E+03  0.84845232070E+03  0.10566000000E+00 0.  1.
          4    1    3    3  502    0 -0.48648718444E+03  0.43923690570E+03 -0.22478100951E+03  0.69291077505E+03  0.00000000000E+00 0.  1.
         13    1    4    4    0    0  0.58539675336E+03 -0.40845080746E+03  0.53831763261E+02  0.71583468124E+03  0.10566000000E+00 0. -1.
         -4    1    4    4    0  501  0.46617346863E+03  0.99080050911E+02  0.14127919530E+04  0.14910116236E+04  0.00000000000E+00 0. -1.
<mgrwt>
<rscale>  2 0.15674753E+04</rscale>
<asrwt>0</asrwt>
<pdfrwt beam="1">  1        2 0.43149823E+00 0.15674753E+04</pdfrwt>
<pdfrwt beam="2">  1       -2 0.14514937E+00 0.15674753E+04</pdfrwt>
<totfact> 0.10517052E+00</totfact>
</mgrwt>
</event>
<event>
 8    1  0.1439553E-005  0.1052635E+04  0.7818608E-02  0.8726649E-01
         -1   -1    0    0    0  501 -0.00000000000E+00  0.00000000000E+00  0.16936110383E+04  0.16936110383E+04  0.00000000000E+00 0. -1.
          1   -1    0    0  502    0  0.00000000000E+00 -0.00000000000E+00 -0.75298676795E+03  0.75298676795E+03  0.00000000000E+00 0.  1.
    9000010    2    1    2  502    0  0.45859753896E+03 -0.11640889034E+03  0.51051792120E+02  0.11060320001E+04  0.99841763166E+03 0.  0.
   -9000010    2    1    2    0  501 -0.45859753896E+03  0.11640889034E+03  0.88957247819E+03  0.13405658061E+04  0.88425943827E+03 0.  0.
        -13    1    3    3    0    0  0.42441138965E+03  0.39503783352E+03  0.10971055139E+03  0.59009857976E+03  0.10566000000E+00 0.  1.
          4    1    3    3  502    0  0.34186149305E+02 -0.51144672386E+03 -0.58658759269E+02  0.51593342031E+03  0.00000000000E+00 0.  1.
         13    1    4    4    0    0  0.19821057659E+03 -0.18114673834E+03  0.14964258949E+03  0.30739955959E+03  0.10566000000E+00 0. -1.
         -4    1    4    4    0  501 -0.65680811555E+03  0.29755562869E+03  0.73992988870E+03  0.10331662465E+04  0.00000000000E+00 0. -1.
<mgrwt>
<rscale>  2 0.10526349E+04</rscale>
<asrwt>0</asrwt>
<pdfrwt beam="2">  1        1 0.11584412E+00 0.10526349E+04</pdfrwt>
<pdfrwt beam="1">  1       -1 0.26055554E+00 0.10526349E+04</pdfrwt>
<totfact> 0.12731192E+00</totfact>
</mgrwt>
</event>
<event>
 8    1  0.1439553E-005  0.1117447E+04  0.7818608E-02  0.8671462E-01
          4   -1    0    0  502    0  0.00000000000E+00  0.00000000000E+00  0.50538698779E+03  0.50538698779E+03  0.00000000000E+00 0.  1.
         -4   -1    0    0    0  501 -0.00000000000E+00 -0.00000000000E+00 -0.24738321339E+04  0.24738321339E+04  0.00000000000E+00 0. -1.
    9000010    2    1    2  502    0  0.49649240137E+03  0.68511233458E+01 -0.10383426173E+04  0.15267785078E+04  0.10031677718E+04 0.  0.
   -9000010    2    1    2    0  501 -0.49649240137E+03 -0.68511233458E+01 -0.93010252881E+03  0.14524406139E+04  0.99897015991E+03 0.  0.
        -13    1    3    3    0    0 -0.18812110020E+03  0.22771675358E+03 -0.63910317796E+03  0.70405777564E+03  0.10566000000E+00 0.  1.
          4    1    3    3  502    0  0.68461350157E+03 -0.22086563023E+03 -0.39923943937E+03  0.82272073214E+03  0.00000000000E+00 0.  1.
         13    1    4    4    0    0 -0.59546212066E+03 -0.36137756900E+03 -0.38838329490E+03  0.79750265168E+03  0.10566000000E+00 0. -1.
         -4    1    4    4    0  501  0.98969719298E+02  0.35452644565E+03 -0.54171923392E+03  0.65493796225E+03  0.00000000000E+00 0. -1.
<mgrwt>
<rscale>  2 0.11174471E+04</rscale>
<asrwt>0</asrwt>
<pdfrwt beam="1">  1        4 0.77751845E-01 0.11174471E+04</pdfrwt>
<pdfrwt beam="2">  1       -4 0.38058956E+00 0.11174471E+04</pdfrwt>
<totfact> 0.27538045E-01</totfact>
</mgrwt>
</event>
<event>
 8    1  0.1439553E-005  0.1359749E+04  0.7818608E-02  0.8495091E-01
          2   -1    0    0  502    0  0.00000000000E+00  0.00000000000E+00  0.29626116713E+04  0.29626116713E+04  0.00000000000E+00 0. -1.
         -2   -1    0    0    0  501 -0.00000000000E+00 -0.00000000000E+00 -0.65773214205E+03  0.65773214205E+03  0.00000000000E+00 0.  1.
    9000010    2    1    2  502    0  0.77537895340E+03  0.49215796657E+03  0.15650700971E+04  0.20758920810E+04  0.10081922127E+04 0.  0.
   -9000010    2    1    2    0  501 -0.77537895340E+03 -0.49215796657E+03  0.73980943217E+03  0.15444517323E+04  0.99728690565E+03 0.  0.
        -13    1    3    3    0    0  0.22839786971E+03  0.61629757394E+03  0.36640807198E+03  0.75249131085E+03  0.10566000000E+00 0.  1.
          4    1    3    3  502    0  0.54698108369E+03 -0.12413960736E+03  0.11986620251E+04  0.13234007702E+04  0.00000000000E+00 0.  1.
         13    1    4    4    0    0 -0.33657019481E+03 -0.26049431380E+03 -0.20867829462E+03  0.47400783260E+03  0.10566000000E+00 0. -1.
         -4    1    4    4    0  501 -0.43880875858E+03 -0.23166365277E+03  0.94848772679E+03  0.10704438997E+04  0.00000000000E+00 0. -1.
<mgrwt>
<rscale>  2 0.13597485E+04</rscale>
<asrwt>0</asrwt>
<pdfrwt beam="1">  1        2 0.45578640E+00 0.13597485E+04</pdfrwt>
<pdfrwt beam="2">  1       -2 0.10118956E+00 0.13597485E+04</pdfrwt>
<totfact> 0.22668240E+00</totfact>
</mgrwt>
</event>
<event>
 8    1  0.1439553E-005  0.1436246E+04  0.7818608E-02  0.8447162E-01
          1   -1    0    0  502    0  0.00000000000E+00  0.00000000000E+00  0.28737126460E+04  0.28737126460E+04  0.00000000000E+00 0. -1.
         -1   -1    0    0    0  501 -0.00000000000E+00 -0.00000000000E+00 -0.72784918119E+03  0.72784918119E+03  0.00000000000E+00 0.  1.
    9000010    2    1    2  502    0  0.36700359759E+03  0.98997881115E+03  0.13024419090E+04  0.19604835763E+04  0.10160665527E+04 0.  0.
   -9000010    2    1    2    0  501 -0.36700359759E+03 -0.98997881115E+03  0.84342155586E+03  0.16410782509E+04  0.93114350000E+03 0.  0.
        -13    1    3    3    0    0 -0.34696633137E+03  0.44204805294E+03  0.43669219473E+03  0.71168265422E+03  0.10566000000E+00 0.  1.
          4    1    3    3  502    0  0.71396992896E+03  0.54793075821E+03  0.86574971424E+03  0.12488009221E+04  0.00000000000E+00 0.  1.
         13    1    4    4    0    0 -0.18963984866E+02 -0.33176582429E+03 -0.17808410363E+03  0.37701744524E+03  0.10566000000E+00 0. -1.
         -4    1    4    4    0  501 -0.34803961273E+03 -0.65821298686E+03  0.10215056595E+04  0.12640608057E+04  0.00000000000E+00 0. -1.
<mgrwt>
<rscale>  2 0.14362462E+04</rscale>
<asrwt>0</asrwt>
<pdfrwt beam="1">  1        1 0.44210963E+00 0.14362462E+04</pdfrwt>
<pdfrwt beam="2">  1       -1 0.11197680E+00 0.14362462E+04</pdfrwt>
<totfact> 0.47942375E-01</totfact>
</mgrwt>
</event>
<event>
 8    1  0.1439553E-005  0.1199683E+04  0.7818608E-02  0.8606801E-01
          2   -1    0    0  502    0  0.00000000000E+00  0.00000000000E+00  0.22658548769E+04  0.22658548769E+04  0.00000000000E+00 0.  1.
         -2   -1    0    0    0  501 -0.00000000000E+00 -0.00000000000E+00 -0.72307930954E+03  0.72307930954E+03  0.00000000000E+00 0. -1.
    9000010    2    1    2  502    0 -0.60262578672E+03  0.40251614279E+03  0.23835496771E+03  0.12012329201E+04  0.92788488170E+03 0.  0.
   -9000010    2    1    2    0  501  0.60262578672E+03 -0.40251614279E+03  0.13044205997E+04  0.17877012664E+04  0.98447226110E+03 0.  0.
        -13    1    3    3    0    0 -0.17031777119E+03  0.33286919222E+03 -0.31965641558E+03  0.49192507306E+03  0.10566000000E+00 0.  1.
          4    1    3    3  502    0 -0.43230801552E+03  0.69646950570E+02  0.55801138329E+03  0.70930784705E+03  0.00000000000E+00 0.  1.
         13    1    4    4    0    0  0.43707019415E+03 -0.21267970847E+03  0.28227462338E+02  0.48688788628E+03  0.10566000000E+00 0. -1.
         -4    1    4    4    0  501  0.16555559256E+03 -0.18983643433E+03  0.12761931373E+04  0.13008133801E+04  0.00000000000E+00 0. -1.
<mgrwt>
<rscale>  2 0.11996826E+04</rscale>
<asrwt>0</asrwt>
<pdfrwt beam="1">  1        2 0.34859305E+00 0.11996826E+04</pdfrwt>
<pdfrwt beam="2">  1       -2 0.11124297E+00 0.11996826E+04</pdfrwt>
<totfact> 0.46032027E+00</totfact>
</mgrwt>
</event>
<event>
 8    1  0.1439553E-005  0.1322854E+04  0.7818608E-02  0.8519380E-01
         -2   -1    0    0    0  501 -0.00000000000E+00  0.00000000000E+00  0.10915203833E+04  0.10915203833E+04  0.00000000000E+00 0.  1.
          2   -1    0    0  502    0  0.00000000000E+00 -0.00000000000E+00 -0.16394718588E+04  0.16394718588E+04  0.00000000000E+00 0. -1.
    9000010    2    1    2  502    0 -0.26666238333E+03 -0.82672748653E+03 -0.69735972778E+02  0.13183690931E+04  0.98926578634E+03 0.  0.
   -9000010    2    1    2    0  501  0.26666238333E+03  0.82672748653E+03 -0.47821550269E+03  0.14126231490E+04  0.10060948913E+04 0.  0.
        -13    1    3    3    0    0  0.37741434064E+03 -0.31480556827E+03 -0.63913855135E+02  0.49560984895E+03  0.10566000000E+00 0.  1.
          4    1    3    3  502    0 -0.64407672397E+03 -0.51192191826E+03 -0.58221176438E+01  0.82275924413E+03  0.00000000000E+00 0.  1.
         13    1    4    4    0    0  0.19279766053E+03 -0.21271790657E+03 -0.10884740819E+03  0.30703031628E+03  0.10566000000E+00 0. -1.
         -4    1    4    4    0  501  0.73864722802E+02  0.10394453931E+04 -0.36936809450E+03  0.11055928327E+04  0.00000000000E+00 0. -1.
<mgrwt>
<rscale>  2 0.13228543E+04</rscale>
<asrwt>0</asrwt>
<pdfrwt beam="2">  1        2 0.25222644E+00 0.13228543E+04</pdfrwt>
<pdfrwt beam="1">  1       -2 0.16792621E+00 0.13228543E+04</pdfrwt>
<totfact> 0.30477037E+00</totfact>
</mgrwt>
</event>
<event>
 8    1  0.1439553E-005  0.1373849E+04  0.7818608E-02  0.8486017E-01
          2   -1    0    0  502    0  0.00000000000E+00  0.00000000000E+00  0.24134736120E+04  0.24134736120E+04  0.00000000000E+00 0. -1.
         -2   -1    0    0    0  501 -0.00000000000E+00 -0.00000000000E+00 -0.11152978155E+04  0.11152978155E+04  0.00000000000E+00 0.  1.
    9000010    2    1    2  502    0  0.43362626480E+03  0.82646266123E+03  0.16143478881E+04  0.21213989552E+04  0.10115048962E+04 0.  0.
   -9000010    2    1    2    0  501 -0.43362626480E+03 -0.82646266123E+03 -0.31617209161E+03  0.14073724723E+04  0.10048184992E+04 0.  0.
        -13    1    3    3    0    0  0.73195614367E+03  0.45385910478E+03  0.12630550084E+04  0.15287432252E+04  0.10566000000E+00 0.  1.
          4    1    3    3  502    0 -0.29832987886E+03  0.37260355646E+03  0.35129287977E+03  0.59265572998E+03  0.00000000000E+00 0.  1.
         13    1    4    4    0    0 -0.23033458203E+00  0.10071002531E+03  0.22726349984E+03  0.24857850224E+03  0.10566000000E+00 0. -1.
         -4    1    4    4    0  501 -0.43339593022E+03 -0.92717268654E+03 -0.54343559146E+03  0.11587939701E+04  0.00000000000E+00 0. -1.
<mgrwt>
<rscale>  2 0.13738491E+04</rscale>
<asrwt>0</asrwt>
<pdfrwt beam="1">  1        2 0.37130363E+00 0.13738491E+04</pdfrwt>
<pdfrwt beam="2">  1       -2 0.17158428E+00 0.13738491E+04</pdfrwt>
<totfact> 0.10633653E+00</totfact>
</mgrwt>
</event>
<event>
 8    1  0.1439553E-005  0.1495480E+04  0.7818608E-02  0.8412105E-01
          1   -1    0    0  502    0  0.00000000000E+00  0.00000000000E+00  0.65592393011E+03  0.65592393011E+03  0.00000000000E+00 0.  1.
         -1   -1    0    0    0  501 -0.00000000000E+00 -0.00000000000E+00 -0.34477886496E+04  0.34477886496E+04  0.00000000000E+00 0. -1.
    9000010    2    1    2  502    0  0.11141194258E+04  0.38738104973E+02 -0.16122750987E+04  0.21994296142E+04  0.99764567751E+03 0.  0.
   -9000010    2    1    2    0  501 -0.11141194258E+04 -0.38738104973E+02 -0.11795896208E+04  0.19042829656E+04  0.99604176805E+03 0.  0.
        -13    1    3    3    0    0  0.28988873907E+03 -0.55095064228E+02  0.87712240959E+02  0.30783826195E+03  0.10566000000E+00 0.  1.
          4    1    3    3  502    0  0.82423068677E+03  0.93833169200E+02 -0.16999873397E+04  0.18915913522E+04  0.00000000000E+00 0.  1.
         13    1    4    4    0    0 -0.90616173467E+03  0.26662688340E+03 -0.12083311669E+04  0.15337154900E+04  0.10566000000E+00 0. -1.
         -4    1    4    4    0  501 -0.20795769117E+03 -0.30536498838E+03  0.28741546128E+02  0.37056747552E+03  0.00000000000E+00 0. -1.
<mgrwt>
<rscale>  2 0.14954799E+04</rscale>
<asrwt>0</asrwt>
<pdfrwt beam="1">  1        1 0.10091137E+00 0.14954799E+04</pdfrwt>
<pdfrwt beam="2">  1       -1 0.53042903E+00 0.14954799E+04</pdfrwt>
<totfact> 0.29358486E-01</totfact>
</mgrwt>
</event>
<event>
 8    1  0.1439553E-005  0.1127829E+04  0.7818608E-02  0.8662985E-01
          2   -1    0    0  502    0  0.00000000000E+00  0.00000000000E+00  0.15213459425E+04  0.15213459425E+04  0.00000000000E+00 0. -1.
         -2   -1    0    0    0  501 -0.00000000000E+00 -0.00000000000E+00 -0.83972852644E+03  0.83972852644E+03  0.00000000000E+00 0.  1.
    9000010    2    1    2  502    0 -0.19156120837E+03 -0.48466241612E+03  0.26245966920E+03  0.11553778800E+04  0.99720590327E+03 0.  0.
   -9000010    2    1    2    0  501  0.19156120837E+03  0.48466241612E+03  0.41915774687E+03  0.12056965889E+04  0.10032037149E+04 0.  0.
        -13    1    3    3    0    0  0.18367304383E+02 -0.58248809918E+03  0.53958346379E+03  0.79421663865E+03  0.10566000000E+00 0.  1.
          4    1    3    3  502    0 -0.20992851275E+03  0.97825683053E+02 -0.27712379459E+03  0.36116124136E+03  0.00000000000E+00 0.  1.
         13    1    4    4    0    0 -0.31959695998E+03  0.29212092393E+03 -0.10835554125E+03  0.44633819633E+03  0.10566000000E+00 0. -1.
         -4    1    4    4    0  501  0.51115816835E+03  0.19254149220E+03  0.52751328812E+03  0.75935839261E+03  0.00000000000E+00 0. -1.
<mgrwt>
<rscale>  2 0.11278288E+04</rscale>
<asrwt>0</asrwt>
<pdfrwt beam="1">  1        2 0.23405322E+00 0.11278288E+04</pdfrwt>
<pdfrwt beam="2">  1       -2 0.12918900E+00 0.11278288E+04</pdfrwt>
<totfact> 0.79569550E+00</totfact>
</mgrwt>
</event>
<event>
 8    1  0.1439553E-005  0.1260830E+04  0.7818608E-02  0.8562111E-01
          1   -1    0    0  502    0  0.00000000000E+00  0.00000000000E+00  0.88303391626E+03  0.88303391626E+03  0.00000000000E+00 0. -1.
         -1   -1    0    0    0  501 -0.00000000000E+00 -0.00000000000E+00 -0.23537799395E+04  0.23537799395E+04  0.00000000000E+00 0.  1.
    9000010    2    1    2  502    0  0.65780186343E+03 -0.35686396746E+03 -0.15279227907E+04  0.19925891651E+04  0.10372118125E+04 0.  0.
   -9000010    2    1    2    0  501 -0.65780186343E+03  0.35686396746E+03  0.57176767447E+02  0.12442246906E+04  0.99235614331E+03 0.  0.
        -13    1    3    3    0    0  0.12150113786E+03  0.58845090094E+02 -0.12533344755E+04  0.12605842255E+04  0.10566000000E+00 0.  1.
          4    1    3    3  502    0  0.53630072556E+03 -0.41570905755E+03 -0.27458831521E+03  0.73200493961E+03  0.00000000000E+00 0.  1.
         13    1    4    4    0    0 -0.35983378993E+03 -0.78944616011E+02 -0.40147844597E+03  0.54488307233E+03  0.10566000000E+00 0. -1.
         -4    1    4    4    0  501 -0.29796807350E+03  0.43580858347E+03  0.45865521342E+03  0.69934161827E+03  0.00000000000E+00 0. -1.
<mgrwt>
<rscale>  2 0.12608303E+04</rscale>
<asrwt>0</asrwt>
<pdfrwt beam="1">  1        1 0.13585137E+00 0.12608303E+04</pdfrwt>
<pdfrwt beam="2">  1       -1 0.36211999E+00 0.12608303E+04</pdfrwt>
<totfact> 0.24775069E-01</totfact>
</mgrwt>
</event>
<event>
 8    1  0.1439553E-005  0.1282778E+04  0.7818608E-02  0.8546706E-01
          2   -1    0    0  502    0  0.00000000000E+00  0.00000000000E+00  0.24731833221E+04  0.24731833221E+04  0.00000000000E+00 0. -1.
         -2   -1    0    0    0  501 -0.00000000000E+00 -0.00000000000E+00 -0.68952267741E+03  0.68952267741E+03  0.00000000000E+00 0.  1.
    9000010    2    1    2  502    0 -0.75584413122E+03 -0.22808053424E+03  0.58752393145E+03  0.13993194299E+04  0.99478108957E+03 0.  0.
   -9000010    2    1    2    0  501  0.75584413122E+03  0.22808053424E+03  0.11961367132E+04  0.17633865696E+04  0.10273597598E+04 0.  0.
        -13    1    3    3    0    0 -0.74059397178E+03 -0.42843016565E+03  0.75243426827E+03  0.11393810500E+04  0.10566000000E+00 0.  1.
          4    1    3    3  502    0 -0.15250159438E+02  0.20034963141E+03 -0.16491033683E+03  0.25993837993E+03  0.00000000000E+00 0.  1.
         13    1    4    4    0    0  0.54931383061E+03 -0.11713545519E+03  0.12374892739E+04  0.13589871646E+04  0.10566000000E+00 0. -1.
         -4    1    4    4    0  501  0.20653030061E+03  0.34521598943E+03 -0.41352560702E+02  0.40439940493E+03  0.00000000000E+00 0. -1.
<mgrwt>
<rscale>  2 0.12827783E+04</rscale>
<asrwt>0</asrwt>
<pdfrwt beam="1">  1        2 0.38048974E+00 0.12827783E+04</pdfrwt>
<pdfrwt beam="2">  1       -2 0.10608041E+00 0.12827783E+04</pdfrwt>
<totfact> 0.39477573E+00</totfact>
</mgrwt>
</event>
<event>
 8    1  0.1439553E-005  0.1211114E+04  0.7818608E-02  0.8598240E-01
          2   -1    0    0  502    0  0.00000000000E+00  0.00000000000E+00  0.29280555863E+04  0.29280555863E+04  0.00000000000E+00 0. -1.
         -2   -1    0    0    0  501 -0.00000000000E+00 -0.00000000000E+00 -0.53407132741E+03  0.53407132741E+03  0.00000000000E+00 0.  1.
    9000010    2    1    2  502    0 -0.46436983111E+03  0.50744357613E+03  0.16262956374E+04  0.20265569764E+04  0.99446335046E+03 0.  0.
   -9000010    2    1    2    0  501  0.46436983111E+03 -0.50744357613E+03  0.76768862144E+03  0.14355699372E+04  0.99918812154E+03 0.  0.
        -13    1    3    3    0    0  0.19202814087E+03 -0.29508649256E+02  0.20994516924E+01  0.19429355658E+03  0.10566000000E+00 0.  1.
          4    1    3    3  502    0 -0.65639797198E+03  0.53695222539E+03  0.16241961857E+04  0.18322634198E+04  0.00000000000E+00 0.  1.
         13    1    4    4    0    0  0.62267330238E+03 -0.71133318770E+03  0.52546016368E+03  0.10815846431E+04  0.10566000000E+00 0. -1.
         -4    1    4    4    0  501 -0.15830347127E+03  0.20388961156E+03  0.24222845776E+03  0.35398529414E+03  0.00000000000E+00 0. -1.
<mgrwt>
<rscale>  2 0.12111143E+04</rscale>
<asrwt>0</asrwt>
<pdfrwt beam="1">  1        2 0.45047008E+00 0.12111143E+04</pdfrwt>
<pdfrwt beam="2">  1       -2 0.82164821E-01 0.12111143E+04</pdfrwt>
<totfact> 0.39291732E+00</totfact>
</mgrwt>
</event>
<event>
 8    1  0.1439553E-005  0.1929240E+04  0.7818608E-02  0.8197826E-01
          2   -1    0    0  502    0  0.00000000000E+00  0.00000000000E+00  0.31409853463E+04  0.31409853463E+04  0.00000000000E+00 0. -1.
         -2   -1    0    0    0  501 -0.00000000000E+00 -0.00000000000E+00 -0.11871877992E+04  0.11871877992E+04  0.00000000000E+00 0.  1.
    9000010    2    1    2  502    0 -0.54240865702E+03  0.15604148547E+04  0.88311227083E+03  0.21213781899E+04  0.99561863775E+03 0.  0.
   -9000010    2    1    2    0  501  0.54240865702E+03 -0.15604148547E+04  0.10706852763E+04  0.22067949556E+04  0.99723384682E+03 0.  0.
        -13    1    3    3    0    0 -0.42780551799E+02  0.87003360386E+03 -0.30999630706E+02  0.87163618312E+03  0.10566000000E+00 0.  1.
          4    1    3    3  502    0 -0.49962810522E+03  0.69038125081E+03  0.91411190153E+03  0.12497420068E+04  0.00000000000E+00 0.  1.
         13    1    4    4    0    0  0.42683830569E+03 -0.26913052938E+03  0.69150112563E+03  0.85603504540E+03  0.10566000000E+00 0. -1.
         -4    1    4    4    0  501  0.11557035133E+03 -0.12912843253E+04  0.37918415068E+03  0.13507599102E+04  0.00000000000E+00 0. -1.
<mgrwt>
<rscale>  2 0.19292401E+04</rscale>
<asrwt>0</asrwt>
<pdfrwt beam="1">  1        2 0.48322851E+00 0.19292401E+04</pdfrwt>
<pdfrwt beam="2">  1       -2 0.18264428E+00 0.19292401E+04</pdfrwt>
<totfact> 0.29766415E-01</totfact>
</mgrwt>
</event>
<event>
 8    1  0.1439553E-005  0.1325635E+04  0.7818608E-02  0.8517521E-01
          1   -1    0    0  502    0  0.00000000000E+00  0.00000000000E+00  0.26791692162E+04  0.26791692162E+04  0.00000000000E+00 0.  1.
         -1   -1    0    0    0  501 -0.00000000000E+00 -0.00000000000E+00 -0.79807989778E+03  0.79807989778E+03  0.00000000000E+00 0. -1.
    9000010    2    1    2  502    0 -0.29329616894E+03  0.80140659392E+03  0.16738381061E+04  0.21346516785E+04  0.10132761773E+04 0.  0.
   -9000010    2    1    2    0  501  0.29329616894E+03 -0.80140659392E+03  0.20725121226E+03  0.13425974355E+04  0.10155489339E+04 0.  0.
        -13    1    3    3    0    0  0.34163885519E+02  0.18410346550E+03  0.13527229949E+04  0.13656210196E+04  0.10566000000E+00 0.  1.
          4    1    3    3  502    0 -0.32746005446E+03  0.61730312842E+03  0.32111511120E+03  0.76903065886E+03  0.00000000000E+00 0.  1.
         13    1    4    4    0    0  0.23105072748E+03 -0.10467854597E+04  0.14350653173E+03  0.10815444388E+04  0.10566000000E+00 0. -1.
         -4    1    4    4    0  501  0.62245441456E+02  0.24537886579E+03  0.63744680530E+02  0.26105299664E+03  0.00000000000E+00 0. -1.
<mgrwt>
<rscale>  2 0.13256349E+04</rscale>
<asrwt>0</asrwt>
<pdfrwt beam="1">  1        1 0.41217988E+00 0.13256349E+04</pdfrwt>
<pdfrwt beam="2">  1       -1 0.12278152E+00 0.13256349E+04</pdfrwt>
<totfact> 0.60808948E-01</totfact>
</mgrwt>
</event>
<event>
 8    1  0.1439553E-005  0.1732608E+04  0.7818608E-02  0.8286915E-01
         -2   -1    0    0    0  501 -0.00000000000E+00  0.00000000000E+00  0.14800655188E+04  0.14800655188E+04  0.00000000000E+00 0. -1.
          2   -1    0    0  502    0  0.00000000000E+00 -0.00000000000E+00 -0.20871395001E+04  0.20871395001E+04  0.00000000000E+00 0.  1.
    9000010    2    1    2  502    0  0.50531938627E+02 -0.13948019073E+04 -0.33226215761E+01  0.17289862847E+04  0.10204688606E+04 0.  0.
   -9000010    2    1    2    0  501 -0.50531938627E+02  0.13948019073E+04 -0.60375135965E+03  0.18382187342E+04  0.10327180512E+04 0.  0.
        -13    1    3    3    0    0 -0.13010931830E+03 -0.14762490592E+04 -0.13954261852E+03  0.14885267458E+04  0.10566000000E+00 0.  1.
          4    1    3    3  502    0  0.18064125692E+03  0.81447151952E+02  0.13621999694E+03  0.24045953886E+03  0.00000000000E+00 0.  1.
         13    1    4    4    0    0  0.24495067620E+03  0.13531599659E+04 -0.67432187234E+03  0.15315850371E+04  0.10566000000E+00 0. -1.
         -4    1    4    4    0  501 -0.29548261483E+03  0.41641941302E+02  0.70570512690E+02  0.30663369711E+03  0.00000000000E+00 0. -1.
<mgrwt>
<rscale>  2 0.17326082E+04</rscale>
<asrwt>0</asrwt>
<pdfrwt beam="2">  1        2 0.32109838E+00 0.17326082E+04</pdfrwt>
<pdfrwt beam="1">  1       -2 0.22770239E+00 0.17326082E+04</pdfrwt>
<totfact> 0.53265507E-01</totfact>
</mgrwt>
</event>
<event>
 8    1  0.1439553E-005  0.1447656E+04  0.7818608E-02  0.8440276E-01
          2   -1    0    0  502    0  0.00000000000E+00  0.00000000000E+00  0.20325792207E+04  0.20325792207E+04  0.00000000000E+00 0.  1.
         -2   -1    0    0    0  501 -0.00000000000E+00 -0.00000000000E+00 -0.11899813547E+04  0.11899813547E+04  0.00000000000E+00 0. -1.
    9000010    2    1    2  502    0  0.10298413970E+04 -0.26048569329E+03 -0.16351083554E+03  0.14718870932E+04  0.10056290183E+04 0.  0.
   -9000010    2    1    2    0  501 -0.10298413970E+04  0.26048569329E+03  0.10061087015E+04  0.17506734822E+04  0.96134115822E+03 0.  0.
        -13    1    3    3    0    0  0.79534112713E+03 -0.60687318430E+03  0.51121254049E+02  0.10017364744E+04  0.10566000000E+00 0.  1.
          4    1    3    3  502    0  0.23450026986E+03  0.34638749100E+03 -0.21463208959E+03  0.47015061881E+03  0.00000000000E+00 0.  1.
         13    1    4    4    0    0 -0.64350203763E+03  0.37366155377E+03  0.89412466668E+02  0.74947476912E+03  0.10566000000E+00 0. -1.
         -4    1    4    4    0  501 -0.38633935936E+03 -0.11317586047E+03  0.91669623485E+03  0.10011987130E+04  0.00000000000E+00 0. -1.
<mgrwt>
<rscale>  2 0.14476556E+04</rscale>
<asrwt>0</asrwt>
<pdfrwt beam="1">  1        2 0.31270450E+00 0.14476556E+04</pdfrwt>
<pdfrwt beam="2">  1       -2 0.18307405E+00 0.14476556E+04</pdfrwt>
<totfact> 0.13699741E+00</totfact>
</mgrwt>
</event>
<event>
 8    1  0.1439553E-005  0.1093364E+04  0.7818608E-02  0.8691502E-01
         -2   -1    0    0    0  501 -0.00000000000E+00  0.00000000000E+00  0.48529146226E+03  0.48529146226E+03  0.00000000000E+00 0.  1.
          2   -1    0    0  502    0  0.00000000000E+00 -0.00000000000E+00 -0.24703341696E+04  0.24703341696E+04  0.00000000000E+00 0. -1.
    9000010    2    1    2  502    0  0.43386041608E+03 -0.11071716337E+03 -0.10646524795E+04  0.15214158534E+04  0.99031719461E+03 0.  0.
   -9000010    2    1    2    0  501 -0.43386041608E+03  0.11071716337E+03 -0.92039022789E+03  0.14342097785E+04  0.10046623146E+04 0.  0.
        -13    1    3    3    0    0  0.12474295027E+03  0.18153303437E+03  0.12828726414E+03  0.25489739017E+03  0.10566000000E+00 0.  1.
          4    1    3    3  502    0  0.30911746581E+03 -0.29225019774E+03 -0.11929397436E+04  0.12665184632E+04  0.00000000000E+00 0.  1.
         13    1    4    4    0    0 -0.54511260243E+03 -0.30461132106E+03 -0.73911571421E+03  0.96758868142E+03  0.10566000000E+00 0. -1.
         -4    1    4    4    0  501  0.11125218635E+03  0.41532848443E+03 -0.18127451367E+03  0.46662109710E+03  0.00000000000E+00 0. -1.
<mgrwt>
<rscale>  2 0.10933640E+04</rscale>
<asrwt>0</asrwt>
<pdfrwt beam="2">  1        2 0.38005140E+00 0.10933640E+04</pdfrwt>
<pdfrwt beam="1">  1       -2 0.74660226E-01 0.10933640E+04</pdfrwt>
<totfact> 0.90624368E+00</totfact>
</mgrwt>
</event>
<event>
 8    1  0.1439553E-005  0.1109521E+04  0.7818608E-02  0.8677999E-01
          2   -1    0    0  502    0  0.00000000000E+00  0.00000000000E+00  0.11833534091E+04  0.11833534091E+04  0.00000000000E+00 0.  1.
         -2   -1    0    0    0  501 -0.00000000000E+00 -0.00000000000E+00 -0.10464557972E+04  0.10464557972E+04  0.00000000000E+00 0. -1.
    9000010    2    1    2  502    0 -0.25237554883E+03 -0.41644607258E+03  0.15345355113E+03  0.11145167013E+04  0.99069608665E+03 0.  0.
   -9000010    2    1    2    0  501  0.25237554883E+03  0.41644607258E+03 -0.16555939257E+02  0.11152925050E+04  0.10032360259E+04 0.  0.
        -13    1    3    3    0    0 -0.63557368195E+02  0.21506796145E+01  0.52190308978E+03  0.52576326494E+03  0.10566000000E+00 0.  1.
          4    1    3    3  502    0 -0.18881818064E+03 -0.41859675220E+03 -0.36844953865E+03  0.58875343636E+03  0.00000000000E+00 0.  1.
         13    1    4    4    0    0 -0.21481358475E+03 -0.18353362603E+03 -0.18331629515E+03  0.33680015337E+03  0.10566000000E+00 0. -1.
         -4    1    4    4    0  501  0.46718913358E+03  0.59997969861E+03  0.16676035589E+03  0.77849235165E+03  0.00000000000E+00 0. -1.
<mgrwt>
<rscale>  2 0.11095215E+04</rscale>
<asrwt>0</asrwt>
<pdfrwt beam="1">  1        2 0.18205437E+00 0.11095215E+04</pdfrwt>
<pdfrwt beam="2">  1       -2 0.16099320E+00 0.11095215E+04</pdfrwt>
<totfact> 0.63886804E+00</totfact>
</mgrwt>
</event>
<event>
 8    1  0.1439553E-005  0.1115843E+04  0.7818608E-02  0.8672781E-01
         -2   -1    0    0    0  501 -0.00000000000E+00  0.00000000000E+00  0.66939065501E+03  0.66939065501E+03  0.00000000000E+00 0. -1.
          2   -1    0    0  502    0  0.00000000000E+00 -0.00000000000E+00 -0.31375468386E+04  0.31375468386E+04  0.00000000000E+00 0.  1.
    9000010    2    1    2  502    0  0.23082286961E+03 -0.42500642495E+03 -0.24496177362E+04  0.26923932522E+04  0.10071964616E+04 0.  0.
   -9000010    2    1    2    0  501 -0.23082286961E+03  0.42500642495E+03 -0.18538447330E+02  0.11145442414E+04  0.10039698868E+04 0.  0.
        -13    1    3    3    0    0 -0.65276230153E+02 -0.50142019012E+03 -0.47344463831E+03  0.69269981232E+03  0.10566000000E+00 0.  1.
          4    1    3    3  502    0  0.29609909976E+03  0.76413765172E+02 -0.19761730979E+04  0.19996934398E+04  0.00000000000E+00 0.  1.
         13    1    4    4    0    0 -0.13581674536E+03  0.62229771052E+03  0.31887170095E+03  0.71230597475E+03  0.10566000000E+00 0. -1.
         -4    1    4    4    0  501 -0.95006124248E+02 -0.19729128557E+03 -0.33741014828E+03  0.40223826667E+03  0.00000000000E+00 0. -1.
<mgrwt>
<rscale>  2 0.11158430E+04</rscale>
<asrwt>0</asrwt>
<pdfrwt beam="2">  1        2 0.48269952E+00 0.11158430E+04</pdfrwt>
<pdfrwt beam="1">  1       -2 0.10298318E+00 0.11158430E+04</pdfrwt>
<totfact> 0.17435454E+00</totfact>
</mgrwt>
</event>
<event>
 8    1  0.1439553E-005  0.1361685E+04  0.7818608E-02  0.8493838E-01
         -2   -1    0    0    0  501 -0.00000000000E+00  0.00000000000E+00  0.10266925497E+04  0.10266925497E+04  0.00000000000E+00 0.  1.
          2   -1    0    0  502    0  0.00000000000E+00 -0.00000000000E+00 -0.18770545562E+04  0.18770545562E+04  0.00000000000E+00 0. -1.
    9000010    2    1    2  502    0  0.77002854382E+03 -0.41057112729E+03 -0.15137867733E+03  0.13950160423E+04  0.10777948067E+04 0.  0.
   -9000010    2    1    2    0  501 -0.77002854382E+03  0.41057112729E+03 -0.69898332917E+03  0.15087310636E+04  0.10130049946E+04 0.  0.
        -13    1    3    3    0    0  0.76719540572E+03 -0.24390993210E+03  0.34168070265E+03  0.87454362914E+03  0.10566000000E+00 0.  1.
          4    1    3    3  502    0  0.28331380961E+01 -0.16666119519E+03 -0.49305937998E+03  0.52047241314E+03  0.00000000000E+00 0.  1.
         13    1    4    4    0    0 -0.83436539620E+03  0.18924348025E+01 -0.70896691453E+03  0.10948987591E+04  0.10566000000E+00 0. -1.
         -4    1    4    4    0  501  0.64336852387E+02  0.40867869249E+03  0.99835853549E+01  0.41383230450E+03  0.00000000000E+00 0. -1.
<mgrwt>
<rscale>  2 0.13616851E+04</rscale>
<asrwt>0</asrwt>
<pdfrwt beam="2">  1        2 0.28877762E+00 0.13616851E+04</pdfrwt>
<pdfrwt beam="1">  1       -2 0.15795270E+00 0.13616851E+04</pdfrwt>
<totfact> 0.27423096E+00</totfact>
</mgrwt>
</event>
<event>
 8    1  0.1439553E-005  0.1053583E+04  0.7818608E-02  0.8725811E-01
          1   -1    0    0  502    0  0.00000000000E+00  0.00000000000E+00  0.13835445398E+04  0.13835445398E+04  0.00000000000E+00 0.  1.
         -1   -1    0    0    0  501 -0.00000000000E+00 -0.00000000000E+00 -0.80448661829E+03  0.80448661829E+03  0.00000000000E+00 0. -1.
    9000010    2    1    2  502    0 -0.24171110248E+03  0.26648711647E+03  0.23752027013E+03  0.10921260645E+04  0.10034360077E+04 0.  0.
   -9000010    2    1    2    0  501  0.24171110248E+03 -0.26648711647E+03  0.34153765138E+03  0.10959050936E+04  0.97720026947E+03 0.  0.
        -13    1    3    3    0    0  0.37067039323E+03  0.23223054481E+03  0.87082905616E+01  0.43749675638E+03  0.10566000000E+00 0.  1.
          4    1    3    3  502    0 -0.61238149571E+03  0.34256571669E+02  0.22881197957E+03  0.65462930808E+03  0.00000000000E+00 0.  1.
         13    1    4    4    0    0 -0.27519770613E+03  0.14359757537E+03  0.30483865928E+03  0.43506397285E+03  0.10566000000E+00 0. -1.
         -4    1    4    4    0  501  0.51690880862E+03 -0.41008469185E+03  0.36698992095E+02  0.66084112079E+03  0.00000000000E+00 0. -1.
<mgrwt>
<rscale>  2 0.10535833E+04</rscale>
<asrwt>0</asrwt>
<pdfrwt beam="1">  1        1 0.21285301E+00 0.10535833E+04</pdfrwt>
<pdfrwt beam="2">  1       -1 0.12376717E+00 0.10535833E+04</pdfrwt>
<totfact> 0.67729084E+00</totfact>
</mgrwt>
</event>
<event>
 8    1  0.1439553E-005  0.1272026E+04  0.7818608E-02  0.8554213E-01
         -1   -1    0    0    0  501 -0.00000000000E+00  0.00000000000E+00  0.11781434526E+04  0.11781434526E+04  0.00000000000E+00 0. -1.
          1   -1    0    0  502    0  0.00000000000E+00 -0.00000000000E+00 -0.13762366658E+04  0.13762366658E+04  0.00000000000E+00 0.  1.
    9000010    2    1    2  502    0  0.54472851641E+02  0.85616368673E+03 -0.13538539929E+03  0.12378432857E+04  0.88201090896E+03 0.  0.
   -9000010    2    1    2    0  501 -0.54472851641E+02 -0.85616368673E+03 -0.62707813846E+02  0.13165368327E+04  0.99667116538E+03 0.  0.
        -13    1    3    3    0    0 -0.26529022668E+02 -0.17945290828E+03  0.36221965583E+02  0.18498426227E+03  0.10566000000E+00 0.  1.
          4    1    3    3  502    0  0.81001874309E+02  0.10356165950E+04 -0.17160736487E+03  0.10528590234E+04  0.00000000000E+00 0.  1.
         13    1    4    4    0    0 -0.36257632261E+03 -0.92981045040E+03 -0.36465078427E+02  0.99866850181E+03  0.10566000000E+00 0. -1.
         -4    1    4    4    0  501  0.30810347097E+03  0.73646763667E+02 -0.26242735419E+02  0.31786833090E+03  0.00000000000E+00 0. -1.
<mgrwt>
<rscale>  2 0.12720264E+04</rscale>
<asrwt>0</asrwt>
<pdfrwt beam="2">  1        1 0.21172872E+00 0.12720264E+04</pdfrwt>
<pdfrwt beam="1">  1       -1 0.18125284E+00 0.12720264E+04</pdfrwt>
<totfact> 0.21097249E+00</totfact>
</mgrwt>
</event>
<event>
 8    1  0.1439553E-005  0.1195451E+04  0.7818608E-02  0.8609996E-01
          2   -1    0    0  502    0  0.00000000000E+00  0.00000000000E+00  0.23666486519E+04  0.23666486519E+04  0.00000000000E+00 0. -1.
         -2   -1    0    0    0  501 -0.00000000000E+00 -0.00000000000E+00 -0.61157151417E+03  0.61157151417E+03  0.00000000000E+00 0.  1.
    9000010    2    1    2  502    0 -0.23748482794E+03 -0.56880342820E+03  0.10554417576E+04  0.16070481774E+04  0.10434127455E+04 0.  0.
   -9000010    2    1    2    0  501  0.23748482794E+03  0.56880342820E+03  0.69963538018E+03  0.13711719887E+04  0.10053290874E+04 0.  0.
        -13    1    3    3    0    0  0.82777406533E+02 -0.24477564478E+03  0.11177404892E+04  0.11472188229E+04  0.10566000000E+00 0.  1.
          4    1    3    3  502    0 -0.32026223448E+03 -0.32402778342E+03 -0.62298731642E+02  0.45982935446E+03  0.00000000000E+00 0.  1.
         13    1    4    4    0    0  0.26583185296E+03 -0.68907539278E+02  0.67907420622E+03  0.73250024692E+03  0.10566000000E+00 0. -1.
         -4    1    4    4    0  501 -0.28347025017E+02  0.63771096748E+03  0.20561173965E+02  0.63867174177E+03  0.00000000000E+00 0. -1.
<mgrwt>
<rscale>  2 0.11954507E+04</rscale>
<asrwt>0</asrwt>
<pdfrwt beam="1">  1        2 0.36409979E+00 0.11954507E+04</pdfrwt>
<pdfrwt beam="2">  1       -2 0.94087927E-01 0.11954507E+04</pdfrwt>
<totfact> 0.60937030E+00</totfact>
</mgrwt>
</event>
<event>
 8    1  0.1439553E-005  0.1405636E+04  0.7818608E-02  0.8465964E-01
         -2   -1    0    0    0  501 -0.00000000000E+00  0.00000000000E+00  0.19587605124E+04  0.19587605124E+04  0.00000000000E+00 0. -1.
          2   -1    0    0  502    0  0.00000000000E+00 -0.00000000000E+00 -0.10273366245E+04  0.10273366245E+04  0.00000000000E+00 0.  1.
    9000010    2    1    2  502    0  0.10132464009E+04  0.66184075512E+02  0.66105918457E+03  0.15393893555E+04  0.94956397439E+03 0.  0.
   -9000010    2    1    2    0  501 -0.10132464009E+04 -0.66184075512E+02  0.27036470333E+03  0.14467077815E+04  0.99439314729E+03 0.  0.
        -13    1    3    3    0    0  0.40952243604E+03 -0.44025915687E+03  0.31404144079E+03  0.67835004867E+03  0.10566000000E+00 0.  1.
          4    1    3    3  502    0  0.60372396484E+03  0.50644323238E+03  0.34701774378E+03  0.86103930680E+03  0.00000000000E+00 0.  1.
         13    1    4    4    0    0 -0.56340390290E+03 -0.41548154095E+03  0.47002531313E+03  0.84319195610E+03  0.10566000000E+00 0. -1.
         -4    1    4    4    0  501 -0.44984249798E+03  0.34929746544E+03 -0.19966060980E+03  0.60351582536E+03  0.00000000000E+00 0. -1.
<mgrwt>
<rscale>  2 0.14056361E+04</rscale>
<asrwt>0</asrwt>
<pdfrwt beam="2">  1        2 0.15805179E+00 0.14056361E+04</pdfrwt>
<pdfrwt beam="1">  1       -2 0.30134777E+00 0.14056361E+04</pdfrwt>
<totfact> 0.60007040E-01</totfact>
</mgrwt>
</event>
<event>
 8    1  0.1439553E-005  0.1279661E+04  0.7818608E-02  0.8548874E-01
         -1   -1    0    0    0  501 -0.00000000000E+00  0.00000000000E+00  0.69451598521E+03  0.69451598521E+03  0.00000000000E+00 0.  1.
          1   -1    0    0  502    0  0.00000000000E+00 -0.00000000000E+00 -0.23831209151E+04  0.23831209151E+04  0.00000000000E+00 0. -1.
    9000010    2    1    2  502    0  0.75750349180E+03 -0.23240567124E+03 -0.68035684937E+03  0.14416266888E+04  0.99376965708E+03 0.  0.
   -9000010    2    1    2    0  501 -0.75750349180E+03  0.23240567124E+03 -0.10082480806E+04  0.16360102115E+04  0.10159435438E+04 0.  0.
        -13    1    3    3    0    0  0.84910970238E+03 -0.49109731629E+03 -0.43318450592E+03  0.10722931913E+04  0.10566000000E+00 0.  1.
          4    1    3    3  502    0 -0.91606210584E+02  0.25869164505E+03 -0.24717234345E+03  0.36933349753E+03  0.00000000000E+00 0.  1.
         13    1    4    4    0    0  0.19186176812E+03  0.16654077065E+03 -0.62811946366E+01  0.25413821225E+03  0.10566000000E+00 0. -1.
         -4    1    4    4    0  501 -0.94936525992E+03  0.65864900589E+02 -0.10019668859E+04  0.13818719993E+04  0.00000000000E+00 0. -1.
<mgrwt>
<rscale>  2 0.12796609E+04</rscale>
<asrwt>0</asrwt>
<pdfrwt beam="2">  1        1 0.36663399E+00 0.12796609E+04</pdfrwt>
<pdfrwt beam="1">  1       -1 0.10684861E+00 0.12796609E+04</pdfrwt>
<totfact> 0.15833805E+00</totfact>
</mgrwt>
</event>
<event>
 8    1  0.1439553E-005  0.1181147E+04  0.7818608E-02  0.8620896E-01
         -2   -1    0    0    0  501 -0.00000000000E+00  0.00000000000E+00  0.59012622534E+03  0.59012622534E+03  0.00000000000E+00 0.  1.
          2   -1    0    0  502    0  0.00000000000E+00 -0.00000000000E+00 -0.23769739775E+04  0.23769739775E+04  0.00000000000E+00 0. -1.
    9000010    2    1    2  502    0 -0.54857474247E+03 -0.31070023061E+03 -0.10072763819E+04  0.15573130875E+04  0.10065532582E+04 0.  0.
   -9000010    2    1    2    0  501  0.54857474247E+03  0.31070023061E+03 -0.77957137025E+03  0.14097871153E+04  0.99111013906E+03 0.  0.
        -13    1    3    3    0    0  0.37166786917E+02  0.18433412589E+03 -0.71053130416E+03  0.73499332336E+03  0.10566000000E+00 0.  1.
          4    1    3    3  502    0 -0.58574152939E+03 -0.49503435650E+03 -0.29674507771E+03  0.82231976416E+03  0.00000000000E+00 0.  1.
         13    1    4    4    0    0  0.35854878243E+03  0.56445838552E+03 -0.12194589822E+03  0.67973620738E+03  0.10566000000E+00 0. -1.
         -4    1    4    4    0  501  0.19002596004E+03 -0.25375815491E+03 -0.65762547203E+03  0.73005090791E+03  0.00000000000E+00 0. -1.
<mgrwt>
<rscale>  2 0.11811469E+04</rscale>
<asrwt>0</asrwt>
<pdfrwt beam="2">  1        2 0.36568830E+00 0.11811469E+04</pdfrwt>
<pdfrwt beam="1">  1       -2 0.90788650E-01 0.11811469E+04</pdfrwt>
<totfact> 0.65468687E+00</totfact>
</mgrwt>
</event>
<event>
 8    1  0.1439553E-005  0.1086127E+04  0.7818608E-02  0.8697629E-01
          1   -1    0    0  502    0  0.00000000000E+00  0.00000000000E+00  0.25239625375E+04  0.25239625375E+04  0.00000000000E+00 0.  1.
         -1   -1    0    0    0  501 -0.00000000000E+00 -0.00000000000E+00 -0.47285303055E+03  0.47285303055E+03  0.00000000000E+00 0. -1.
    9000010    2    1    2  502    0  0.17972466781E+03 -0.41905304488E+03  0.11798331308E+04  0.15989441022E+04  0.97811533819E+03 0.  0.
   -9000010    2    1    2    0  501 -0.17972466781E+03  0.41905304488E+03  0.87127637622E+03  0.13978714659E+04  0.99348663845E+03 0.  0.
        -13    1    3    3    0    0  0.27371482807E+03 -0.65987298111E+03  0.50100471300E+03  0.87255824558E+03  0.10566000000E+00 0.  1.
          4    1    3    3  502    0 -0.93990160264E+02  0.24081993623E+03  0.67882841778E+03  0.72638585662E+03  0.00000000000E+00 0.  1.
         13    1    4    4    0    0 -0.39298285792E+03  0.64288884215E+03  0.75751459475E+03  0.10684427745E+04  0.10566000000E+00 0. -1.
         -4    1    4    4    0  501  0.21325819011E+03 -0.22383579727E+03  0.11376178146E+03  0.32942869139E+03  0.00000000000E+00 0. -1.
<mgrwt>
<rscale>  2 0.10861269E+04</rscale>
<asrwt>0</asrwt>
<pdfrwt beam="1">  1        1 0.38830192E+00 0.10861269E+04</pdfrwt>
<pdfrwt beam="2">  1       -1 0.72746621E-01 0.10861269E+04</pdfrwt>
<totfact> 0.26790321E+00</totfact>
</mgrwt>
</event>
<event>
 8    1  0.1439553E-005  0.1196660E+04  0.7818608E-02  0.8609081E-01
          2   -1    0    0  502    0  0.00000000000E+00  0.00000000000E+00  0.23063627482E+04  0.23063627482E+04  0.00000000000E+00 0. -1.
         -2   -1    0    0    0  501 -0.00000000000E+00 -0.00000000000E+00 -0.62104000776E+03  0.62104000776E+03  0.00000000000E+00 0.  1.
    9000010    2    1    2  502    0 -0.21537604849E+03 -0.62441097423E+03  0.86875883414E+03  0.14846540064E+04  0.10065682788E+04 0.  0.
   -9000010    2    1    2    0  501  0.21537604849E+03  0.62441097423E+03  0.81656390634E+03  0.14427487496E+04  0.98917715010E+03 0.  0.
        -13    1    3    3    0    0 -0.26136771776E+03 -0.60987868827E+03  0.10802371674E+04  0.12677450246E+04  0.10566000000E+00 0.  1.
          4    1    3    3  502    0  0.45991669271E+02 -0.14532285953E+02 -0.21147833325E+03  0.21690898186E+03  0.00000000000E+00 0.  1.
         13    1    4    4    0    0  0.45308294308E+02 -0.24360856908E+03  0.38676751724E+03  0.45933332126E+03  0.10566000000E+00 0. -1.
         -4    1    4    4    0  501  0.17006775418E+03  0.86801954331E+03  0.42979638911E+03  0.98341542833E+03  0.00000000000E+00 0. -1.
<mgrwt>
<rscale>  2 0.11966605E+04</rscale>
<asrwt>0</asrwt>
<pdfrwt beam="1">  1        2 0.35482503E+00 0.11966605E+04</pdfrwt>
<pdfrwt beam="2">  1       -2 0.95544618E-01 0.11966605E+04</pdfrwt>
<totfact> 0.63401100E+00</totfact>
</mgrwt>
</event>
<event>
 8    1  0.1439553E-005  0.1002219E+04  0.7818608E-02  0.8772509E-01
          2   -1    0    0  502    0  0.00000000000E+00  0.00000000000E+00  0.10658218789E+04  0.10658218789E+04  0.00000000000E+00 0.  1.
         -2   -1    0    0    0  501 -0.00000000000E+00 -0.00000000000E+00 -0.95980857858E+03  0.95980857858E+03  0.00000000000E+00 0. -1.
    9000010    2    1    2  502    0 -0.11267030224E+03 -0.17271254312E+03 -0.82544983326E+02  0.10148944249E+04  0.99028925061E+03 0.  0.
   -9000010    2    1    2    0  501  0.11267030224E+03  0.17271254312E+03  0.18855828365E+03  0.10107360326E+04  0.97134385346E+03 0.  0.
        -13    1    3    3    0    0 -0.36232813604E+03 -0.16698307927E+03  0.33992857752E+03  0.52413402476E+03  0.10566000000E+00 0.  1.
          4    1    3    3  502    0  0.24965783381E+03 -0.57294638525E+01 -0.42247356085E+03  0.49076040015E+03  0.00000000000E+00 0.  1.
         13    1    4    4    0    0  0.12618553050E+03 -0.37850278463E+03  0.22517854713E+03  0.45814030093E+03  0.10566000000E+00 0. -1.
         -4    1    4    4    0  501 -0.13515228265E+02  0.55121532775E+03 -0.36620263477E+02  0.55259573165E+03  0.00000000000E+00 0. -1.
<mgrwt>
<rscale>  2 0.10022191E+04</rscale>
<asrwt>0</asrwt>
<pdfrwt beam="1">  1        2 0.16397260E+00 0.10022191E+04</pdfrwt>
<pdfrwt beam="2">  1       -2 0.14766286E+00 0.10022191E+04</pdfrwt>
<totfact> 0.98933708E+00</totfact>
</mgrwt>
</event>
<event>
 8    1  0.1439553E-005  0.1318626E+04  0.7818608E-02  0.8522215E-01
          1   -1    0    0  502    0  0.00000000000E+00  0.00000000000E+00  0.45457783860E+03  0.45457783860E+03  0.00000000000E+00 0.  1.
         -1   -1    0    0    0  501 -0.00000000000E+00 -0.00000000000E+00 -0.38631426830E+04  0.38631426830E+04  0.00000000000E+00 0. -1.
    9000010    2    1    2  502    0  0.21336764365E+03  0.83520534243E+03 -0.15094208467E+04  0.20137544905E+04  0.10167409406E+04 0.  0.
   -9000010    2    1    2    0  501 -0.21336764365E+03 -0.83520534243E+03 -0.18991439977E+04  0.23039660311E+04  0.97898816793E+03 0.  0.
        -13    1    3    3    0    0  0.21415239058E+03 -0.12227969402E+03 -0.75654778692E+03  0.79572491165E+03  0.10566000000E+00 0.  1.
          4    1    3    3  502    0 -0.78474693267E+00  0.95748503645E+03 -0.75287305975E+03  0.12180295788E+04  0.00000000000E+00 0.  1.
         13    1    4    4    0    0 -0.12243955475E+03 -0.70790094510E+03 -0.45283369969E+03  0.84921938472E+03  0.10566000000E+00 0. -1.
         -4    1    4    4    0  501 -0.90928088902E+02 -0.12730439733E+03 -0.14463102980E+04  0.14547466464E+04  0.00000000000E+00 0. -1.
<mgrwt>
<rscale>  2 0.13186264E+04</rscale>
<asrwt>0</asrwt>
<pdfrwt beam="1">  1        1 0.69935053E-01 0.13186264E+04</pdfrwt>
<pdfrwt beam="2">  1       -1 0.59432963E+00 0.13186264E+04</pdfrwt>
<totfact> 0.19024016E-01</totfact>
</mgrwt>
</event>
<event>
 8    1  0.1439553E-005  0.1139555E+04  0.7818608E-02  0.8653524E-01
          1   -1    0    0  502    0  0.00000000000E+00  0.00000000000E+00  0.14240476469E+04  0.14240476469E+04  0.00000000000E+00 0. -1.
         -1   -1    0    0    0  501 -0.00000000000E+00 -0.00000000000E+00 -0.92081205119E+03  0.92081205119E+03  0.00000000000E+00 0.  1.
    9000010    2    1    2  502    0  0.52965485948E+03 -0.35335205539E+02  0.13924046608E+03  0.11590765612E+04  0.10209249338E+04 0.  0.
   -9000010    2    1    2    0  501 -0.52965485948E+03  0.35335205539E+02  0.36399512964E+03  0.11857831369E+04  0.99589474662E+03 0.  0.
        -13    1    3    3    0    0 -0.23254035301E+03 -0.26549330996E+03  0.70697625490E+02  0.35994427183E+03  0.10566000000E+00 0.  1.
          4    1    3    3  502    0  0.76219521249E+03  0.23015810442E+03  0.68542840589E+02  0.79913228940E+03  0.00000000000E+00 0.  1.
         13    1    4    4    0    0 -0.49941265893E+03 -0.18498450851E+03  0.63917790817E+03  0.83197396698E+03  0.10566000000E+00 0. -1.
         -4    1    4    4    0  501 -0.30242200553E+02  0.22031971405E+03 -0.27518277853E+03  0.35380916988E+03  0.00000000000E+00 0. -1.
<mgrwt>
<rscale>  2 0.11395546E+04</rscale>
<asrwt>0</asrwt>
<pdfrwt beam="1">  1        1 0.21908425E+00 0.11395546E+04</pdfrwt>
<pdfrwt beam="2">  1       -1 0.14166339E+00 0.11395546E+04</pdfrwt>
<totfact> 0.43556546E+00</totfact>
</mgrwt>
</event>
<event>
 8    1  0.1439553E-005  0.1593065E+04  0.7818608E-02  0.8357866E-01
         -2   -1    0    0    0  501 -0.00000000000E+00  0.00000000000E+00  0.74416046525E+03  0.74416046525E+03  0.00000000000E+00 0. -1.
          2   -1    0    0  502    0  0.00000000000E+00 -0.00000000000E+00 -0.41154394225E+04  0.41154394225E+04  0.00000000000E+00 0.  1.
    9000010    2    1    2  502    0 -0.97062119427E+03 -0.77830626622E+03 -0.67880606585E+03  0.17304967875E+04  0.99296289440E+03 0.  0.
   -9000010    2    1    2    0  501  0.97062119427E+03  0.77830626622E+03 -0.26924728914E+04  0.31291031003E+04  0.99700039838E+03 0.  0.
        -13    1    3    3    0    0 -0.53573624426E+03 -0.58763658453E+03 -0.90483544559E+03  0.12045983869E+04  0.10566000000E+00 0.  1.
          4    1    3    3  502    0 -0.43488495001E+03 -0.19066968169E+03  0.22602937974E+03  0.52589840062E+03  0.00000000000E+00 0.  1.
         13    1    4    4    0    0  0.52652582957E+03  0.77085925414E+02 -0.33263142168E+03  0.62754710019E+03  0.10566000000E+00 0. -1.
         -4    1    4    4    0  501  0.44409536470E+03  0.70122034080E+03 -0.23598414697E+04  0.25015560001E+04  0.00000000000E+00 0. -1.
<mgrwt>
<rscale>  2 0.15930648E+04</rscale>
<asrwt>0</asrwt>
<pdfrwt beam="2">  1        2 0.63314454E+00 0.15930648E+04</pdfrwt>
<pdfrwt beam="1">  1       -2 0.11448622E+00 0.15930648E+04</pdfrwt>
<totfact> 0.21728364E-01</totfact>
</mgrwt>
</event>
<event>
 8    1  0.1439553E-005  0.1193034E+04  0.7818608E-02  0.8611827E-01
         -2   -1    0    0    0  501 -0.00000000000E+00  0.00000000000E+00  0.21636888980E+04  0.21636888980E+04  0.00000000000E+00 0.  1.
          2   -1    0    0  502    0  0.00000000000E+00 -0.00000000000E+00 -0.67534731750E+03  0.67534731750E+03  0.00000000000E+00 0. -1.
    9000010    2    1    2  502    0 -0.65088481870E+03 -0.16645224135E+03  0.51756214902E+03  0.13034967307E+04  0.98988673750E+03 0.  0.
   -9000010    2    1    2    0  501  0.65088481870E+03  0.16645224135E+03  0.97077943150E+03  0.15355394848E+04  0.98189175007E+03 0.  0.
        -13    1    3    3    0    0 -0.50036812238E+03 -0.51488648776E+03  0.77153257125E+02  0.72210040120E+03  0.10566000000E+00 0.  1.
          4    1    3    3  502    0 -0.15051669632E+03  0.34843424640E+03  0.44040889189E+03  0.58139632954E+03  0.00000000000E+00 0.  1.
         13    1    4    4    0    0  0.60697968841E+03  0.48674491918E+03  0.92551197308E+03  0.12090977553E+04  0.10566000000E+00 0. -1.
         -4    1    4    4    0  501  0.43905130291E+02 -0.32029267783E+03  0.45267458421E+02  0.32644172945E+03  0.00000000000E+00 0. -1.
<mgrwt>
<rscale>  2 0.11930336E+04</rscale>
<asrwt>0</asrwt>
<pdfrwt beam="2">  1        2 0.10389959E+00 0.11930336E+04</pdfrwt>
<pdfrwt beam="1">  1       -2 0.33287521E+00 0.11930336E+04</pdfrwt>
<totfact> 0.66099807E-01</totfact>
</mgrwt>
</event>
<event>
 8    1  0.1439553E-005  0.1385802E+04  0.7818608E-02  0.8478412E-01
          2   -1    0    0  502    0  0.00000000000E+00  0.00000000000E+00  0.27267476257E+04  0.27267476257E+04  0.00000000000E+00 0.  1.
         -2   -1    0    0    0  501 -0.00000000000E+00 -0.00000000000E+00 -0.83740373231E+03  0.83740373231E+03  0.00000000000E+00 0. -1.
    9000010    2    1    2  502    0 -0.38102014340E+03  0.88829223296E+03  0.23691060347E+03  0.14105543244E+04  0.99964865194E+03 0.  0.
   -9000010    2    1    2    0  501  0.38102014340E+03 -0.88829223296E+03  0.16524332900E+04  0.21535970336E+04  0.98651151270E+03 0.  0.
        -13    1    3    3    0    0 -0.17921408804E+03 -0.64478649009E+02  0.38108754077E+03  0.42603158383E+03  0.10566000000E+00 0.  1.
          4    1    3    3  502    0 -0.20180605536E+03  0.95277088197E+03 -0.14417693730E+03  0.98452274060E+03  0.00000000000E+00 0.  1.
         13    1    4    4    0    0 -0.29711551365E+02 -0.91499126622E+03  0.83817393856E+03  0.12412201078E+04  0.10566000000E+00 0. -1.
         -4    1    4    4    0  501  0.41073169476E+03  0.26699033261E+02  0.81425935140E+03  0.91237692584E+03  0.00000000000E+00 0. -1.
<mgrwt>
<rscale>  2 0.13858017E+04</rscale>
<asrwt>0</asrwt>
<pdfrwt beam="1">  1        2 0.41949963E+00 0.13858017E+04</pdfrwt>
<pdfrwt beam="2">  1       -2 0.12883134E+00 0.13858017E+04</pdfrwt>
<totfact> 0.16812666E+00</totfact>
</mgrwt>
</event>
<event>
 8    1  0.1439553E-005  0.1344327E+04  0.7818608E-02  0.8505146E-01
          2   -1    0    0  502    0  0.00000000000E+00  0.00000000000E+00  0.19268050418E+04  0.19268050418E+04  0.00000000000E+00 0.  1.
         -2   -1    0    0    0  501 -0.00000000000E+00 -0.00000000000E+00 -0.96595371493E+03  0.96595371493E+03  0.00000000000E+00 0. -1.
    9000010    2    1    2  502    0  0.80071650856E+03  0.38569141338E+03  0.72550400235E+03  0.15244811393E+04  0.10038834062E+04 0.  0.
   -9000010    2    1    2    0  501 -0.80071650856E+03 -0.38569141338E+03  0.23534732447E+03  0.13682776174E+04  0.10133560488E+04 0.  0.
        -13    1    3    3    0    0 -0.84459564554E+02 -0.15947241927E+03 -0.91446900224E+02  0.20230525766E+03  0.10566000000E+00 0.  1.
          4    1    3    3  502    0  0.88517607311E+03  0.54516383265E+03  0.81695090258E+03  0.13221758817E+04  0.00000000000E+00 0.  1.
         13    1    4    4    0    0 -0.66940315945E+03 -0.71733888985E+03  0.24560159081E+03  0.10114325609E+04  0.10566000000E+00 0. -1.
         -4    1    4    4    0  501 -0.13131334911E+03  0.33164747647E+03 -0.10254266335E+02  0.35684505640E+03  0.00000000000E+00 0. -1.
<mgrwt>
<rscale>  2 0.13443272E+04</rscale>
<asrwt>0</asrwt>
<pdfrwt beam="1">  1        2 0.29643154E+00 0.13443272E+04</pdfrwt>
<pdfrwt beam="2">  1       -2 0.14860826E+00 0.13443272E+04</pdfrwt>
<totfact> 0.31203550E+00</totfact>
</mgrwt>
</event>
<event>
 8    1  0.1439553E-005  0.1128217E+04  0.7818608E-02  0.8662670E-01
          4   -1    0    0  502    0  0.00000000000E+00  0.00000000000E+00  0.16191062077E+04  0.16191062077E+04  0.00000000000E+00 0.  1.
         -4   -1    0    0    0  501 -0.00000000000E+00 -0.00000000000E+00 -0.78795999243E+03  0.78795999243E+03  0.00000000000E+00 0. -1.
    9000010    2    1    2  502    0  0.44974906715E+03 -0.30873935208E+03  0.47214239239E+03  0.12207332861E+04  0.98472184204E+03 0.  0.
   -9000010    2    1    2    0  501 -0.44974906715E+03  0.30873935208E+03  0.35900382287E+03  0.11863329140E+04  0.99040790946E+03 0.  0.
        -13    1    3    3    0    0  0.61731818063E+03 -0.54163460085E+03  0.25183336019E+03  0.85899349791E+03  0.10566000000E+00 0.  1.
          4    1    3    3  502    0 -0.16756911348E+03  0.23289524877E+03  0.22030903220E+03  0.36173978819E+03  0.00000000000E+00 0.  1.
         13    1    4    4    0    0  0.47289968032E+02 -0.14788150212E+03  0.47657241180E+03  0.50122505384E+03  0.10566000000E+00 0. -1.
         -4    1    4    4    0  501 -0.49703903518E+03  0.45662085420E+03 -0.11756858893E+03  0.68510786018E+03  0.00000000000E+00 0. -1.
<mgrwt>
<rscale>  2 0.11282173E+04</rscale>
<asrwt>0</asrwt>
<pdfrwt beam="1">  1        4 0.24909326E+00 0.11282173E+04</pdfrwt>
<pdfrwt beam="2">  1       -4 0.12122461E+00 0.11282173E+04</pdfrwt>
<totfact> 0.28393734E-01</totfact>
</mgrwt>
</event>
<event>
 8    1  0.1439553E-005  0.1056867E+04  0.7818608E-02  0.8722920E-01
          4   -1    0    0  502    0  0.00000000000E+00  0.00000000000E+00  0.91245774447E+03  0.91245774447E+03  0.00000000000E+00 0.  1.
         -4   -1    0    0    0  501 -0.00000000000E+00 -0.00000000000E+00 -0.12345660336E+04  0.12345660336E+04  0.00000000000E+00 0. -1.
    9000010    2    1    2  502    0 -0.11983103750E+03  0.36479896930E+03 -0.61861088078E+02  0.10548987350E+04  0.98058491795E+03 0.  0.
   -9000010    2    1    2    0  501  0.11983103750E+03 -0.36479896930E+03 -0.26024720107E+03  0.10921250431E+04  0.98872177004E+03 0.  0.
        -13    1    3    3    0    0 -0.20020713242E+03 -0.23621901682E+03  0.22631344407E+03  0.38353631628E+03  0.10566000000E+00 0.  1.
          4    1    3    3  502    0  0.80376094911E+02  0.60101798612E+03 -0.28817453214E+03  0.67136241871E+03  0.00000000000E+00 0.  1.
         13    1    4    4    0    0  0.30067961699E+03  0.21076496660E+03 -0.31841093940E+03  0.48602020607E+03  0.10566000000E+00 0. -1.
         -4    1    4    4    0  501 -0.18084857948E+03 -0.57556393590E+03  0.58163738324E+02  0.60610483703E+03  0.00000000000E+00 0. -1.
<mgrwt>
<rscale>  2 0.10568670E+04</rscale>
<asrwt>0</asrwt>
<pdfrwt beam="1">  1        4 0.14037811E+00 0.10568670E+04</pdfrwt>
<pdfrwt beam="2">  1       -4 0.18993324E+00 0.10568670E+04</pdfrwt>
<totfact> 0.31968578E-01</totfact>
</mgrwt>
</event>
<event>
 8    1  0.1439553E-005  0.1134867E+04  0.7818608E-02  0.8657292E-01
          2   -1    0    0  502    0  0.00000000000E+00  0.00000000000E+00  0.12259193260E+04  0.12259193260E+04  0.00000000000E+00 0. -1.
         -2   -1    0    0    0  501 -0.00000000000E+00 -0.00000000000E+00 -0.12408879263E+04  0.12408879263E+04  0.00000000000E+00 0.  1.
    9000010    2    1    2  502    0  0.55250130474E+03  0.29124499896E+03 -0.48170370081E+03  0.13175113087E+04  0.10553275567E+04 0.  0.
   -9000010    2    1    2    0  501 -0.55250130474E+03 -0.29124499896E+03  0.46673510051E+03  0.11492959436E+04  0.84436850414E+03 0.  0.
        -13    1    3    3    0    0 -0.25310386946E+03  0.20671498854E+03  0.74160934314E+02  0.33510074689E+03  0.10566000000E+00 0.  1.
          4    1    3    3  502    0  0.80560517420E+03  0.84530010421E+02 -0.55586463512E+03  0.98241056180E+03  0.00000000000E+00 0.  1.
         13    1    4    4    0    0 -0.50696497012E+03  0.20599847378E+03  0.29220300921E+03  0.62034785556E+03  0.10566000000E+00 0. -1.
         -4    1    4    4    0  501 -0.45536334618E+02 -0.49724347275E+03  0.17453209129E+03  0.52894808805E+03  0.00000000000E+00 0. -1.
<mgrwt>
<rscale>  2 0.11348674E+04</rscale>
<asrwt>0</asrwt>
<pdfrwt beam="1">  1        2 0.18860297E+00 0.11348674E+04</pdfrwt>
<pdfrwt beam="2">  1       -2 0.19090584E+00 0.11348674E+04</pdfrwt>
<totfact> 0.33852030E+00</totfact>
</mgrwt>
</event>
<event>
 8    1  0.1439553E-005  0.1429416E+04  0.7818608E-02  0.8451315E-01
          4   -1    0    0  502    0  0.00000000000E+00  0.00000000000E+00  0.10147910527E+04  0.10147910527E+04  0.00000000000E+00 0.  1.
         -4   -1    0    0    0  501 -0.00000000000E+00 -0.00000000000E+00 -0.35976935976E+04  0.35976935976E+04  0.00000000000E+00 0. -1.
    9000010    2    1    2  502    0 -0.78742227958E+03  0.65251741186E+03  0.23795870048E+03  0.14510078010E+04  0.10014921250E+04 0.  0.
   -9000010    2    1    2    0  501  0.78742227958E+03 -0.65251741186E+03 -0.28208612454E+04  0.31614768493E+04  0.99592413553E+03 0.  0.
        -13    1    3    3    0    0 -0.52119162056E+03  0.26365529386E+03 -0.36270268878E+03  0.68753768692E+03  0.10566000000E+00 0.  1.
          4    1    3    3  502    0 -0.26623065902E+03  0.38886211800E+03  0.60066138925E+03  0.76347011412E+03  0.00000000000E+00 0.  1.
         13    1    4    4    0    0  0.46968816603E+03 -0.10319022428E+03 -0.31114141026E+03  0.57276887489E+03  0.10566000000E+00 0. -1.
         -4    1    4    4    0  501  0.31773411355E+03 -0.54932718758E+03 -0.25097198351E+04  0.25887079744E+04  0.00000000000E+00 0. -1.
<mgrwt>
<rscale>  2 0.14294163E+04</rscale>
<asrwt>0</asrwt>
<pdfrwt beam="1">  1        4 0.15612170E+00 0.14294163E+04</pdfrwt>
<pdfrwt beam="2">  1       -4 0.55349131E+00 0.14294163E+04</pdfrwt>
<totfact> 0.12719063E-02</totfact>
</mgrwt>
</event>
<event>
 8    1  0.1439553E-005  0.1394847E+04  0.7818608E-02  0.8472709E-01
         -2   -1    0    0    0  501 -0.00000000000E+00  0.00000000000E+00  0.81429194656E+03  0.81429194656E+03  0.00000000000E+00 0.  1.
          2   -1    0    0  502    0  0.00000000000E+00 -0.00000000000E+00 -0.26571234566E+04  0.26571234566E+04  0.00000000000E+00 0. -1.
    9000010    2    1    2  502    0 -0.66971406814E+03 -0.69284062660E+03 -0.14760103612E+04  0.20349954130E+04  0.10168847909E+04 0.  0.
   -9000010    2    1    2    0  501  0.66971406814E+03  0.69284062660E+03 -0.36682114890E+03  0.14364199901E+04  0.10000997780E+04 0.  0.
        -13    1    3    3    0    0 -0.26361597847E+02 -0.74423036916E+03 -0.91586228328E+03  0.11804141262E+04  0.10566000000E+00 0.  1.
          4    1    3    3  502    0 -0.64335247030E+03  0.51389742562E+02 -0.56014807788E+03  0.85458128684E+03  0.00000000000E+00 0.  1.
         13    1    4    4    0    0  0.69001689167E+03  0.47160458339E+02  0.38352781859E+01  0.69163728944E+03  0.10566000000E+00 0. -1.
         -4    1    4    4    0  501 -0.20302823530E+02  0.64568016826E+03 -0.37065642709E+03  0.74478270070E+03  0.00000000000E+00 0. -1.
<mgrwt>
<rscale>  2 0.13948471E+04</rscale>
<asrwt>0</asrwt>
<pdfrwt beam="2">  1        2 0.40878822E+00 0.13948471E+04</pdfrwt>
<pdfrwt beam="1">  1       -2 0.12527569E+00 0.13948471E+04</pdfrwt>
<totfact> 0.19913084E+00</totfact>
</mgrwt>
</event>
<event>
 8    1  0.1439553E-005  0.1375348E+04  0.7818608E-02  0.8485059E-01
         -2   -1    0    0    0  501 -0.00000000000E+00  0.00000000000E+00  0.14995314938E+04  0.14995314938E+04  0.00000000000E+00 0.  1.
          2   -1    0    0  502    0  0.00000000000E+00 -0.00000000000E+00 -0.14947993729E+04  0.14947993729E+04  0.00000000000E+00 0. -1.
    9000010    2    1    2  502    0 -0.12666174283E+03 -0.92165727591E+03 -0.58906419654E+03  0.15052466560E+04  0.10262921302E+04 0.  0.
   -9000010    2    1    2    0  501  0.12666174283E+03  0.92165727591E+03  0.59379631746E+03  0.14890842107E+04  0.99964112990E+03 0.  0.
        -13    1    3    3    0    0  0.25335961882E+03 -0.94404578108E+03 -0.28533951245E+03  0.10182495675E+04  0.10566000000E+00 0.  1.
          4    1    3    3  502    0 -0.38002136165E+03  0.22388505167E+02 -0.30372468409E+03  0.48699708849E+03  0.00000000000E+00 0.  1.
         13    1    4    4    0    0  0.55739002609E+02  0.11340914834E+04  0.54672893232E+03  0.12602312747E+04  0.10566000000E+00 0. -1.
         -4    1    4    4    0  501  0.70922740218E+02 -0.21243420746E+03  0.47067385136E+02  0.22885293602E+03  0.00000000000E+00 0. -1.
<mgrwt>
<rscale>  2 0.13753478E+04</rscale>
<asrwt>0</asrwt>
<pdfrwt beam="2">  1        2 0.22996913E+00 0.13753478E+04</pdfrwt>
<pdfrwt beam="1">  1       -2 0.23069715E+00 0.13753478E+04</pdfrwt>
<totfact> 0.11034679E+00</totfact>
</mgrwt>
</event>
<event>
 8    1  0.1439553E-005  0.1407568E+04  0.7818608E-02  0.8464763E-01
         -2   -1    0    0    0  501 -0.00000000000E+00  0.00000000000E+00  0.19441143680E+04  0.19441143680E+04  0.00000000000E+00 0. -1.
          2   -1    0    0  502    0  0.00000000000E+00 -0.00000000000E+00 -0.10248006733E+04  0.10248006733E+04  0.00000000000E+00 0.  1.
    9000010    2    1    2  502    0 -0.24168233271E+03 -0.91584103198E+03  0.57503939673E+03  0.15408813464E+04  0.10707333328E+04 0.  0.
   -9000010    2    1    2    0  501  0.24168233271E+03  0.91584103198E+03  0.34427429798E+03  0.14280336950E+04  0.10117214517E+04 0.  0.
        -13    1    3    3    0    0 -0.66177375214E+03 -0.55069579699E+03  0.25079390763E+03  0.89672066727E+03  0.10566000000E+00 0.  1.
          4    1    3    3  502    0  0.42009141943E+03 -0.36514523499E+03  0.32424548910E+03  0.64416067911E+03  0.00000000000E+00 0.  1.
         13    1    4    4    0    0  0.25755133593E+03  0.15341796788E+02 -0.24171172668E+03  0.35354296959E+03  0.10566000000E+00 0. -1.
         -4    1    4    4    0  501 -0.15869003223E+02  0.90049923519E+03  0.58598602465E+03  0.10744907254E+04  0.00000000000E+00 0. -1.
<mgrwt>
<rscale>  2 0.14075680E+04</rscale>
<asrwt>0</asrwt>
<pdfrwt beam="2">  1        2 0.15766164E+00 0.14075680E+04</pdfrwt>
<pdfrwt beam="1">  1       -2 0.29909452E+00 0.14075680E+04</pdfrwt>
<totfact> 0.62215737E-01</totfact>
</mgrwt>
</event>
<event>
 8    1  0.1439553E-005  0.1082399E+04  0.7818608E-02  0.8700805E-01
          2   -1    0    0  502    0  0.00000000000E+00  0.00000000000E+00  0.24208094288E+04  0.24208094288E+04  0.00000000000E+00 0.  1.
         -2   -1    0    0    0  501 -0.00000000000E+00 -0.00000000000E+00 -0.48414653928E+03  0.48414653928E+03  0.00000000000E+00 0. -1.
    9000010    2    1    2  502    0 -0.60736458336E+02  0.46212957918E+03  0.94209107266E+03  0.14200693007E+04  0.95488667613E+03 0.  0.
   -9000010    2    1    2    0  501  0.60736458336E+02 -0.46212957918E+03  0.99457181683E+03  0.14848866674E+04  0.99923102971E+03 0.  0.
        -13    1    3    3    0    0  0.31994640214E+03  0.55743972179E+03  0.73486061136E+03  0.97628114443E+03  0.10566000000E+00 0.  1.
          4    1    3    3  502    0 -0.38068286048E+03 -0.95310142615E+02  0.20723046130E+03  0.44378815626E+03  0.00000000000E+00 0.  1.
         13    1    4    4    0    0 -0.42170593936E+03 -0.43917706817E+03  0.45078041970E+03  0.75757203912E+03  0.10566000000E+00 0. -1.
         -4    1    4    4    0  501  0.48244239770E+03 -0.22952511004E+02  0.54379139713E+03  0.72731462824E+03  0.00000000000E+00 0. -1.
<mgrwt>
<rscale>  2 0.10823989E+04</rscale>
<asrwt>0</asrwt>
<pdfrwt beam="1">  1        2 0.37243221E+00 0.10823989E+04</pdfrwt>
<pdfrwt beam="2">  1       -2 0.74484084E-01 0.10823989E+04</pdfrwt>
<totfact> 0.97145262E+00</totfact>
</mgrwt>
</event>
<event>
 8    1  0.1439553E-005  0.1528912E+04  0.7818608E-02  0.8393052E-01
         -2   -1    0    0    0  501 -0.00000000000E+00  0.00000000000E+00  0.37086016180E+04  0.37086016180E+04  0.00000000000E+00 0.  1.
          2   -1    0    0  502    0  0.00000000000E+00 -0.00000000000E+00 -0.63106019661E+03  0.63106019661E+03  0.00000000000E+00 0. -1.
    9000010    2    1    2  502    0  0.12656013847E+03 -0.11571936928E+04  0.16181024068E+04  0.22598914520E+04  0.10647719308E+04 0.  0.
   -9000010    2    1    2    0  501 -0.12656013847E+03  0.11571936928E+04  0.14594390146E+04  0.20797703626E+04  0.91671577523E+03 0.  0.
        -13    1    3    3    0    0  0.30237296332E+03 -0.45669164882E+03  0.14032925315E+04  0.15063952373E+04  0.10566000000E+00 0.  1.
          4    1    3    3  502    0 -0.17581282485E+03 -0.70050204399E+03  0.21480987538E+03  0.75349621470E+03  0.00000000000E+00 0.  1.
         13    1    4    4    0    0 -0.50821936328E+03  0.81249348770E+03  0.83735820224E+03  0.12726355954E+04  0.10566000000E+00 0. -1.
         -4    1    4    4    0  501  0.38165922480E+03  0.34470020511E+03  0.62208081235E+03  0.80713476717E+03  0.00000000000E+00 0. -1.
<mgrwt>
<rscale>  2 0.15289115E+04</rscale>
<asrwt>0</asrwt>
<pdfrwt beam="2">  1        2 0.97086187E-01 0.15289115E+04</pdfrwt>
<pdfrwt beam="1">  1       -2 0.57055408E+00 0.15289115E+04</pdfrwt>
<totfact> 0.30289717E-01</totfact>
</mgrwt>
</event>
<event>
 8    1  0.1439553E-005  0.1616534E+04  0.7818608E-02  0.8345419E-01
          1   -1    0    0  502    0  0.00000000000E+00  0.00000000000E+00  0.19235625917E+04  0.19235625917E+04  0.00000000000E+00 0. -1.
         -1   -1    0    0    0  501 -0.00000000000E+00 -0.00000000000E+00 -0.14876601457E+04  0.14876601457E+04  0.00000000000E+00 0.  1.
    9000010    2    1    2  502    0  0.85953065406E+03  0.92303096806E+03  0.72076478602E+03  0.17719985344E+04  0.10147402701E+04 0.  0.
   -9000010    2    1    2    0  501 -0.85953065406E+03 -0.92303096806E+03 -0.28486233995E+03  0.16392242030E+04  0.10075367595E+04 0.  0.
        -13    1    3    3    0    0  0.26008373068E+03  0.78571190405E+03  0.41044292514E+01  0.82764944308E+03  0.10566000000E+00 0.  1.
          4    1    3    3  502    0  0.59944692337E+03  0.13731906401E+03  0.71666035677E+03  0.94434909130E+03  0.00000000000E+00 0.  1.
         13    1    4    4    0    0 -0.22126811381E+03  0.17123773888E+03 -0.24482864820E+03  0.37178356547E+03  0.10566000000E+00 0. -1.
         -4    1    4    4    0  501 -0.63826254024E+03 -0.10942687069E+04 -0.40033691747E+02  0.12674406376E+04  0.00000000000E+00 0. -1.
<mgrwt>
<rscale>  2 0.16165343E+04</rscale>
<asrwt>0</asrwt>
<pdfrwt beam="1">  1        1 0.29593271E+00 0.16165343E+04</pdfrwt>
<pdfrwt beam="2">  1       -1 0.22887079E+00 0.16165343E+04</pdfrwt>
<totfact> 0.29132915E-01</totfact>
</mgrwt>
</event>
<event>
 8    1  0.1439553E-005  0.1213503E+04  0.7818608E-02  0.8596463E-01
         -4   -1    0    0    0  501 -0.00000000000E+00  0.00000000000E+00  0.14061001447E+04  0.14061001447E+04  0.00000000000E+00 0. -1.
          4   -1    0    0  502    0  0.00000000000E+00 -0.00000000000E+00 -0.17142314911E+04  0.17142314911E+04  0.00000000000E+00 0.  1.
    9000010    2    1    2  502    0  0.20215820570E+03  0.51287189790E+03 -0.11263155476E+04  0.16479349037E+04  0.10692040079E+04 0.  0.
   -9000010    2    1    2    0  501 -0.20215820570E+03 -0.51287189790E+03  0.81818420108E+03  0.14723967321E+04  0.10929872945E+04 0.  0.
        -13    1    3    3    0    0  0.27669742116E+03 -0.11086154388E+03 -0.94973926154E+03  0.99541771175E+03  0.10566000000E+00 0.  1.
          4    1    3    3  502    0 -0.74539215464E+02  0.62373344178E+03 -0.17657628602E+03  0.65251719198E+03  0.00000000000E+00 0.  1.
         13    1    4    4    0    0  0.27091991987E+02 -0.13551396434E+03  0.98926759514E+03  0.99887356383E+03  0.10566000000E+00 0. -1.
         -4    1    4    4    0  501 -0.22925019768E+03 -0.37735793356E+03 -0.17108339406E+03  0.47352316826E+03  0.00000000000E+00 0. -1.
<mgrwt>
<rscale>  2 0.12135033E+04</rscale>
<asrwt>0</asrwt>
<pdfrwt beam="2">  1        4 0.26372792E+00 0.12135033E+04</pdfrwt>
<pdfrwt beam="1">  1       -4 0.21632310E+00 0.12135033E+04</pdfrwt>
<totfact> 0.11347221E-01</totfact>
</mgrwt>
</event>
<event>
 8    1  0.1439553E-005  0.1488453E+04  0.7818608E-02  0.8416175E-01
         -2   -1    0    0    0  501 -0.00000000000E+00  0.00000000000E+00  0.34603631079E+04  0.34603631079E+04  0.00000000000E+00 0.  1.
          2   -1    0    0  502    0  0.00000000000E+00 -0.00000000000E+00 -0.91948212259E+03  0.91948212259E+03  0.00000000000E+00 0. -1.
    9000010    2    1    2  502    0 -0.90941800399E+03 -0.62710759520E+03  0.24715903544E+04  0.28803496618E+04  0.98353965469E+03 0.  0.
   -9000010    2    1    2    0  501  0.90941800399E+03  0.62710759520E+03  0.69290630850E+02  0.14994955686E+04  0.10116228185E+04 0.  0.
        -13    1    3    3    0    0 -0.22099026226E+03 -0.32487980825E+02  0.16165572447E+04  0.16319158990E+04  0.10566000000E+00 0.  1.
          4    1    3    3  502    0 -0.68842774173E+03 -0.59461961437E+03  0.85503310971E+03  0.12484337628E+04  0.00000000000E+00 0.  1.
         13    1    4    4    0    0 -0.88276878678E+02  0.23520399890E+03 -0.27612639967E+03  0.37330889109E+03  0.10566000000E+00 0. -1.
         -4    1    4    4    0  501  0.99769488267E+03  0.39190359630E+03  0.34541703052E+03  0.11261866775E+04  0.00000000000E+00 0. -1.
<mgrwt>
<rscale>  2 0.14884534E+04</rscale>
<asrwt>0</asrwt>
<pdfrwt beam="2">  1        2 0.14145879E+00 0.14884534E+04</pdfrwt>
<pdfrwt beam="1">  1       -2 0.53236355E+00 0.14884534E+04</pdfrwt>
<totfact> 0.12837813E-01</totfact>
</mgrwt>
</event>
<event>
 8    1  0.1439553E-005  0.1139244E+04  0.7818608E-02  0.8653773E-01
          1   -1    0    0  502    0  0.00000000000E+00  0.00000000000E+00  0.15263923641E+04  0.15263923641E+04  0.00000000000E+00 0.  1.
         -1   -1    0    0    0  501 -0.00000000000E+00 -0.00000000000E+00 -0.10741070638E+04  0.10741070638E+04  0.00000000000E+00 0. -1.
    9000010    2    1    2  502    0 -0.27047021052E+03 -0.48387187453E+03  0.81952216823E+03  0.14025731896E+04  0.99413723515E+03 0.  0.
   -9000010    2    1    2    0  501  0.27047021052E+03  0.48387187453E+03 -0.36723686797E+03  0.11979262383E+04  0.99643275213E+03 0.  0.
        -13    1    3    3    0    0 -0.51299432730E+03  0.22255801630E+02  0.62434088291E+03  0.80836875854E+03  0.10566000000E+00 0.  1.
          4    1    3    3  502    0  0.24252411678E+03 -0.50612767616E+03  0.19518128532E+03  0.59420443110E+03  0.00000000000E+00 0.  1.
         13    1    4    4    0    0  0.17102144885E+02  0.70301650417E+03 -0.47199288627E+03  0.84693682430E+03  0.10566000000E+00 0. -1.
         -4    1    4    4    0  501  0.25336806563E+03 -0.21914462964E+03  0.10475601830E+03  0.35098941402E+03  0.00000000000E+00 0. -1.
<mgrwt>
<rscale>  2 0.11392443E+04</rscale>
<asrwt>0</asrwt>
<pdfrwt beam="1">  1        1 0.23482960E+00 0.11392443E+04</pdfrwt>
<pdfrwt beam="2">  1       -1 0.16524724E+00 0.11392443E+04</pdfrwt>
<totfact> 0.22863339E+00</totfact>
</mgrwt>
</event>
<event>
 8    1  0.1439553E-005  0.1071759E+04  0.7818608E-02  0.8709943E-01
         -1   -1    0    0    0  501 -0.00000000000E+00  0.00000000000E+00  0.10094947855E+04  0.10094947855E+04  0.00000000000E+00 0.  1.
          1   -1    0    0  502    0  0.00000000000E+00 -0.00000000000E+00 -0.11449389665E+04  0.11449389665E+04  0.00000000000E+00 0. -1.
    9000010    2    1    2  502    0  0.25792720457E+03 -0.27166760450E+03 -0.15134132503E+03  0.10734178057E+04  0.99448069798E+03 0.  0.
   -9000010    2    1    2    0  501 -0.25792720457E+03  0.27166760450E+03  0.15897144055E+02  0.10810159464E+04  0.10139097726E+04 0.  0.
        -13    1    3    3    0    0 -0.28552616008E+03  0.18325255588E+03  0.33670046284E+02  0.34094042076E+03  0.10566000000E+00 0.  1.
          4    1    3    3  502    0  0.54345336465E+03 -0.45492016038E+03 -0.18501137132E+03  0.73247738490E+03  0.00000000000E+00 0.  1.
         13    1    4    4    0    0  0.24528654142E+03  0.46150863304E+03  0.11240413449E+03  0.53459368345E+03  0.10566000000E+00 0. -1.
         -4    1    4    4    0  501 -0.50321374599E+03 -0.18984102853E+03 -0.96506990439E+02  0.54642226297E+03  0.00000000000E+00 0. -1.
<mgrwt>
<rscale>  2 0.10717586E+04</rscale>
<asrwt>0</asrwt>
<pdfrwt beam="2">  1        1 0.17614446E+00 0.10717586E+04</pdfrwt>
<pdfrwt beam="1">  1       -1 0.15530689E+00 0.10717586E+04</pdfrwt>
<totfact> 0.54516616E+00</totfact>
</mgrwt>
</event>
<event>
 8    1  0.1439553E-005  0.2285452E+04  0.7818608E-02  0.8061169E-01
         -2   -1    0    0    0  501 -0.00000000000E+00  0.00000000000E+00  0.35838052937E+04  0.35838052937E+04  0.00000000000E+00 0. -1.
          2   -1    0    0  502    0  0.00000000000E+00 -0.00000000000E+00 -0.14580549950E+04  0.14580549950E+04  0.00000000000E+00 0.  1.
    9000010    2    1    2  502    0 -0.96992126735E+03  0.18124509421E+04  0.11119455850E+04  0.25391213785E+04  0.99246597346E+03 0.  0.
   -9000010    2    1    2    0  501  0.96992126735E+03 -0.18124509421E+04  0.10138047137E+04  0.25027389102E+04  0.10050753070E+04 0.  0.
        -13    1    3    3    0    0 -0.57769816533E+03  0.17669471209E+04  0.75368472369E+03  0.20059606108E+04  0.10566000000E+00 0.  1.
          4    1    3    3  502    0 -0.39222310202E+03  0.45503821234E+02  0.35826086127E+03  0.53316076771E+03  0.00000000000E+00 0.  1.
         13    1    4    4    0    0 -0.99950393336E+02 -0.59877233357E+03  0.27050075422E+02  0.60765953158E+03  0.10566000000E+00 0. -1.
         -4    1    4    4    0  501  0.10698716607E+04 -0.12136786085E+04  0.98675463830E+03  0.18950793786E+04  0.00000000000E+00 0. -1.
<mgrwt>
<rscale>  2 0.22854525E+04</rscale>
<asrwt>0</asrwt>
<pdfrwt beam="2">  1        2 0.22431615E+00 0.22854525E+04</pdfrwt>
<pdfrwt beam="1">  1       -2 0.55135466E+00 0.22854525E+04</pdfrwt>
<totfact> 0.71329619E-02</totfact>
</mgrwt>
</event>
<event>
 8    1  0.1439553E-005  0.1054724E+04  0.7818608E-02  0.8724806E-01
         -2   -1    0    0    0  501 -0.00000000000E+00  0.00000000000E+00  0.56193231554E+03  0.56193231554E+03  0.00000000000E+00 0.  1.
          2   -1    0    0  502    0  0.00000000000E+00 -0.00000000000E+00 -0.23131823788E+04  0.23131823788E+04  0.00000000000E+00 0. -1.
    9000010    2    1    2  502    0 -0.26206252693E+03 -0.99702696649E+02 -0.14166007194E+04  0.17621139982E+04  0.10097874768E+04 0.  0.
   -9000010    2    1    2    0  501  0.26206252693E+03  0.99702696649E+02 -0.33464934386E+03  0.11130006962E+04  0.10237983057E+04 0.  0.
        -13    1    3    3    0    0  0.37105353817E+03 -0.14776955668E+03 -0.41302269856E+03  0.57454706575E+03  0.10566000000E+00 0.  1.
          4    1    3    3  502    0 -0.63311606510E+03  0.48066860035E+02 -0.10035780209E+04  0.11875669324E+04  0.00000000000E+00 0.  1.
         13    1    4    4    0    0  0.47637808533E+02  0.43678579943E+03 -0.51304579258E+03  0.67547553015E+03  0.10566000000E+00 0. -1.
         -4    1    4    4    0  501  0.21442471840E+03 -0.33708310278E+03  0.17839644872E+03  0.43752516608E+03  0.00000000000E+00 0. -1.
<mgrwt>
<rscale>  2 0.10547242E+04</rscale>
<asrwt>0</asrwt>
<pdfrwt beam="2">  1        2 0.35587421E+00 0.10547242E+04</pdfrwt>
<pdfrwt beam="1">  1       -2 0.86451126E-01 0.10547242E+04</pdfrwt>
<totfact> 0.80542756E+00</totfact>
</mgrwt>
</event>
<event>
 8    1  0.1439553E-005  0.1701083E+04  0.7818608E-02  0.8302326E-01
          1   -1    0    0  502    0  0.00000000000E+00  0.00000000000E+00  0.98084351393E+03  0.98084351393E+03  0.00000000000E+00 0.  1.
         -1   -1    0    0    0  501 -0.00000000000E+00 -0.00000000000E+00 -0.34692066645E+04  0.34692066645E+04  0.00000000000E+00 0. -1.
    9000010    2    1    2  502    0 -0.92228851378E+03  0.10351849380E+04 -0.20989141731E+04  0.26958498344E+04  0.96950588697E+03 0.  0.
   -9000010    2    1    2    0  501  0.92228851378E+03 -0.10351849380E+04 -0.38944897742E+03  0.17542003440E+04  0.10016608120E+04 0.  0.
        -13    1    3    3    0    0  0.10612690298E+03  0.46160540396E+03 -0.89017472608E+03  0.10083419671E+04  0.10566000000E+00 0.  1.
          4    1    3    3  502    0 -0.10284154168E+04  0.57357953408E+03 -0.12087394471E+04  0.16875078673E+04  0.00000000000E+00 0.  1.
         13    1    4    4    0    0  0.36037333155E+03 -0.26742602772E+03 -0.62938746201E+03  0.77299043131E+03  0.10566000000E+00 0. -1.
         -4    1    4    4    0  501  0.56191518223E+03 -0.76775891033E+03  0.23993848458E+03  0.98120991270E+03  0.00000000000E+00 0. -1.
<mgrwt>
<rscale>  2 0.17010830E+04</rscale>
<asrwt>0</asrwt>
<pdfrwt beam="1">  1        1 0.15089900E+00 0.17010830E+04</pdfrwt>
<pdfrwt beam="2">  1       -1 0.53372410E+00 0.17010830E+04</pdfrwt>
<totfact> 0.14079284E-01</totfact>
</mgrwt>
</event>
<event>
 8    1  0.1439553E-005  0.1511405E+04  0.7818608E-02  0.8402966E-01
          2   -1    0    0  502    0  0.00000000000E+00  0.00000000000E+00  0.16276410157E+04  0.16276410157E+04  0.00000000000E+00 0. -1.
         -2   -1    0    0    0  501 -0.00000000000E+00 -0.00000000000E+00 -0.14314547505E+04  0.14314547505E+04  0.00000000000E+00 0.  1.
    9000010    2    1    2  502    0  0.33886689389E+03 -0.10745032136E+04  0.31227569803E+03  0.15498977878E+04  0.10174866649E+04 0.  0.
   -9000010    2    1    2    0  501 -0.33886689389E+03  0.10745032136E+04 -0.11608943277E+03  0.15091979784E+04  0.99740355614E+03 0.  0.
        -13    1    3    3    0    0  0.31776311305E+03 -0.71223266565E+03 -0.30208878702E+03  0.83636499953E+03  0.10566000000E+00 0.  1.
          4    1    3    3  502    0  0.21103780846E+02 -0.36227054793E+03  0.61436448505E+03  0.71353278829E+03  0.00000000000E+00 0.  1.
         13    1    4    4    0    0 -0.38536088118E+03  0.32764603785E+03 -0.46177921497E+03  0.68490509518E+03  0.10566000000E+00 0. -1.
         -4    1    4    4    0  501  0.46493987289E+02  0.74685717573E+03  0.34568978220E+03  0.82429288321E+03  0.00000000000E+00 0. -1.
<mgrwt>
<rscale>  2 0.15114049E+04</rscale>
<asrwt>0</asrwt>
<pdfrwt beam="1">  1        2 0.25040631E+00 0.15114049E+04</pdfrwt>
<pdfrwt beam="2">  1       -2 0.22022381E+00 0.15114049E+04</pdfrwt>
<totfact> 0.11173001E+00</totfact>
</mgrwt>
</event>
<event>
 8    1  0.1439553E-005  0.1075849E+04  0.7818608E-02  0.8706417E-01
         -1   -1    0    0    0  501 -0.00000000000E+00  0.00000000000E+00  0.77532579385E+03  0.77532579385E+03  0.00000000000E+00 0. -1.
          1   -1    0    0  502    0  0.00000000000E+00 -0.00000000000E+00 -0.16067239395E+04  0.16067239395E+04  0.00000000000E+00 0.  1.
    9000010    2    1    2  502    0  0.34315190271E+03 -0.11721522358E+01 -0.73753738994E+03  0.13163747294E+04  0.10349523778E+04 0.  0.
   -9000010    2    1    2    0  501 -0.34315190271E+03  0.11721522358E+01 -0.93860755743E+02  0.10656750040E+04  0.10045390836E+04 0.  0.
        -13    1    3    3    0    0  0.45823801176E+03 -0.33975231659E+03 -0.76889309911E+03  0.95739768178E+03  0.10566000000E+00 0.  1.
          4    1    3    3  502    0 -0.11508610906E+03  0.33858016435E+03  0.31355709169E+02  0.35897704758E+03  0.00000000000E+00 0.  1.
         13    1    4    4    0    0 -0.77942890565E+02 -0.18772643036E+03 -0.50315671966E+03  0.54266288112E+03  0.10566000000E+00 0. -1.
         -4    1    4    4    0  501 -0.26520901214E+03  0.18889858259E+03  0.40929596392E+03  0.52301212290E+03  0.00000000000E+00 0. -1.
<mgrwt>
<rscale>  2 0.10758493E+04</rscale>
<asrwt>0</asrwt>
<pdfrwt beam="2">  1        1 0.24718830E+00 0.10758493E+04</pdfrwt>
<pdfrwt beam="1">  1       -1 0.11928089E+00 0.10758493E+04</pdfrwt>
<totfact> 0.50511353E+00</totfact>
</mgrwt>
</event>
<event>
 8    1  0.1439553E-005  0.9803584E+03  0.7818608E-02  0.8793268E-01
         -2   -1    0    0    0  501 -0.00000000000E+00  0.00000000000E+00  0.81746286500E+03  0.81746286500E+03  0.00000000000E+00 0.  1.
          2   -1    0    0  502    0  0.00000000000E+00 -0.00000000000E+00 -0.11794934791E+04  0.11794934791E+04  0.00000000000E+00 0. -1.
    9000010    2    1    2  502    0 -0.11423834608E+03 -0.39746206875E+01 -0.12750813486E+03  0.99923995919E+03  0.98445719778E+03 0.  0.
   -9000010    2    1    2    0  501  0.11423834608E+03  0.39746206875E+01 -0.23452247925E+03  0.99771638493E+03  0.96300103539E+03 0.  0.
        -13    1    3    3    0    0 -0.10108956575E+02 -0.47195417214E+03 -0.20308798835E+03  0.51389461349E+03  0.10566000000E+00 0.  1.
          4    1    3    3  502    0 -0.10412938950E+03  0.46797955145E+03  0.75579853484E+02  0.48534534569E+03  0.00000000000E+00 0.  1.
         13    1    4    4    0    0 -0.16251970999E+03  0.24180358869E+03 -0.47746536470E+03  0.55933426257E+03  0.10566000000E+00 0. -1.
         -4    1    4    4    0  501  0.27675805607E+03 -0.23782896800E+03  0.24294288545E+03  0.43838212236E+03  0.00000000000E+00 0. -1.
<mgrwt>
<rscale>  2 0.98035842E+03</rscale>
<asrwt>0</asrwt>
<pdfrwt beam="2">  1        2 0.18146054E+00 0.98035842E+03</pdfrwt>
<pdfrwt beam="1">  1       -2 0.12576352E+00 0.98035842E+03</pdfrwt>
<totfact> 0.13469539E+01</totfact>
</mgrwt>
</event>
<event>
 8    1  0.1439553E-005  0.1276884E+04  0.7818608E-02  0.8550812E-01
          2   -1    0    0  502    0  0.00000000000E+00  0.00000000000E+00  0.44230439427E+04  0.44230439427E+04  0.00000000000E+00 0.  1.
         -2   -1    0    0    0  501 -0.00000000000E+00 -0.00000000000E+00 -0.37798943393E+03  0.37798943393E+03  0.00000000000E+00 0. -1.
    9000010    2    1    2  502    0 -0.72840491438E+03 -0.32418638695E+03  0.23999646779E+04  0.27183655682E+04  0.99700068934E+03 0.  0.
   -9000010    2    1    2    0  501  0.72840491438E+03  0.32418638695E+03  0.16450898308E+04  0.20826678084E+04  0.99775453680E+03 0.  0.
        -13    1    3    3    0    0 -0.73509834098E+03 -0.59595432900E+03  0.14598880059E+04  0.17397712879E+04  0.10566000000E+00 0.  1.
          4    1    3    3  502    0  0.66934266012E+01  0.27176794205E+03  0.94007667203E+03  0.97859428037E+03  0.00000000000E+00 0.  1.
         13    1    4    4    0    0  0.77081000208E+03  0.14671731285E+03  0.51641546877E+03  0.93933964930E+03  0.10566000000E+00 0. -1.
         -4    1    4    4    0  501 -0.42405087700E+02  0.17746907409E+03  0.11286743621E+04  0.11433281591E+04  0.00000000000E+00 0. -1.
<mgrwt>
<rscale>  2 0.12768839E+04</rscale>
<asrwt>0</asrwt>
<pdfrwt beam="1">  1        2 0.68046826E+00 0.12768839E+04</pdfrwt>
<pdfrwt beam="2">  1       -2 0.58152224E-01 0.12768839E+04</pdfrwt>
<totfact> 0.54033088E-01</totfact>
</mgrwt>
</event>
